<LesHouchesEvents version="3.0">
<header>
<!--
#*********************************************************************
#                                                                    *
#                        MadGraph5_aMC@NLO                           *
#                                                                    *
#                           Going Beyond                             *
#                                                                    *
#                   http://madgraph.hep.uiuc.edu                     *
#                   http://madgraph.phys.ucl.ac.be                   *
#                   http://amcatnlo.cern.ch                          *
#                                                                    *
#                     The MadGraph5_aMC@NLO team                     *
#                                                                    *
#....................................................................*
#                                                                    *
# This file contains all the information necessary to reproduce      *
# the events generated:                                              *
#                                                                    *
# 1. software version                                                *
# 2. proc_card          : code generation info including model       *
# 3. param_card         : model primary parameters in the LH format  *
# 4. run_card           : running parameters (collider and cuts)     *
# 5. pythia_card        : present only if pythia has been run        *
# 6. pgs_card           : present only if pgs has been run           *
# 7. delphes_cards      : present only if delphes has been run       *
#                                                                    *
#                                                                    *
#*********************************************************************
-->
<MGVersion>
#5.2.2.3
</MGVersion>
<MG5ProcCard>
#************************************************************
#*                     MadGraph5_aMC@NLO                    *
#*                                                          *
#*                *                       *                 *
#*                  *        * *        *                   *
#*                    * * * * 5 * * * *                     *
#*                  *        * *        *                   *
#*                *                       *                 *
#*                                                          *
#*                                                          *
#*         VERSION 2.2.3                 2015-02-10         *
#*                                                          *
#*    The MadGraph5_aMC@NLO Development Team - Find us at   *
#*    https://server06.fynu.ucl.ac.be/projects/madgraph     *
#*                                                          *
#************************************************************
#*                                                          *
#*               Command File for MadGraph5_aMC@NLO         *
#*                                                          *
#*     run as ./bin/mg5_aMC  filename                       *
#*                                                          *
#************************************************************
set group_subprocesses Auto
set ignore_six_quark_processes False
set loop_optimized_output True
set gauge unitary
set complex_mass_scheme False
import model sm
define p = g u c d s u~ c~ d~ s~
define j = g u c d s u~ c~ d~ s~
define l+ = e+ mu+
define l- = e- mu-
define vl = ve vm vt
define vl~ = ve~ vm~ vt~
import model Zprime_UFO
generate p p > zph, zph > j j
add process p p > zph, zph > b b~
output Dijet_signal
</MG5ProcCard>
<MGProcCard>
#*********************************************************************
#                        MadGraph/MadEvent                           *
#                   http://madgraph.hep.uiuc.edu                     *
#                                                                    *
#                          proc_card.dat                             *
#*********************************************************************
#                                                                    *
#            This Files is generated by MADGRAPH 5                   *
#                                                                    *
# WARNING: This Files is generated for MADEVENT (compatibility issue)*
#          This files is NOT a valid MG4 proc_card.dat               *
#          Running this in MG4 will NEVER reproduce the result of MG5*
#                                                                    *
#*********************************************************************
#*********************************************************************
# Process(es) requested : mg2 input                                  *
#*********************************************************************
# Begin PROCESS # This is TAG. Do not modify this line
p p > zph , zph > j j           #Process
# Be carefull the coupling are here in MG5 convention
          
end_coup           # End the couplings input

done               # this tells MG there are no more procs
# End PROCESS  # This is TAG. Do not modify this line
#*********************************************************************
# Model information                                                  *
#*********************************************************************
# Begin MODEL  # This is TAG. Do not modify this line
Zprime_UFO
# End   MODEL  # This is TAG. Do not modify this line
#*********************************************************************
# Start multiparticle definitions                                    *
#*********************************************************************
# Begin MULTIPARTICLES # This is TAG. Do not modify this line

# End  MULTIPARTICLES # This is TAG. Do not modify this line
</MGProcCard>
<MGRunCard>
#*********************************************************************
#                       MadGraph5_aMC@NLO                            *
#                                                                    *
#                     run_card.dat MadEvent                          *
#                                                                    *
#  This file is used to set the parameters of the run.               *
#                                                                    *
#  Some notation/conventions:                                        *
#                                                                    *
#   Lines starting with a '# ' are info or comments                  *
#                                                                    *
#   mind the format:   value    = variable     ! comment             *
#*********************************************************************
#
#*******************                                                 
# Running parameters
#*******************                                                 
#                                                                    
#*********************************************************************
# Tag name for the run (one word)                                    *
#*********************************************************************
  tag_1     = run_tag ! name of the run 
#*********************************************************************
# Run to generate the grid pack                                      *
#*********************************************************************
  .false.     = gridpack  !True = setting up the grid pack
#*********************************************************************
# Number of events and rnd seed                                      *
# Warning: Do not generate more than 1M events in a single run       *
# If you want to run Pythia, avoid more than 50k events in a run.    *
#*********************************************************************
  2000 = nevents ! Number of unweighted events requested 
 1299 = iseed   ! rnd seed (0=assigned automatically=default))
#*********************************************************************
# Collider type and energy                                           *
# lpp: 0=No PDF, 1=proton, -1=antiproton, 2=photon from proton,      *
#                                         3=photon from electron     *
#*********************************************************************
        1     = lpp1    ! beam 1 type 
        1     = lpp2    ! beam 2 type
     4000     = ebeam1  ! beam 1 total energy in GeV
     4000     = ebeam2  ! beam 2 total energy in GeV
#*********************************************************************
# Beam polarization from -100 (left-handed) to 100 (right-handed)    *
#*********************************************************************
        0     = polbeam1 ! beam polarization for beam 1
        0     = polbeam2 ! beam polarization for beam 2
#*********************************************************************
# PDF CHOICE: this automatically fixes also alpha_s and its evol.    *
#*********************************************************************
 'nn23lo1'    = pdlabel     ! PDF set                                     
 230000    = lhaid     ! if pdlabel=lhapdf, this is the lhapdf number
#*********************************************************************
# Renormalization and factorization scales                           *
#*********************************************************************
 F        = fixed_ren_scale  ! if .true. use fixed ren scale
 F        = fixed_fac_scale  ! if .true. use fixed fac scale
 91.1880  = scale            ! fixed ren scale
 91.1880  = dsqrt_q2fact1    ! fixed fact scale for pdf1
 91.1880  = dsqrt_q2fact2    ! fixed fact scale for pdf2
 1        = scalefact        ! scale factor for event-by-event scales
#*********************************************************************
# Matching - Warning! ickkw > 1 is still beta
#*********************************************************************
 0        = ickkw            ! 0 no matching, 1 MLM, 2 CKKW matching
 1        = highestmult      ! for ickkw=2, highest mult group
 1        = ktscheme         ! for ickkw=1, 1 Durham kT, 2 Pythia pTE
 1        = alpsfact         ! scale factor for QCD emission vx
 F        = chcluster        ! cluster only according to channel diag
 T        = pdfwgt           ! for ickkw=1, perform pdf reweighting
 5        = asrwgtflavor     ! highest quark flavor for a_s reweight
 T        = clusinfo         ! include clustering tag in output
 3.0      = lhe_version       ! Change the way clustering information pass to shower.        
#*********************************************************************
#**********************************************************
#
#**********************************************************
# Automatic ptj and mjj cuts if xqcut > 0
# (turn off for VBF and single top processes)
#**********************************************************
   T  = auto_ptj_mjj  ! Automatic setting of ptj and mjj
#**********************************************************
#                                                                    
#**********************************
# BW cutoff (M+/-bwcutoff*Gamma)
#**********************************
  15  = bwcutoff      ! (M+/-bwcutoff*Gamma)
#**********************************************************
# Apply pt/E/eta/dr/mij cuts on decay products or not
# (note that etmiss/ptll/ptheavy/ht/sorted cuts always apply)
#**********************************************************
   T  = cut_decays    ! Cut decay products 
#*************************************************************
# Number of helicities to sum per event (0 = all helicities)
# 0 gives more stable result, but longer run time (needed for
# long decay chains e.g.).
# Use >=2 if most helicities contribute, e.g. pure QCD.
#*************************************************************
   0  = nhel          ! Number of helicities used per event
#*******************                                                 
# Standard Cuts
#*******************                                                 
#                                                                    
#*********************************************************************
# Minimum and maximum pt's (for max, -1 means no cut)                *
#*********************************************************************
 20  = ptj       ! minimum pt for the jets 
  0  = ptb       ! minimum pt for the b 
 10  = pta       ! minimum pt for the photons 
 10  = ptl       ! minimum pt for the charged leptons 
  0  = misset    ! minimum missing Et (sum of neutrino's momenta)
  0  = ptheavy   ! minimum pt for one heavy final state
 1.0 = ptonium   ! minimum pt for the quarkonium states
 -1  = ptjmax    ! maximum pt for the jets
 -1  = ptbmax    ! maximum pt for the b
 -1  = ptamax    ! maximum pt for the photons
 -1  = ptlmax    ! maximum pt for the charged leptons
 -1  = missetmax ! maximum missing Et (sum of neutrino's momenta)
#*********************************************************************
# Minimum and maximum E's (in the center of mass frame)              *
#*********************************************************************
  0  = ej     ! minimum E for the jets 
  0  = eb     ! minimum E for the b 
  0  = ea     ! minimum E for the photons 
  0  = el     ! minimum E for the charged leptons 
 -1   = ejmax ! maximum E for the jets
 -1   = ebmax ! maximum E for the b
 -1   = eamax ! maximum E for the photons
 -1   = elmax ! maximum E for the charged leptons
#*********************************************************************
# Maximum and minimum absolute rapidity (for max, -1 means no cut)   *
#*********************************************************************
   5  = etaj    ! max rap for the jets 
  -1  = etab    ! max rap for the b
 2.5  = etaa    ! max rap for the photons 
 2.5  = etal    ! max rap for the charged leptons 
 0.6  = etaonium ! max rap for the quarkonium states
   0  = etajmin ! min rap for the jets
   0  = etabmin ! min rap for the b
   0  = etaamin ! min rap for the photons
   0  = etalmin ! main rap for the charged leptons
#*********************************************************************
# Minimum and maximum DeltaR distance                                *
#*********************************************************************
 0.4 = drjj    ! min distance between jets 
 0   = drbb    ! min distance between b's 
 0.4 = drll    ! min distance between leptons 
 0.4 = draa    ! min distance between gammas 
 0   = drbj    ! min distance between b and jet 
 0.4 = draj    ! min distance between gamma and jet 
 0.4 = drjl    ! min distance between jet and lepton 
 0   = drab    ! min distance between gamma and b 
 0   = drbl    ! min distance between b and lepton 
 0.4 = dral    ! min distance between gamma and lepton 
 -1  = drjjmax ! max distance between jets
 -1  = drbbmax ! max distance between b's
 -1  = drllmax ! max distance between leptons
 -1  = draamax ! max distance between gammas
 -1  = drbjmax ! max distance between b and jet
 -1  = drajmax ! max distance between gamma and jet
 -1  = drjlmax ! max distance between jet and lepton
 -1  = drabmax ! max distance between gamma and b
 -1  = drblmax ! max distance between b and lepton
 -1  = dralmax ! maxdistance between gamma and lepton
#*********************************************************************
# Minimum and maximum invariant mass for pairs                       *
# WARNING: for four lepton final state mmll cut require to have      *
#          different lepton masses for each flavor!                  *           
#*********************************************************************
 0   = mmjj    ! min invariant mass of a jet pair 
 0   = mmbb    ! min invariant mass of a b pair 
 0   = mmaa    ! min invariant mass of gamma gamma pair
 0   = mmll    ! min invariant mass of l+l- (same flavour) lepton pair
 -1  = mmjjmax ! max invariant mass of a jet pair
 -1  = mmbbmax ! max invariant mass of a b pair
 -1  = mmaamax ! max invariant mass of gamma gamma pair
 -1  = mmllmax ! max invariant mass of l+l- (same flavour) lepton pair
#*********************************************************************
# Minimum and maximum invariant mass for all letpons                 *
#*********************************************************************
 0   = mmnl    ! min invariant mass for all letpons (l+- and vl) 
 -1  = mmnlmax ! max invariant mass for all letpons (l+- and vl) 
#*********************************************************************
# Minimum and maximum pt for 4-momenta sum of leptons                *
#*********************************************************************
 0   = ptllmin  ! Minimum pt for 4-momenta sum of leptons(l and vl)
 -1  = ptllmax  ! Maximum pt for 4-momenta sum of leptons(l and vl)
#*********************************************************************
# Inclusive cuts                                                     *
#*********************************************************************
 0  = xptj ! minimum pt for at least one jet  
 0  = xptb ! minimum pt for at least one b 
 0  = xpta ! minimum pt for at least one photon 
 0  = xptl ! minimum pt for at least one charged lepton 
#*********************************************************************
# Control the pt's of the jets sorted by pt                          *
#*********************************************************************
 0   = ptj1min ! minimum pt for the leading jet in pt
 0   = ptj2min ! minimum pt for the second jet in pt
 0   = ptj3min ! minimum pt for the third jet in pt
 0   = ptj4min ! minimum pt for the fourth jet in pt
 -1  = ptj1max ! maximum pt for the leading jet in pt 
 -1  = ptj2max ! maximum pt for the second jet in pt
 -1  = ptj3max ! maximum pt for the third jet in pt
 -1  = ptj4max ! maximum pt for the fourth jet in pt
 0   = cutuse  ! reject event if fails any (0) / all (1) jet pt cuts
#*********************************************************************
# Control the pt's of leptons sorted by pt                           *
#*********************************************************************
 0   = ptl1min ! minimum pt for the leading lepton in pt
 0   = ptl2min ! minimum pt for the second lepton in pt
 0   = ptl3min ! minimum pt for the third lepton in pt
 0   = ptl4min ! minimum pt for the fourth lepton in pt
 -1  = ptl1max ! maximum pt for the leading lepton in pt 
 -1  = ptl2max ! maximum pt for the second lepton in pt
 -1  = ptl3max ! maximum pt for the third lepton in pt
 -1  = ptl4max ! maximum pt for the fourth lepton in pt
#*********************************************************************
# Control the Ht(k)=Sum of k leading jets                            *
#*********************************************************************
 0   = htjmin ! minimum jet HT=Sum(jet pt)
 -1  = htjmax ! maximum jet HT=Sum(jet pt)
 0   = ihtmin  !inclusive Ht for all partons (including b)
 -1  = ihtmax  !inclusive Ht for all partons (including b)
 0   = ht2min ! minimum Ht for the two leading jets
 0   = ht3min ! minimum Ht for the three leading jets
 0   = ht4min ! minimum Ht for the four leading jets
 -1  = ht2max ! maximum Ht for the two leading jets
 -1  = ht3max ! maximum Ht for the three leading jets
 -1  = ht4max ! maximum Ht for the four leading jets
#***********************************************************************
# Photon-isolation cuts, according to hep-ph/9801442                   *
# When ptgmin=0, all the other parameters are ignored                  *
# When ptgmin>0, pta and draj are not going to be used                 *
#***********************************************************************
   0 = ptgmin ! Min photon transverse momentum
 0.4 = R0gamma ! Radius of isolation code
 1.0 = xn ! n parameter of eq.(3.4) in hep-ph/9801442
 1.0 = epsgamma ! epsilon_gamma parameter of eq.(3.4) in hep-ph/9801442
 .true. = isoEM ! isolate photons from EM energy (photons and leptons)
#*********************************************************************
# WBF cuts                                                           *
#*********************************************************************
 0   = xetamin ! minimum rapidity for two jets in the WBF case  
 0   = deltaeta ! minimum rapidity for two jets in the WBF case 
#*********************************************************************
# KT DURHAM CUT                                                      *
#*********************************************************************
 -1    =  ktdurham        
 0.4  =  dparameter 
#*********************************************************************
# maximal pdg code for quark to be considered as a light jet         *
# (otherwise b cuts are applied)                                     *
#*********************************************************************
 4 = maxjetflavor    ! Maximum jet pdg code
#*********************************************************************
# Jet measure cuts                                                   *
#*********************************************************************
 0   = xqcut   ! minimum kt jet measure between partons
#*********************************************************************
#
#*********************************************************************
# Store info for systematics studies                                 *
# WARNING: If use_syst is T, matched Pythia output is                *
#          meaningful ONLY if plotted taking matchscale              *
#          reweighting into account!                                 *
#*********************************************************************
   F  = use_syst      ! Enable systematics studies
#
#**************************************
# Parameter of the systematics study
#  will be used by SysCalc (if installed)
#**************************************                                  
#
0.5 1 2 = sys_scalefact  # factorization/renormalization scale factor
0.5 1 2 = sys_alpsfact  # \alpha_s emission scale factors
30 50 = sys_matchscale # variation of merging scale
# PDF sets and number of members (0 or none for all members).
CT10nlo.LHgrid = sys_pdf # matching scales
# MSTW2008nlo68cl.LHgrid 1  = sys_pdf
</MGRunCard>
<slha>
######################################################################
## PARAM_CARD AUTOMATICALY GENERATED BY MG5 FOLLOWING UFO MODEL   ####
######################################################################
##                                                                  ##
##  Width set on Auto will be computed following the information    ##
##        present in the decay.py files of the model.               ##
##        See  arXiv:1402.1178 for more details.                    ##
##                                                                  ##
######################################################################

###################################
## INFORMATION FOR CKMBLOCK
###################################
Block ckmblock 
    1 2.277360e-01 # cabi 

###################################
## INFORMATION FOR FRBLOCK
###################################
Block frblock 
    1 6.000000e-01 # gz 

###################################
## INFORMATION FOR MASS
###################################
Block mass 
    1 5.040000e-03 # MD 
    2 2.550000e-03 # MU 
    3 1.010000e-01 # MS 
    4 1.270000e+00 # MC 
    5 4.700000e+00 # MB 
    6 1.720000e+02 # MT 
   11 5.110000e-04 # Me 
   13 1.056600e-01 # MM 
   15 1.777000e+00 # MTA 
   23 9.118760e+01 # MZ 
   25 1.200000e+02 # MH 
  10030 2.200000e+03 # MZph 
  10031 3.000000e+02 # MZpl 
## Dependent parameters, given by model restrictions.
## Those values should be edited following the 
## analytical expression. MG5 ignores those values 
## but they are important for interfacing the output of MG5
## to external program such as Pythia.
  12 0.000000 # ve : 0.0 
  14 0.000000 # vm : 0.0 
  16 0.000000 # vt : 0.0 
  21 0.000000 # g : 0.0 
  22 0.000000 # a : 0.0 
  24 79.824360 # w+ : cmath.sqrt(MZ__exp__2/2. + cmath.sqrt(MZ__exp__4/4. - (aEW*cmath.pi*MZ__exp__2)/(Gf*sqrt__2))) 

###################################
## INFORMATION FOR SMINPUTS
###################################
Block sminputs 
    1 1.279000e+02 # aEWM1 
    2 1.166370e-05 # Gf 
    3 1.184000e-01 # aS 

###################################
## INFORMATION FOR YUKAWA
###################################
Block yukawa 
    1 5.040000e-03 # ymdo 
    2 2.550000e-03 # ymup 
    3 1.010000e-01 # yms 
    4 1.270000e+00 # ymc 
    5 4.700000e+00 # ymb 
    6 1.720000e+02 # ymt 
   11 5.110000e-04 # yme 
   13 1.056600e-01 # ymm 
   15 1.777000e+00 # ymtau 

###################################
## INFORMATION FOR DECAY
###################################
DECAY   6 1.508336e+00 # WT 
DECAY  23 2.495200e+00 # WZ 
DECAY  24 2.085000e+00 # WW 
DECAY  25 5.753088e-03 # WH 
## Dependent parameters, given by model restrictions.
## Those values should be edited following the 
## analytical expression. MG5 ignores those values 
## but they are important for interfacing the output of MG5
## to external program such as Pythia.
DECAY  1 0.000000 # d : 0.0 
DECAY  2 0.000000 # u : 0.0 
DECAY  3 0.000000 # s : 0.0 
DECAY  4 0.000000 # c : 0.0 
DECAY  5 0.000000 # b : 0.0 
DECAY  11 0.000000 # e- : 0.0 
DECAY  12 0.000000 # ve : 0.0 
DECAY  13 0.000000 # mu- : 0.0 
DECAY  14 0.000000 # vm : 0.0 
DECAY  15 0.000000 # ta- : 0.0 
DECAY  16 0.000000 # vt : 0.0 
DECAY  21 0.000000 # g : 0.0 
DECAY  22 0.000000 # a : 0.0 
DECAY  10030 0.308725 # zph : (gz__exp__2*MZph*(5 + cmath.sqrt(1 - (4*MT__exp__2)/MZph__exp__2)))/(144.*cmath.pi) 
DECAY  10031 0.132629 # zpl : (5*gz__exp__2*MZpl)/(144.*cmath.pi) 
#===========================================================
# QUANTUM NUMBERS OF NEW STATE(S) (NON SM PDG CODE)
#===========================================================

Block QNUMBERS 10030  # zph 
        1 0  # 3 times electric charge
        2 3  # number of spin states (2S+1)
        3 1  # colour rep (1: singlet, 3: triplet, 8: octet)
        4 0  # Particle/Antiparticle distinction (0=own anti)
Block QNUMBERS 10031  # zpl 
        1 0  # 3 times electric charge
        2 3  # number of spin states (2S+1)
        3 1  # colour rep (1: singlet, 3: triplet, 8: octet)
        4 0  # Particle/Antiparticle distinction (0=own anti)
</slha>
## END BANNER##
<MGGenerationInfo>
#  Number of Events        :         3925
#  Integrated weight (pb)  :  0.64031E-02
#  Max wgt                 :  0.23197E-05
#  Average wgt             :  0.16314E-05
</MGGenerationInfo>
</header>
<init>
     2212     2212  0.40000000000E+04  0.40000000000E+04 0 0  247000  247000 2   1
  0.64047176910E-02  0.13861501111E-04  0.23197070000E-05   0
</init>
<event>
 5   0  0.2229552E-05  0.2171346E+04  0.7818609E-02  0.8530450E-01
        2   -1    0    0  501    0  0.00000000000E+00  0.00000000000E+00  0.18207506360E+04  0.18207506361E+04  0.25500000920E-02 0. -1.
       -2   -1    0    0    0  501  0.00000000000E+00  0.00000000000E+00 -0.64736258851E+03  0.64736258852E+03  0.25500000920E-02 0.  1.
    10030    2    1    2    0    0  0.00000000000E+00  0.00000000000E+00  0.11733880475E+04  0.24681132246E+04  0.21713459833E+04 0.  0.
        1    1    3    3  502    0 -0.13081814097E+03 -0.51339423213E+03  0.16638384356E+04  0.17461515866E+04  0.50400001928E-02 0. -1.
       -1    1    3    3    0  502  0.13081814097E+03  0.51339423213E+03 -0.49045038803E+03  0.72196163800E+03  0.50400001928E-02 0.  1.
</event>
<event>
 5   0  0.2229552E-05  0.2224543E+04  0.7818609E-02  0.8508282E-01
        2   -1    0    0  501    0  0.00000000000E+00  0.00000000000E+00  0.19791894176E+04  0.19791894176E+04  0.25500000920E-02 0. -1.
       -2   -1    0    0    0  501  0.00000000000E+00  0.00000000000E+00 -0.62507828102E+03  0.62507828102E+03  0.25500000920E-02 0.  1.
    10030    2    1    2    0    0  0.00000000000E+00  0.00000000000E+00  0.13541111366E+04  0.26042676986E+04  0.22245433859E+04 0.  0.
        1    1    3    3  502    0 -0.46304167417E+02 -0.27886541879E+03  0.19364336985E+04  0.19569582178E+04  0.50400001928E-02 0. -1.
       -1    1    3    3    0  502  0.46304167417E+02  0.27886541879E+03 -0.58232256193E+03  0.64730948076E+03  0.50400001928E-02 0.  1.
</event>
<event>
 5   0  0.2319707E-05  0.2202942E+04  0.7818609E-02  0.8517204E-01
        2   -1    0    0  501    0  0.00000000000E+00  0.00000000000E+00  0.67421571141E+03  0.67421571142E+03  0.25500000920E-02 0. -1.
       -2   -1    0    0    0  501  0.00000000000E+00  0.00000000000E+00 -0.17994813834E+04  0.17994813834E+04  0.25500000920E-02 0.  1.
    10030    2    1    2    0    0  0.00000000000E+00  0.00000000000E+00 -0.11252656720E+04  0.24736970948E+04  0.22029422336E+04 0.  0.
        3    1    3    3  502    0  0.13667813070E+03  0.24224324308E+03 -0.17593977672E+04  0.17812476565E+04  0.10100000352E+00 0.  1.
       -3    1    3    3    0  502 -0.13667813070E+03 -0.24224324308E+03  0.63413209524E+03  0.69244943833E+03  0.10100000352E+00 0. -1.
</event>
<event>
 5   0  0.2229552E-05  0.2085056E+04  0.7818609E-02  0.8567855E-01
       -2   -1    0    0    0  501  0.00000000000E+00  0.00000000000E+00  0.13481506829E+04  0.13481506829E+04  0.25500000920E-02 0.  1.
        2   -1    0    0  501    0  0.00000000000E+00  0.00000000000E+00 -0.80618906684E+03  0.80618906684E+03  0.25500000920E-02 0. -1.
    10030    2    1    2    0    0  0.00000000000E+00  0.00000000000E+00  0.54196161607E+03  0.21543397498E+04  0.20850557221E+04 0.  0.
        1    1    3    3  502    0 -0.56831396759E+03  0.86986965501E+03  0.35871622791E+03  0.10992412450E+04  0.50400001928E-02 0. -1.
       -1    1    3    3    0  502  0.56831396759E+03 -0.86986965501E+03  0.18324538816E+03  0.10550985048E+04  0.50400001928E-02 0.  1.
</event>
<event>
 5   0  0.2319707E-05  0.2197623E+04  0.7818609E-02  0.8519418E-01
       -2   -1    0    0    0  501  0.00000000000E+00  0.00000000000E+00  0.96124604523E+03  0.96124604523E+03  0.25500000920E-02 0. -1.
        2   -1    0    0  501    0  0.00000000000E+00  0.00000000000E+00 -0.12560643996E+04  0.12560643996E+04  0.25500000920E-02 0.  1.
    10030    2    1    2    0    0  0.00000000000E+00  0.00000000000E+00 -0.29481835434E+03  0.22173104448E+04  0.21976232040E+04 0.  0.
        3    1    3    3  502    0  0.25153954208E+03  0.74791757769E+03  0.62412021368E+03  0.10060710191E+04  0.10100000352E+00 0. -1.
       -3    1    3    3    0  502 -0.25153954208E+03 -0.74791757769E+03 -0.91893856802E+03  0.12112394256E+04  0.10100000352E+00 0.  1.
</event>
<event>
 5   0  0.1049198E-05  0.2243201E+04  0.7818609E-02  0.8500659E-01
        1   -1    0    0  501    0  0.00000000000E+00  0.00000000000E+00  0.23954088657E+04  0.23954088657E+04  0.50400001928E-02 0. -1.
       -1   -1    0    0    0  501  0.00000000000E+00  0.00000000000E+00 -0.52516609279E+03  0.52516609282E+03  0.50400001928E-02 0.  1.
    10030    2    1    2    0    0  0.00000000000E+00  0.00000000000E+00  0.18702427729E+04  0.29205749586E+04  0.22432008512E+04 0.  0.
        1    1    3    3  502    0 -0.25146944758E+02  0.29361802462E+02 -0.52429842710E+03  0.52572171817E+03  0.50400001928E-02 0.  1.
       -1    1    3    3    0  502  0.25146944758E+02 -0.29361802462E+02  0.23945412000E+04  0.23948532404E+04  0.50400001928E-02 0. -1.
</event>
<event>
 5   0  0.1005538E-05  0.2206184E+04  0.7818609E-02  0.8515859E-01
        1   -1    0    0  501    0  0.00000000000E+00  0.00000000000E+00  0.11351078390E+04  0.11351078390E+04  0.50400001928E-02 0.  1.
       -1   -1    0    0    0  501  0.00000000000E+00  0.00000000000E+00 -0.10719790900E+04  0.10719790900E+04  0.50400001928E-02 0. -1.
    10030    2    1    2    0    0  0.00000000000E+00  0.00000000000E+00  0.63128749015E+02  0.22070869290E+04  0.22061839164E+04 0.  0.
        3    1    3    3  502    0 -0.33863509081E+03 -0.72774913943E+03  0.78852414541E+03  0.11251945933E+04  0.10100000352E+00 0.  1.
       -3    1    3    3    0  502  0.33863509081E+03  0.72774913943E+03 -0.72539539640E+03  0.10818923357E+04  0.10100000352E+00 0. -1.
</event>
<event>
 5   0  0.2229552E-05  0.2218294E+04  0.7818609E-02  0.8510852E-01
        2   -1    0    0  501    0  0.00000000000E+00  0.00000000000E+00  0.10174089943E+04  0.10174089943E+04  0.25500000920E-02 0. -1.
       -2   -1    0    0    0  501  0.00000000000E+00  0.00000000000E+00 -0.12091564886E+04  0.12091564886E+04  0.25500000920E-02 0.  1.
    10030    2    1    2    0    0  0.00000000000E+00  0.00000000000E+00 -0.19174749433E+03  0.22265654829E+04  0.22182936568E+04 0.  0.
        1    1    3    3  502    0  0.37470659731E+03  0.38349488764E+03 -0.10704388683E+04  0.11972103966E+04  0.50400001928E-02 0.  1.
       -1    1    3    3    0  502 -0.37470659731E+03 -0.38349488764E+03  0.87869137397E+03  0.10293550863E+04  0.50400001928E-02 0. -1.
</event>
<event>
 5   0  0.1007682E-05  0.2202856E+04  0.7818609E-02  0.8517240E-01
        1   -1    0    0  501    0  0.00000000000E+00  0.00000000000E+00  0.19796131039E+04  0.19796131039E+04  0.50400001928E-02 0. -1.
       -1   -1    0    0    0  501  0.00000000000E+00  0.00000000000E+00 -0.61281852127E+03  0.61281852129E+03  0.50400001928E-02 0.  1.
    10030    2    1    2    0    0  0.00000000000E+00  0.00000000000E+00  0.13667945826E+04  0.25924316252E+04  0.22028559418E+04 0.  0.
        2    1    3    3  502    0  0.36859201115E+03  0.17252637272E+03 -0.52108936533E+03  0.66118041912E+03  0.25500000920E-02 0.  1.
       -2    1    3    3    0  502 -0.36859201115E+03 -0.17252637272E+03  0.18878839480E+04  0.19312512061E+04  0.25500000920E-02 0. -1.
</event>
<event>
 5   0  0.2229552E-05  0.2205738E+04  0.7818609E-02  0.8516043E-01
       -2   -1    0    0    0  501  0.00000000000E+00  0.00000000000E+00  0.87744092245E+03  0.87744092245E+03  0.25500000920E-02 0. -1.
        2   -1    0    0  501    0  0.00000000000E+00  0.00000000000E+00 -0.13862135561E+04  0.13862135561E+04  0.25500000920E-02 0.  1.
    10030    2    1    2    0    0  0.00000000000E+00  0.00000000000E+00 -0.50877263368E+03  0.22636544786E+04  0.22057384264E+04 0.  0.
        1    1    3    3  502    0 -0.54109905211E+03 -0.22410528866E+03 -0.12134338447E+04  0.13473800726E+04  0.50400001928E-02 0.  1.
       -1    1    3    3    0  502  0.54109905211E+03  0.22410528866E+03  0.70466121104E+03  0.91627440594E+03  0.50400001928E-02 0. -1.
</event>
<event>
 5   0  0.8003875E-06  0.2169334E+04  0.7818609E-02  0.8531301E-01
       -4   -1    0    0    0  501  0.00000000000E+00  0.00000000000E+00  0.91214332054E+03  0.91214420467E+03  0.12699999809E+01 0.  1.
        4   -1    0    0  501    0  0.00000000000E+00  0.00000000000E+00 -0.12898205846E+04  0.12898212098E+04  0.12699999809E+01 0. -1.
    10030    2    1    2    0    0  0.00000000000E+00  0.00000000000E+00 -0.37767726403E+03  0.22019654145E+04  0.21693343612E+04 0.  0.
        3    1    3    3  502    0 -0.22286853656E+03 -0.64671986124E+03  0.66559878200E+03  0.95443109354E+03  0.10100000352E+00 0.  1.
       -3    1    3    3    0  502  0.22286853656E+03  0.64671986124E+03 -0.10432760460E+04  0.12475343209E+04  0.10100000352E+00 0. -1.
</event>
<event>
 5   0  0.2289708E-05  0.2194122E+04  0.7818609E-02  0.8520879E-01
        2   -1    0    0  501    0  0.00000000000E+00  0.00000000000E+00  0.94843775527E+03  0.94843775527E+03  0.25500000920E-02 0. -1.
       -2   -1    0    0    0  501  0.00000000000E+00  0.00000000000E+00 -0.12689742257E+04  0.12689742257E+04  0.25500000920E-02 0.  1.
    10030    2    1    2    0    0  0.00000000000E+00  0.00000000000E+00 -0.32053647041E+03  0.22174119809E+04  0.21941222082E+04 0.  0.
        5    1    3    3  502    0 -0.21529386272E+03 -0.35973928719E+03 -0.11848127558E+04  0.12568083220E+04  0.46999998093E+01 0.  1.
       -5    1    3    3    0  502  0.21529386272E+03  0.35973928719E+03  0.86427628537E+03  0.96060365892E+03  0.46999998093E+01 0. -1.
</event>
<event>
 5   0  0.1033733E-05  0.2189468E+04  0.7818609E-02  0.8522824E-01
       -1   -1    0    0    0  501  0.00000000000E+00  0.00000000000E+00  0.11273082313E+04  0.11273082313E+04  0.50400001928E-02 0.  1.
        1   -1    0    0  501    0  0.00000000000E+00  0.00000000000E+00 -0.10631014454E+04  0.10631014454E+04  0.50400001928E-02 0. -1.
    10030    2    1    2    0    0  0.00000000000E+00  0.00000000000E+00  0.64206785909E+02  0.21904096767E+04  0.21894684379E+04 0.  0.
        5    1    3    3  502    0  0.49060192982E+03  0.56833988176E+03 -0.76493254565E+03  0.10718415760E+04  0.46999998093E+01 0. -1.
       -5    1    3    3    0  502 -0.49060192982E+03 -0.56833988176E+03  0.82913933156E+03  0.11185681007E+04  0.46999998093E+01 0.  1.
</event>
<event>
 5   0  0.1049198E-05  0.2201961E+04  0.7818609E-02  0.8517612E-01
       -1   -1    0    0    0  501  0.00000000000E+00  0.00000000000E+00  0.10061156811E+04  0.10061156811E+04  0.50400001928E-02 0.  1.
        1   -1    0    0  501    0  0.00000000000E+00  0.00000000000E+00 -0.12047903764E+04  0.12047903764E+04  0.50400001928E-02 0. -1.
    10030    2    1    2    0    0  0.00000000000E+00  0.00000000000E+00 -0.19867469534E+03  0.22109060575E+04  0.22019613894E+04 0.  0.
        1    1    3    3  502    0  0.48767121713E+03  0.33918007000E+03  0.83140829838E+03  0.10218150980E+04  0.50400001928E-02 0.  1.
       -1    1    3    3    0  502 -0.48767121713E+03 -0.33918007000E+03 -0.10300829937E+04  0.11890909595E+04  0.50400001928E-02 0. -1.
</event>
<event>
 5   0  0.1005538E-05  0.2199828E+04  0.7818609E-02  0.8518500E-01
        1   -1    0    0  501    0  0.00000000000E+00  0.00000000000E+00  0.15579152237E+04  0.15579152237E+04  0.50400001928E-02 0.  1.
       -1   -1    0    0    0  501  0.00000000000E+00  0.00000000000E+00 -0.77655738745E+03  0.77655738747E+03  0.50400001928E-02 0. -1.
    10030    2    1    2    0    0  0.00000000000E+00  0.00000000000E+00  0.78135783620E+03  0.23344726111E+04  0.21998277896E+04 0.  0.
        3    1    3    3  502    0 -0.81013805211E+03  0.61613001368E+03  0.83317895470E+03  0.13153429355E+04  0.10100000352E+00 0.  1.
       -3    1    3    3    0  502  0.81013805211E+03 -0.61613001368E+03 -0.51821118498E+02  0.10191296756E+04  0.10100000352E+00 0. -1.
</event>
<event>
 5   0  0.1005538E-05  0.2188108E+04  0.7818609E-02  0.8523394E-01
       -1   -1    0    0    0  501  0.00000000000E+00  0.00000000000E+00  0.72906860172E+03  0.72906860174E+03  0.50400001928E-02 0.  1.
        1   -1    0    0  501    0  0.00000000000E+00  0.00000000000E+00 -0.16417580767E+04  0.16417580767E+04  0.50400001928E-02 0. -1.
    10030    2    1    2    0    0  0.00000000000E+00  0.00000000000E+00 -0.91268947501E+03  0.23708266785E+04  0.21881081010E+04 0.  0.
        3    1    3    3  502    0  0.26088424816E+03  0.29257157496E+03 -0.15630569606E+04  0.16114607627E+04  0.10100000352E+00 0. -1.
       -3    1    3    3    0  502 -0.26088424816E+03 -0.29257157496E+03  0.65036748564E+03  0.75936591574E+03  0.10100000352E+00 0.  1.
</event>
<event>
 5   0  0.2229552E-05  0.2216180E+04  0.7818609E-02  0.8511724E-01
        2   -1    0    0  501    0  0.00000000000E+00  0.00000000000E+00  0.94127769701E+03  0.94127769702E+03  0.25500000920E-02 0.  1.
       -2   -1    0    0    0  501  0.00000000000E+00  0.00000000000E+00 -0.13044640930E+04  0.13044640930E+04  0.25500000920E-02 0. -1.
    10030    2    1    2    0    0  0.00000000000E+00  0.00000000000E+00 -0.36318639602E+03  0.22457417901E+04  0.22161795571E+04 0.  0.
        1    1    3    3  502    0  0.68717550712E+03 -0.82338301904E+03  0.10085989530E+03  0.10771919477E+04  0.50400001928E-02 0. -1.
       -1    1    3    3    0  502 -0.68717550712E+03  0.82338301904E+03 -0.46404629132E+03  0.11685498424E+04  0.50400001928E-02 0.  1.
</event>
<event>
 5   0  0.1071208E-05  0.2157642E+04  0.7818609E-02  0.8536268E-01
       -1   -1    0    0    0  501  0.00000000000E+00  0.00000000000E+00  0.12142327965E+04  0.12142327965E+04  0.50400001928E-02 0.  1.
        1   -1    0    0  501    0  0.00000000000E+00  0.00000000000E+00 -0.95851031468E+03  0.95851031470E+03  0.50400001928E-02 0. -1.
    10030    2    1    2    0    0  0.00000000000E+00  0.00000000000E+00  0.25572248180E+03  0.21727431112E+04  0.21576419164E+04 0.  0.
        4    1    3    3  502    0 -0.80054492992E+03  0.65361710352E+03 -0.18376473492E+03  0.10496945239E+04  0.12699999809E+01 0. -1.
       -4    1    3    3    0  502  0.80054492992E+03 -0.65361710352E+03  0.43948721673E+03  0.11230485873E+04  0.12699999809E+01 0.  1.
</event>
<event>
 5   0  0.1049198E-05  0.2205352E+04  0.7818609E-02  0.8516204E-01
       -1   -1    0    0    0  501  0.00000000000E+00  0.00000000000E+00  0.95676530693E+03  0.95676530695E+03  0.50400001928E-02 0. -1.
        1   -1    0    0  501    0  0.00000000000E+00  0.00000000000E+00 -0.12708390090E+04  0.12708390090E+04  0.50400001928E-02 0.  1.
    10030    2    1    2    0    0  0.00000000000E+00  0.00000000000E+00 -0.31407370210E+03  0.22276043160E+04  0.22053522844E+04 0.  0.
        1    1    3    3  502    0 -0.81139523418E+02  0.12353654975E+03 -0.12607883136E+04  0.12694219445E+04  0.50400001928E-02 0.  1.
       -1    1    3    3    0  502  0.81139523418E+02 -0.12353654975E+03  0.94671461151E+03  0.95818237150E+03  0.50400001928E-02 0. -1.
</event>
<event>
 5   0  0.2284329E-05  0.2203211E+04  0.7818609E-02  0.8517093E-01
        2   -1    0    0  501    0  0.00000000000E+00  0.00000000000E+00  0.22164286674E+04  0.22164286674E+04  0.25500000920E-02 0.  1.
       -2   -1    0    0    0  501  0.00000000000E+00  0.00000000000E+00 -0.54751787453E+03  0.54751787453E+03  0.25500000920E-02 0. -1.
    10030    2    1    2    0    0  0.00000000000E+00  0.00000000000E+00  0.16689107928E+04  0.27639465419E+04  0.22032106690E+04 0.  0.
        2    1    3    3  502    0  0.10125955766E+03  0.84074882604E+03 -0.49436642039E+02  0.84826650770E+03  0.25500000920E-02 0.  1.
       -2    1    3    3    0  502 -0.10125955766E+03 -0.84074882604E+03  0.17183474349E+04  0.19156800342E+04  0.25500000920E-02 0. -1.
</event>
<event>
 5   0  0.1005538E-05  0.2223534E+04  0.7818609E-02  0.8508696E-01
       -1   -1    0    0    0  501  0.00000000000E+00  0.00000000000E+00  0.98084787114E+03  0.98084787115E+03  0.50400001928E-02 0. -1.
        1   -1    0    0  501    0  0.00000000000E+00  0.00000000000E+00 -0.12601611343E+04  0.12601611343E+04  0.50400001928E-02 0.  1.
    10030    2    1    2    0    0  0.00000000000E+00  0.00000000000E+00 -0.27931326320E+03  0.22410090055E+04  0.22235344530E+04 0.  0.
        3    1    3    3  502    0  0.10323260973E+04  0.14905608392E+03 -0.52753368028E+03  0.11688484424E+04  0.10100000352E+00 0. -1.
       -3    1    3    3    0  502 -0.10323260973E+04 -0.14905608392E+03  0.24822041708E+03  0.10721605631E+04  0.10100000352E+00 0.  1.
</event>
<event>
 5   0  0.2319707E-05  0.2207849E+04  0.7818609E-02  0.8515168E-01
        2   -1    0    0  501    0  0.00000000000E+00  0.00000000000E+00  0.73187510424E+03  0.73187510425E+03  0.25500000920E-02 0.  1.
       -2   -1    0    0    0  501  0.00000000000E+00  0.00000000000E+00 -0.16651061352E+04  0.16651061352E+04  0.25500000920E-02 0. -1.
    10030    2    1    2    0    0  0.00000000000E+00  0.00000000000E+00 -0.93323103095E+03  0.23969812394E+04  0.22078493846E+04 0.  0.
        3    1    3    3  502    0  0.13959885405E+03  0.88472922068E+03 -0.11671974569E+04  0.14712523738E+04  0.10100000352E+00 0. -1.
       -3    1    3    3    0  502 -0.13959885405E+03 -0.88472922068E+03  0.23396642592E+03  0.92572886561E+03  0.10100000352E+00 0.  1.
</event>
<event>
 5   0  0.1049198E-05  0.2200462E+04  0.7818609E-02  0.8518236E-01
       -1   -1    0    0    0  501  0.00000000000E+00  0.00000000000E+00  0.53007645731E+03  0.53007645733E+03  0.50400001928E-02 0.  1.
        1   -1    0    0  501    0  0.00000000000E+00  0.00000000000E+00 -0.22836474109E+04  0.22836474110E+04  0.50400001928E-02 0. -1.
    10030    2    1    2    0    0  0.00000000000E+00  0.00000000000E+00 -0.17535709536E+04  0.28137238683E+04  0.22004615238E+04 0.  0.
        1    1    3    3  502    0  0.12482290453E+02 -0.48546199020E+03  0.38561865125E+03  0.62010555208E+03  0.50400001928E-02 0.  1.
       -1    1    3    3    0  502 -0.12482290453E+02  0.48546199020E+03 -0.21391896049E+04  0.21936183162E+04  0.50400001928E-02 0. -1.
</event>
<event>
 5   0  0.2284329E-05  0.2195402E+04  0.7818609E-02  0.8520344E-01
        2   -1    0    0  501    0  0.00000000000E+00  0.00000000000E+00  0.15802610036E+04  0.15802610036E+04  0.25500000920E-02 0.  1.
       -2   -1    0    0    0  501  0.00000000000E+00  0.00000000000E+00 -0.76249905894E+03  0.76249905895E+03  0.25500000920E-02 0. -1.
    10030    2    1    2    0    0  0.00000000000E+00  0.00000000000E+00  0.81776194464E+03  0.23427600625E+04  0.21954020389E+04 0.  0.
        2    1    3    3  502    0 -0.10208765482E+04  0.98649475925E+02  0.82632438661E+03  0.13170924940E+04  0.25500000920E-02 0.  1.
       -2    1    3    3    0  502  0.10208765482E+04 -0.98649475925E+02 -0.85624419743E+01  0.10256675686E+04  0.25500000920E-02 0. -1.
</event>
<event>
 5   0  0.1007682E-05  0.2201054E+04  0.7818609E-02  0.8517990E-01
        1   -1    0    0  501    0  0.00000000000E+00  0.00000000000E+00  0.11012893349E+04  0.11012893349E+04  0.50400001928E-02 0. -1.
       -1   -1    0    0    0  501  0.00000000000E+00  0.00000000000E+00 -0.10997651995E+04  0.10997651995E+04  0.50400001928E-02 0.  1.
    10030    2    1    2    0    0  0.00000000000E+00  0.00000000000E+00  0.15241353962E+01  0.22010545344E+04  0.22010540067E+04 0.  0.
        2    1    3    3  502    0 -0.70541570356E+02  0.80955944390E+03  0.74291929016E+03  0.11010411791E+04  0.25500000920E-02 0. -1.
       -2    1    3    3    0  502  0.70541570356E+02 -0.80955944390E+03 -0.74139515476E+03  0.11000133553E+04  0.25500000920E-02 0.  1.
</event>
<event>
 5   0  0.2319707E-05  0.2200473E+04  0.7818609E-02  0.8518231E-01
       -2   -1    0    0    0  501  0.00000000000E+00  0.00000000000E+00  0.65773676835E+03  0.65773676835E+03  0.25500000920E-02 0.  1.
        2   -1    0    0  501    0  0.00000000000E+00  0.00000000000E+00 -0.18404333529E+04  0.18404333529E+04  0.25500000920E-02 0. -1.
    10030    2    1    2    0    0  0.00000000000E+00  0.00000000000E+00 -0.11826965845E+04  0.24981701212E+04  0.22004732999E+04 0.  0.
        3    1    3    3  502    0  0.10193244871E+04 -0.18074799917E+03 -0.16834367559E+03  0.10488240331E+04  0.10100000352E+00 0.  1.
       -3    1    3    3    0  502 -0.10193244871E+04  0.18074799917E+03 -0.10143529089E+04  0.14493460881E+04  0.10100000352E+00 0. -1.
</event>
<event>
 5   0  0.2289708E-05  0.2204844E+04  0.7818609E-02  0.8516415E-01
        2   -1    0    0  501    0  0.00000000000E+00  0.00000000000E+00  0.10998100836E+04  0.10998100836E+04  0.25500000920E-02 0. -1.
       -2   -1    0    0    0  501  0.00000000000E+00  0.00000000000E+00 -0.11050397948E+04  0.11050397948E+04  0.25500000920E-02 0.  1.
    10030    2    1    2    0    0  0.00000000000E+00  0.00000000000E+00 -0.52297112297E+01  0.22048498784E+04  0.22048436762E+04 0.  0.
        5    1    3    3  502    0  0.88765107070E+03  0.37424798121E+03  0.53341449143E+03  0.11011535245E+04  0.46999998093E+01 0. -1.
       -5    1    3    3    0  502 -0.88765107070E+03 -0.37424798121E+03 -0.53864420266E+03  0.11036963540E+04  0.46999998093E+01 0.  1.
</event>
<event>
 5   0  0.1007682E-05  0.2204546E+04  0.7818609E-02  0.8516538E-01
       -1   -1    0    0    0  501  0.00000000000E+00  0.00000000000E+00  0.12036810847E+04  0.12036810847E+04  0.50400001928E-02 0. -1.
        1   -1    0    0  501    0  0.00000000000E+00  0.00000000000E+00 -0.10094082715E+04  0.10094082716E+04  0.50400001928E-02 0.  1.
    10030    2    1    2    0    0  0.00000000000E+00  0.00000000000E+00  0.19427281315E+03  0.22130893563E+04  0.22045458881E+04 0.  0.
        2    1    3    3  502    0 -0.57505824803E+03  0.90677697826E+03  0.34723875066E+03  0.11284995467E+04  0.25500000920E-02 0. -1.
       -2    1    3    3    0  502  0.57505824803E+03 -0.90677697826E+03 -0.15296593751E+03  0.10845898096E+04  0.25500000920E-02 0.  1.
</event>
<event>
 5   0  0.2319707E-05  0.2172200E+04  0.7818609E-02  0.8530089E-01
        2   -1    0    0  501    0  0.00000000000E+00  0.00000000000E+00  0.96190390121E+03  0.96190390121E+03  0.25500000920E-02 0. -1.
       -2   -1    0    0    0  501  0.00000000000E+00  0.00000000000E+00 -0.12263318970E+04  0.12263318970E+04  0.25500000920E-02 0.  1.
    10030    2    1    2    0    0  0.00000000000E+00  0.00000000000E+00 -0.26442799580E+03  0.21882357982E+04  0.21722002080E+04 0.  0.
        3    1    3    3  502    0  0.80323203617E+03 -0.54369868039E+03 -0.62451732030E+03  0.11536081885E+04  0.10100000352E+00 0.  1.
       -3    1    3    3    0  502 -0.80323203617E+03  0.54369868039E+03  0.36008932450E+03  0.10346276097E+04  0.10100000352E+00 0. -1.
</event>
<event>
 5   0  0.2229552E-05  0.2205081E+04  0.7818609E-02  0.8516316E-01
       -2   -1    0    0    0  501  0.00000000000E+00  0.00000000000E+00  0.11752518476E+04  0.11752518476E+04  0.25500000920E-02 0.  1.
        2   -1    0    0  501    0  0.00000000000E+00  0.00000000000E+00 -0.10343280132E+04  0.10343280132E+04  0.25500000920E-02 0. -1.
    10030    2    1    2    0    0  0.00000000000E+00  0.00000000000E+00  0.14092383439E+03  0.22095798607E+04  0.22050813214E+04 0.  0.
        1    1    3    3  502    0 -0.74767425204E+03 -0.43427953170E+03  0.75594845318E+03  0.11485092785E+04  0.50400001928E-02 0.  1.
       -1    1    3    3    0  502  0.74767425204E+03  0.43427953170E+03 -0.61502461879E+03  0.10610705823E+04  0.50400001928E-02 0. -1.
</event>
<event>
 5   0  0.1033733E-05  0.2198394E+04  0.7818609E-02  0.8519097E-01
       -1   -1    0    0    0  501  0.00000000000E+00  0.00000000000E+00  0.93747278343E+03  0.93747278344E+03  0.50400001928E-02 0.  1.
        1   -1    0    0  501    0  0.00000000000E+00  0.00000000000E+00 -0.12888199115E+04  0.12888199115E+04  0.50400001928E-02 0. -1.
    10030    2    1    2    0    0  0.00000000000E+00  0.00000000000E+00 -0.35134712808E+03  0.22262926950E+04  0.21983935861E+04 0.  0.
        5    1    3    3  502    0  0.65156752126E+03 -0.15254838306E+03  0.70740214795E+03  0.97378187129E+03  0.46999998093E+01 0.  1.
       -5    1    3    3    0  502 -0.65156752126E+03  0.15254838306E+03 -0.10587492760E+04  0.12525108237E+04  0.46999998093E+01 0. -1.
</event>
<event>
 5   0  0.2319707E-05  0.2196618E+04  0.7818609E-02  0.8519837E-01
        2   -1    0    0  501    0  0.00000000000E+00  0.00000000000E+00  0.74940421106E+03  0.74940421106E+03  0.25500000920E-02 0. -1.
       -2   -1    0    0    0  501  0.00000000000E+00  0.00000000000E+00 -0.16096558126E+04  0.16096558126E+04  0.25500000920E-02 0.  1.
    10030    2    1    2    0    0  0.00000000000E+00  0.00000000000E+00 -0.86025160154E+03  0.23590600237E+04  0.21966181683E+04 0.  0.
        3    1    3    3  502    0  0.68676276464E+02 -0.31246091054E+03  0.69825604188E+03  0.76805583247E+03  0.10100000352E+00 0. -1.
       -3    1    3    3    0  502 -0.68676276464E+02  0.31246091054E+03 -0.15585076434E+04  0.15910041912E+04  0.10100000352E+00 0.  1.
</event>
<event>
 5   0  0.1071208E-05  0.2199349E+04  0.7818609E-02  0.8518699E-01
        1   -1    0    0  501    0  0.00000000000E+00  0.00000000000E+00  0.21900688506E+04  0.21900688506E+04  0.50400001928E-02 0. -1.
       -1   -1    0    0    0  501  0.00000000000E+00  0.00000000000E+00 -0.55216717852E+03  0.55216717854E+03  0.50400001928E-02 0.  1.
    10030    2    1    2    0    0  0.00000000000E+00  0.00000000000E+00  0.16379016721E+04  0.27422360292E+04  0.21993491201E+04 0.  0.
        4    1    3    3  502    0  0.63750130497E+03 -0.32062243728E+03 -0.22428671568E+03  0.74800588558E+03  0.12699999809E+01 0.  1.
       -4    1    3    3    0  502 -0.63750130497E+03  0.32062243728E+03  0.18621883878E+04  0.19942301436E+04  0.12699999809E+01 0. -1.
</event>
<event>
 5   0  0.1049198E-05  0.2203191E+04  0.7818609E-02  0.8517101E-01
        1   -1    0    0  501    0  0.00000000000E+00  0.00000000000E+00  0.19720574282E+04  0.19720574282E+04  0.50400001928E-02 0. -1.
       -1   -1    0    0    0  501  0.00000000000E+00  0.00000000000E+00 -0.61535334262E+03  0.61535334264E+03  0.50400001928E-02 0.  1.
    10030    2    1    2    0    0  0.00000000000E+00  0.00000000000E+00  0.13567040856E+04  0.25874107709E+04  0.22031905322E+04 0.  0.
        1    1    3    3  502    0  0.65465936516E+03 -0.85263154339E+02 -0.35728879232E+03  0.75066901563E+03  0.50400001928E-02 0.  1.
       -1    1    3    3    0  502 -0.65465936516E+03  0.85263154339E+02  0.17139928779E+04  0.18367417552E+04  0.50400001928E-02 0. -1.
</event>
<event>
 5   0  0.1005538E-05  0.2195036E+04  0.7818609E-02  0.8520497E-01
        1   -1    0    0  501    0  0.00000000000E+00  0.00000000000E+00  0.23675514218E+04  0.23675514218E+04  0.50400001928E-02 0.  1.
       -1   -1    0    0    0  501  0.00000000000E+00  0.00000000000E+00 -0.50877282927E+03  0.50877282930E+03  0.50400001928E-02 0. -1.
    10030    2    1    2    0    0  0.00000000000E+00  0.00000000000E+00  0.18587785926E+04  0.28763242511E+04  0.21950360684E+04 0.  0.
        3    1    3    3  502    0 -0.98746191683E+03  0.38076833943E+03  0.54852189547E+03  0.11920326529E+04  0.10100000352E+00 0. -1.
       -3    1    3    3    0  502  0.98746191683E+03 -0.38076833943E+03  0.13102566971E+04  0.16842915983E+04  0.10100000352E+00 0.  1.
</event>
<event>
 5   0  0.2298329E-05  0.2202864E+04  0.7818609E-02  0.8517237E-01
       -2   -1    0    0    0  501  0.00000000000E+00  0.00000000000E+00  0.16822985657E+04  0.16822985657E+04  0.25500000920E-02 0. -1.
        2   -1    0    0  501    0  0.00000000000E+00  0.00000000000E+00 -0.72112791003E+03  0.72112791004E+03  0.25500000920E-02 0.  1.
    10030    2    1    2    0    0  0.00000000000E+00  0.00000000000E+00  0.96117065569E+03  0.24034264758E+04  0.22028639983E+04 0.  0.
        4    1    3    3  502    0 -0.98793300076E+03  0.44213704005E+03  0.25791014213E+03  0.11126616873E+04  0.12699999809E+01 0. -1.
       -4    1    3    3    0  502  0.98793300076E+03 -0.44213704005E+03  0.70326051356E+03  0.12907647884E+04  0.12699999809E+01 0.  1.
</event>
<event>
 5   0  0.2298329E-05  0.2201888E+04  0.7818609E-02  0.8517643E-01
        2   -1    0    0  501    0  0.00000000000E+00  0.00000000000E+00  0.14191290685E+04  0.14191290685E+04  0.25500000920E-02 0. -1.
       -2   -1    0    0    0  501  0.00000000000E+00  0.00000000000E+00 -0.85410002374E+03  0.85410002375E+03  0.25500000920E-02 0.  1.
    10030    2    1    2    0    0  0.00000000000E+00  0.00000000000E+00  0.56502904476E+03  0.22732290923E+04  0.22018884360E+04 0.  0.
        4    1    3    3  502    0 -0.52856265167E+03 -0.73971286525E+03  0.92353664486E+03  0.12959456574E+04  0.12699999809E+01 0. -1.
       -4    1    3    3    0  502  0.52856265167E+03  0.73971286525E+03 -0.35850760009E+03  0.97728343482E+03  0.12699999809E+01 0.  1.
</event>
<event>
 5   0  0.1007682E-05  0.2210032E+04  0.7818609E-02  0.8514264E-01
       -1   -1    0    0    0  501  0.00000000000E+00  0.00000000000E+00  0.76906371073E+03  0.76906371075E+03  0.50400001928E-02 0. -1.
        1   -1    0    0  501    0  0.00000000000E+00  0.00000000000E+00 -0.15877230007E+04  0.15877230008E+04  0.50400001928E-02 0.  1.
    10030    2    1    2    0    0  0.00000000000E+00  0.00000000000E+00 -0.81865929001E+03  0.23567867115E+04  0.22100318030E+04 0.  0.
        2    1    3    3  502    0  0.71131158644E+03  0.81587316265E+03 -0.64646238566E+03  0.12607643739E+04  0.25500000920E-02 0.  1.
       -2    1    3    3    0  502 -0.71131158644E+03 -0.81587316265E+03 -0.17219690435E+03  0.10960223376E+04  0.25500000920E-02 0. -1.
</event>
<event>
 5   0  0.1033733E-05  0.2190316E+04  0.7818609E-02  0.8522470E-01
       -1   -1    0    0    0  501  0.00000000000E+00  0.00000000000E+00  0.72083429834E+03  0.72083429836E+03  0.50400001928E-02 0.  1.
        1   -1    0    0  501    0  0.00000000000E+00  0.00000000000E+00 -0.16638644803E+04  0.16638644803E+04  0.50400001928E-02 0. -1.
    10030    2    1    2    0    0  0.00000000000E+00  0.00000000000E+00 -0.94303018197E+03  0.23846987787E+04  0.21903155802E+04 0.  0.
        5    1    3    3  502    0 -0.93916165000E+02 -0.50760738453E+03 -0.15230792348E+04  0.16081908930E+04  0.46999998093E+01 0. -1.
       -5    1    3    3    0  502  0.93916165000E+02  0.50760738453E+03  0.58004905281E+03  0.77650788569E+03  0.46999998093E+01 0.  1.
</event>
<event>
 5   0  0.1033733E-05  0.2204479E+04  0.7818609E-02  0.8516566E-01
        1   -1    0    0  501    0  0.00000000000E+00  0.00000000000E+00  0.25836635195E+04  0.25836635195E+04  0.50400001928E-02 0.  1.
       -1   -1    0    0    0  501  0.00000000000E+00  0.00000000000E+00 -0.47023615969E+03  0.47023615971E+03  0.50400001928E-02 0. -1.
    10030    2    1    2    0    0  0.00000000000E+00  0.00000000000E+00  0.21134273598E+04  0.30538996792E+04  0.22044790871E+04 0.  0.
        5    1    3    3  502    0  0.14348176170E+03  0.48312219790E+02  0.25691770899E+04  0.25736382994E+04  0.46999998093E+01 0.  1.
       -5    1    3    3    0  502 -0.14348176170E+03 -0.48312219790E+02 -0.45574973009E+03  0.48026137988E+03  0.46999998093E+01 0. -1.
</event>
<event>
 5   0  0.2284329E-05  0.2201937E+04  0.7818609E-02  0.8517622E-01
        2   -1    0    0  501    0  0.00000000000E+00  0.00000000000E+00  0.23474704788E+04  0.23474704788E+04  0.25500000920E-02 0.  1.
       -2   -1    0    0    0  501  0.00000000000E+00  0.00000000000E+00 -0.51635659810E+03  0.51635659811E+03  0.25500000920E-02 0. -1.
    10030    2    1    2    0    0  0.00000000000E+00  0.00000000000E+00  0.18311138807E+04  0.28638270770E+04  0.22019372113E+04 0.  0.
        2    1    3    3  502    0  0.94061248606E+03 -0.10508535969E+03  0.18405258384E+03  0.96419403410E+03  0.25500000920E-02 0. -1.
       -2    1    3    3    0  502 -0.94061248606E+03  0.10508535969E+03  0.16470612969E+04  0.18996330429E+04  0.25500000920E-02 0.  1.
</event>
<event>
 5   0  0.2319707E-05  0.2199402E+04  0.7818609E-02  0.8518677E-01
        2   -1    0    0  501    0  0.00000000000E+00  0.00000000000E+00  0.21062817163E+04  0.21062817163E+04  0.25500000920E-02 0. -1.
       -2   -1    0    0    0  501  0.00000000000E+00  0.00000000000E+00 -0.57416004372E+03  0.57416004373E+03  0.25500000920E-02 0.  1.
    10030    2    1    2    0    0  0.00000000000E+00  0.00000000000E+00  0.15321216725E+04  0.26804417600E+04  0.21994024664E+04 0.  0.
        3    1    3    3  502    0 -0.48544959799E+03 -0.84421522060E+03  0.14346378040E+03  0.98434877832E+03  0.10100000352E+00 0.  1.
       -3    1    3    3    0  502  0.48544959799E+03  0.84421522060E+03  0.13886578921E+04  0.16960929817E+04  0.10100000352E+00 0. -1.
</event>
<event>
 5   0  0.2229552E-05  0.2190275E+04  0.7818609E-02  0.8522487E-01
        2   -1    0    0  501    0  0.00000000000E+00  0.00000000000E+00  0.12758589215E+04  0.12758589215E+04  0.25500000920E-02 0.  1.
       -2   -1    0    0    0  501  0.00000000000E+00  0.00000000000E+00 -0.94001489455E+03  0.94001489455E+03  0.25500000920E-02 0. -1.
    10030    2    1    2    0    0  0.00000000000E+00  0.00000000000E+00  0.33584402699E+03  0.22158738161E+04  0.21902752243E+04 0.  0.
        1    1    3    3  502    0 -0.65569755622E+03 -0.36434060946E+03 -0.63930247343E+03  0.98559170933E+03  0.50400001928E-02 0. -1.
       -1    1    3    3    0  502  0.65569755622E+03  0.36434060946E+03  0.97514650042E+03  0.12302821068E+04  0.50400001928E-02 0.  1.
</event>
<event>
 5   0  0.2284329E-05  0.2188373E+04  0.7818609E-02  0.8523283E-01
       -2   -1    0    0    0  501  0.00000000000E+00  0.00000000000E+00  0.43784791828E+03  0.43784791829E+03  0.25500000920E-02 0. -1.
        2   -1    0    0  501    0  0.00000000000E+00  0.00000000000E+00 -0.27343822499E+04  0.27343822499E+04  0.25500000920E-02 0.  1.
    10030    2    1    2    0    0  0.00000000000E+00  0.00000000000E+00 -0.22965343317E+04  0.31722301682E+04  0.21883725240E+04 0.  0.
        2    1    3    3  502    0 -0.24175457192E+03  0.13507844103E+03  0.38620660018E+03  0.47523362287E+03  0.25500000920E-02 0. -1.
       -2    1    3    3    0  502  0.24175457192E+03 -0.13507844103E+03 -0.26827409318E+04  0.26969965454E+04  0.25500000920E-02 0.  1.
</event>
<event>
 5   0  0.2319707E-05  0.2198602E+04  0.7818609E-02  0.8519010E-01
       -2   -1    0    0    0  501  0.00000000000E+00  0.00000000000E+00  0.47990577594E+03  0.47990577594E+03  0.25500000920E-02 0.  1.
        2   -1    0    0  501    0  0.00000000000E+00  0.00000000000E+00 -0.25181250571E+04  0.25181250571E+04  0.25500000920E-02 0. -1.
    10030    2    1    2    0    0  0.00000000000E+00  0.00000000000E+00 -0.20382192812E+04  0.29980308331E+04  0.21986020645E+04 0.  0.
        3    1    3    3  502    0 -0.15667671394E+03 -0.58807848986E+03  0.22922753213E+03  0.65033005053E+03  0.10100000352E+00 0.  1.
       -3    1    3    3    0  502  0.15667671394E+03  0.58807848986E+03 -0.22674468133E+04  0.23477007825E+04  0.10100000352E+00 0. -1.
</event>
<event>
 5   0  0.1005538E-05  0.2190110E+04  0.7818609E-02  0.8522556E-01
        1   -1    0    0  501    0  0.00000000000E+00  0.00000000000E+00  0.11591370334E+04  0.11591370334E+04  0.50400001928E-02 0.  1.
       -1   -1    0    0    0  501  0.00000000000E+00  0.00000000000E+00 -0.10345155991E+04  0.10345155991E+04  0.50400001928E-02 0. -1.
    10030    2    1    2    0    0  0.00000000000E+00  0.00000000000E+00  0.12462143435E+03  0.21936526325E+04  0.21901098991E+04 0.  0.
        3    1    3    3  502    0  0.20054967171E+03  0.84585597396E+03  0.72931045966E+03  0.11347185802E+04  0.10100000352E+00 0.  1.
       -3    1    3    3    0  502 -0.20054967171E+03 -0.84585597396E+03 -0.60468902532E+03  0.10589340523E+04  0.10100000352E+00 0. -1.
</event>
<event>
 5   0  0.2289708E-05  0.2183527E+04  0.7818609E-02  0.8525316E-01
       -2   -1    0    0    0  501  0.00000000000E+00  0.00000000000E+00  0.92123475069E+03  0.92123475069E+03  0.25500000920E-02 0. -1.
        2   -1    0    0  501    0  0.00000000000E+00  0.00000000000E+00 -0.12938581700E+04  0.12938581700E+04  0.25500000920E-02 0.  1.
    10030    2    1    2    0    0  0.00000000000E+00  0.00000000000E+00 -0.37262341934E+03  0.22150929207E+04  0.21835266050E+04 0.  0.
        5    1    3    3  502    0  0.80406228173E+03  0.24032323608E+03 -0.89472904831E+03  0.12267165812E+04  0.46999998093E+01 0.  1.
       -5    1    3    3    0  502 -0.80406228173E+03 -0.24032323608E+03  0.52210562897E+03  0.98837633951E+03  0.46999998093E+01 0. -1.
</event>
<event>
 5   0  0.1033733E-05  0.2201847E+04  0.7818609E-02  0.8517660E-01
       -1   -1    0    0    0  501  0.00000000000E+00  0.00000000000E+00  0.58297721310E+03  0.58297721312E+03  0.50400001928E-02 0. -1.
        1   -1    0    0  501    0  0.00000000000E+00  0.00000000000E+00 -0.20790398787E+04  0.20790398787E+04  0.50400001928E-02 0.  1.
    10030    2    1    2    0    0  0.00000000000E+00  0.00000000000E+00 -0.14960626656E+04  0.26620170919E+04  0.22018472921E+04 0.  0.
        5    1    3    3  502    0  0.39373501652E+03  0.78893168658E+03  0.48960136036E+02  0.88309662792E+03  0.46999998093E+01 0. -1.
       -5    1    3    3    0  502 -0.39373501652E+03 -0.78893168658E+03 -0.15450228017E+04  0.17789204639E+04  0.46999998093E+01 0.  1.
</event>
<event>
 5   0  0.1005538E-05  0.2216865E+04  0.7818609E-02  0.8511441E-01
        1   -1    0    0  501    0  0.00000000000E+00  0.00000000000E+00  0.11038072766E+04  0.11038072766E+04  0.50400001928E-02 0. -1.
       -1   -1    0    0    0  501  0.00000000000E+00  0.00000000000E+00 -0.11130774499E+04  0.11130774499E+04  0.50400001928E-02 0.  1.
    10030    2    1    2    0    0  0.00000000000E+00  0.00000000000E+00 -0.92701732881E+01  0.22168847266E+04  0.22168653443E+04 0.  0.
        3    1    3    3  502    0  0.76411828032E+03  0.25528361695E+03 -0.76594096584E+03  0.11116258565E+04  0.10100000352E+00 0. -1.
       -3    1    3    3    0  502 -0.76411828032E+03 -0.25528361695E+03  0.75667079255E+03  0.11052588701E+04  0.10100000352E+00 0.  1.
</event>
<event>
 5   0  0.2319707E-05  0.2152376E+04  0.7818609E-02  0.8538516E-01
       -2   -1    0    0    0  501  0.00000000000E+00  0.00000000000E+00  0.70407455477E+03  0.70407455477E+03  0.25500000920E-02 0.  1.
        2   -1    0    0  501    0  0.00000000000E+00  0.00000000000E+00 -0.16449689791E+04  0.16449689791E+04  0.25500000920E-02 0. -1.
    10030    2    1    2    0    0  0.00000000000E+00  0.00000000000E+00 -0.94089442432E+03  0.23490435339E+04  0.21523761768E+04 0.  0.
        3    1    3    3  502    0  0.63856440972E+03 -0.30966262083E+02  0.47436687124E+03  0.79608250419E+03  0.10100000352E+00 0.  1.
       -3    1    3    3    0  502 -0.63856440972E+03  0.30966262083E+02 -0.14152612956E+04  0.15529610297E+04  0.10100000352E+00 0. -1.
</event>
<event>
 5   0  0.1049198E-05  0.2180719E+04  0.7818609E-02  0.8526496E-01
       -1   -1    0    0    0  501  0.00000000000E+00  0.00000000000E+00  0.15144358649E+04  0.15144358649E+04  0.50400001928E-02 0. -1.
        1   -1    0    0  501    0  0.00000000000E+00  0.00000000000E+00 -0.78503398261E+03  0.78503398263E+03  0.50400001928E-02 0.  1.
    10030    2    1    2    0    0  0.00000000000E+00  0.00000000000E+00  0.72940188227E+03  0.22994698475E+04  0.21807187975E+04 0.  0.
        1    1    3    3  502    0  0.13558059210E+03 -0.55037128299E+03 -0.61746770212E+03  0.83818673891E+03  0.50400001928E-02 0.  1.
       -1    1    3    3    0  502 -0.13558059210E+03  0.55037128299E+03  0.13468695844E+04  0.14612831086E+04  0.50400001928E-02 0. -1.
</event>
<event>
 5   0  0.1005538E-05  0.2200184E+04  0.7818609E-02  0.8518352E-01
       -1   -1    0    0    0  501  0.00000000000E+00  0.00000000000E+00  0.98993243262E+03  0.98993243263E+03  0.50400001928E-02 0.  1.
        1   -1    0    0  501    0  0.00000000000E+00  0.00000000000E+00 -0.12225096698E+04  0.12225096698E+04  0.50400001928E-02 0. -1.
    10030    2    1    2    0    0  0.00000000000E+00  0.00000000000E+00 -0.23257723715E+03  0.22124421024E+04  0.22001836026E+04 0.  0.
        3    1    3    3  502    0  0.55179554577E+03  0.94812478229E+03 -0.33470570984E+02  0.10975150188E+04  0.10100000352E+00 0. -1.
       -3    1    3    3    0  502 -0.55179554577E+03 -0.94812478229E+03 -0.19910666617E+03  0.11149270836E+04  0.10100000352E+00 0.  1.
</event>
<event>
 5   0  0.1007682E-05  0.2243497E+04  0.7818609E-02  0.8500539E-01
        1   -1    0    0  501    0  0.00000000000E+00  0.00000000000E+00  0.15087622361E+04  0.15087622361E+04  0.50400001928E-02 0. -1.
       -1   -1    0    0    0  501  0.00000000000E+00  0.00000000000E+00 -0.83400791153E+03  0.83400791155E+03  0.50400001928E-02 0.  1.
    10030    2    1    2    0    0  0.00000000000E+00  0.00000000000E+00  0.67475432458E+03  0.23427701477E+04  0.22434969504E+04 0.  0.
        2    1    3    3  502    0  0.93963893795E+03  0.58956286574E+03  0.16322237503E+03  0.11212257802E+04  0.25500000920E-02 0.  1.
       -2    1    3    3    0  502 -0.93963893795E+03 -0.58956286574E+03  0.51153194955E+03  0.12215443675E+04  0.25500000920E-02 0. -1.
</event>
<event>
 5   0  0.1033733E-05  0.2190914E+04  0.7818609E-02  0.8522220E-01
       -1   -1    0    0    0  501  0.00000000000E+00  0.00000000000E+00  0.15149347858E+04  0.15149347858E+04  0.50400001928E-02 0.  1.
        1   -1    0    0  501    0  0.00000000000E+00  0.00000000000E+00 -0.79213027770E+03  0.79213027772E+03  0.50400001928E-02 0. -1.
    10030    2    1    2    0    0  0.00000000000E+00  0.00000000000E+00  0.72280450807E+03  0.23070650635E+04  0.21909137022E+04 0.  0.
        5    1    3    3  502    0  0.49126233689E+02  0.84533531908E+03  0.10932275760E+04  0.13828137298E+04  0.46999998093E+01 0.  1.
       -5    1    3    3    0  502 -0.49126233689E+02 -0.84533531908E+03 -0.37042306793E+03  0.92425133366E+03  0.46999998093E+01 0. -1.
</event>
<event>
 5   0  0.2298329E-05  0.2203360E+04  0.7818609E-02  0.8517031E-01
       -2   -1    0    0    0  501  0.00000000000E+00  0.00000000000E+00  0.11319364221E+04  0.11319364221E+04  0.25500000920E-02 0.  1.
        2   -1    0    0  501    0  0.00000000000E+00  0.00000000000E+00 -0.10722325224E+04  0.10722325224E+04  0.25500000920E-02 0. -1.
    10030    2    1    2    0    0  0.00000000000E+00  0.00000000000E+00  0.59703899678E+02  0.22041689445E+04  0.22033602021E+04 0.  0.
        4    1    3    3  502    0 -0.24886259069E+03 -0.10687679660E+04  0.12735504292E+03  0.11047255198E+04  0.12699999809E+01 0. -1.
       -4    1    3    3    0  502  0.24886259069E+03  0.10687679660E+04 -0.67651143237E+02  0.10994434248E+04  0.12699999809E+01 0.  1.
</event>
<event>
 5   0  0.2229552E-05  0.2203352E+04  0.7818609E-02  0.8517034E-01
        2   -1    0    0  501    0  0.00000000000E+00  0.00000000000E+00  0.11806763140E+04  0.11806763140E+04  0.25500000920E-02 0.  1.
       -2   -1    0    0    0  501  0.00000000000E+00  0.00000000000E+00 -0.10279621169E+04  0.10279621169E+04  0.25500000920E-02 0. -1.
    10030    2    1    2    0    0  0.00000000000E+00  0.00000000000E+00  0.15271419717E+03  0.22086384309E+04  0.22033524667E+04 0.  0.
        1    1    3    3  502    0  0.10748792679E+04 -0.14114553731E+03  0.27279411846E+03  0.11179016658E+04  0.50400001928E-02 0.  1.
       -1    1    3    3    0  502 -0.10748792679E+04  0.14114553731E+03 -0.12007992129E+03  0.10907367651E+04  0.50400001928E-02 0. -1.
</event>
<event>
 5   0  0.1071208E-05  0.2202896E+04  0.7818609E-02  0.8517224E-01
        1   -1    0    0  501    0  0.00000000000E+00  0.00000000000E+00  0.88831921232E+03  0.88831921233E+03  0.50400001928E-02 0. -1.
       -1   -1    0    0    0  501  0.00000000000E+00  0.00000000000E+00 -0.13657117309E+04  0.13657117309E+04  0.50400001928E-02 0.  1.
    10030    2    1    2    0    0  0.00000000000E+00  0.00000000000E+00 -0.47739251856E+03  0.22540309432E+04  0.22028962473E+04 0.  0.
        4    1    3    3  502    0  0.27267968125E+03 -0.94521676870E+03 -0.74557119447E+03  0.12343690564E+04  0.12699999809E+01 0.  1.
       -4    1    3    3    0  502 -0.27267968125E+03  0.94521676870E+03  0.26817867591E+03  0.10196618869E+04  0.12699999809E+01 0. -1.
</event>
<event>
 5   0  0.2284329E-05  0.2214429E+04  0.7818609E-02  0.8512446E-01
       -2   -1    0    0    0  501  0.00000000000E+00  0.00000000000E+00  0.67892925518E+03  0.67892925519E+03  0.25500000920E-02 0. -1.
        2   -1    0    0  501    0  0.00000000000E+00  0.00000000000E+00 -0.18056724989E+04  0.18056724989E+04  0.25500000920E-02 0.  1.
    10030    2    1    2    0    0  0.00000000000E+00  0.00000000000E+00 -0.11267432438E+04  0.24846017541E+04  0.22144289420E+04 0.  0.
        2    1    3    3  502    0  0.74107225979E+03 -0.21226747928E+03  0.32837817725E+03  0.83790083202E+03  0.25500000920E-02 0. -1.
       -2    1    3    3    0  502 -0.74107225979E+03  0.21226747928E+03 -0.14551214210E+04  0.16467009221E+04  0.25500000920E-02 0.  1.
</event>
<event>
 5   0  0.1033733E-05  0.2195614E+04  0.7818609E-02  0.8520256E-01
        1   -1    0    0  501    0  0.00000000000E+00  0.00000000000E+00  0.20070591726E+04  0.20070591726E+04  0.50400001928E-02 0.  1.
       -1   -1    0    0    0  501  0.00000000000E+00  0.00000000000E+00 -0.60047042970E+03  0.60047042972E+03  0.50400001928E-02 0. -1.
    10030    2    1    2    0    0  0.00000000000E+00  0.00000000000E+00  0.14065887429E+04  0.26075296023E+04  0.21956135214E+04 0.  0.
        5    1    3    3  502    0 -0.10330734556E+04  0.74692654759E+02  0.11353258246E+04  0.15368170273E+04  0.46999998093E+01 0. -1.
       -5    1    3    3    0  502  0.10330734556E+04 -0.74692654759E+02  0.27126291830E+03  0.10707125750E+04  0.46999998093E+01 0.  1.
</event>
<event>
 5   0  0.2284329E-05  0.2214581E+04  0.7818609E-02  0.8512383E-01
       -2   -1    0    0    0  501  0.00000000000E+00  0.00000000000E+00  0.66587888899E+03  0.66587888899E+03  0.25500000920E-02 0. -1.
        2   -1    0    0  501    0  0.00000000000E+00  0.00000000000E+00 -0.18413148684E+04  0.18413148684E+04  0.25500000920E-02 0.  1.
    10030    2    1    2    0    0  0.00000000000E+00  0.00000000000E+00 -0.11754359794E+04  0.25071937574E+04  0.22145814041E+04 0.  0.
        2    1    3    3  502    0 -0.73637003959E+03 -0.56380038923E+03  0.97179397842E+02  0.93249962439E+03  0.25500000920E-02 0. -1.
       -2    1    3    3    0  502  0.73637003959E+03  0.56380038923E+03 -0.12726153773E+04  0.15746941330E+04  0.25500000920E-02 0.  1.
</event>
<event>
 5   0  0.1071208E-05  0.2205585E+04  0.7818609E-02  0.8516107E-01
       -1   -1    0    0    0  501  0.00000000000E+00  0.00000000000E+00  0.13287124496E+04  0.13287124496E+04  0.50400001928E-02 0.  1.
        1   -1    0    0  501    0  0.00000000000E+00  0.00000000000E+00 -0.91528587940E+03  0.91528587942E+03  0.50400001928E-02 0. -1.
    10030    2    1    2    0    0  0.00000000000E+00  0.00000000000E+00  0.41342657016E+03  0.22439983290E+04  0.22055854034E+04 0.  0.
        4    1    3    3  502    0  0.75452267416E+03  0.28133357908E+03 -0.55986582643E+03  0.98076725325E+03  0.12699999809E+01 0.  1.
       -4    1    3    3    0  502 -0.75452267416E+03 -0.28133357908E+03  0.97329239660E+03  0.12632310757E+04  0.12699999809E+01 0. -1.
</event>
<event>
 5   0  0.1071208E-05  0.2203913E+04  0.7818609E-02  0.8516801E-01
        1   -1    0    0  501    0  0.00000000000E+00  0.00000000000E+00  0.81494331604E+03  0.81494331606E+03  0.50400001928E-02 0. -1.
       -1   -1    0    0    0  501  0.00000000000E+00  0.00000000000E+00 -0.14900516217E+04  0.14900516217E+04  0.50400001928E-02 0.  1.
    10030    2    1    2    0    0  0.00000000000E+00  0.00000000000E+00 -0.67510830563E+03  0.23049949377E+04  0.22039125297E+04 0.  0.
        4    1    3    3  502    0 -0.11035658763E+03  0.55961601575E+03 -0.13236430772E+04  0.14413123431E+04  0.12699999809E+01 0.  1.
       -4    1    3    3    0  502  0.11035658763E+03 -0.55961601575E+03  0.64853477158E+03  0.86368259468E+03  0.12699999809E+01 0. -1.
</event>
<event>
 5   0  0.1007682E-05  0.2202578E+04  0.7818609E-02  0.8517356E-01
       -1   -1    0    0    0  501  0.00000000000E+00  0.00000000000E+00  0.13454917257E+04  0.13454917257E+04  0.50400001928E-02 0.  1.
        1   -1    0    0  501    0  0.00000000000E+00  0.00000000000E+00 -0.90140810132E+03  0.90140810134E+03  0.50400001928E-02 0. -1.
    10030    2    1    2    0    0  0.00000000000E+00  0.00000000000E+00  0.44408362434E+03  0.22468998270E+04  0.22025777097E+04 0.  0.
        2    1    3    3  502    0  0.46303810784E+03  0.98082626720E+03  0.41670275807E+03  0.11619232523E+04  0.25500000920E-02 0. -1.
       -2    1    3    3    0  502 -0.46303810784E+03 -0.98082626720E+03  0.27380866272E+02  0.10849765747E+04  0.25500000920E-02 0.  1.
</event>
<event>
 5   0  0.2284329E-05  0.2205980E+04  0.7818609E-02  0.8515943E-01
        2   -1    0    0  501    0  0.00000000000E+00  0.00000000000E+00  0.16528201081E+04  0.16528201081E+04  0.25500000920E-02 0.  1.
       -2   -1    0    0    0  501  0.00000000000E+00  0.00000000000E+00 -0.73606744604E+03  0.73606744604E+03  0.25500000920E-02 0. -1.
    10030    2    1    2    0    0  0.00000000000E+00  0.00000000000E+00  0.91675266205E+03  0.23888875541E+04  0.22059801230E+04 0.  0.
        2    1    3    3  502    0  0.18926024135E+02 -0.10465625504E+04  0.83496859234E+03  0.13389637472E+04  0.25500000920E-02 0.  1.
       -2    1    3    3    0  502 -0.18926024135E+02  0.10465625504E+04  0.81784069715E+02  0.10499238069E+04  0.25500000920E-02 0. -1.
</event>
<event>
 5   0  0.8003875E-06  0.2199102E+04  0.7818609E-02  0.8518802E-01
       -3   -1    0    0    0  501  0.00000000000E+00  0.00000000000E+00  0.47586992843E+03  0.47586993915E+03  0.10100000352E+00 0. -1.
        3   -1    0    0  501    0  0.00000000000E+00  0.00000000000E+00 -0.25406365429E+04  0.25406365449E+04  0.10100000352E+00 0.  1.
    10030    2    1    2    0    0  0.00000000000E+00  0.00000000000E+00 -0.20647666145E+04  0.30165064841E+04  0.21991021341E+04 0.  0.
        4    1    3    3  502    0 -0.76429547160E+03 -0.78967728681E+03 -0.98343938043E+03  0.14747516445E+04  0.12699999809E+01 0. -1.
       -4    1    3    3    0  502  0.76429547160E+03  0.78967728681E+03 -0.10813272341E+04  0.15417548395E+04  0.12699999809E+01 0.  1.
</event>
<event>
 5   0  0.2289708E-05  0.2191104E+04  0.7818609E-02  0.8522140E-01
        2   -1    0    0  501    0  0.00000000000E+00  0.00000000000E+00  0.17328270500E+04  0.17328270500E+04  0.25500000920E-02 0. -1.
       -2   -1    0    0    0  501  0.00000000000E+00  0.00000000000E+00 -0.69264527142E+03  0.69264527142E+03  0.25500000920E-02 0.  1.
    10030    2    1    2    0    0  0.00000000000E+00  0.00000000000E+00  0.10401817786E+04  0.24254723215E+04  0.21911042535E+04 0.  0.
        5    1    3    3  502    0  0.84158435091E+03 -0.34935181451E+03  0.11933408012E+04  0.15014643744E+04  0.46999998093E+01 0. -1.
       -5    1    3    3    0  502 -0.84158435091E+03  0.34935181451E+03 -0.15315902254E+03  0.92400794703E+03  0.46999998093E+01 0.  1.
</event>
<event>
 5   0  0.2289708E-05  0.2176846E+04  0.7818609E-02  0.8528128E-01
       -2   -1    0    0    0  501  0.00000000000E+00  0.00000000000E+00  0.10311118085E+04  0.10311118085E+04  0.25500000920E-02 0. -1.
        2   -1    0    0  501    0  0.00000000000E+00  0.00000000000E+00 -0.11489193950E+04  0.11489193950E+04  0.25500000920E-02 0.  1.
    10030    2    1    2    0    0  0.00000000000E+00  0.00000000000E+00 -0.11780758655E+03  0.21800312035E+04  0.21768457504E+04 0.  0.
        5    1    3    3  502    0  0.63444095939E+03  0.21553806335E+03  0.80006356117E+03  0.10435975180E+04  0.46999998093E+01 0. -1.
       -5    1    3    3    0  502 -0.63444095939E+03 -0.21553806335E+03 -0.91787114772E+03  0.11364336855E+04  0.46999998093E+01 0.  1.
</event>
<event>
 5   0  0.2298329E-05  0.2235010E+04  0.7818609E-02  0.8503996E-01
        2   -1    0    0  501    0  0.00000000000E+00  0.00000000000E+00  0.17823460033E+04  0.17823460033E+04  0.25500000920E-02 0.  1.
       -2   -1    0    0    0  501  0.00000000000E+00  0.00000000000E+00 -0.70065960704E+03  0.70065960705E+03  0.25500000920E-02 0. -1.
    10030    2    1    2    0    0  0.00000000000E+00  0.00000000000E+00  0.10816863963E+04  0.24830056104E+04  0.22350103806E+04 0.  0.
        4    1    3    3  502    0 -0.72253575039E+03  0.62514220734E+03  0.11847737998E+04  0.15220220956E+04  0.12699999809E+01 0.  1.
       -4    1    3    3    0  502  0.72253575039E+03 -0.62514220734E+03 -0.10308740349E+03  0.96098351477E+03  0.12699999809E+01 0. -1.
</event>
<event>
 5   0  0.1071208E-05  0.2204495E+04  0.7818609E-02  0.8516560E-01
       -1   -1    0    0    0  501  0.00000000000E+00  0.00000000000E+00  0.72466616943E+03  0.72466616944E+03  0.50400001928E-02 0. -1.
        1   -1    0    0  501    0  0.00000000000E+00  0.00000000000E+00 -0.16765643605E+04  0.16765643605E+04  0.50400001928E-02 0.  1.
    10030    2    1    2    0    0  0.00000000000E+00  0.00000000000E+00 -0.95189819111E+03  0.24012305300E+04  0.22044949290E+04 0.  0.
        4    1    3    3  502    0 -0.64018335059E+03  0.70190426233E+03  0.13290121254E+03  0.95925422128E+03  0.12699999809E+01 0. -1.
       -4    1    3    3    0  502  0.64018335059E+03 -0.70190426233E+03 -0.10847994036E+04  0.14419763087E+04  0.12699999809E+01 0.  1.
</event>
<event>
 5   0  0.1007682E-05  0.2286540E+04  0.7818609E-02  0.8483247E-01
       -1   -1    0    0    0  501  0.00000000000E+00  0.00000000000E+00  0.14602060791E+04  0.14602060791E+04  0.50400001928E-02 0. -1.
        1   -1    0    0  501    0  0.00000000000E+00  0.00000000000E+00 -0.89512416540E+03  0.89512416542E+03  0.50400001928E-02 0.  1.
    10030    2    1    2    0    0  0.00000000000E+00  0.00000000000E+00  0.56508191365E+03  0.23553302445E+04  0.22865395233E+04 0.  0.
        2    1    3    3  502    0  0.36203013847E+03 -0.58887828774E+03 -0.65547144360E+03  0.95262073897E+03  0.25500000920E-02 0.  1.
       -2    1    3    3    0  502 -0.36203013847E+03  0.58887828774E+03  0.12205533573E+04  0.14027095055E+04  0.25500000920E-02 0. -1.
</event>
<event>
 5   0  0.2284329E-05  0.2170511E+04  0.7818609E-02  0.8530803E-01
       -2   -1    0    0    0  501  0.00000000000E+00  0.00000000000E+00  0.82932916974E+03  0.82932916975E+03  0.25500000920E-02 0. -1.
        2   -1    0    0  501    0  0.00000000000E+00  0.00000000000E+00 -0.14201598934E+04  0.14201598934E+04  0.25500000920E-02 0.  1.
    10030    2    1    2    0    0  0.00000000000E+00  0.00000000000E+00 -0.59083072362E+03  0.22494890631E+04  0.21705114838E+04 0.  0.
        2    1    3    3  502    0  0.52664724448E+03  0.49330413980E+03 -0.11355112333E+04  0.13453966164E+04  0.25500000920E-02 0.  1.
       -2    1    3    3    0  502 -0.52664724448E+03 -0.49330413980E+03  0.54468050972E+03  0.90409244668E+03  0.25500000920E-02 0. -1.
</event>
<event>
 5   0  0.1007682E-05  0.2202182E+04  0.7818609E-02  0.8517520E-01
       -1   -1    0    0    0  501  0.00000000000E+00  0.00000000000E+00  0.94914347569E+03  0.94914347570E+03  0.50400001928E-02 0. -1.
        1   -1    0    0  501    0  0.00000000000E+00  0.00000000000E+00 -0.12773637480E+04  0.12773637480E+04  0.50400001928E-02 0.  1.
    10030    2    1    2    0    0  0.00000000000E+00  0.00000000000E+00 -0.32822027229E+03  0.22265072237E+04  0.22021820701E+04 0.  0.
        2    1    3    3  502    0  0.10481770165E+03 -0.76874977646E+03  0.62582574965E+03  0.99680531616E+03  0.25500000920E-02 0. -1.
       -2    1    3    3    0  502 -0.10481770165E+03  0.76874977646E+03 -0.95404602194E+03  0.12297019075E+04  0.25500000920E-02 0.  1.
</event>
<event>
 5   0  0.2319707E-05  0.2174129E+04  0.7818609E-02  0.8529274E-01
        2   -1    0    0  501    0  0.00000000000E+00  0.00000000000E+00  0.10409121002E+04  0.10409121002E+04  0.25500000920E-02 0. -1.
       -2   -1    0    0    0  501  0.00000000000E+00  0.00000000000E+00 -0.11352634551E+04  0.11352634551E+04  0.25500000920E-02 0.  1.
    10030    2    1    2    0    0  0.00000000000E+00  0.00000000000E+00 -0.94351354919E+02  0.21761755552E+04  0.21741292209E+04 0.  0.
        3    1    3    3  502    0 -0.16254924051E+03  0.50123157919E+03 -0.99888820464E+03  0.11293507016E+04  0.10100000352E+00 0.  1.
       -3    1    3    3    0  502  0.16254924051E+03 -0.50123157919E+03  0.90453684972E+03  0.10468248537E+04  0.10100000352E+00 0. -1.
</event>
<event>
 5   0  0.2289708E-05  0.2194031E+04  0.7818609E-02  0.8520917E-01
        2   -1    0    0  501    0  0.00000000000E+00  0.00000000000E+00  0.16845740977E+04  0.16845740978E+04  0.25500000920E-02 0. -1.
       -2   -1    0    0    0  501  0.00000000000E+00  0.00000000000E+00 -0.71439025775E+03  0.71439025775E+03  0.25500000920E-02 0.  1.
    10030    2    1    2    0    0  0.00000000000E+00  0.00000000000E+00  0.97018384000E+03  0.23989643555E+04  0.21940312887E+04 0.  0.
        5    1    3    3  502    0  0.61006039662E+03  0.37552056587E+03  0.13934947458E+04  0.15668564323E+04  0.46999998093E+01 0. -1.
       -5    1    3    3    0  502 -0.61006039662E+03 -0.37552056587E+03 -0.42331090578E+03  0.83210792321E+03  0.46999998093E+01 0.  1.
</event>
<event>
 5   0  0.1033733E-05  0.2220216E+04  0.7818609E-02  0.8510060E-01
       -1   -1    0    0    0  501  0.00000000000E+00  0.00000000000E+00  0.61977758432E+03  0.61977758434E+03  0.50400001928E-02 0.  1.
        1   -1    0    0  501    0  0.00000000000E+00  0.00000000000E+00 -0.19883589788E+04  0.19883589788E+04  0.50400001928E-02 0. -1.
    10030    2    1    2    0    0  0.00000000000E+00  0.00000000000E+00 -0.13685813945E+04  0.26081365632E+04  0.22202164982E+04 0.  0.
        5    1    3    3  502    0  0.49021863241E+03 -0.92265659684E+03 -0.11249424742E+04  0.15352938362E+04  0.46999998093E+01 0. -1.
       -5    1    3    3    0  502 -0.49021863241E+03  0.92265659684E+03 -0.24363892025E+03  0.10728427269E+04  0.46999998093E+01 0.  1.
</event>
<event>
 5   0  0.1005538E-05  0.2196136E+04  0.7818609E-02  0.8520038E-01
       -1   -1    0    0    0  501  0.00000000000E+00  0.00000000000E+00  0.84292714621E+03  0.84292714623E+03  0.50400001928E-02 0. -1.
        1   -1    0    0  501    0  0.00000000000E+00  0.00000000000E+00 -0.14304365476E+04  0.14304365476E+04  0.50400001928E-02 0.  1.
    10030    2    1    2    0    0  0.00000000000E+00  0.00000000000E+00 -0.58750940139E+03  0.22733636938E+04  0.21961364228E+04 0.  0.
        3    1    3    3  502    0 -0.39127285414E+03 -0.98687295554E+03 -0.58423077823E+03  0.12117500935E+04  0.10100000352E+00 0.  1.
       -3    1    3    3    0  502  0.39127285414E+03  0.98687295554E+03 -0.32786231641E+01  0.10616136003E+04  0.10100000352E+00 0. -1.
</event>
<event>
 5   0  0.2319707E-05  0.2209471E+04  0.7818609E-02  0.8514497E-01
       -2   -1    0    0    0  501  0.00000000000E+00  0.00000000000E+00  0.83559906460E+03  0.83559906461E+03  0.25500000920E-02 0.  1.
        2   -1    0    0  501    0  0.00000000000E+00  0.00000000000E+00 -0.14605572325E+04  0.14605572325E+04  0.25500000920E-02 0. -1.
    10030    2    1    2    0    0  0.00000000000E+00  0.00000000000E+00 -0.62495816792E+03  0.22961562971E+04  0.22094707577E+04 0.  0.
        3    1    3    3  502    0 -0.12931774505E+03  0.14890563862E+03  0.81715604507E+03  0.84061880813E+03  0.10100000352E+00 0.  1.
       -3    1    3    3    0  502  0.12931774505E+03 -0.14890563862E+03 -0.14421142130E+04  0.14555374890E+04  0.10100000352E+00 0. -1.
</event>
<event>
 5   0  0.2229552E-05  0.2200944E+04  0.7818609E-02  0.8518035E-01
        2   -1    0    0  501    0  0.00000000000E+00  0.00000000000E+00  0.14104956646E+04  0.14104956646E+04  0.25500000920E-02 0. -1.
       -2   -1    0    0    0  501  0.00000000000E+00  0.00000000000E+00 -0.85859054480E+03  0.85859054481E+03  0.25500000920E-02 0.  1.
    10030    2    1    2    0    0  0.00000000000E+00  0.00000000000E+00  0.55190511982E+03  0.22690862094E+04  0.22009436532E+04 0.  0.
        1    1    3    3  502    0 -0.90533953028E+03 -0.61391104206E+03  0.40014719646E+03  0.11647507079E+04  0.50400001928E-02 0. -1.
       -1    1    3    3    0  502  0.90533953028E+03  0.61391104206E+03  0.15175792337E+03  0.11043355016E+04  0.50400001928E-02 0.  1.
</event>
<event>
 5   0  0.2229552E-05  0.2263987E+04  0.7818609E-02  0.8492258E-01
       -2   -1    0    0    0  501  0.00000000000E+00  0.00000000000E+00  0.12737341491E+04  0.12737341491E+04  0.25500000920E-02 0. -1.
        2   -1    0    0  501    0  0.00000000000E+00  0.00000000000E+00 -0.10060254554E+04  0.10060254554E+04  0.25500000920E-02 0.  1.
    10030    2    1    2    0    0  0.00000000000E+00  0.00000000000E+00  0.26770869371E+03  0.22797596045E+04  0.22639867291E+04 0.  0.
        1    1    3    3  502    0  0.22548148569E+03 -0.30355812643E+03 -0.94054651519E+03  0.10137145475E+04  0.50400001928E-02 0.  1.
       -1    1    3    3    0  502 -0.22548148569E+03  0.30355812643E+03  0.12082552089E+04  0.12660450570E+04  0.50400001928E-02 0. -1.
</event>
<event>
 5   0  0.2284329E-05  0.2199706E+04  0.7818609E-02  0.8518551E-01
        2   -1    0    0  501    0  0.00000000000E+00  0.00000000000E+00  0.17996121500E+04  0.17996121500E+04  0.25500000920E-02 0. -1.
       -2   -1    0    0    0  501  0.00000000000E+00  0.00000000000E+00 -0.67218718849E+03  0.67218718850E+03  0.25500000920E-02 0.  1.
    10030    2    1    2    0    0  0.00000000000E+00  0.00000000000E+00  0.11274249615E+04  0.24717993385E+04  0.21997056453E+04 0.  0.
        2    1    3    3  502    0  0.28619339461E+03  0.60561501966E+03  0.15439717925E+04  0.16830107270E+04  0.25500000920E-02 0. -1.
       -2    1    3    3    0  502 -0.28619339461E+03 -0.60561501966E+03 -0.41654683101E+03  0.78878861147E+03  0.25500000920E-02 0.  1.
</event>
<event>
 5   0  0.1049198E-05  0.2202443E+04  0.7818609E-02  0.8517412E-01
       -1   -1    0    0    0  501  0.00000000000E+00  0.00000000000E+00  0.75675945847E+03  0.75675945848E+03  0.50400001928E-02 0. -1.
        1   -1    0    0  501    0  0.00000000000E+00  0.00000000000E+00 -0.16024760822E+04  0.16024760822E+04  0.50400001928E-02 0.  1.
    10030    2    1    2    0    0  0.00000000000E+00  0.00000000000E+00 -0.84571662377E+03  0.23592355407E+04  0.22024431273E+04 0.  0.
        1    1    3    3  502    0 -0.45510051051E+03 -0.42065284261E+03  0.55223293953E+03  0.83007620625E+03  0.50400001928E-02 0. -1.
       -1    1    3    3    0  502  0.45510051051E+03  0.42065284261E+03 -0.13979495633E+04  0.15291593345E+04  0.50400001928E-02 0.  1.
</event>
<event>
 5   0  0.2229552E-05  0.2219175E+04  0.7818609E-02  0.8510489E-01
       -2   -1    0    0    0  501  0.00000000000E+00  0.00000000000E+00  0.92232149945E+03  0.92232149945E+03  0.25500000920E-02 0. -1.
        2   -1    0    0  501    0  0.00000000000E+00  0.00000000000E+00 -0.13348758324E+04  0.13348758324E+04  0.25500000920E-02 0.  1.
    10030    2    1    2    0    0  0.00000000000E+00  0.00000000000E+00 -0.41255433293E+03  0.22571973318E+04  0.22191752336E+04 0.  0.
        1    1    3    3  502    0 -0.86311735796E+02 -0.68870715000E+02  0.91671912294E+03  0.92334546163E+03  0.50400001928E-02 0. -1.
       -1    1    3    3    0  502  0.86311735796E+02  0.68870715000E+02 -0.13292734559E+04  0.13338518702E+04  0.50400001928E-02 0.  1.
</event>
<event>
 5   0  0.2298329E-05  0.2206086E+04  0.7818609E-02  0.8515899E-01
       -2   -1    0    0    0  501  0.00000000000E+00  0.00000000000E+00  0.98708980752E+03  0.98708980753E+03  0.25500000920E-02 0. -1.
        2   -1    0    0  501    0  0.00000000000E+00  0.00000000000E+00 -0.12326173240E+04  0.12326173240E+04  0.25500000920E-02 0.  1.
    10030    2    1    2    0    0  0.00000000000E+00  0.00000000000E+00 -0.24552751646E+03  0.22197071315E+04  0.22060861244E+04 0.  0.
        4    1    3    3  502    0 -0.18822776877E+03  0.79465591608E+03  0.62329575996E+03  0.10273300031E+04  0.12699999809E+01 0. -1.
       -4    1    3    3    0  502  0.18822776877E+03 -0.79465591608E+03 -0.86882327642E+03  0.11923771285E+04  0.12699999809E+01 0.  1.
</event>
<event>
 5   0  0.2319707E-05  0.2206325E+04  0.7818609E-02  0.8515800E-01
       -2   -1    0    0    0  501  0.00000000000E+00  0.00000000000E+00  0.70517578817E+03  0.70517578817E+03  0.25500000920E-02 0. -1.
        2   -1    0    0  501    0  0.00000000000E+00  0.00000000000E+00 -0.17257641868E+04  0.17257641868E+04  0.25500000920E-02 0.  1.
    10030    2    1    2    0    0  0.00000000000E+00  0.00000000000E+00 -0.10205883986E+04  0.24309399750E+04  0.22063246548E+04 0.  0.
        3    1    3    3  502    0  0.52539373285E+03 -0.87342945475E+03 -0.45377415167E+02  0.10202826603E+04  0.10100000352E+00 0.  1.
       -3    1    3    3    0  502 -0.52539373285E+03  0.87342945475E+03 -0.97521098348E+03  0.14106573147E+04  0.10100000352E+00 0. -1.
</event>
<event>
 5   0  0.1033733E-05  0.2189451E+04  0.7818609E-02  0.8522832E-01
        1   -1    0    0  501    0  0.00000000000E+00  0.00000000000E+00  0.22454629440E+04  0.22454629440E+04  0.50400001928E-02 0.  1.
       -1   -1    0    0    0  501  0.00000000000E+00  0.00000000000E+00 -0.53370888395E+03  0.53370888397E+03  0.50400001928E-02 0. -1.
    10030    2    1    2    0    0  0.00000000000E+00  0.00000000000E+00  0.17117540600E+04  0.27791718279E+04  0.21894506359E+04 0.  0.
        5    1    3    3  502    0 -0.43823396233E+03 -0.28475959491E+03  0.20768700101E+04  0.21416227870E+04  0.46999998093E+01 0.  1.
       -5    1    3    3    0  502  0.43823396233E+03  0.28475959491E+03 -0.36511595011E+03  0.63754904098E+03  0.46999998093E+01 0. -1.
</event>
<event>
 5   0  0.1007682E-05  0.2211147E+04  0.7818609E-02  0.8513803E-01
       -1   -1    0    0    0  501  0.00000000000E+00  0.00000000000E+00  0.96466083480E+03  0.96466083482E+03  0.50400001928E-02 0. -1.
        1   -1    0    0  501    0  0.00000000000E+00  0.00000000000E+00 -0.12670696389E+04  0.12670696389E+04  0.50400001928E-02 0.  1.
    10030    2    1    2    0    0  0.00000000000E+00  0.00000000000E+00 -0.30240880408E+03  0.22317304737E+04  0.22111467212E+04 0.  0.
        2    1    3    3  502    0  0.16156641536E+03  0.50328584836E+03  0.82886127909E+03  0.98306224203E+03  0.25500000920E-02 0. -1.
       -2    1    3    3    0  502 -0.16156641536E+03 -0.50328584836E+03 -0.11312700832E+04  0.12486682317E+04  0.25500000920E-02 0.  1.
</event>
<event>
 5   0  0.2229552E-05  0.2199478E+04  0.7818609E-02  0.8518645E-01
       -2   -1    0    0    0  501  0.00000000000E+00  0.00000000000E+00  0.59061458502E+03  0.59061458503E+03  0.25500000920E-02 0. -1.
        2   -1    0    0  501    0  0.00000000000E+00  0.00000000000E+00 -0.20477419460E+04  0.20477419460E+04  0.25500000920E-02 0.  1.
    10030    2    1    2    0    0  0.00000000000E+00  0.00000000000E+00 -0.14571273610E+04  0.26383565310E+04  0.21994783560E+04 0.  0.
        1    1    3    3  502    0  0.42618061575E+03 -0.53343279896E+03 -0.17627053068E+04  0.18903202022E+04  0.50400001928E-02 0.  1.
       -1    1    3    3    0  502 -0.42618061575E+03  0.53343279896E+03  0.30557794581E+03  0.74803632883E+03  0.50400001928E-02 0. -1.
</event>
<event>
 5   0  0.2298329E-05  0.2240519E+04  0.7818609E-02  0.8501750E-01
       -2   -1    0    0    0  501  0.00000000000E+00  0.00000000000E+00  0.78530333165E+03  0.78530333165E+03  0.25500000920E-02 0. -1.
        2   -1    0    0  501    0  0.00000000000E+00  0.00000000000E+00 -0.15980843865E+04  0.15980843865E+04  0.25500000920E-02 0.  1.
    10030    2    1    2    0    0  0.00000000000E+00  0.00000000000E+00 -0.81278105490E+03  0.23833877182E+04  0.22405186837E+04 0.  0.
        4    1    3    3  502    0  0.22688213617E+03  0.16654536016E+03  0.74708045040E+03  0.79833806935E+03  0.12699999809E+01 0. -1.
       -4    1    3    3    0  502 -0.22688213617E+03 -0.16654536016E+03 -0.15598615053E+04  0.15850496488E+04  0.12699999809E+01 0.  1.
</event>
<event>
 5   0  0.2319707E-05  0.2243414E+04  0.7818609E-02  0.8500573E-01
        2   -1    0    0  501    0  0.00000000000E+00  0.00000000000E+00  0.16330438674E+04  0.16330438674E+04  0.25500000920E-02 0.  1.
       -2   -1    0    0    0  501  0.00000000000E+00  0.00000000000E+00 -0.77047918986E+03  0.77047918986E+03  0.25500000920E-02 0. -1.
    10030    2    1    2    0    0  0.00000000000E+00  0.00000000000E+00  0.86256467752E+03  0.24035230572E+04  0.22434137523E+04 0.  0.
        3    1    3    3  502    0 -0.31964567175E+03  0.25351179663E+03  0.15507393500E+04  0.16035068221E+04  0.10100000352E+00 0.  1.
       -3    1    3    3    0  502  0.31964567175E+03 -0.25351179663E+03 -0.68817467249E+03  0.80001623519E+03  0.10100000352E+00 0. -1.
</event>
<event>
 5   0  0.1049198E-05  0.2189052E+04  0.7818609E-02  0.8522999E-01
        1   -1    0    0  501    0  0.00000000000E+00  0.00000000000E+00  0.10434794119E+04  0.10434794119E+04  0.50400001928E-02 0. -1.
       -1   -1    0    0    0  501  0.00000000000E+00  0.00000000000E+00 -0.11480693811E+04  0.11480693811E+04  0.50400001928E-02 0.  1.
    10030    2    1    2    0    0  0.00000000000E+00  0.00000000000E+00 -0.10458996924E+03  0.21915487930E+04  0.21890516327E+04 0.  0.
        1    1    3    3  502    0  0.46579994858E+03  0.87403032111E+03  0.41416373532E+03  0.10735130153E+04  0.50400001928E-02 0. -1.
       -1    1    3    3    0  502 -0.46579994858E+03 -0.87403032111E+03 -0.51875370456E+03  0.11180357778E+04  0.50400001928E-02 0.  1.
</event>
<event>
 5   0  0.2284329E-05  0.2197995E+04  0.7818609E-02  0.8519263E-01
        2   -1    0    0  501    0  0.00000000000E+00  0.00000000000E+00  0.12133762760E+04  0.12133762760E+04  0.25500000920E-02 0. -1.
       -2   -1    0    0    0  501  0.00000000000E+00  0.00000000000E+00 -0.99540066859E+03  0.99540066860E+03  0.25500000920E-02 0.  1.
    10030    2    1    2    0    0  0.00000000000E+00  0.00000000000E+00  0.21797560738E+03  0.22087769446E+04  0.21979950467E+04 0.  0.
        2    1    3    3  502    0  0.51488978962E+03 -0.44961260727E+03  0.97375106667E+03  0.11897285959E+04  0.25500000920E-02 0. -1.
       -2    1    3    3    0  502 -0.51488978962E+03  0.44961260727E+03 -0.75577545929E+03  0.10190483487E+04  0.25500000920E-02 0.  1.
</event>
<event>
 5   0  0.1049198E-05  0.2193199E+04  0.7818609E-02  0.8521264E-01
        1   -1    0    0  501    0  0.00000000000E+00  0.00000000000E+00  0.17982391316E+04  0.17982391316E+04  0.50400001928E-02 0. -1.
       -1   -1    0    0    0  501  0.00000000000E+00  0.00000000000E+00 -0.66872685341E+03  0.66872685343E+03  0.50400001928E-02 0.  1.
    10030    2    1    2    0    0  0.00000000000E+00  0.00000000000E+00  0.11295122781E+04  0.24669659850E+04  0.21931993034E+04 0.  0.
        1    1    3    3  502    0  0.49123413291E+03  0.13139275247E+03  0.16576069636E+04  0.17338500150E+04  0.50400001928E-02 0. -1.
       -1    1    3    3    0  502 -0.49123413291E+03 -0.13139275247E+03 -0.52809468541E+03  0.73311597003E+03  0.50400001928E-02 0.  1.
</event>
<event>
 5   0  0.1007682E-05  0.2220986E+04  0.7818609E-02  0.8509744E-01
        1   -1    0    0  501    0  0.00000000000E+00  0.00000000000E+00  0.12566410747E+04  0.12566410747E+04  0.50400001928E-02 0.  1.
       -1   -1    0    0    0  501  0.00000000000E+00  0.00000000000E+00 -0.98134239227E+03  0.98134239229E+03  0.50400001928E-02 0. -1.
    10030    2    1    2    0    0  0.00000000000E+00  0.00000000000E+00  0.27529868240E+03  0.22379834670E+04  0.22209864101E+04 0.  0.
        2    1    3    3  502    0  0.74354025087E+03  0.40936009637E+03 -0.58390851773E+03  0.10302315032E+04  0.25500000920E-02 0. -1.
       -2    1    3    3    0  502 -0.74354025087E+03 -0.40936009637E+03  0.85920720013E+03  0.12077519637E+04  0.25500000920E-02 0.  1.
</event>
<event>
 5   0  0.2289708E-05  0.2186534E+04  0.7818609E-02  0.8524054E-01
       -2   -1    0    0    0  501  0.00000000000E+00  0.00000000000E+00  0.88544292704E+03  0.88544292704E+03  0.25500000920E-02 0.  1.
        2   -1    0    0  501    0  0.00000000000E+00  0.00000000000E+00 -0.13498699441E+04  0.13498699441E+04  0.25500000920E-02 0. -1.
    10030    2    1    2    0    0  0.00000000000E+00  0.00000000000E+00 -0.46442701702E+03  0.22353128711E+04  0.21865340559E+04 0.  0.
        5    1    3    3  502    0  0.95022445255E+03  0.38839790676E+02  0.31905235675E+03  0.10031208980E+04  0.46999998093E+01 0.  1.
       -5    1    3    3    0  502 -0.95022445255E+03 -0.38839790676E+02 -0.78347937377E+03  0.12321919731E+04  0.46999998093E+01 0. -1.
</event>
<event>
 5   0  0.1049198E-05  0.2197004E+04  0.7818609E-02  0.8519676E-01
       -1   -1    0    0    0  501  0.00000000000E+00  0.00000000000E+00  0.68815505747E+03  0.68815505748E+03  0.50400001928E-02 0. -1.
        1   -1    0    0  501    0  0.00000000000E+00  0.00000000000E+00 -0.17535392353E+04  0.17535392353E+04  0.50400001928E-02 0.  1.
    10030    2    1    2    0    0  0.00000000000E+00  0.00000000000E+00 -0.10653841778E+04  0.24416942928E+04  0.21970042269E+04 0.  0.
        1    1    3    3  502    0  0.43048503932E+03  0.10106376531E+04 -0.53383539289E+03  0.12213460041E+04  0.50400001928E-02 0. -1.
       -1    1    3    3    0  502 -0.43048503932E+03 -0.10106376531E+04 -0.53154878490E+03  0.12203482887E+04  0.50400001928E-02 0.  1.
</event>
<event>
 5   0  0.2298329E-05  0.2200227E+04  0.7818609E-02  0.8518333E-01
        2   -1    0    0  501    0  0.00000000000E+00  0.00000000000E+00  0.10771812830E+04  0.10771812830E+04  0.25500000920E-02 0. -1.
       -2   -1    0    0    0  501  0.00000000000E+00  0.00000000000E+00 -0.11235344051E+04  0.11235344051E+04  0.25500000920E-02 0.  1.
    10030    2    1    2    0    0  0.00000000000E+00  0.00000000000E+00 -0.46353122133E+02  0.22007156880E+04  0.22002274718E+04 0.  0.
        4    1    3    3  502    0  0.44297866022E+03  0.92063812425E+03  0.38488941848E+03  0.10917628527E+04  0.12699999809E+01 0.  1.
       -4    1    3    3    0  502 -0.44297866022E+03 -0.92063812425E+03 -0.43124254061E+03  0.11089528353E+04  0.12699999809E+01 0. -1.
</event>
<event>
 5   0  0.8003875E-06  0.2202347E+04  0.7818609E-02  0.8517452E-01
       -3   -1    0    0    0  501  0.00000000000E+00  0.00000000000E+00  0.11737585898E+04  0.11737585942E+04  0.10100000352E+00 0. -1.
        3   -1    0    0  501    0  0.00000000000E+00  0.00000000000E+00 -0.10330766546E+04  0.10330766595E+04  0.10100000352E+00 0.  1.
    10030    2    1    2    0    0  0.00000000000E+00  0.00000000000E+00  0.14068193521E+03  0.22068352537E+04  0.22023465736E+04 0.  0.
        4    1    3    3  502    0 -0.73796499258E+03 -0.81687051373E+03  0.97064183321E+02  0.11051211857E+04  0.12699999809E+01 0.  1.
       -4    1    3    3    0  502  0.73796499258E+03  0.81687051373E+03  0.43617751891E+02  0.11017140680E+04  0.12699999809E+01 0. -1.
</event>
<event>
 5   0  0.2319707E-05  0.2176907E+04  0.7818609E-02  0.8528102E-01
       -2   -1    0    0    0  501  0.00000000000E+00  0.00000000000E+00  0.72940792596E+03  0.72940792597E+03  0.25500000920E-02 0. -1.
        2   -1    0    0  501    0  0.00000000000E+00  0.00000000000E+00 -0.16242370381E+04  0.16242370381E+04  0.25500000920E-02 0.  1.
    10030    2    1    2    0    0  0.00000000000E+00  0.00000000000E+00 -0.89482911213E+03  0.23536449641E+04  0.21769073193E+04 0.  0.
        3    1    3    3  502    0  0.66754288733E+03  0.77818078040E+03 -0.52296328145E+02  0.10266030146E+04  0.10100000352E+00 0. -1.
       -3    1    3    3    0  502 -0.66754288733E+03 -0.77818078040E+03 -0.84253278399E+03  0.13270419495E+04  0.10100000352E+00 0.  1.
</event>
<event>
 5   0  0.2319707E-05  0.2136263E+04  0.7818609E-02  0.8545435E-01
       -2   -1    0    0    0  501  0.00000000000E+00  0.00000000000E+00  0.61769557581E+03  0.61769557582E+03  0.25500000920E-02 0. -1.
        2   -1    0    0  501    0  0.00000000000E+00  0.00000000000E+00 -0.18470350043E+04  0.18470350043E+04  0.25500000920E-02 0.  1.
    10030    2    1    2    0    0  0.00000000000E+00  0.00000000000E+00 -0.12293394284E+04  0.24647305801E+04  0.21362634206E+04 0.  0.
        3    1    3    3  502    0  0.29682455644E+03  0.78729874809E+03  0.14450046579E+03  0.85371220611E+03  0.10100000352E+00 0. -1.
       -3    1    3    3    0  502 -0.29682455644E+03 -0.78729874809E+03 -0.13738398942E+04  0.16110183740E+04  0.10100000352E+00 0.  1.
</event>
<event>
 5   0  0.1005538E-05  0.2198605E+04  0.7818609E-02  0.8519009E-01
       -1   -1    0    0    0  501  0.00000000000E+00  0.00000000000E+00  0.87977402090E+03  0.87977402091E+03  0.50400001928E-02 0.  1.
        1   -1    0    0  501    0  0.00000000000E+00  0.00000000000E+00 -0.13736093410E+04  0.13736093410E+04  0.50400001928E-02 0. -1.
    10030    2    1    2    0    0  0.00000000000E+00  0.00000000000E+00 -0.49383532007E+03  0.22533833619E+04  0.21986048422E+04 0.  0.
        3    1    3    3  502    0 -0.76922533980E+03  0.77394236460E+03 -0.38354847927E+03  0.11566347104E+04  0.10100000352E+00 0. -1.
       -3    1    3    3    0  502  0.76922533980E+03 -0.77394236460E+03 -0.11028684080E+03  0.10967486515E+04  0.10100000352E+00 0.  1.
</event>
<event>
 5   0  0.2284329E-05  0.2202759E+04  0.7818609E-02  0.8517281E-01
       -2   -1    0    0    0  501  0.00000000000E+00  0.00000000000E+00  0.11997351512E+04  0.11997351512E+04  0.25500000920E-02 0. -1.
        2   -1    0    0  501    0  0.00000000000E+00  0.00000000000E+00 -0.10110870440E+04  0.10110870440E+04  0.25500000920E-02 0.  1.
    10030    2    1    2    0    0  0.00000000000E+00  0.00000000000E+00  0.18864810723E+03  0.22108221952E+04  0.22027588771E+04 0.  0.
        2    1    3    3  502    0 -0.25726982013E+03  0.54956338477E+03  0.10168344321E+04  0.11841283446E+04  0.25500000920E-02 0. -1.
       -2    1    3    3    0  502  0.25726982013E+03 -0.54956338477E+03 -0.82818632485E+03  0.10266938506E+04  0.25500000920E-02 0.  1.
</event>
<event>
 5   0  0.2298329E-05  0.2204104E+04  0.7818609E-02  0.8516722E-01
        2   -1    0    0  501    0  0.00000000000E+00  0.00000000000E+00  0.15141789742E+04  0.15141789742E+04  0.25500000920E-02 0. -1.
       -2   -1    0    0    0  501  0.00000000000E+00  0.00000000000E+00 -0.80209721323E+03  0.80209721323E+03  0.25500000920E-02 0.  1.
    10030    2    1    2    0    0  0.00000000000E+00  0.00000000000E+00  0.71208176095E+03  0.23162761874E+04  0.22041041133E+04 0.  0.
        4    1    3    3  502    0 -0.47539109436E+01  0.77060288701E+03  0.11839584802E+04  0.14126608598E+04  0.12699999809E+01 0.  1.
       -4    1    3    3    0  502  0.47539109436E+01 -0.77060288701E+03 -0.47187671927E+03  0.90361532758E+03  0.12699999809E+01 0. -1.
</event>
<event>
 5   0  0.2298329E-05  0.2189633E+04  0.7818609E-02  0.8522755E-01
       -2   -1    0    0    0  501  0.00000000000E+00  0.00000000000E+00  0.10385584271E+04  0.10385584271E+04  0.25500000920E-02 0. -1.
        2   -1    0    0  501    0  0.00000000000E+00  0.00000000000E+00 -0.11541225083E+04  0.11541225083E+04  0.25500000920E-02 0.  1.
    10030    2    1    2    0    0  0.00000000000E+00  0.00000000000E+00 -0.11556408120E+03  0.21926809354E+04  0.21896334460E+04 0.  0.
        4    1    3    3  502    0  0.10246297322E+04  0.11360916888E+03 -0.42687189370E+03  0.11157931519E+04  0.12699999809E+01 0. -1.
       -4    1    3    3    0  502 -0.10246297322E+04 -0.11360916888E+03  0.31130781250E+03  0.10768877835E+04  0.12699999809E+01 0.  1.
</event>
<event>
 5   0  0.1071208E-05  0.2202524E+04  0.7818609E-02  0.8517378E-01
       -1   -1    0    0    0  501  0.00000000000E+00  0.00000000000E+00  0.12929222310E+04  0.12929222310E+04  0.50400001928E-02 0. -1.
        1   -1    0    0  501    0  0.00000000000E+00  0.00000000000E+00 -0.93801316161E+03  0.93801316162E+03  0.50400001928E-02 0.  1.
    10030    2    1    2    0    0  0.00000000000E+00  0.00000000000E+00  0.35490906934E+03  0.22309353926E+04  0.22025240699E+04 0.  0.
        4    1    3    3  502    0 -0.27489284903E+03  0.11226499290E+03 -0.89669986504E+03  0.94458550060E+03  0.12699999809E+01 0.  1.
       -4    1    3    3    0  502  0.27489284903E+03 -0.11226499290E+03  0.12516089344E+04  0.12863498920E+04  0.12699999809E+01 0. -1.
</event>
<event>
 5   0  0.1005538E-05  0.2205501E+04  0.7818609E-02  0.8516142E-01
       -1   -1    0    0    0  501  0.00000000000E+00  0.00000000000E+00  0.42585277579E+03  0.42585277582E+03  0.50400001928E-02 0. -1.
        1   -1    0    0  501    0  0.00000000000E+00  0.00000000000E+00 -0.28555850078E+04  0.28555850078E+04  0.50400001928E-02 0.  1.
    10030    2    1    2    0    0  0.00000000000E+00  0.00000000000E+00 -0.24297322320E+04  0.32814377837E+04  0.22055011241E+04 0.  0.
        3    1    3    3  502    0 -0.30059183044E+03 -0.10347960953E+04 -0.86625230836E+03  0.13825886877E+04  0.10100000352E+00 0. -1.
       -3    1    3    3    0  502  0.30059183044E+03  0.10347960953E+04 -0.15634799237E+04  0.18988490960E+04  0.10100000352E+00 0.  1.
</event>
<event>
 5   0  0.1049198E-05  0.2170633E+04  0.7818609E-02  0.8530752E-01
        1   -1    0    0  501    0  0.00000000000E+00  0.00000000000E+00  0.10019217160E+04  0.10019217160E+04  0.50400001928E-02 0. -1.
       -1   -1    0    0    0  501  0.00000000000E+00  0.00000000000E+00 -0.11756525028E+04  0.11756525029E+04  0.50400001928E-02 0.  1.
    10030    2    1    2    0    0  0.00000000000E+00  0.00000000000E+00 -0.17373078688E+03  0.21775742188E+04  0.21706328783E+04 0.  0.
        1    1    3    3  502    0 -0.14142165101E+03 -0.72577633376E+03 -0.88386198040E+03  0.11523729303E+04  0.50400001928E-02 0.  1.
       -1    1    3    3    0  502  0.14142165101E+03  0.72577633376E+03  0.71013119352E+03  0.10252012886E+04  0.50400001928E-02 0. -1.
</event>
<event>
 5   0  0.1071208E-05  0.2206437E+04  0.7818609E-02  0.8515754E-01
       -1   -1    0    0    0  501  0.00000000000E+00  0.00000000000E+00  0.11538885069E+04  0.11538885069E+04  0.50400001928E-02 0. -1.
        1   -1    0    0  501    0  0.00000000000E+00  0.00000000000E+00 -0.10547734495E+04  0.10547734495E+04  0.50400001928E-02 0.  1.
    10030    2    1    2    0    0  0.00000000000E+00  0.00000000000E+00  0.99115057359E+02  0.22086619564E+04  0.22064369112E+04 0.  0.
        4    1    3    3  502    0  0.82237993642E+03  0.51450334321E+03 -0.47639300982E+03  0.10807286258E+04  0.12699999809E+01 0. -1.
       -4    1    3    3    0  502 -0.82237993642E+03 -0.51450334321E+03  0.57550806718E+03  0.11279333306E+04  0.12699999809E+01 0.  1.
</event>
<event>
 5   0  0.1049198E-05  0.2201838E+04  0.7818609E-02  0.8517664E-01
       -1   -1    0    0    0  501  0.00000000000E+00  0.00000000000E+00  0.54868944254E+03  0.54868944256E+03  0.50400001928E-02 0. -1.
        1   -1    0    0  501    0  0.00000000000E+00  0.00000000000E+00 -0.22089407812E+04  0.22089407812E+04  0.50400001928E-02 0.  1.
    10030    2    1    2    0    0  0.00000000000E+00  0.00000000000E+00 -0.16602513386E+04  0.27576302237E+04  0.22018378559E+04 0.  0.
        1    1    3    3  502    0 -0.82253472247E+02  0.53949247249E+03  0.36736579572E+03  0.65785666331E+03  0.50400001928E-02 0. -1.
       -1    1    3    3    0  502  0.82253472247E+02 -0.53949247249E+03 -0.20276171344E+04  0.20997735604E+04  0.50400001928E-02 0.  1.
</event>
<event>
 5   0  0.2284329E-05  0.2245832E+04  0.7818609E-02  0.8499590E-01
        2   -1    0    0  501    0  0.00000000000E+00  0.00000000000E+00  0.13274960138E+04  0.13274960138E+04  0.25500000920E-02 0. -1.
       -2   -1    0    0    0  501  0.00000000000E+00  0.00000000000E+00 -0.94986376887E+03  0.94986376888E+03  0.25500000920E-02 0.  1.
    10030    2    1    2    0    0  0.00000000000E+00  0.00000000000E+00  0.37763224489E+03  0.22773597826E+04  0.22458320212E+04 0.  0.
        2    1    3    3  502    0  0.79011538921E+03  0.19630152032E+03 -0.59542552423E+03  0.10086367880E+04  0.25500000920E-02 0.  1.
       -2    1    3    3    0  502 -0.79011538921E+03 -0.19630152032E+03  0.97305776913E+03  0.12687229947E+04  0.25500000920E-02 0. -1.
</event>
<event>
 5   0  0.1071208E-05  0.2237723E+04  0.7818609E-02  0.8502889E-01
        1   -1    0    0  501    0  0.00000000000E+00  0.00000000000E+00  0.19589904867E+04  0.19589904867E+04  0.50400001928E-02 0. -1.
       -1   -1    0    0    0  501  0.00000000000E+00  0.00000000000E+00 -0.63902862352E+03  0.63902862354E+03  0.50400001928E-02 0.  1.
    10030    2    1    2    0    0  0.00000000000E+00  0.00000000000E+00  0.13199618632E+04  0.25980191103E+04  0.22377229446E+04 0.  0.
        4    1    3    3  502    0  0.74202553693E+03  0.53946419472E+03 -0.83633049945E+02  0.92120552255E+03  0.12699999809E+01 0.  1.
       -4    1    3    3    0  502 -0.74202553693E+03 -0.53946419472E+03  0.14035949131E+04  0.16768135877E+04  0.12699999809E+01 0. -1.
</event>
<event>
 5   0  0.2284329E-05  0.2200228E+04  0.7818609E-02  0.8518333E-01
        2   -1    0    0  501    0  0.00000000000E+00  0.00000000000E+00  0.91323496048E+03  0.91323496049E+03  0.25500000920E-02 0.  1.
       -2   -1    0    0    0  501  0.00000000000E+00  0.00000000000E+00 -0.13252347352E+04  0.13252347352E+04  0.25500000920E-02 0. -1.
    10030    2    1    2    0    0  0.00000000000E+00  0.00000000000E+00 -0.41199977473E+03  0.22384696957E+04  0.22002278892E+04 0.  0.
        2    1    3    3  502    0  0.57209497876E+03 -0.92947624387E+03 -0.34635397511E+03  0.11450676088E+04  0.25500000920E-02 0. -1.
       -2    1    3    3    0  502 -0.57209497876E+03  0.92947624387E+03 -0.65645799622E+02  0.10934020869E+04  0.25500000920E-02 0.  1.
</event>
<event>
 5   0  0.1049198E-05  0.2205005E+04  0.7818609E-02  0.8516348E-01
        1   -1    0    0  501    0  0.00000000000E+00  0.00000000000E+00  0.10233512405E+04  0.10233512405E+04  0.50400001928E-02 0. -1.
       -1   -1    0    0    0  501  0.00000000000E+00  0.00000000000E+00 -0.11877752270E+04  0.11877752270E+04  0.50400001928E-02 0.  1.
    10030    2    1    2    0    0  0.00000000000E+00  0.00000000000E+00 -0.16442398653E+03  0.22111264675E+04  0.22050045370E+04 0.  0.
        1    1    3    3  502    0 -0.67967951253E+03  0.61212736992E+03 -0.69942643131E+03  0.11514605897E+04  0.50400001928E-02 0.  1.
       -1    1    3    3    0  502  0.67967951253E+03 -0.61212736992E+03  0.53500244478E+03  0.10596658779E+04  0.50400001928E-02 0. -1.
</event>
<event>
 5   0  0.1005538E-05  0.2204064E+04  0.7818609E-02  0.8516738E-01
       -1   -1    0    0    0  501  0.00000000000E+00  0.00000000000E+00  0.85777063686E+03  0.85777063687E+03  0.50400001928E-02 0.  1.
        1   -1    0    0  501    0  0.00000000000E+00  0.00000000000E+00 -0.14158502141E+04  0.14158502141E+04  0.50400001928E-02 0. -1.
    10030    2    1    2    0    0  0.00000000000E+00  0.00000000000E+00 -0.55807957725E+03  0.22736208510E+04  0.22040641913E+04 0.  0.
        3    1    3    3  502    0  0.20655966352E+03 -0.21095045810E+03  0.81621471826E+03  0.86797089057E+03  0.10100000352E+00 0.  1.
       -3    1    3    3    0  502 -0.20655966352E+03  0.21095045810E+03 -0.13742942955E+04  0.14056499604E+04  0.10100000352E+00 0. -1.
</event>
<event>
 5   0  0.2284329E-05  0.2202434E+04  0.7818609E-02  0.8517416E-01
        2   -1    0    0  501    0  0.00000000000E+00  0.00000000000E+00  0.19549935779E+04  0.19549935779E+04  0.25500000920E-02 0. -1.
       -2   -1    0    0    0  501  0.00000000000E+00  0.00000000000E+00 -0.62029787044E+03  0.62029787045E+03  0.25500000920E-02 0.  1.
    10030    2    1    2    0    0  0.00000000000E+00  0.00000000000E+00  0.13346957075E+04  0.25752914484E+04  0.22024335206E+04 0.  0.
        2    1    3    3  502    0 -0.20735036413E+03 -0.90778304428E+03 -0.20067643273E+02  0.93137905243E+03  0.25500000920E-02 0.  1.
       -2    1    3    3    0  502  0.20735036413E+03  0.90778304428E+03  0.13547633508E+04  0.16439123960E+04  0.25500000920E-02 0. -1.
</event>
<event>
 5   0  0.2229552E-05  0.2199876E+04  0.7818609E-02  0.8518480E-01
        2   -1    0    0  501    0  0.00000000000E+00  0.00000000000E+00  0.61410854868E+03  0.61410854869E+03  0.25500000920E-02 0. -1.
       -2   -1    0    0    0  501  0.00000000000E+00  0.00000000000E+00 -0.19701143819E+04  0.19701143819E+04  0.25500000920E-02 0.  1.
    10030    2    1    2    0    0  0.00000000000E+00  0.00000000000E+00 -0.13560058332E+04  0.25842229306E+04  0.21998764363E+04 0.  0.
        1    1    3    3  502    0  0.10401760216E+04  0.32851262513E+03 -0.51196740430E+03  0.12049885160E+04  0.50400001928E-02 0. -1.
       -1    1    3    3    0  502 -0.10401760216E+04 -0.32851262513E+03 -0.84403842887E+03  0.13792344145E+04  0.50400001928E-02 0.  1.
</event>
<event>
 5   0  0.2289708E-05  0.2204746E+04  0.7818609E-02  0.8516455E-01
       -2   -1    0    0    0  501  0.00000000000E+00  0.00000000000E+00  0.91359749289E+03  0.91359749290E+03  0.25500000920E-02 0. -1.
        2   -1    0    0  501    0  0.00000000000E+00  0.00000000000E+00 -0.13301551553E+04  0.13301551553E+04  0.25500000920E-02 0.  1.
    10030    2    1    2    0    0  0.00000000000E+00  0.00000000000E+00 -0.41655766236E+03  0.22437526482E+04  0.22047461668E+04 0.  0.
        5    1    3    3  502    0 -0.10398723811E+04  0.20115170996E+03  0.10275514170E+03  0.10641321762E+04  0.46999998093E+01 0. -1.
       -5    1    3    3    0  502  0.10398723811E+04 -0.20115170996E+03 -0.51931280406E+03  0.11796204719E+04  0.46999998093E+01 0.  1.
</event>
<event>
 5   0  0.1071208E-05  0.2203391E+04  0.7818609E-02  0.8517018E-01
        1   -1    0    0  501    0  0.00000000000E+00  0.00000000000E+00  0.80941916734E+03  0.80941916735E+03  0.50400001928E-02 0. -1.
       -1   -1    0    0    0  501  0.00000000000E+00  0.00000000000E+00 -0.14995115403E+04  0.14995115403E+04  0.50400001928E-02 0.  1.
    10030    2    1    2    0    0  0.00000000000E+00  0.00000000000E+00 -0.69009237295E+03  0.23089307076E+04  0.22033913700E+04 0.  0.
        4    1    3    3  502    0  0.38332231658E+03  0.10241069949E+04 -0.20445336176E+03  0.11124450213E+04  0.12699999809E+01 0. -1.
       -4    1    3    3    0  502 -0.38332231658E+03 -0.10241069949E+04 -0.48563901119E+03  0.11964856863E+04  0.12699999809E+01 0.  1.
</event>
<event>
 5   0  0.1049198E-05  0.2101043E+04  0.7818609E-02  0.8560784E-01
        1   -1    0    0  501    0  0.00000000000E+00  0.00000000000E+00  0.14345792842E+04  0.14345792842E+04  0.50400001928E-02 0. -1.
       -1   -1    0    0    0  501  0.00000000000E+00  0.00000000000E+00 -0.76928159822E+03  0.76928159823E+03  0.50400001928E-02 0.  1.
    10030    2    1    2    0    0  0.00000000000E+00  0.00000000000E+00  0.66529768594E+03  0.22038608824E+04  0.21010430215E+04 0.  0.
        1    1    3    3  502    0  0.80035752684E+03  0.84964001645E+02 -0.37552272106E+03  0.88814884248E+03  0.50400001928E-02 0.  1.
       -1    1    3    3    0  502 -0.80035752684E+03 -0.84964001645E+02  0.10408204070E+04  0.13157120399E+04  0.50400001928E-02 0. -1.
</event>
<event>
 5   0  0.1005538E-05  0.2173295E+04  0.7818609E-02  0.8529626E-01
       -1   -1    0    0    0  501  0.00000000000E+00  0.00000000000E+00  0.15293186278E+04  0.15293186278E+04  0.50400001928E-02 0.  1.
        1   -1    0    0  501    0  0.00000000000E+00  0.00000000000E+00 -0.77211034497E+03  0.77211034499E+03  0.50400001928E-02 0. -1.
    10030    2    1    2    0    0  0.00000000000E+00  0.00000000000E+00  0.75720828286E+03  0.23014289728E+04  0.21732949485E+04 0.  0.
        3    1    3    3  502    0  0.65385335967E+03 -0.82951779550E+03  0.10825072233E+03  0.10617637299E+04  0.10100000352E+00 0. -1.
       -3    1    3    3    0  502 -0.65385335967E+03  0.82951779550E+03  0.64895756053E+03  0.12396652430E+04  0.10100000352E+00 0.  1.
</event>
<event>
 5   0  0.2319707E-05  0.2198715E+04  0.7818609E-02  0.8518963E-01
        2   -1    0    0  501    0  0.00000000000E+00  0.00000000000E+00  0.14757942610E+04  0.14757942610E+04  0.25500000920E-02 0.  1.
       -2   -1    0    0    0  501  0.00000000000E+00  0.00000000000E+00 -0.81894022671E+03  0.81894022672E+03  0.25500000920E-02 0. -1.
    10030    2    1    2    0    0  0.00000000000E+00  0.00000000000E+00  0.65685403426E+03  0.22947344877E+04  0.21987153401E+04 0.  0.
        3    1    3    3  502    0 -0.78508634984E+03 -0.26553976071E+03 -0.42541482184E+03  0.93158452224E+03  0.10100000352E+00 0. -1.
       -3    1    3    3    0  502  0.78508634984E+03  0.26553976071E+03  0.10822688561E+04  0.13631499655E+04  0.10100000352E+00 0.  1.
</event>
<event>
 5   0  0.2284329E-05  0.2201833E+04  0.7818609E-02  0.8517666E-01
        2   -1    0    0  501    0  0.00000000000E+00  0.00000000000E+00  0.20875839241E+04  0.20875839241E+04  0.25500000920E-02 0.  1.
       -2   -1    0    0    0  501  0.00000000000E+00  0.00000000000E+00 -0.58058363619E+03  0.58058363620E+03  0.25500000920E-02 0. -1.
    10030    2    1    2    0    0  0.00000000000E+00  0.00000000000E+00  0.15070002880E+04  0.26681675603E+04  0.22018329324E+04 0.  0.
        2    1    3    3  502    0  0.44095057994E+03  0.48784910303E+03 -0.31644100394E+03  0.72977330059E+03  0.25500000920E-02 0. -1.
       -2    1    3    3    0  502 -0.44095057994E+03 -0.48784910303E+03  0.18234412919E+04  0.19383942598E+04  0.25500000920E-02 0.  1.
</event>
<event>
 5   0  0.1007682E-05  0.2201524E+04  0.7818609E-02  0.8517794E-01
        1   -1    0    0  501    0  0.00000000000E+00  0.00000000000E+00  0.98784283744E+03  0.98784283746E+03  0.50400001928E-02 0.  1.
       -1   -1    0    0    0  501  0.00000000000E+00  0.00000000000E+00 -0.12265886964E+04  0.12265886965E+04  0.50400001928E-02 0. -1.
    10030    2    1    2    0    0  0.00000000000E+00  0.00000000000E+00 -0.23874585900E+03  0.22144315339E+04  0.22015238889E+04 0.  0.
        2    1    3    3  502    0  0.54725810296E+03  0.65189038443E+03  0.58273414490E+03  0.10315190683E+04  0.25500000920E-02 0.  1.
       -2    1    3    3    0  502 -0.54725810296E+03 -0.65189038443E+03 -0.82148000391E+03  0.11829124656E+04  0.25500000920E-02 0. -1.
</event>
<event>
 5   0  0.1007682E-05  0.2218123E+04  0.7818609E-02  0.8510922E-01
       -1   -1    0    0    0  501  0.00000000000E+00  0.00000000000E+00  0.67279198777E+03  0.67279198778E+03  0.50400001928E-02 0. -1.
        1   -1    0    0  501    0  0.00000000000E+00  0.00000000000E+00 -0.18282292005E+04  0.18282292005E+04  0.50400001928E-02 0.  1.
    10030    2    1    2    0    0  0.00000000000E+00  0.00000000000E+00 -0.11554372127E+04  0.25010211883E+04  0.22181234933E+04 0.  0.
        2    1    3    3  502    0  0.14550552489E+03  0.47948201836E+03 -0.16933234029E+04  0.17659045871E+04  0.25500000920E-02 0.  1.
       -2    1    3    3    0  502 -0.14550552489E+03 -0.47948201836E+03  0.53788619023E+03  0.73511660119E+03  0.25500000920E-02 0. -1.
</event>
<event>
 5   0  0.2229552E-05  0.2216039E+04  0.7818609E-02  0.8511782E-01
        2   -1    0    0  501    0  0.00000000000E+00  0.00000000000E+00  0.10059088038E+04  0.10059088038E+04  0.25500000920E-02 0.  1.
       -2   -1    0    0    0  501  0.00000000000E+00  0.00000000000E+00 -0.12204952968E+04  0.12204952968E+04  0.25500000920E-02 0. -1.
    10030    2    1    2    0    0  0.00000000000E+00  0.00000000000E+00 -0.21458649300E+03  0.22264041006E+04  0.22160387759E+04 0.  0.
        1    1    3    3  502    0  0.10535358836E+04 -0.31614680467E+02  0.23602079593E+03  0.10801125692E+04  0.50400001928E-02 0.  1.
       -1    1    3    3    0  502 -0.10535358836E+04  0.31614680467E+02 -0.45060728893E+03  0.11462915314E+04  0.50400001928E-02 0. -1.
</event>
<event>
 5   0  0.1005538E-05  0.2206815E+04  0.7818609E-02  0.8515597E-01
        1   -1    0    0  501    0  0.00000000000E+00  0.00000000000E+00  0.12079499381E+04  0.12079499381E+04  0.50400001928E-02 0. -1.
       -1   -1    0    0    0  501  0.00000000000E+00  0.00000000000E+00 -0.10079122840E+04  0.10079122840E+04  0.50400001928E-02 0.  1.
    10030    2    1    2    0    0  0.00000000000E+00  0.00000000000E+00  0.20003765415E+03  0.22158622221E+04  0.22068145197E+04 0.  0.
        3    1    3    3  502    0 -0.34537442299E+03  0.13826485991E+03  0.11430785046E+04  0.12020936492E+04  0.10100000352E+00 0. -1.
       -3    1    3    3    0  502  0.34537442299E+03 -0.13826485991E+03 -0.94304085046E+03  0.10137685729E+04  0.10100000352E+00 0.  1.
</event>
<event>
 5   0  0.2229552E-05  0.2193783E+04  0.7818609E-02  0.8521020E-01
        2   -1    0    0  501    0  0.00000000000E+00  0.00000000000E+00  0.16994073340E+04  0.16994073340E+04  0.25500000920E-02 0.  1.
       -2   -1    0    0    0  501  0.00000000000E+00  0.00000000000E+00 -0.70799418085E+03  0.70799418086E+03  0.25500000920E-02 0. -1.
    10030    2    1    2    0    0  0.00000000000E+00  0.00000000000E+00  0.99141315312E+03  0.24074015148E+04  0.21937825812E+04 0.  0.
        1    1    3    3  502    0 -0.30963971314E+03 -0.11591113469E+03  0.16434253641E+04  0.16763529075E+04  0.50400001928E-02 0.  1.
       -1    1    3    3    0  502  0.30963971314E+03  0.11591113469E+03 -0.65201221094E+03  0.73104860737E+03  0.50400001928E-02 0. -1.
</event>
<event>
 5   0  0.1007682E-05  0.2200105E+04  0.7818609E-02  0.8518385E-01
        1   -1    0    0  501    0  0.00000000000E+00  0.00000000000E+00  0.17353559113E+04  0.17353559113E+04  0.50400001928E-02 0.  1.
       -1   -1    0    0    0  501  0.00000000000E+00  0.00000000000E+00 -0.69732968513E+03  0.69732968515E+03  0.50400001928E-02 0. -1.
    10030    2    1    2    0    0  0.00000000000E+00  0.00000000000E+00  0.10380262261E+04  0.24326855964E+04  0.22001047168E+04 0.  0.
        2    1    3    3  502    0 -0.52703743836E+03 -0.67417650143E+03 -0.24531634671E+03  0.89020364327E+03  0.25500000920E-02 0. -1.
       -2    1    3    3    0  502  0.52703743836E+03  0.67417650143E+03  0.12833425728E+04  0.15424819531E+04  0.25500000920E-02 0.  1.
</event>
<event>
 5   0  0.1071208E-05  0.2206174E+04  0.7818609E-02  0.8515863E-01
       -1   -1    0    0    0  501  0.00000000000E+00  0.00000000000E+00  0.54844568839E+03  0.54844568841E+03  0.50400001928E-02 0.  1.
        1   -1    0    0  501    0  0.00000000000E+00  0.00000000000E+00 -0.22186351079E+04  0.22186351079E+04  0.50400001928E-02 0. -1.
    10030    2    1    2    0    0  0.00000000000E+00  0.00000000000E+00 -0.16701894195E+04  0.27670807963E+04  0.22061739361E+04 0.  0.
        4    1    3    3  502    0  0.18522824723E+03  0.10430920434E+04 -0.12205554541E+04  0.16162016409E+04  0.12699999809E+01 0. -1.
       -4    1    3    3    0  502 -0.18522824723E+03 -0.10430920434E+04 -0.44963396541E+03  0.11508791554E+04  0.12699999809E+01 0.  1.
</event>
<event>
 5   0  0.2298329E-05  0.2202300E+04  0.7818609E-02  0.8517471E-01
        2   -1    0    0  501    0  0.00000000000E+00  0.00000000000E+00  0.10435625615E+04  0.10435625615E+04  0.25500000920E-02 0. -1.
       -2   -1    0    0    0  501  0.00000000000E+00  0.00000000000E+00 -0.11619152328E+04  0.11619152328E+04  0.25500000920E-02 0.  1.
    10030    2    1    2    0    0  0.00000000000E+00  0.00000000000E+00 -0.11835267130E+03  0.22054777942E+04  0.22022999219E+04 0.  0.
        4    1    3    3  502    0 -0.10406042204E+04 -0.11356390664E+02  0.30126456020E+03  0.10833965383E+04  0.12699999809E+01 0. -1.
       -4    1    3    3    0  502  0.10406042204E+04  0.11356390664E+02 -0.41961723150E+03  0.11220812559E+04  0.12699999809E+01 0.  1.
</event>
<event>
 5   0  0.2284329E-05  0.2138716E+04  0.7818609E-02  0.8544378E-01
        2   -1    0    0  501    0  0.00000000000E+00  0.00000000000E+00  0.22646823211E+04  0.22646823211E+04  0.25500000920E-02 0.  1.
       -2   -1    0    0    0  501  0.00000000000E+00  0.00000000000E+00 -0.50493899695E+03  0.50493899696E+03  0.25500000920E-02 0. -1.
    10030    2    1    2    0    0  0.00000000000E+00  0.00000000000E+00  0.17597433241E+04  0.27696213180E+04  0.21387158948E+04 0.  0.
        2    1    3    3  502    0 -0.38567890297E+03  0.29430458858E+03  0.21139683914E+04  0.21689227203E+04  0.25500000920E-02 0.  1.
       -2    1    3    3    0  502  0.38567890297E+03 -0.29430458858E+03 -0.35422506722E+03  0.60069859773E+03  0.25500000920E-02 0. -1.
</event>
<event>
 5   0  0.1033733E-05  0.2196416E+04  0.7818609E-02  0.8519921E-01
       -1   -1    0    0    0  501  0.00000000000E+00  0.00000000000E+00  0.18655868943E+04  0.18655868943E+04  0.50400001928E-02 0.  1.
        1   -1    0    0  501    0  0.00000000000E+00  0.00000000000E+00 -0.64647802309E+03  0.64647802311E+03  0.50400001928E-02 0. -1.
    10030    2    1    2    0    0  0.00000000000E+00  0.00000000000E+00  0.12191088712E+04  0.25120649174E+04  0.21964161057E+04 0.  0.
        5    1    3    3  502    0  0.62068743653E+02 -0.77578406077E+03  0.14957240044E+04  0.16860918792E+04  0.46999998093E+01 0.  1.
       -5    1    3    3    0  502 -0.62068743653E+02  0.77578406077E+03 -0.27661513319E+03  0.82597303817E+03  0.46999998093E+01 0. -1.
</event>
<event>
 5   0  0.2289708E-05  0.2213490E+04  0.7818609E-02  0.8512834E-01
       -2   -1    0    0    0  501  0.00000000000E+00  0.00000000000E+00  0.66454051437E+03  0.66454051438E+03  0.25500000920E-02 0.  1.
        2   -1    0    0  501    0  0.00000000000E+00  0.00000000000E+00 -0.18432049549E+04  0.18432049549E+04  0.25500000920E-02 0. -1.
    10030    2    1    2    0    0  0.00000000000E+00  0.00000000000E+00 -0.11786644406E+04  0.25077454693E+04  0.22134898860E+04 0.  0.
        5    1    3    3  502    0  0.25129507671E+03  0.84257768019E+03  0.17216347068E+03  0.89596245087E+03  0.46999998093E+01 0.  1.
       -5    1    3    3    0  502 -0.25129507671E+03 -0.84257768019E+03 -0.13508279112E+04  0.16117830184E+04  0.46999998093E+01 0. -1.
</event>
<event>
 5   0  0.2284329E-05  0.2232697E+04  0.7818609E-02  0.8504941E-01
       -2   -1    0    0    0  501  0.00000000000E+00  0.00000000000E+00  0.59097545555E+03  0.59097545556E+03  0.25500000920E-02 0.  1.
        2   -1    0    0  501    0  0.00000000000E+00  0.00000000000E+00 -0.21087744193E+04  0.21087744193E+04  0.25500000920E-02 0. -1.
    10030    2    1    2    0    0  0.00000000000E+00  0.00000000000E+00 -0.15177989638E+04  0.26997498749E+04  0.22326969549E+04 0.  0.
        2    1    3    3  502    0 -0.87270280462E+03  0.64585888382E+03 -0.44476645950E+03  0.11732694007E+04  0.25500000920E-02 0.  1.
       -2    1    3    3    0  502  0.87270280462E+03 -0.64585888382E+03 -0.10730325043E+04  0.15264804743E+04  0.25500000920E-02 0. -1.
</event>
<event>
 5   0  0.8003875E-06  0.2194287E+04  0.7818609E-02  0.8520810E-01
       -4   -1    0    0    0  501  0.00000000000E+00  0.00000000000E+00  0.93262452512E+03  0.93262538983E+03  0.12699999809E+01 0. -1.
        4   -1    0    0  501    0  0.00000000000E+00  0.00000000000E+00 -0.12906828375E+04  0.12906834623E+04  0.12699999809E+01 0.  1.
    10030    2    1    2    0    0  0.00000000000E+00  0.00000000000E+00 -0.35805831236E+03  0.22233088521E+04  0.21942872412E+04 0.  0.
        4    1    3    3  502    0 -0.10673243144E+03 -0.35108251330E+03  0.86860524214E+03  0.94293553472E+03  0.12699999809E+01 0. -1.
       -4    1    3    3    0  502  0.10673243144E+03  0.35108251330E+03 -0.12266635545E+04  0.12803733174E+04  0.12699999809E+01 0.  1.
</event>
<event>
 5   0  0.1005538E-05  0.2203045E+04  0.7818609E-02  0.8517162E-01
        1   -1    0    0  501    0  0.00000000000E+00  0.00000000000E+00  0.18078896934E+04  0.18078896934E+04  0.50400001928E-02 0.  1.
       -1   -1    0    0    0  501  0.00000000000E+00  0.00000000000E+00 -0.67114257275E+03  0.67114257277E+03  0.50400001928E-02 0. -1.
    10030    2    1    2    0    0  0.00000000000E+00  0.00000000000E+00  0.11367471206E+04  0.24790322662E+04  0.22030449293E+04 0.  0.
        3    1    3    3  502    0  0.57989266866E+03 -0.13032298601E+02  0.16221183506E+04  0.17227052277E+04  0.10100000352E+00 0.  1.
       -3    1    3    3    0  502 -0.57989266866E+03  0.13032298601E+02 -0.48537123000E+03  0.75632703844E+03  0.10100000352E+00 0. -1.
</event>
<event>
 5   0  0.2229552E-05  0.2195761E+04  0.7818609E-02  0.8520195E-01
       -2   -1    0    0    0  501  0.00000000000E+00  0.00000000000E+00  0.81320686472E+03  0.81320686472E+03  0.25500000920E-02 0. -1.
        2   -1    0    0  501    0  0.00000000000E+00  0.00000000000E+00 -0.14822073460E+04  0.14822073460E+04  0.25500000920E-02 0.  1.
    10030    2    1    2    0    0  0.00000000000E+00  0.00000000000E+00 -0.66900048128E+03  0.22954142107E+04  0.21957606324E+04 0.  0.
        1    1    3    3  502    0 -0.14448215651E+03 -0.49286182532E+01 -0.14722138028E+04  0.14792947191E+04  0.50400001928E-02 0.  1.
       -1    1    3    3    0  502  0.14448215651E+03  0.49286182532E+01  0.80321332148E+03  0.81611949165E+03  0.50400001928E-02 0. -1.
</event>
<event>
 5   0  0.1005538E-05  0.2201232E+04  0.7818609E-02  0.8517916E-01
       -1   -1    0    0    0  501  0.00000000000E+00  0.00000000000E+00  0.73830329958E+03  0.73830329960E+03  0.50400001928E-02 0. -1.
        1   -1    0    0  501    0  0.00000000000E+00  0.00000000000E+00 -0.16407289183E+04  0.16407289183E+04  0.50400001928E-02 0.  1.
    10030    2    1    2    0    0  0.00000000000E+00  0.00000000000E+00 -0.90242561871E+03  0.23790322179E+04  0.22012319952E+04 0.  0.
        3    1    3    3  502    0 -0.37781680131E+02  0.26534177842E+03 -0.16049206262E+04  0.16271459496E+04  0.10100000352E+00 0.  1.
       -3    1    3    3    0  502  0.37781680131E+02 -0.26534177842E+03  0.70249500748E+03  0.75188626830E+03  0.10100000352E+00 0. -1.
</event>
<event>
 5   0  0.2284329E-05  0.2201026E+04  0.7818609E-02  0.8518001E-01
       -2   -1    0    0    0  501  0.00000000000E+00  0.00000000000E+00  0.57084361643E+03  0.57084361643E+03  0.25500000920E-02 0. -1.
        2   -1    0    0  501    0  0.00000000000E+00  0.00000000000E+00 -0.21216477359E+04  0.21216477359E+04  0.25500000920E-02 0.  1.
    10030    2    1    2    0    0  0.00000000000E+00  0.00000000000E+00 -0.15508041195E+04  0.26924913524E+04  0.22010261846E+04 0.  0.
        2    1    3    3  502    0 -0.69251766939E+03 -0.51399534431E+03  0.60881471216E+02  0.86456838360E+03  0.25500000920E-02 0. -1.
       -2    1    3    3    0  502  0.69251766939E+03  0.51399534431E+03 -0.16116855907E+04  0.18279229688E+04  0.25500000920E-02 0.  1.
</event>
<event>
 5   0  0.2319707E-05  0.2199249E+04  0.7818609E-02  0.8518741E-01
        2   -1    0    0  501    0  0.00000000000E+00  0.00000000000E+00  0.17658901607E+04  0.17658901607E+04  0.25500000920E-02 0. -1.
       -2   -1    0    0    0  501  0.00000000000E+00  0.00000000000E+00 -0.68473940626E+03  0.68473940626E+03  0.25500000920E-02 0.  1.
    10030    2    1    2    0    0  0.00000000000E+00  0.00000000000E+00  0.10811507545E+04  0.24506295670E+04  0.21992494903E+04 0.  0.
        3    1    3    3  502    0 -0.82383648268E+03  0.64362849270E+02 -0.26783215530E+03  0.86866748539E+03  0.10100000352E+00 0.  1.
       -3    1    3    3    0  502  0.82383648268E+03 -0.64362849270E+02  0.13489829098E+04  0.15819620816E+04  0.10100000352E+00 0. -1.
</event>
<event>
 5   0  0.2229552E-05  0.2208706E+04  0.7818609E-02  0.8514813E-01
       -2   -1    0    0    0  501  0.00000000000E+00  0.00000000000E+00  0.15818659018E+04  0.15818659018E+04  0.25500000920E-02 0. -1.
        2   -1    0    0  501    0  0.00000000000E+00  0.00000000000E+00 -0.77098519615E+03  0.77098519616E+03  0.25500000920E-02 0.  1.
    10030    2    1    2    0    0  0.00000000000E+00  0.00000000000E+00  0.81088070568E+03  0.23528510980E+04  0.22087056776E+04 0.  0.
        1    1    3    3  502    0 -0.53989281225E+03  0.90999463968E+03  0.74234076310E+03  0.12925340620E+04  0.50400001928E-02 0. -1.
       -1    1    3    3    0  502  0.53989281225E+03 -0.90999463968E+03  0.68539942579E+02  0.10603170359E+04  0.50400001928E-02 0.  1.
</event>
<event>
 5   0  0.2289708E-05  0.2193282E+04  0.7818609E-02  0.8521229E-01
        2   -1    0    0  501    0  0.00000000000E+00  0.00000000000E+00  0.10316983146E+04  0.10316983146E+04  0.25500000920E-02 0.  1.
       -2   -1    0    0    0  501  0.00000000000E+00  0.00000000000E+00 -0.11656717502E+04  0.11656717502E+04  0.25500000920E-02 0. -1.
    10030    2    1    2    0    0  0.00000000000E+00  0.00000000000E+00 -0.13397343565E+03  0.21973700648E+04  0.21932820886E+04 0.  0.
        5    1    3    3  502    0  0.39805396930E+03 -0.36561562361E+03 -0.10229547701E+04  0.11569703101E+04  0.46999998093E+01 0. -1.
       -5    1    3    3    0  502 -0.39805396930E+03  0.36561562361E+03  0.88898133444E+03  0.10403997547E+04  0.46999998093E+01 0.  1.
</event>
<event>
 5   0  0.1071208E-05  0.2194713E+04  0.7818609E-02  0.8520632E-01
        1   -1    0    0  501    0  0.00000000000E+00  0.00000000000E+00  0.12202661272E+04  0.12202661272E+04  0.50400001928E-02 0. -1.
       -1   -1    0    0    0  501  0.00000000000E+00  0.00000000000E+00 -0.98682661422E+03  0.98682661423E+03  0.50400001928E-02 0.  1.
    10030    2    1    2    0    0  0.00000000000E+00  0.00000000000E+00  0.23343951296E+03  0.22070927414E+04  0.21947128202E+04 0.  0.
        4    1    3    3  502    0 -0.68816483734E+03 -0.46253193354E+03 -0.60614142471E+03  0.10270908784E+04  0.12699999809E+01 0.  1.
       -4    1    3    3    0  502  0.68816483734E+03  0.46253193354E+03  0.83958093767E+03  0.11800018630E+04  0.12699999809E+01 0. -1.
</event>
<event>
 5   0  0.1033733E-05  0.2205237E+04  0.7818609E-02  0.8516252E-01
        1   -1    0    0  501    0  0.00000000000E+00  0.00000000000E+00  0.16728215540E+04  0.16728215540E+04  0.50400001928E-02 0.  1.
       -1   -1    0    0    0  501  0.00000000000E+00  0.00000000000E+00 -0.72677647217E+03  0.72677647219E+03  0.50400001928E-02 0. -1.
    10030    2    1    2    0    0  0.00000000000E+00  0.00000000000E+00  0.94604508185E+03  0.23995980262E+04  0.22052368105E+04 0.  0.
        5    1    3    3  502    0  0.59926370104E+02 -0.10610505640E+04  0.79273056743E+03  0.13258443769E+04  0.46999998093E+01 0.  1.
       -5    1    3    3    0  502 -0.59926370104E+02  0.10610505640E+04  0.15331451443E+03  0.10737536493E+04  0.46999998093E+01 0. -1.
</event>
<event>
 5   0  0.2298329E-05  0.2201925E+04  0.7818609E-02  0.8517627E-01
       -2   -1    0    0    0  501  0.00000000000E+00  0.00000000000E+00  0.68406536343E+03  0.68406536344E+03  0.25500000920E-02 0. -1.
        2   -1    0    0  501    0  0.00000000000E+00  0.00000000000E+00 -0.17719337403E+04  0.17719337403E+04  0.25500000920E-02 0.  1.
    10030    2    1    2    0    0  0.00000000000E+00  0.00000000000E+00 -0.10878683769E+04  0.24559991037E+04  0.22019250651E+04 0.  0.
        4    1    3    3  502    0 -0.17882586019E+03 -0.10776473135E+04 -0.39094117426E+03  0.11602323195E+04  0.12699999809E+01 0.  1.
       -4    1    3    3    0  502  0.17882586019E+03  0.10776473135E+04 -0.69692720259E+03  0.12957667842E+04  0.12699999809E+01 0. -1.
</event>
<event>
 5   0  0.1071208E-05  0.2208790E+04  0.7818609E-02  0.8514778E-01
        1   -1    0    0  501    0  0.00000000000E+00  0.00000000000E+00  0.18809240016E+04  0.18809240016E+04  0.50400001928E-02 0. -1.
       -1   -1    0    0    0  501  0.00000000000E+00  0.00000000000E+00 -0.64845181228E+03  0.64845181230E+03  0.50400001928E-02 0.  1.
    10030    2    1    2    0    0  0.00000000000E+00  0.00000000000E+00  0.12324721893E+04  0.25293758139E+04  0.22087902369E+04 0.  0.
        4    1    3    3  502    0  0.91464069881E+03 -0.43400533021E+03  0.11216036476E+04  0.15109350051E+04  0.12699999809E+01 0. -1.
       -4    1    3    3    0  502 -0.91464069881E+03  0.43400533021E+03  0.11086854177E+03  0.10184408088E+04  0.12699999809E+01 0.  1.
</event>
<event>
 5   0  0.1049198E-05  0.2204811E+04  0.7818609E-02  0.8516428E-01
       -1   -1    0    0    0  501  0.00000000000E+00  0.00000000000E+00  0.62827354775E+03  0.62827354777E+03  0.50400001928E-02 0.  1.
        1   -1    0    0  501    0  0.00000000000E+00  0.00000000000E+00 -0.19343457322E+04  0.19343457322E+04  0.50400001928E-02 0. -1.
    10030    2    1    2    0    0  0.00000000000E+00  0.00000000000E+00 -0.13060721844E+04  0.25626192800E+04  0.22048113350E+04 0.  0.
        1    1    3    3  502    0 -0.14440413200E+03 -0.10928512150E+04 -0.66586996065E+03  0.12878505876E+04  0.50400001928E-02 0.  1.
       -1    1    3    3    0  502  0.14440413200E+03  0.10928512150E+04 -0.64020222380E+03  0.12747686923E+04  0.50400001928E-02 0. -1.
</event>
<event>
 5   0  0.2229552E-05  0.2200488E+04  0.7818609E-02  0.8518225E-01
       -2   -1    0    0    0  501  0.00000000000E+00  0.00000000000E+00  0.47397053993E+03  0.47397053994E+03  0.25500000920E-02 0. -1.
        2   -1    0    0  501    0  0.00000000000E+00  0.00000000000E+00 -0.25540346314E+04  0.25540346314E+04  0.25500000920E-02 0.  1.
    10030    2    1    2    0    0  0.00000000000E+00  0.00000000000E+00 -0.20800640915E+04  0.30280051714E+04  0.22004882852E+04 0.  0.
        1    1    3    3  502    0 -0.33007527711E+03 -0.28515448673E+02  0.40370035463E+03  0.52224208536E+03  0.50400001928E-02 0. -1.
       -1    1    3    3    0  502  0.33007527711E+03  0.28515448673E+02 -0.24837644461E+04  0.25057630860E+04  0.50400001928E-02 0.  1.
</event>
<event>
 5   0  0.1033733E-05  0.2203578E+04  0.7818609E-02  0.8516940E-01
       -1   -1    0    0    0  501  0.00000000000E+00  0.00000000000E+00  0.96094634186E+03  0.96094634188E+03  0.50400001928E-02 0. -1.
        1   -1    0    0  501    0  0.00000000000E+00  0.00000000000E+00 -0.12632748551E+04  0.12632748551E+04  0.50400001928E-02 0.  1.
    10030    2    1    2    0    0  0.00000000000E+00  0.00000000000E+00 -0.30232851325E+03  0.22242211970E+04  0.22035783179E+04 0.  0.
        5    1    3    3  502    0 -0.10256067864E+04 -0.20335102797E+02 -0.55696839207E+03  0.11672697531E+04  0.46999998093E+01 0. -1.
       -5    1    3    3    0  502  0.10256067864E+04  0.20335102797E+02  0.25463987882E+03  0.10569514439E+04  0.46999998093E+01 0.  1.
</event>
<event>
 5   0  0.2298329E-05  0.2195475E+04  0.7818609E-02  0.8520314E-01
        2   -1    0    0  501    0  0.00000000000E+00  0.00000000000E+00  0.98519684987E+03  0.98519684987E+03  0.25500000920E-02 0.  1.
       -2   -1    0    0    0  501  0.00000000000E+00  0.00000000000E+00 -0.12231336524E+04  0.12231336524E+04  0.25500000920E-02 0. -1.
    10030    2    1    2    0    0  0.00000000000E+00  0.00000000000E+00 -0.23793680248E+03  0.22083305022E+04  0.21954748200E+04 0.  0.
        4    1    3    3  502    0  0.14200498971E+03  0.10677698510E+04 -0.33169658994E+03  0.11270856722E+04  0.12699999809E+01 0. -1.
       -4    1    3    3    0  502 -0.14200498971E+03 -0.10677698510E+04  0.93759787459E+02  0.10812448300E+04  0.12699999809E+01 0.  1.
</event>
<event>
 5   0  0.2229552E-05  0.2203534E+04  0.7818609E-02  0.8516959E-01
       -2   -1    0    0    0  501  0.00000000000E+00  0.00000000000E+00  0.94587997433E+03  0.94587997433E+03  0.25500000920E-02 0. -1.
        2   -1    0    0  501    0  0.00000000000E+00  0.00000000000E+00 -0.12833447389E+04  0.12833447389E+04  0.25500000920E-02 0.  1.
    10030    2    1    2    0    0  0.00000000000E+00  0.00000000000E+00 -0.33746476453E+03  0.22292247132E+04  0.22035336064E+04 0.  0.
        1    1    3    3  502    0  0.76028651023E+03 -0.72748722786E+03  0.16159690669E+03  0.10646064083E+04  0.50400001928E-02 0. -1.
       -1    1    3    3    0  502 -0.76028651023E+03  0.72748722786E+03 -0.49906167122E+03  0.11646183049E+04  0.50400001928E-02 0.  1.
</event>
<event>
 5   0  0.2319707E-05  0.2191492E+04  0.7818609E-02  0.8521978E-01
        2   -1    0    0  501    0  0.00000000000E+00  0.00000000000E+00  0.10882290809E+04  0.10882290809E+04  0.25500000920E-02 0. -1.
       -2   -1    0    0    0  501  0.00000000000E+00  0.00000000000E+00 -0.11033150338E+04  0.11033150338E+04  0.25500000920E-02 0.  1.
    10030    2    1    2    0    0  0.00000000000E+00  0.00000000000E+00 -0.15085952893E+02  0.21915441147E+04  0.21914921904E+04 0.  0.
        3    1    3    3  502    0 -0.81168868121E+03  0.45574394959E+02  0.72714711572E+03  0.10907146642E+04  0.10100000352E+00 0. -1.
       -3    1    3    3    0  502  0.81168868121E+03 -0.45574394959E+02 -0.74223306862E+03  0.11008294505E+04  0.10100000352E+00 0.  1.
</event>
<event>
 5   0  0.2284329E-05  0.2201266E+04  0.7818609E-02  0.8517901E-01
        2   -1    0    0  501    0  0.00000000000E+00  0.00000000000E+00  0.15431387848E+04  0.15431387848E+04  0.25500000920E-02 0. -1.
       -2   -1    0    0    0  501  0.00000000000E+00  0.00000000000E+00 -0.78501878455E+03  0.78501878455E+03  0.25500000920E-02 0.  1.
    10030    2    1    2    0    0  0.00000000000E+00  0.00000000000E+00  0.75812000025E+03  0.23281575694E+04  0.22012659387E+04 0.  0.
        2    1    3    3  502    0  0.47465375543E+03 -0.94581511562E+03  0.59080022279E+02  0.10598834226E+04  0.25500000920E-02 0.  1.
       -2    1    3    3    0  502 -0.47465375543E+03  0.94581511562E+03  0.69903997797E+03  0.12682741467E+04  0.25500000920E-02 0. -1.
</event>
<event>
 5   0  0.2229552E-05  0.2198512E+04  0.7818609E-02  0.8519048E-01
        2   -1    0    0  501    0  0.00000000000E+00  0.00000000000E+00  0.13744659868E+04  0.13744659868E+04  0.25500000920E-02 0.  1.
       -2   -1    0    0    0  501  0.00000000000E+00  0.00000000000E+00 -0.87915130327E+03  0.87915130327E+03  0.25500000920E-02 0. -1.
    10030    2    1    2    0    0  0.00000000000E+00  0.00000000000E+00  0.49531468355E+03  0.22536172901E+04  0.21985118272E+04 0.  0.
        1    1    3    3  502    0 -0.72819033914E+03 -0.25135663881E+03  0.10514822465E+04  0.13034785171E+04  0.50400001928E-02 0.  1.
       -1    1    3    3    0  502  0.72819033914E+03  0.25135663881E+03 -0.55616756291E+03  0.95013877299E+03  0.50400001928E-02 0. -1.
</event>
<event>
 5   0  0.2289708E-05  0.2198296E+04  0.7818609E-02  0.8519138E-01
       -2   -1    0    0    0  501  0.00000000000E+00  0.00000000000E+00  0.13184225397E+04  0.13184225397E+04  0.25500000920E-02 0.  1.
        2   -1    0    0  501    0  0.00000000000E+00  0.00000000000E+00 -0.91634249061E+03  0.91634249061E+03  0.25500000920E-02 0. -1.
    10030    2    1    2    0    0  0.00000000000E+00  0.00000000000E+00  0.40208004911E+03  0.22347650303E+04  0.21982962437E+04 0.  0.
        5    1    3    3  502    0 -0.90691291801E+03 -0.48229861137E+03 -0.19660313042E+03  0.10458383586E+04  0.46999998093E+01 0.  1.
       -5    1    3    3    0  502  0.90691291801E+03  0.48229861137E+03  0.59868317953E+03  0.11889266718E+04  0.46999998093E+01 0. -1.
</event>
<event>
 5   0  0.2284329E-05  0.2197188E+04  0.7818609E-02  0.8519599E-01
       -2   -1    0    0    0  501  0.00000000000E+00  0.00000000000E+00  0.13945612421E+04  0.13945612421E+04  0.25500000920E-02 0.  1.
        2   -1    0    0  501    0  0.00000000000E+00  0.00000000000E+00 -0.86544016945E+03  0.86544016946E+03  0.25500000920E-02 0. -1.
    10030    2    1    2    0    0  0.00000000000E+00  0.00000000000E+00  0.52912107264E+03  0.22600014116E+04  0.21971884923E+04 0.  0.
        2    1    3    3  502    0  0.90646361250E+03  0.60202704783E+03  0.41986187568E+03  0.11663605111E+04  0.25500000920E-02 0.  1.
       -2    1    3    3    0  502 -0.90646361250E+03 -0.60202704783E+03  0.10925919696E+03  0.10936409005E+04  0.25500000920E-02 0. -1.
</event>
<event>
 5   0  0.1005538E-05  0.2236314E+04  0.7818609E-02  0.8503464E-01
        1   -1    0    0  501    0  0.00000000000E+00  0.00000000000E+00  0.13264496212E+04  0.13264496213E+04  0.50400001928E-02 0. -1.
       -1   -1    0    0    0  501  0.00000000000E+00  0.00000000000E+00 -0.94257282096E+03  0.94257282097E+03  0.50400001928E-02 0.  1.
    10030    2    1    2    0    0  0.00000000000E+00  0.00000000000E+00  0.38387680028E+03  0.22690224422E+04  0.22363142546E+04 0.  0.
        3    1    3    3  502    0  0.71951671822E+03 -0.73765716046E+03 -0.24849920346E+03  0.10599972917E+04  0.10100000352E+00 0.  1.
       -3    1    3    3    0  502 -0.71951671822E+03  0.73765716046E+03  0.63237600374E+03  0.12090251505E+04  0.10100000352E+00 0. -1.
</event>
<event>
 5   0  0.1049198E-05  0.2202863E+04  0.7818609E-02  0.8517237E-01
       -1   -1    0    0    0  501  0.00000000000E+00  0.00000000000E+00  0.84224590199E+03  0.84224590201E+03  0.50400001928E-02 0.  1.
        1   -1    0    0  501    0  0.00000000000E+00  0.00000000000E+00 -0.14403765332E+04  0.14403765332E+04  0.50400001928E-02 0. -1.
    10030    2    1    2    0    0  0.00000000000E+00  0.00000000000E+00 -0.59813063123E+03  0.22826224352E+04  0.22028628940E+04 0.  0.
        1    1    3    3  502    0 -0.73836412556E+03  0.18693770652E+03 -0.11235008131E+04  0.13573434956E+04  0.50400001928E-02 0. -1.
       -1    1    3    3    0  502  0.73836412556E+03 -0.18693770652E+03  0.52537018189E+03  0.92527893961E+03  0.50400001928E-02 0.  1.
</event>
<event>
 5   0  0.2284329E-05  0.2201384E+04  0.7818609E-02  0.8517852E-01
        2   -1    0    0  501    0  0.00000000000E+00  0.00000000000E+00  0.17992315555E+04  0.17992315555E+04  0.25500000920E-02 0.  1.
       -2   -1    0    0    0  501  0.00000000000E+00  0.00000000000E+00 -0.67335550929E+03  0.67335550930E+03  0.25500000920E-02 0. -1.
    10030    2    1    2    0    0  0.00000000000E+00  0.00000000000E+00  0.11258760462E+04  0.24725870648E+04  0.22013836380E+04 0.  0.
        2    1    3    3  502    0 -0.24951133346E+02  0.34933555863E+02  0.17982909011E+04  0.17988032348E+04  0.25500000920E-02 0.  1.
       -2    1    3    3    0  502  0.24951133346E+02 -0.34933555863E+02 -0.67241485495E+03  0.67378382998E+03  0.25500000920E-02 0. -1.
</event>
<event>
 5   0  0.2289708E-05  0.2198645E+04  0.7818609E-02  0.8518992E-01
        2   -1    0    0  501    0  0.00000000000E+00  0.00000000000E+00  0.15495515552E+04  0.15495515552E+04  0.25500000920E-02 0. -1.
       -2   -1    0    0    0  501  0.00000000000E+00  0.00000000000E+00 -0.77990960525E+03  0.77990960526E+03  0.25500000920E-02 0.  1.
    10030    2    1    2    0    0  0.00000000000E+00  0.00000000000E+00  0.76964194997E+03  0.23294611605E+04  0.21986451662E+04 0.  0.
        5    1    3    3  502    0 -0.80068362224E+03 -0.57563151012E+03 -0.12992755193E+03  0.99466032248E+03  0.46999998093E+01 0.  1.
       -5    1    3    3    0  502  0.80068362224E+03  0.57563151012E+03  0.89956950191E+03  0.13348008380E+04  0.46999998093E+01 0. -1.
</event>
<event>
 5   0  0.2289708E-05  0.2207517E+04  0.7818609E-02  0.8515306E-01
        2   -1    0    0  501    0  0.00000000000E+00  0.00000000000E+00  0.15548373485E+04  0.15548373485E+04  0.25500000920E-02 0. -1.
       -2   -1    0    0    0  501  0.00000000000E+00  0.00000000000E+00 -0.78354325231E+03  0.78354325232E+03  0.25500000920E-02 0.  1.
    10030    2    1    2    0    0  0.00000000000E+00  0.00000000000E+00  0.77129409622E+03  0.23383806009E+04  0.22075165348E+04 0.  0.
        5    1    3    3  502    0  0.51778369289E+03  0.97247944038E+03  0.31503177133E+03  0.11458984778E+04  0.46999998093E+01 0. -1.
       -5    1    3    3    0  502 -0.51778369289E+03 -0.97247944038E+03  0.45626232489E+03  0.11924821230E+04  0.46999998093E+01 0.  1.
</event>
<event>
 5   0  0.1071208E-05  0.2278715E+04  0.7818609E-02  0.8486361E-01
       -1   -1    0    0    0  501  0.00000000000E+00  0.00000000000E+00  0.11184810518E+04  0.11184810518E+04  0.50400001928E-02 0.  1.
        1   -1    0    0  501    0  0.00000000000E+00  0.00000000000E+00 -0.11606238067E+04  0.11606238067E+04  0.50400001928E-02 0. -1.
    10030    2    1    2    0    0  0.00000000000E+00  0.00000000000E+00 -0.42142754878E+02  0.22791048585E+04  0.22787151960E+04 0.  0.
        4    1    3    3  502    0  0.48786576377E+03  0.99658128249E+03  0.23771379416E+03  0.11347672523E+04  0.12699999809E+01 0. -1.
       -4    1    3    3    0  502 -0.48786576377E+03 -0.99658128249E+03 -0.27985654904E+03  0.11443376062E+04  0.12699999809E+01 0.  1.
</event>
<event>
 5   0  0.1033733E-05  0.2209104E+04  0.7818609E-02  0.8514649E-01
        1   -1    0    0  501    0  0.00000000000E+00  0.00000000000E+00  0.14362363265E+04  0.14362363265E+04  0.50400001928E-02 0. -1.
       -1   -1    0    0    0  501  0.00000000000E+00  0.00000000000E+00 -0.84946657215E+03  0.84946657216E+03  0.50400001928E-02 0.  1.
    10030    2    1    2    0    0  0.00000000000E+00  0.00000000000E+00  0.58676975431E+03  0.22857028986E+04  0.22091036635E+04 0.  0.
        5    1    3    3  502    0  0.94421429703E+03  0.20167286987E+03 -0.26168688430E+03  0.10003572865E+04  0.46999998093E+01 0.  1.
       -5    1    3    3    0  502 -0.94421429703E+03 -0.20167286987E+03  0.84845663861E+03  0.12853456122E+04  0.46999998093E+01 0. -1.
</event>
<event>
 5   0  0.2229552E-05  0.2197832E+04  0.7818609E-02  0.8519331E-01
        2   -1    0    0  501    0  0.00000000000E+00  0.00000000000E+00  0.12336737646E+04  0.12336737646E+04  0.25500000920E-02 0.  1.
       -2   -1    0    0    0  501  0.00000000000E+00  0.00000000000E+00 -0.97887790290E+03  0.97887790291E+03  0.25500000920E-02 0. -1.
    10030    2    1    2    0    0  0.00000000000E+00  0.00000000000E+00  0.25479586172E+03  0.22125516675E+04  0.21978316474E+04 0.  0.
        1    1    3    3  502    0 -0.42091866728E+03 -0.49268560818E+03  0.10208692616E+04  0.12091673508E+04  0.50400001928E-02 0.  1.
       -1    1    3    3    0  502  0.42091866728E+03  0.49268560818E+03 -0.76607339989E+03  0.10033843167E+04  0.50400001928E-02 0. -1.
</event>
<event>
 5   0  0.2298329E-05  0.2198990E+04  0.7818609E-02  0.8518849E-01
       -2   -1    0    0    0  501  0.00000000000E+00  0.00000000000E+00  0.14277649198E+04  0.14277649198E+04  0.25500000920E-02 0.  1.
        2   -1    0    0  501    0  0.00000000000E+00  0.00000000000E+00 -0.84670046668E+03  0.84670046669E+03  0.25500000920E-02 0. -1.
    10030    2    1    2    0    0  0.00000000000E+00  0.00000000000E+00  0.58106445316E+03  0.22744653865E+04  0.21989899717E+04 0.  0.
        4    1    3    3  502    0  0.10167216841E+04  0.38339820205E+03  0.11693093578E+03  0.10928822539E+04  0.12699999809E+01 0. -1.
       -4    1    3    3    0  502 -0.10167216841E+04 -0.38339820205E+03  0.46413351738E+03  0.11815831326E+04  0.12699999809E+01 0.  1.
</event>
<event>
 5   0  0.2284329E-05  0.2199982E+04  0.7818609E-02  0.8518436E-01
       -2   -1    0    0    0  501  0.00000000000E+00  0.00000000000E+00  0.66439210042E+03  0.66439210042E+03  0.25500000920E-02 0. -1.
        2   -1    0    0  501    0  0.00000000000E+00  0.00000000000E+00 -0.18211832001E+04  0.18211832001E+04  0.25500000920E-02 0.  1.
    10030    2    1    2    0    0  0.00000000000E+00  0.00000000000E+00 -0.11567910997E+04  0.24855753005E+04  0.21999815741E+04 0.  0.
        2    1    3    3  502    0  0.82674742938E+03  0.51289417020E+03  0.14633846595E+01  0.97292028621E+03  0.25500000920E-02 0. -1.
       -2    1    3    3    0  502 -0.82674742938E+03 -0.51289417020E+03 -0.11582544843E+04  0.15126550143E+04  0.25500000920E-02 0.  1.
</event>
<event>
 5   0  0.2284329E-05  0.2193330E+04  0.7818609E-02  0.8521210E-01
       -2   -1    0    0    0  501  0.00000000000E+00  0.00000000000E+00  0.96519594405E+03  0.96519594406E+03  0.25500000920E-02 0.  1.
        2   -1    0    0  501    0  0.00000000000E+00  0.00000000000E+00 -0.12460412359E+04  0.12460412359E+04  0.25500000920E-02 0. -1.
    10030    2    1    2    0    0  0.00000000000E+00  0.00000000000E+00 -0.28084529186E+03  0.22112371800E+04  0.21933298402E+04 0.  0.
        2    1    3    3  502    0 -0.86661833358E+03  0.49708187126E+03  0.31554888736E+03  0.10477064585E+04  0.25500000920E-02 0.  1.
       -2    1    3    3    0  502  0.86661833358E+03 -0.49708187126E+03 -0.59639417922E+03  0.11635307215E+04  0.25500000920E-02 0. -1.
</event>
<event>
 5   0  0.1007682E-05  0.2201427E+04  0.7818609E-02  0.8517835E-01
       -1   -1    0    0    0  501  0.00000000000E+00  0.00000000000E+00  0.66219010225E+03  0.66219010227E+03  0.50400001928E-02 0. -1.
        1   -1    0    0  501    0  0.00000000000E+00  0.00000000000E+00 -0.18296404146E+04  0.18296404146E+04  0.50400001928E-02 0.  1.
    10030    2    1    2    0    0  0.00000000000E+00  0.00000000000E+00 -0.11674503123E+04  0.24918305169E+04  0.22014266040E+04 0.  0.
        2    1    3    3  502    0  0.87888313182E+03  0.65901662006E+03 -0.66240195244E+03  0.12827762126E+04  0.25500000920E-02 0. -1.
       -2    1    3    3    0  502 -0.87888313182E+03 -0.65901662006E+03 -0.50504835990E+03  0.12090543043E+04  0.25500000920E-02 0.  1.
</event>
<event>
 5   0  0.1005538E-05  0.2200954E+04  0.7818609E-02  0.8518031E-01
       -1   -1    0    0    0  501  0.00000000000E+00  0.00000000000E+00  0.10214697576E+04  0.10214697576E+04  0.50400001928E-02 0.  1.
        1   -1    0    0  501    0  0.00000000000E+00  0.00000000000E+00 -0.11855950564E+04  0.11855950564E+04  0.50400001928E-02 0. -1.
    10030    2    1    2    0    0  0.00000000000E+00  0.00000000000E+00 -0.16412529878E+03  0.22070648140E+04  0.22009538794E+04 0.  0.
        3    1    3    3  502    0 -0.28799293917E+03 -0.56160544683E+03 -0.98606934236E+03  0.11707576047E+04  0.10100000352E+00 0. -1.
       -3    1    3    3    0  502  0.28799293917E+03  0.56160544683E+03  0.82194404358E+03  0.10363072092E+04  0.10100000352E+00 0.  1.
</event>
<event>
 5   0  0.2289708E-05  0.2198824E+04  0.7818609E-02  0.8518918E-01
        2   -1    0    0  501    0  0.00000000000E+00  0.00000000000E+00  0.13510181119E+04  0.13510181119E+04  0.25500000920E-02 0. -1.
       -2   -1    0    0    0  501  0.00000000000E+00  0.00000000000E+00 -0.89466354848E+03  0.89466354849E+03  0.25500000920E-02 0.  1.
    10030    2    1    2    0    0  0.00000000000E+00  0.00000000000E+00  0.45635456341E+03  0.22456816604E+04  0.21988239202E+04 0.  0.
        5    1    3    3  502    0  0.68284863014E+03  0.86112323792E+03  0.19806879075E+03  0.11167223551E+04  0.46999998093E+01 0.  1.
       -5    1    3    3    0  502 -0.68284863014E+03 -0.86112323792E+03  0.25828577266E+03  0.11289593053E+04  0.46999998093E+01 0. -1.
</event>
<event>
 5   0  0.2229552E-05  0.2204501E+04  0.7818609E-02  0.8516557E-01
        2   -1    0    0  501    0  0.00000000000E+00  0.00000000000E+00  0.11633135122E+04  0.11633135122E+04  0.25500000920E-02 0. -1.
       -2   -1    0    0    0  501  0.00000000000E+00  0.00000000000E+00 -0.10443923583E+04  0.10443923583E+04  0.25500000920E-02 0.  1.
    10030    2    1    2    0    0  0.00000000000E+00  0.00000000000E+00  0.11892115388E+03  0.22077058705E+04  0.22045006169E+04 0.  0.
        1    1    3    3  502    0  0.15065958945E+03  0.26016818423E+03 -0.10025387080E+04  0.10466468635E+04  0.50400001928E-02 0.  1.
       -1    1    3    3    0  502 -0.15065958945E+03 -0.26016818423E+03  0.11214598618E+04  0.11610590070E+04  0.50400001928E-02 0. -1.
</event>
<event>
 5   0  0.1071208E-05  0.2173462E+04  0.7818609E-02  0.8529556E-01
       -1   -1    0    0    0  501  0.00000000000E+00  0.00000000000E+00  0.10473117639E+04  0.10473117639E+04  0.50400001928E-02 0.  1.
        1   -1    0    0  501    0  0.00000000000E+00  0.00000000000E+00 -0.11276334131E+04  0.11276334131E+04  0.50400001928E-02 0. -1.
    10030    2    1    2    0    0  0.00000000000E+00  0.00000000000E+00 -0.80321649195E+02  0.21749451770E+04  0.21734615147E+04 0.  0.
        4    1    3    3  502    0 -0.10165983233E+04 -0.42062059325E+02 -0.42218150362E+03  0.11015807745E+04  0.12699999809E+01 0. -1.
       -4    1    3    3    0  502  0.10165983233E+04  0.42062059325E+02  0.34185985443E+03  0.10733644026E+04  0.12699999809E+01 0.  1.
</event>
<event>
 5   0  0.1005538E-05  0.2186181E+04  0.7818609E-02  0.8524202E-01
       -1   -1    0    0    0  501  0.00000000000E+00  0.00000000000E+00  0.15327324676E+04  0.15327324676E+04  0.50400001928E-02 0. -1.
        1   -1    0    0  501    0  0.00000000000E+00  0.00000000000E+00 -0.77955370542E+03  0.77955370544E+03  0.50400001928E-02 0.  1.
    10030    2    1    2    0    0  0.00000000000E+00  0.00000000000E+00  0.75317876213E+03  0.23122861730E+04  0.21861813964E+04 0.  0.
        3    1    3    3  502    0 -0.83976216998E+03  0.65496245405E+03  0.11606656066E+03  0.10712832375E+04  0.10100000352E+00 0.  1.
       -3    1    3    3    0  502  0.83976216998E+03 -0.65496245405E+03  0.63711220147E+03  0.12410029355E+04  0.10100000352E+00 0. -1.
</event>
<event>
 5   0  0.2289708E-05  0.2201599E+04  0.7818609E-02  0.8517763E-01
        2   -1    0    0  501    0  0.00000000000E+00  0.00000000000E+00  0.17181533351E+04  0.17181533351E+04  0.25500000920E-02 0. -1.
       -2   -1    0    0    0  501  0.00000000000E+00  0.00000000000E+00 -0.70526833805E+03  0.70526833806E+03  0.25500000920E-02 0.  1.
    10030    2    1    2    0    0  0.00000000000E+00  0.00000000000E+00  0.10128849971E+04  0.24234216732E+04  0.22015986439E+04 0.  0.
        5    1    3    3  502    0 -0.47490984150E+03  0.52051179335E+03 -0.42450326100E+03  0.82261594512E+03  0.46999998093E+01 0.  1.
       -5    1    3    3    0  502  0.47490984150E+03 -0.52051179335E+03  0.14373882581E+04  0.16008057281E+04  0.46999998093E+01 0. -1.
</event>
<event>
 5   0  0.2289708E-05  0.2168488E+04  0.7818609E-02  0.8531660E-01
        2   -1    0    0  501    0  0.00000000000E+00  0.00000000000E+00  0.17555987664E+04  0.17555987664E+04  0.25500000920E-02 0. -1.
       -2   -1    0    0    0  501  0.00000000000E+00  0.00000000000E+00 -0.66962066928E+03  0.66962066928E+03  0.25500000920E-02 0.  1.
    10030    2    1    2    0    0  0.00000000000E+00  0.00000000000E+00  0.10859780971E+04  0.24252194357E+04  0.21684881562E+04 0.  0.
        5    1    3    3  502    0  0.27290090250E+03 -0.18751662310E+03  0.16976579290E+04  0.17296536996E+04  0.46999998093E+01 0. -1.
       -5    1    3    3    0  502 -0.27290090250E+03  0.18751662310E+03 -0.61167983188E+03  0.69556573611E+03  0.46999998093E+01 0.  1.
</event>
<event>
 5   0  0.2284329E-05  0.2084409E+04  0.7818609E-02  0.8568142E-01
        2   -1    0    0  501    0  0.00000000000E+00  0.00000000000E+00  0.11556056464E+04  0.11556056464E+04  0.25500000920E-02 0. -1.
       -2   -1    0    0    0  501  0.00000000000E+00  0.00000000000E+00 -0.93993181305E+03  0.93993181305E+03  0.25500000920E-02 0.  1.
    10030    2    1    2    0    0  0.00000000000E+00  0.00000000000E+00  0.21567383337E+03  0.20955374595E+04  0.20844092788E+04 0.  0.
        2    1    3    3  502    0  0.40863820520E+03 -0.68219773097E+03 -0.56941496344E+03  0.97806560490E+03  0.25500000920E-02 0.  1.
       -2    1    3    3    0  502 -0.40863820520E+03  0.68219773097E+03  0.78508879682E+03  0.11174718546E+04  0.25500000920E-02 0. -1.
</event>
<event>
 5   0  0.2298329E-05  0.2115735E+04  0.7818609E-02  0.8554343E-01
       -2   -1    0    0    0  501  0.00000000000E+00  0.00000000000E+00  0.83182240040E+03  0.83182240041E+03  0.25500000920E-02 0.  1.
        2   -1    0    0  501    0  0.00000000000E+00  0.00000000000E+00 -0.13453400027E+04  0.13453400027E+04  0.25500000920E-02 0. -1.
    10030    2    1    2    0    0  0.00000000000E+00  0.00000000000E+00 -0.51351760234E+03  0.21771624031E+04  0.21157352863E+04 0.  0.
        4    1    3    3  502    0 -0.24209834317E+03  0.47879448685E+03 -0.11949453563E+04  0.13098670871E+04  0.12699999809E+01 0. -1.
       -4    1    3    3    0  502  0.24209834317E+03 -0.47879448685E+03  0.68142775399E+03  0.86729531603E+03  0.12699999809E+01 0.  1.
</event>
<event>
 5   0  0.1049198E-05  0.2205370E+04  0.7818609E-02  0.8516196E-01
       -1   -1    0    0    0  501  0.00000000000E+00  0.00000000000E+00  0.22324935600E+04  0.22324935600E+04  0.50400001928E-02 0.  1.
        1   -1    0    0  501    0  0.00000000000E+00  0.00000000000E+00 -0.54464409819E+03  0.54464409822E+03  0.50400001928E-02 0. -1.
    10030    2    1    2    0    0  0.00000000000E+00  0.00000000000E+00  0.16878494618E+04  0.27771376583E+04  0.22053702109E+04 0.  0.
        1    1    3    3  502    0 -0.10310100913E+04  0.28618202787E+03  0.11795420727E+04  0.15925455920E+04  0.50400001928E-02 0.  1.
       -1    1    3    3    0  502  0.10310100913E+04 -0.28618202787E+03  0.50830738916E+03  0.11845920662E+04  0.50400001928E-02 0. -1.
</event>
<event>
 5   0  0.1049198E-05  0.2161646E+04  0.7818609E-02  0.8534564E-01
       -1   -1    0    0    0  501  0.00000000000E+00  0.00000000000E+00  0.97396171357E+03  0.97396171358E+03  0.50400001928E-02 0.  1.
        1   -1    0    0  501    0  0.00000000000E+00  0.00000000000E+00 -0.11994091680E+04  0.11994091680E+04  0.50400001928E-02 0. -1.
    10030    2    1    2    0    0  0.00000000000E+00  0.00000000000E+00 -0.22544745439E+03  0.21733708815E+04  0.21616462324E+04 0.  0.
        1    1    3    3  502    0  0.34757702788E+03 -0.96368276037E+03 -0.45909826704E+03  0.11226154603E+04  0.50400001928E-02 0. -1.
       -1    1    3    3    0  502 -0.34757702788E+03  0.96368276037E+03  0.23365081265E+03  0.10507554212E+04  0.50400001928E-02 0.  1.
</event>
<event>
 5   0  0.1033733E-05  0.2202671E+04  0.7818609E-02  0.8517317E-01
        1   -1    0    0  501    0  0.00000000000E+00  0.00000000000E+00  0.17009858218E+04  0.17009858218E+04  0.50400001928E-02 0.  1.
       -1   -1    0    0    0  501  0.00000000000E+00  0.00000000000E+00 -0.71308043059E+03  0.71308043061E+03  0.50400001928E-02 0. -1.
    10030    2    1    2    0    0  0.00000000000E+00  0.00000000000E+00  0.98790539121E+03  0.24140662524E+04  0.22026708354E+04 0.  0.
        5    1    3    3  502    0 -0.53962935489E+03 -0.16842288241E+03  0.15298358482E+04  0.16309463266E+04  0.46999998093E+01 0.  1.
       -5    1    3    3    0  502  0.53962935489E+03  0.16842288241E+03 -0.54193045697E+03  0.78311992579E+03  0.46999998093E+01 0. -1.
</event>
<event>
 5   0  0.2229552E-05  0.2191766E+04  0.7818609E-02  0.8521863E-01
        2   -1    0    0  501    0  0.00000000000E+00  0.00000000000E+00  0.13785020908E+04  0.13785020908E+04  0.25500000920E-02 0.  1.
       -2   -1    0    0    0  501  0.00000000000E+00  0.00000000000E+00 -0.87120594638E+03  0.87120594639E+03  0.25500000920E-02 0. -1.
    10030    2    1    2    0    0  0.00000000000E+00  0.00000000000E+00  0.50729614444E+03  0.22497080372E+04  0.21917656979E+04 0.  0.
        1    1    3    3  502    0  0.55021228153E+03  0.93271247014E+03  0.42623934844E+03  0.11637723527E+04  0.50400001928E-02 0.  1.
       -1    1    3    3    0  502 -0.55021228153E+03 -0.93271247014E+03  0.81056795991E+02  0.10859356845E+04  0.50400001928E-02 0. -1.
</event>
<event>
 5   0  0.2298329E-05  0.2193580E+04  0.7818609E-02  0.8521105E-01
        2   -1    0    0  501    0  0.00000000000E+00  0.00000000000E+00  0.90126132314E+03  0.90126132315E+03  0.25500000920E-02 0.  1.
       -2   -1    0    0    0  501  0.00000000000E+00  0.00000000000E+00 -0.13347389281E+04  0.13347389281E+04  0.25500000920E-02 0. -1.
    10030    2    1    2    0    0  0.00000000000E+00  0.00000000000E+00 -0.43347760494E+03  0.22360002512E+04  0.21935802446E+04 0.  0.
        4    1    3    3  502    0  0.10905145577E+04 -0.64885525576E+02 -0.11730849477E+03  0.10987242728E+04  0.12699999809E+01 0.  1.
       -4    1    3    3    0  502 -0.10905145577E+04  0.64885525576E+02 -0.31616911018E+03  0.11372759784E+04  0.12699999809E+01 0. -1.
</event>
<event>
 5   0  0.1071208E-05  0.2164537E+04  0.7818609E-02  0.8533335E-01
       -1   -1    0    0    0  501  0.00000000000E+00  0.00000000000E+00  0.57853494641E+03  0.57853494643E+03  0.50400001928E-02 0.  1.
        1   -1    0    0  501    0  0.00000000000E+00  0.00000000000E+00 -0.20246062908E+04  0.20246062908E+04  0.50400001928E-02 0. -1.
    10030    2    1    2    0    0  0.00000000000E+00  0.00000000000E+00 -0.14460713444E+04  0.26031412373E+04  0.21645373566E+04 0.  0.
        4    1    3    3  502    0  0.75330943529E+03  0.31388445167E+03 -0.15779243867E+04  0.17764699653E+04  0.12699999809E+01 0. -1.
       -4    1    3    3    0  502 -0.75330943529E+03 -0.31388445167E+03  0.13185304231E+03  0.82667127201E+03  0.12699999809E+01 0.  1.
</event>
<event>
 5   0  0.1033733E-05  0.2211657E+04  0.7818609E-02  0.8513592E-01
       -1   -1    0    0    0  501  0.00000000000E+00  0.00000000000E+00  0.93441594933E+03  0.93441594934E+03  0.50400001928E-02 0.  1.
        1   -1    0    0  501    0  0.00000000000E+00  0.00000000000E+00 -0.13086857572E+04  0.13086857572E+04  0.50400001928E-02 0. -1.
    10030    2    1    2    0    0  0.00000000000E+00  0.00000000000E+00 -0.37426980784E+03  0.22431017065E+04  0.22116571562E+04 0.  0.
        5    1    3    3  502    0  0.45648734084E+03 -0.95136281226E+03 -0.52253724759E+03  0.11775139736E+04  0.46999998093E+01 0. -1.
       -5    1    3    3    0  502 -0.45648734084E+03  0.95136281226E+03  0.14826743974E+03  0.10655877329E+04  0.46999998093E+01 0.  1.
</event>
<event>
 5   0  0.2229552E-05  0.2056465E+04  0.7818609E-02  0.8580667E-01
        2   -1    0    0  501    0  0.00000000000E+00  0.00000000000E+00  0.94054299524E+03  0.94054299524E+03  0.25500000920E-02 0.  1.
       -2   -1    0    0    0  501  0.00000000000E+00  0.00000000000E+00 -0.11240978128E+04  0.11240978128E+04  0.25500000920E-02 0. -1.
    10030    2    1    2    0    0  0.00000000000E+00  0.00000000000E+00 -0.18355481760E+03  0.20646408081E+04  0.20564652429E+04 0.  0.
        1    1    3    3  502    0  0.62117990649E+03 -0.59061341491E+03  0.47843619194E+03  0.98162613651E+03  0.50400001928E-02 0.  1.
       -1    1    3    3    0  502 -0.62117990649E+03  0.59061341491E+03 -0.66199100954E+03  0.10830146716E+04  0.50400001928E-02 0. -1.
</event>
<event>
 5   0  0.1005538E-05  0.2192613E+04  0.7818609E-02  0.8521509E-01
        1   -1    0    0  501    0  0.00000000000E+00  0.00000000000E+00  0.10083237087E+04  0.10083237087E+04  0.50400001928E-02 0.  1.
       -1   -1    0    0    0  501  0.00000000000E+00  0.00000000000E+00 -0.11919668367E+04  0.11919668367E+04  0.50400001928E-02 0. -1.
    10030    2    1    2    0    0  0.00000000000E+00  0.00000000000E+00 -0.18364312803E+03  0.22002905454E+04  0.21926134373E+04 0.  0.
        3    1    3    3  502    0  0.86303640840E+03  0.11274847102E+03  0.57710399929E+03  0.10443146538E+04  0.10100000352E+00 0.  1.
       -3    1    3    3    0  502 -0.86303640840E+03 -0.11274847102E+03 -0.76074712733E+03  0.11559758916E+04  0.10100000352E+00 0. -1.
</event>
<event>
 5   0  0.2284329E-05  0.2150761E+04  0.7818609E-02  0.8539207E-01
       -2   -1    0    0    0  501  0.00000000000E+00  0.00000000000E+00  0.10859038731E+04  0.10859038731E+04  0.25500000920E-02 0. -1.
        2   -1    0    0  501    0  0.00000000000E+00  0.00000000000E+00 -0.10649591521E+04  0.10649591521E+04  0.25500000920E-02 0.  1.
    10030    2    1    2    0    0  0.00000000000E+00  0.00000000000E+00  0.20944720924E+02  0.21508630252E+04  0.21507610448E+04 0.  0.
        2    1    3    3  502    0 -0.40373955374E+02 -0.96629361984E+03  0.48069658231E+03  0.10800104723E+04  0.25500000920E-02 0. -1.
       -2    1    3    3    0  502  0.40373955374E+02  0.96629361984E+03 -0.45975186139E+03  0.10708525529E+04  0.25500000920E-02 0.  1.
</event>
<event>
 5   0  0.2284329E-05  0.2207087E+04  0.7818609E-02  0.8515484E-01
        2   -1    0    0  501    0  0.00000000000E+00  0.00000000000E+00  0.25315246107E+04  0.25315246107E+04  0.25500000920E-02 0.  1.
       -2   -1    0    0    0  501  0.00000000000E+00  0.00000000000E+00 -0.48105728945E+03  0.48105728945E+03  0.25500000920E-02 0. -1.
    10030    2    1    2    0    0  0.00000000000E+00  0.00000000000E+00  0.20504673212E+04  0.30125819001E+04  0.22070871006E+04 0.  0.
        2    1    3    3  502    0 -0.19842669489E+03 -0.19200590960E+02 -0.45627536848E+03  0.49792472104E+03  0.25500000920E-02 0. -1.
       -2    1    3    3    0  502  0.19842669489E+03  0.19200590960E+02  0.25067426897E+04  0.25146571791E+04  0.25500000920E-02 0.  1.
</event>
<event>
 5   0  0.2298329E-05  0.2198860E+04  0.7818609E-02  0.8518903E-01
        2   -1    0    0  501    0  0.00000000000E+00  0.00000000000E+00  0.24222358404E+04  0.24222358404E+04  0.25500000920E-02 0.  1.
       -2   -1    0    0    0  501  0.00000000000E+00  0.00000000000E+00 -0.49902080315E+03  0.49902080316E+03  0.25500000920E-02 0. -1.
    10030    2    1    2    0    0  0.00000000000E+00  0.00000000000E+00  0.19232150372E+04  0.29212566435E+04  0.21988597722E+04 0.  0.
        4    1    3    3  502    0 -0.35311846672E+03  0.59278659364E+03 -0.17555410310E+03  0.71197573916E+03  0.12699999809E+01 0. -1.
       -4    1    3    3    0  502  0.35311846672E+03 -0.59278659364E+03  0.20987691403E+04  0.22092809044E+04  0.12699999809E+01 0.  1.
</event>
<event>
 5   0  0.2319707E-05  0.2196076E+04  0.7818609E-02  0.8520063E-01
        2   -1    0    0  501    0  0.00000000000E+00  0.00000000000E+00  0.11934818080E+04  0.11934818080E+04  0.25500000920E-02 0. -1.
       -2   -1    0    0    0  501  0.00000000000E+00  0.00000000000E+00 -0.10102268842E+04  0.10102268842E+04  0.25500000920E-02 0.  1.
    10030    2    1    2    0    0  0.00000000000E+00  0.00000000000E+00  0.18325492384E+03  0.22037086922E+04  0.21960759625E+04 0.  0.
        3    1    3    3  502    0 -0.59377592221E+03  0.67798935411E+03 -0.53780696175E+03  0.10495121478E+04  0.10100000352E+00 0.  1.
       -3    1    3    3    0  502  0.59377592221E+03 -0.67798935411E+03  0.72106188559E+03  0.11541965444E+04  0.10100000352E+00 0. -1.
</event>
<event>
 5   0  0.2229552E-05  0.2197688E+04  0.7818609E-02  0.8519391E-01
        2   -1    0    0  501    0  0.00000000000E+00  0.00000000000E+00  0.14445109289E+04  0.14445109289E+04  0.25500000920E-02 0. -1.
       -2   -1    0    0    0  501  0.00000000000E+00  0.00000000000E+00 -0.83589402514E+03  0.83589402514E+03  0.25500000920E-02 0.  1.
    10030    2    1    2    0    0  0.00000000000E+00  0.00000000000E+00  0.60861690378E+03  0.22804049541E+04  0.21976879257E+04 0.  0.
        1    1    3    3  502    0  0.31618806940E+03 -0.82772878197E+03  0.97865212827E+03  0.13201779501E+04  0.50400001928E-02 0. -1.
       -1    1    3    3    0  502 -0.31618806940E+03  0.82772878197E+03 -0.37003522450E+03  0.96022700396E+03  0.50400001928E-02 0.  1.
</event>
<event>
 5   0  0.2289708E-05  0.2192195E+04  0.7818609E-02  0.8521684E-01
        2   -1    0    0  501    0  0.00000000000E+00  0.00000000000E+00  0.13878133987E+04  0.13878133987E+04  0.25500000920E-02 0.  1.
       -2   -1    0    0    0  501  0.00000000000E+00  0.00000000000E+00 -0.86570010156E+03  0.86570010157E+03  0.25500000920E-02 0. -1.
    10030    2    1    2    0    0  0.00000000000E+00  0.00000000000E+00  0.52211329711E+03  0.22535135002E+04  0.21921954294E+04 0.  0.
        5    1    3    3  502    0  0.53920512058E+03 -0.46191148223E+03 -0.59734766358E+03  0.92787429141E+03  0.46999998093E+01 0. -1.
       -5    1    3    3    0  502 -0.53920512058E+03  0.46191148223E+03  0.11194609607E+04  0.13256392088E+04  0.46999998093E+01 0.  1.
</event>
<event>
 5   0  0.1071208E-05  0.2201016E+04  0.7818609E-02  0.8518005E-01
       -1   -1    0    0    0  501  0.00000000000E+00  0.00000000000E+00  0.57264283686E+03  0.57264283688E+03  0.50400001928E-02 0. -1.
        1   -1    0    0  501    0  0.00000000000E+00  0.00000000000E+00 -0.21149621753E+04  0.21149621753E+04  0.50400001928E-02 0.  1.
    10030    2    1    2    0    0  0.00000000000E+00  0.00000000000E+00 -0.15423193385E+04  0.26876050122E+04  0.22010160744E+04 0.  0.
        4    1    3    3  502    0 -0.10993107430E+04  0.36335331287E+02 -0.81538822099E+03  0.13691836727E+04  0.12699999809E+01 0. -1.
       -4    1    3    3    0  502  0.10993107430E+04 -0.36335331287E+02 -0.72693111748E+03  0.13184213395E+04  0.12699999809E+01 0.  1.
</event>
<event>
 5   0  0.1033733E-05  0.2240103E+04  0.7818609E-02  0.8501919E-01
       -1   -1    0    0    0  501  0.00000000000E+00  0.00000000000E+00  0.10242320034E+04  0.10242320034E+04  0.50400001928E-02 0.  1.
        1   -1    0    0  501    0  0.00000000000E+00  0.00000000000E+00 -0.12248350621E+04  0.12248350621E+04  0.50400001928E-02 0. -1.
    10030    2    1    2    0    0  0.00000000000E+00  0.00000000000E+00 -0.20060305866E+03  0.22490670655E+04  0.22401029168E+04 0.  0.
        5    1    3    3  502    0  0.80342128714E+03 -0.27362934851E+03  0.63346805646E+03  0.10590857631E+04  0.46999998093E+01 0.  1.
       -5    1    3    3    0  502 -0.80342128714E+03  0.27362934851E+03 -0.83407111512E+03  0.11899813024E+04  0.46999998093E+01 0. -1.
</event>
<event>
 5   0  0.2298329E-05  0.2199002E+04  0.7818609E-02  0.8518844E-01
        2   -1    0    0  501    0  0.00000000000E+00  0.00000000000E+00  0.11993678110E+04  0.11993678110E+04  0.25500000920E-02 0. -1.
       -2   -1    0    0    0  501  0.00000000000E+00  0.00000000000E+00 -0.10079493116E+04  0.10079493116E+04  0.25500000920E-02 0.  1.
    10030    2    1    2    0    0  0.00000000000E+00  0.00000000000E+00  0.19141849939E+03  0.22073171226E+04  0.21990015547E+04 0.  0.
        4    1    3    3  502    0 -0.42701466926E+03 -0.10091604331E+04  0.50680615275E+01  0.10957981591E+04  0.12699999809E+01 0. -1.
       -4    1    3    3    0  502  0.42701466926E+03  0.10091604331E+04  0.18635043786E+03  0.11115189634E+04  0.12699999809E+01 0.  1.
</event>
<event>
 5   0  0.2284329E-05  0.2204865E+04  0.7818609E-02  0.8516406E-01
       -2   -1    0    0    0  501  0.00000000000E+00  0.00000000000E+00  0.10235362771E+04  0.10235362771E+04  0.25500000920E-02 0.  1.
        2   -1    0    0  501    0  0.00000000000E+00  0.00000000000E+00 -0.11874100074E+04  0.11874100074E+04  0.25500000920E-02 0. -1.
    10030    2    1    2    0    0  0.00000000000E+00  0.00000000000E+00 -0.16387373034E+03  0.22109462845E+04  0.22048648198E+04 0.  0.
        2    1    3    3  502    0 -0.91824886411E+03  0.27279570758E+03 -0.62911468569E+03  0.11460295643E+04  0.25500000920E-02 0. -1.
       -2    1    3    3    0  502  0.91824886411E+03 -0.27279570758E+03  0.46524095535E+03  0.10649167202E+04  0.25500000920E-02 0.  1.
</event>
<event>
 5   0  0.1033733E-05  0.2199818E+04  0.7818609E-02  0.8518504E-01
       -1   -1    0    0    0  501  0.00000000000E+00  0.00000000000E+00  0.78236095857E+03  0.78236095858E+03  0.50400001928E-02 0.  1.
        1   -1    0    0  501    0  0.00000000000E+00  0.00000000000E+00 -0.15463452658E+04  0.15463452658E+04  0.50400001928E-02 0. -1.
    10030    2    1    2    0    0  0.00000000000E+00  0.00000000000E+00 -0.76398430719E+03  0.23287062243E+04  0.21998183238E+04 0.  0.
        5    1    3    3  502    0 -0.21865650660E+03  0.38480207474E+02 -0.15223678912E+04  0.15384789503E+04  0.46999998093E+01 0. -1.
       -5    1    3    3    0  502  0.21865650660E+03 -0.38480207474E+02  0.75838358400E+03  0.79022727410E+03  0.46999998093E+01 0.  1.
</event>
<event>
 5   0  0.1007682E-05  0.2220613E+04  0.7818609E-02  0.8509897E-01
       -1   -1    0    0    0  501  0.00000000000E+00  0.00000000000E+00  0.51125046887E+03  0.51125046889E+03  0.50400001928E-02 0.  1.
        1   -1    0    0  501    0  0.00000000000E+00  0.00000000000E+00 -0.24113041670E+04  0.24113041670E+04  0.50400001928E-02 0. -1.
    10030    2    1    2    0    0  0.00000000000E+00  0.00000000000E+00 -0.19000536981E+04  0.29225546359E+04  0.22206128758E+04 0.  0.
        2    1    3    3  502    0  0.79183203197E+03 -0.33590663409E+03 -0.25986687723E+02  0.86052689768E+03  0.25500000920E-02 0.  1.
       -2    1    3    3    0  502 -0.79183203197E+03  0.33590663409E+03 -0.18740670104E+04  0.20620277382E+04  0.25500000920E-02 0. -1.
</event>
<event>
 5   0  0.2289708E-05  0.2195655E+04  0.7818609E-02  0.8520239E-01
       -2   -1    0    0    0  501  0.00000000000E+00  0.00000000000E+00  0.45202628186E+03  0.45202628187E+03  0.25500000920E-02 0. -1.
        2   -1    0    0  501    0  0.00000000000E+00  0.00000000000E+00 -0.26662727720E+04  0.26662727720E+04  0.25500000920E-02 0.  1.
    10030    2    1    2    0    0  0.00000000000E+00  0.00000000000E+00 -0.22142464902E+04  0.31182990539E+04  0.21956551346E+04 0.  0.
        5    1    3    3  502    0 -0.71906593673E+03 -0.70357334536E+03 -0.17312614371E+04  0.20023385147E+04  0.46999998093E+01 0.  1.
       -5    1    3    3    0  502  0.71906593673E+03  0.70357334536E+03 -0.48298505307E+03  0.11159605392E+04  0.46999998093E+01 0. -1.
</event>
<event>
 5   0  0.1007682E-05  0.2191491E+04  0.7818609E-02  0.8521978E-01
        1   -1    0    0  501    0  0.00000000000E+00  0.00000000000E+00  0.23667437023E+04  0.23667437023E+04  0.50400001928E-02 0.  1.
       -1   -1    0    0    0  501  0.00000000000E+00  0.00000000000E+00 -0.50730363560E+03  0.50730363563E+03  0.50400001928E-02 0. -1.
    10030    2    1    2    0    0  0.00000000000E+00  0.00000000000E+00  0.18594400667E+04  0.28740473379E+04  0.21914905291E+04 0.  0.
        2    1    3    3  502    0  0.54304166044E+03 -0.32699303749E+03 -0.24243200403E+03  0.67866926269E+03  0.25500000920E-02 0. -1.
       -2    1    3    3    0  502 -0.54304166044E+03  0.32699303749E+03  0.21018720707E+04  0.21953780752E+04  0.25500000920E-02 0.  1.
</event>
<event>
 5   0  0.1005538E-05  0.2188169E+04  0.7818609E-02  0.8523369E-01
       -1   -1    0    0    0  501  0.00000000000E+00  0.00000000000E+00  0.11968974924E+04  0.11968974924E+04  0.50400001928E-02 0. -1.
        1   -1    0    0  501    0  0.00000000000E+00  0.00000000000E+00 -0.10001029136E+04  0.10001029136E+04  0.50400001928E-02 0.  1.
    10030    2    1    2    0    0  0.00000000000E+00  0.00000000000E+00  0.19679457876E+03  0.21970004060E+04  0.21881687955E+04 0.  0.
        3    1    3    3  502    0  0.80514814756E+03  0.31699015135E+03  0.77063251807E+03  0.11587151435E+04  0.10100000352E+00 0.  1.
       -3    1    3    3    0  502 -0.80514814756E+03 -0.31699015135E+03 -0.57383793931E+03  0.10382852625E+04  0.10100000352E+00 0. -1.
</event>
<event>
 5   0  0.1049198E-05  0.2154472E+04  0.7818609E-02  0.8537621E-01
       -1   -1    0    0    0  501  0.00000000000E+00  0.00000000000E+00  0.75173852509E+03  0.75173852510E+03  0.50400001928E-02 0. -1.
        1   -1    0    0  501    0  0.00000000000E+00  0.00000000000E+00 -0.15436711583E+04  0.15436711583E+04  0.50400001928E-02 0.  1.
    10030    2    1    2    0    0  0.00000000000E+00  0.00000000000E+00 -0.79193263320E+03  0.22954096834E+04  0.21544717030E+04 0.  0.
        1    1    3    3  502    0  0.19503868136E+02  0.10236276475E+04 -0.39022981975E+02  0.10245568577E+04  0.50400001928E-02 0. -1.
       -1    1    3    3    0  502 -0.19503868136E+02 -0.10236276475E+04 -0.75290965122E+03  0.12708528257E+04  0.50400001928E-02 0.  1.
</event>
<event>
 5   0  0.2229552E-05  0.2150357E+04  0.7818609E-02  0.8539379E-01
        2   -1    0    0  501    0  0.00000000000E+00  0.00000000000E+00  0.14702689258E+04  0.14702689258E+04  0.25500000920E-02 0. -1.
       -2   -1    0    0    0  501  0.00000000000E+00  0.00000000000E+00 -0.78625691000E+03  0.78625691001E+03  0.25500000920E-02 0.  1.
    10030    2    1    2    0    0  0.00000000000E+00  0.00000000000E+00  0.68401201582E+03  0.22565258358E+04  0.21503572750E+04 0.  0.
        1    1    3    3  502    0 -0.89970851748E+03 -0.39581726647E+03 -0.11523918180E+03  0.98965993852E+03  0.50400001928E-02 0.  1.
       -1    1    3    3    0  502  0.89970851748E+03  0.39581726647E+03  0.79925119762E+03  0.12668658973E+04  0.50400001928E-02 0. -1.
</event>
<event>
 5   0  0.2319707E-05  0.2199002E+04  0.7818609E-02  0.8518844E-01
       -2   -1    0    0    0  501  0.00000000000E+00  0.00000000000E+00  0.95713585908E+03  0.95713585908E+03  0.25500000920E-02 0. -1.
        2   -1    0    0  501    0  0.00000000000E+00  0.00000000000E+00 -0.12630415045E+04  0.12630415045E+04  0.25500000920E-02 0.  1.
    10030    2    1    2    0    0  0.00000000000E+00  0.00000000000E+00 -0.30590564546E+03  0.22201773636E+04  0.21990018786E+04 0.  0.
        3    1    3    3  502    0  0.39185763839E+03  0.64586776674E+03  0.65361720109E+03  0.99895597332E+03  0.10100000352E+00 0. -1.
       -3    1    3    3    0  502 -0.39185763839E+03 -0.64586776674E+03 -0.95952284655E+03  0.12212213903E+04  0.10100000352E+00 0.  1.
</event>
<event>
 5   0  0.2289708E-05  0.2174845E+04  0.7818609E-02  0.8528972E-01
       -2   -1    0    0    0  501  0.00000000000E+00  0.00000000000E+00  0.78632330981E+03  0.78632330982E+03  0.25500000920E-02 0.  1.
        2   -1    0    0  501    0  0.00000000000E+00  0.00000000000E+00 -0.15038189618E+04  0.15038189618E+04  0.25500000920E-02 0. -1.
    10030    2    1    2    0    0  0.00000000000E+00  0.00000000000E+00 -0.71749565195E+03  0.22901422716E+04  0.21748451930E+04 0.  0.
        5    1    3    3  502    0 -0.59921089229E+02  0.23244611748E+03  0.75806470273E+03  0.79517665835E+03  0.46999998093E+01 0.  1.
       -5    1    3    3    0  502  0.59921089229E+02 -0.23244611748E+03 -0.14755603547E+04  0.14949656132E+04  0.46999998093E+01 0. -1.
</event>
<event>
 5   0  0.2298329E-05  0.2199999E+04  0.7818609E-02  0.8518429E-01
        2   -1    0    0  501    0  0.00000000000E+00  0.00000000000E+00  0.15481480142E+04  0.15481480142E+04  0.25500000920E-02 0.  1.
       -2   -1    0    0    0  501  0.00000000000E+00  0.00000000000E+00 -0.78157830023E+03  0.78157830023E+03  0.25500000920E-02 0. -1.
    10030    2    1    2    0    0  0.00000000000E+00  0.00000000000E+00  0.76656971393E+03  0.23297263144E+04  0.21999989940E+04 0.  0.
        4    1    3    3  502    0  0.94462277696E+03 -0.26832520525E+03  0.90818080882E+03  0.13375741478E+04  0.12699999809E+01 0. -1.
       -4    1    3    3    0  502 -0.94462277696E+03  0.26832520525E+03 -0.14161109489E+03  0.99215216657E+03  0.12699999809E+01 0.  1.
</event>
<event>
 5   0  0.2229552E-05  0.2204956E+04  0.7818609E-02  0.8516368E-01
       -2   -1    0    0    0  501  0.00000000000E+00  0.00000000000E+00  0.72594958544E+03  0.72594958545E+03  0.25500000920E-02 0. -1.
        2   -1    0    0  501    0  0.00000000000E+00  0.00000000000E+00 -0.16743007298E+04  0.16743007298E+04  0.25500000920E-02 0.  1.
    10030    2    1    2    0    0  0.00000000000E+00  0.00000000000E+00 -0.94835114435E+03  0.24002503152E+04  0.22049561635E+04 0.  0.
        1    1    3    3  502    0 -0.36158227783E+03  0.36367543534E+03  0.58820254750E+03  0.78037414285E+03  0.50400001928E-02 0. -1.
       -1    1    3    3    0  502  0.36158227783E+03 -0.36367543534E+03 -0.15365536919E+04  0.16198761724E+04  0.50400001928E-02 0.  1.
</event>
<event>
 5   0  0.1007682E-05  0.2199654E+04  0.7818609E-02  0.8518572E-01
       -1   -1    0    0    0  501  0.00000000000E+00  0.00000000000E+00  0.11136255810E+04  0.11136255811E+04  0.50400001928E-02 0.  1.
        1   -1    0    0  501    0  0.00000000000E+00  0.00000000000E+00 -0.10861994284E+04  0.10861994284E+04  0.50400001928E-02 0. -1.
    10030    2    1    2    0    0  0.00000000000E+00  0.00000000000E+00  0.27426152655E+02  0.21998250095E+04  0.21996540361E+04 0.  0.
        2    1    3    3  502    0 -0.10329063092E+03  0.10813777601E+04 -0.15826730760E+03  0.10977683522E+04  0.25500000920E-02 0.  1.
       -2    1    3    3    0  502  0.10329063092E+03 -0.10813777601E+04  0.18569346026E+03  0.11020566572E+04  0.25500000920E-02 0. -1.
</event>
<event>
 5   0  0.1005538E-05  0.2198466E+04  0.7818609E-02  0.8519067E-01
       -1   -1    0    0    0  501  0.00000000000E+00  0.00000000000E+00  0.99738071977E+03  0.99738071979E+03  0.50400001928E-02 0.  1.
        1   -1    0    0  501    0  0.00000000000E+00  0.00000000000E+00 -0.12114858786E+04  0.12114858786E+04  0.50400001928E-02 0. -1.
    10030    2    1    2    0    0  0.00000000000E+00  0.00000000000E+00 -0.21410515884E+03  0.22088665984E+04  0.21984655172E+04 0.  0.
        3    1    3    3  502    0  0.10560488249E+04  0.10663777262E+03 -0.39424034903E+03  0.11322703732E+04  0.10100000352E+00 0.  1.
       -3    1    3    3    0  502 -0.10560488249E+04 -0.10663777262E+03  0.18013519019E+03  0.10765962252E+04  0.10100000352E+00 0. -1.
</event>
<event>
 5   0  0.2319707E-05  0.2203569E+04  0.7818609E-02  0.8516944E-01
        2   -1    0    0  501    0  0.00000000000E+00  0.00000000000E+00  0.17213540196E+04  0.17213540196E+04  0.25500000920E-02 0. -1.
       -2   -1    0    0    0  501  0.00000000000E+00  0.00000000000E+00 -0.70521784688E+03  0.70521784688E+03  0.25500000920E-02 0.  1.
    10030    2    1    2    0    0  0.00000000000E+00  0.00000000000E+00  0.10161361727E+04  0.24265718665E+04  0.22035694456E+04 0.  0.
        3    1    3    3  502    0  0.88789315128E+03  0.57539003490E+03  0.16954674413E+03  0.10715288372E+04  0.10100000352E+00 0.  1.
       -3    1    3    3    0  502 -0.88789315128E+03 -0.57539003490E+03  0.84658942858E+03  0.13550430293E+04  0.10100000352E+00 0. -1.
</event>
<event>
 5   0  0.2319707E-05  0.2202893E+04  0.7818609E-02  0.8517225E-01
        2   -1    0    0  501    0  0.00000000000E+00  0.00000000000E+00  0.80899414824E+03  0.80899414825E+03  0.25500000920E-02 0.  1.
       -2   -1    0    0    0  501  0.00000000000E+00  0.00000000000E+00 -0.14996213640E+04  0.14996213640E+04  0.25500000920E-02 0. -1.
    10030    2    1    2    0    0  0.00000000000E+00  0.00000000000E+00 -0.69062721572E+03  0.23086155122E+04  0.22028934682E+04 0.  0.
        3    1    3    3  502    0  0.51010265916E+03 -0.43039275850E+03  0.57294674695E+03  0.87960822784E+03  0.10100000352E+00 0.  1.
       -3    1    3    3    0  502 -0.51010265916E+03  0.43039275850E+03 -0.12635739627E+04  0.14290072844E+04  0.10100000352E+00 0. -1.
</event>
<event>
 5   0  0.1007682E-05  0.2203774E+04  0.7818609E-02  0.8516859E-01
       -1   -1    0    0    0  501  0.00000000000E+00  0.00000000000E+00  0.10306479637E+04  0.10306479638E+04  0.50400001928E-02 0. -1.
        1   -1    0    0  501    0  0.00000000000E+00  0.00000000000E+00 -0.11780501826E+04  0.11780501826E+04  0.50400001928E-02 0.  1.
    10030    2    1    2    0    0  0.00000000000E+00  0.00000000000E+00 -0.14740221886E+03  0.22086981464E+04  0.22037740555E+04 0.  0.
        2    1    3    3  502    0 -0.46118638227E+03 -0.71443038931E+03  0.62861521082E+03  0.10574784838E+04  0.25500000920E-02 0. -1.
       -2    1    3    3    0  502  0.46118638227E+03  0.71443038931E+03 -0.77601742968E+03  0.11512196626E+04  0.25500000920E-02 0.  1.
</event>
<event>
 5   0  0.1049198E-05  0.2214234E+04  0.7818609E-02  0.8512527E-01
       -1   -1    0    0    0  501  0.00000000000E+00  0.00000000000E+00  0.10437008610E+04  0.10437008610E+04  0.50400001928E-02 0. -1.
        1   -1    0    0  501    0  0.00000000000E+00  0.00000000000E+00 -0.11743862961E+04  0.11743862961E+04  0.50400001928E-02 0.  1.
    10030    2    1    2    0    0  0.00000000000E+00  0.00000000000E+00 -0.13068543516E+03  0.22180871571E+04  0.22142339428E+04 0.  0.
        1    1    3    3  502    0  0.78113081194E+03 -0.31167633655E+03 -0.78659601376E+03  0.11515384375E+04  0.50400001928E-02 0.  1.
       -1    1    3    3    0  502 -0.78113081194E+03  0.31167633655E+03  0.65591057860E+03  0.10665487196E+04  0.50400001928E-02 0. -1.
</event>
<event>
 5   0  0.2289708E-05  0.2199129E+04  0.7818609E-02  0.8518791E-01
        2   -1    0    0  501    0  0.00000000000E+00  0.00000000000E+00  0.20698540138E+04  0.20698540138E+04  0.25500000920E-02 0.  1.
       -2   -1    0    0    0  501  0.00000000000E+00  0.00000000000E+00 -0.58411932201E+03  0.58411932202E+03  0.25500000920E-02 0. -1.
    10030    2    1    2    0    0  0.00000000000E+00  0.00000000000E+00  0.14857346917E+04  0.26539733358E+04  0.21991286667E+04 0.  0.
        5    1    3    3  502    0 -0.81429977966E+03  0.69235161304E+03  0.10542778725E+04  0.15013190233E+04  0.46999998093E+01 0.  1.
       -5    1    3    3    0  502  0.81429977966E+03 -0.69235161304E+03  0.43145681925E+03  0.11526543125E+04  0.46999998093E+01 0. -1.
</event>
<event>
 5   0  0.1071208E-05  0.2182389E+04  0.7818609E-02  0.8525794E-01
       -1   -1    0    0    0  501  0.00000000000E+00  0.00000000000E+00  0.50390655794E+03  0.50390655796E+03  0.50400001928E-02 0.  1.
        1   -1    0    0  501    0  0.00000000000E+00  0.00000000000E+00 -0.23629495709E+04  0.23629495709E+04  0.50400001928E-02 0. -1.
    10030    2    1    2    0    0  0.00000000000E+00  0.00000000000E+00 -0.18590430129E+04  0.28668561288E+04  0.21823893190E+04 0.  0.
        4    1    3    3  502    0  0.99861103641E+02 -0.37596468646E+03  0.40972761031E+03  0.56497788721E+03  0.12699999809E+01 0.  1.
       -4    1    3    3    0  502 -0.99861103641E+02  0.37596468646E+03 -0.22687706233E+04  0.23018782416E+04  0.12699999809E+01 0. -1.
</event>
<event>
 5   0  0.1049198E-05  0.2200456E+04  0.7818609E-02  0.8518238E-01
        1   -1    0    0  501    0  0.00000000000E+00  0.00000000000E+00  0.73568923458E+03  0.73568923459E+03  0.50400001928E-02 0.  1.
       -1   -1    0    0    0  501  0.00000000000E+00  0.00000000000E+00 -0.16453982870E+04  0.16453982870E+04  0.50400001928E-02 0. -1.
    10030    2    1    2    0    0  0.00000000000E+00  0.00000000000E+00 -0.90970905237E+03  0.23810875216E+04  0.22004561403E+04 0.  0.
        1    1    3    3  502    0 -0.28286166744E+03 -0.10569043906E+04 -0.32938738414E+03  0.11426082717E+04  0.50400001928E-02 0. -1.
       -1    1    3    3    0  502  0.28286166744E+03  0.10569043906E+04 -0.58032166823E+03  0.12384792499E+04  0.50400001928E-02 0.  1.
</event>
<event>
 5   0  0.2298329E-05  0.2163226E+04  0.7818609E-02  0.8533892E-01
       -2   -1    0    0    0  501  0.00000000000E+00  0.00000000000E+00  0.45022262951E+03  0.45022262951E+03  0.25500000920E-02 0.  1.
        2   -1    0    0  501    0  0.00000000000E+00  0.00000000000E+00 -0.25984630256E+04  0.25984630256E+04  0.25500000920E-02 0. -1.
    10030    2    1    2    0    0  0.00000000000E+00  0.00000000000E+00 -0.21482403961E+04  0.30486856551E+04  0.21632261612E+04 0.  0.
        4    1    3    3  502    0 -0.10167512806E+04 -0.29376265176E+03 -0.75959914120E+03  0.13027172104E+04  0.12699999809E+01 0.  1.
       -4    1    3    3    0  502  0.10167512806E+04  0.29376265176E+03 -0.13886412549E+04  0.17459684447E+04  0.12699999809E+01 0. -1.
</event>
<event>
 5   0  0.1005538E-05  0.2200867E+04  0.7818609E-02  0.8518067E-01
       -1   -1    0    0    0  501  0.00000000000E+00  0.00000000000E+00  0.10466470308E+04  0.10466470308E+04  0.50400001928E-02 0. -1.
        1   -1    0    0  501    0  0.00000000000E+00  0.00000000000E+00 -0.11569842900E+04  0.11569842900E+04  0.50400001928E-02 0.  1.
    10030    2    1    2    0    0  0.00000000000E+00  0.00000000000E+00 -0.11033725928E+03  0.22036313208E+04  0.22008672580E+04 0.  0.
        3    1    3    3  502    0  0.32998756827E+02  0.91866751078E+03 -0.66083762279E+03  0.11321419024E+04  0.10100000352E+00 0.  1.
       -3    1    3    3    0  502 -0.32998756827E+02 -0.91866751078E+03  0.55050036351E+03  0.10714894184E+04  0.10100000352E+00 0. -1.
</event>
<event>
 5   0  0.1049198E-05  0.2195408E+04  0.7818609E-02  0.8520342E-01
       -1   -1    0    0    0  501  0.00000000000E+00  0.00000000000E+00  0.12228609755E+04  0.12228609755E+04  0.50400001928E-02 0. -1.
        1   -1    0    0  501    0  0.00000000000E+00  0.00000000000E+00 -0.98535690634E+03  0.98535690636E+03  0.50400001928E-02 0.  1.
    10030    2    1    2    0    0  0.00000000000E+00  0.00000000000E+00  0.23750406914E+03  0.22082178818E+04  0.21954083973E+04 0.  0.
        1    1    3    3  502    0  0.14899062270E+03 -0.34650830243E+03 -0.91813047950E+03  0.99258742018E+03  0.50400001928E-02 0.  1.
       -1    1    3    3    0  502 -0.14899062270E+03  0.34650830243E+03  0.11556345486E+04  0.12156304617E+04  0.50400001928E-02 0. -1.
</event>
<event>
 5   0  0.1049198E-05  0.2185808E+04  0.7818609E-02  0.8524359E-01
       -1   -1    0    0    0  501  0.00000000000E+00  0.00000000000E+00  0.71276497837E+03  0.71276497839E+03  0.50400001928E-02 0.  1.
        1   -1    0    0  501    0  0.00000000000E+00  0.00000000000E+00 -0.16757820310E+04  0.16757820310E+04  0.50400001928E-02 0. -1.
    10030    2    1    2    0    0  0.00000000000E+00  0.00000000000E+00 -0.96301705261E+03  0.23885470094E+04  0.21858076247E+04 0.  0.
        1    1    3    3  502    0 -0.29376853415E+03  0.93942892923E+03 -0.10005511574E+04  0.14035416928E+04  0.50400001928E-02 0. -1.
       -1    1    3    3    0  502  0.29376853415E+03 -0.93942892923E+03  0.37534104778E+02  0.98500531662E+03  0.50400001928E-02 0.  1.
</event>
<event>
 5   0  0.1033733E-05  0.2179544E+04  0.7818609E-02  0.8526991E-01
        1   -1    0    0  501    0  0.00000000000E+00  0.00000000000E+00  0.13972242345E+04  0.13972242346E+04  0.50400001928E-02 0. -1.
       -1   -1    0    0    0  501  0.00000000000E+00  0.00000000000E+00 -0.84997296043E+03  0.84997296044E+03  0.50400001928E-02 0.  1.
    10030    2    1    2    0    0  0.00000000000E+00  0.00000000000E+00  0.54725127412E+03  0.22471971950E+04  0.21795438230E+04 0.  0.
        5    1    3    3  502    0 -0.80247857980E+03 -0.55717699778E+03 -0.22423188237E+03  0.10023572741E+04  0.46999998093E+01 0.  1.
       -5    1    3    3    0  502  0.80247857980E+03  0.55717699778E+03  0.77148315648E+03  0.12448399209E+04  0.46999998093E+01 0. -1.
</event>
<event>
 5   0  0.1033733E-05  0.2196952E+04  0.7818609E-02  0.8519698E-01
       -1   -1    0    0    0  501  0.00000000000E+00  0.00000000000E+00  0.10119395098E+04  0.10119395098E+04  0.50400001928E-02 0. -1.
        1   -1    0    0  501    0  0.00000000000E+00  0.00000000000E+00 -0.11924128430E+04  0.11924128430E+04  0.50400001928E-02 0.  1.
    10030    2    1    2    0    0  0.00000000000E+00  0.00000000000E+00 -0.18047333321E+03  0.22043523527E+04  0.21969521322E+04 0.  0.
        5    1    3    3  502    0 -0.97503866279E+03  0.40963444787E+03 -0.38809820499E+03  0.11265625067E+04  0.46999998093E+01 0. -1.
       -5    1    3    3    0  502  0.97503866279E+03 -0.40963444787E+03  0.20762487178E+03  0.10777898460E+04  0.46999998093E+01 0.  1.
</event>
<event>
 5   0  0.1007682E-05  0.2214273E+04  0.7818609E-02  0.8512511E-01
       -1   -1    0    0    0  501  0.00000000000E+00  0.00000000000E+00  0.73930497672E+03  0.73930497673E+03  0.50400001928E-02 0. -1.
        1   -1    0    0  501    0  0.00000000000E+00  0.00000000000E+00 -0.16579770765E+04  0.16579770765E+04  0.50400001928E-02 0.  1.
    10030    2    1    2    0    0  0.00000000000E+00  0.00000000000E+00 -0.91867209978E+03  0.23972820532E+04  0.22142725252E+04 0.  0.
        2    1    3    3  502    0 -0.10548401237E+04 -0.14535098335E+03 -0.78760599491E+03  0.13244386729E+04  0.25500000920E-02 0. -1.
       -2    1    3    3    0  502  0.10548401237E+04  0.14535098335E+03 -0.13106610487E+03  0.10728433804E+04  0.25500000920E-02 0.  1.
</event>
<event>
 5   0  0.1007682E-05  0.2206730E+04  0.7818609E-02  0.8515632E-01
        1   -1    0    0  501    0  0.00000000000E+00  0.00000000000E+00  0.78908273733E+03  0.78908273734E+03  0.50400001928E-02 0. -1.
       -1   -1    0    0    0  501  0.00000000000E+00  0.00000000000E+00 -0.15428225915E+04  0.15428225915E+04  0.50400001928E-02 0.  1.
    10030    2    1    2    0    0  0.00000000000E+00  0.00000000000E+00 -0.75373985421E+03  0.23319053289E+04  0.22067303177E+04 0.  0.
        2    1    3    3  502    0 -0.52671221168E+03 -0.78904663448E+03  0.21846482412E+03  0.97352309921E+03  0.25500000920E-02 0.  1.
       -2    1    3    3    0  502  0.52671221168E+03  0.78904663448E+03 -0.97220467834E+03  0.13583822297E+04  0.25500000920E-02 0. -1.
</event>
<event>
 5   0  0.1007682E-05  0.2202410E+04  0.7818609E-02  0.8517426E-01
       -1   -1    0    0    0  501  0.00000000000E+00  0.00000000000E+00  0.10519705071E+04  0.10519705071E+04  0.50400001928E-02 0. -1.
        1   -1    0    0  501    0  0.00000000000E+00  0.00000000000E+00 -0.11527434606E+04  0.11527434606E+04  0.50400001928E-02 0.  1.
    10030    2    1    2    0    0  0.00000000000E+00  0.00000000000E+00 -0.10077295348E+03  0.22047139678E+04  0.22024097011E+04 0.  0.
        2    1    3    3  502    0  0.58239491565E+03 -0.81962823830E+03 -0.49994188700E+03  0.11229052396E+04  0.25500000920E-02 0.  1.
       -2    1    3    3    0  502 -0.58239491565E+03  0.81962823830E+03  0.39916893352E+03  0.10818087281E+04  0.25500000920E-02 0. -1.
</event>
<event>
 5   0  0.2289708E-05  0.2206028E+04  0.7818609E-02  0.8515923E-01
       -2   -1    0    0    0  501  0.00000000000E+00  0.00000000000E+00  0.78601955449E+03  0.78601955449E+03  0.25500000920E-02 0. -1.
        2   -1    0    0  501    0  0.00000000000E+00  0.00000000000E+00 -0.15478488412E+04  0.15478488412E+04  0.25500000920E-02 0.  1.
    10030    2    1    2    0    0  0.00000000000E+00  0.00000000000E+00 -0.76182928671E+03  0.23338683957E+04  0.22060276123E+04 0.  0.
        5    1    3    3  502    0 -0.54083978993E+03  0.15657983378E+03 -0.13843475018E+04  0.14944781760E+04  0.46999998093E+01 0.  1.
       -5    1    3    3    0  502  0.54083978993E+03 -0.15657983378E+03  0.62251821513E+03  0.83939021968E+03  0.46999998093E+01 0. -1.
</event>
<event>
 5   0  0.1049198E-05  0.2187614E+04  0.7818609E-02  0.8523601E-01
        1   -1    0    0  501    0  0.00000000000E+00  0.00000000000E+00  0.17522864464E+04  0.17522864464E+04  0.50400001928E-02 0.  1.
       -1   -1    0    0    0  501  0.00000000000E+00  0.00000000000E+00 -0.68277304438E+03  0.68277304440E+03  0.50400001928E-02 0. -1.
    10030    2    1    2    0    0  0.00000000000E+00  0.00000000000E+00  0.10695134020E+04  0.24350594908E+04  0.21876141814E+04 0.  0.
        1    1    3    3  502    0 -0.53829638391E+03 -0.31274618944E+03  0.15358403416E+04  0.16572201818E+04  0.50400001928E-02 0.  1.
       -1    1    3    3    0  502  0.53829638391E+03  0.31274618944E+03 -0.46632693964E+03  0.77783930898E+03  0.50400001928E-02 0. -1.
</event>
<event>
 5   0  0.8003875E-06  0.2203065E+04  0.7818609E-02  0.8517154E-01
       -3   -1    0    0    0  501  0.00000000000E+00  0.00000000000E+00  0.83630941443E+03  0.83630942052E+03  0.10100000352E+00 0.  1.
        3   -1    0    0  501    0  0.00000000000E+00  0.00000000000E+00 -0.14508665206E+04  0.14508665241E+04  0.10100000352E+00 0. -1.
    10030    2    1    2    0    0  0.00000000000E+00  0.00000000000E+00 -0.61455710615E+03  0.22871759446E+04  0.22030645394E+04 0.  0.
        3    1    3    3  502    0  0.10140844320E+04 -0.34194433803E+03 -0.57816211781E+03  0.12163735488E+04  0.10100000352E+00 0.  1.
       -3    1    3    3    0  502 -0.10140844320E+04  0.34194433803E+03 -0.36394988344E+02  0.10708023958E+04  0.10100000352E+00 0. -1.
</event>
<event>
 5   0  0.2319707E-05  0.2200325E+04  0.7818609E-02  0.8518293E-01
       -2   -1    0    0    0  501  0.00000000000E+00  0.00000000000E+00  0.60892371134E+03  0.60892371135E+03  0.25500000920E-02 0.  1.
        2   -1    0    0  501    0  0.00000000000E+00  0.00000000000E+00 -0.19877001073E+04  0.19877001074E+04  0.25500000920E-02 0. -1.
    10030    2    1    2    0    0  0.00000000000E+00  0.00000000000E+00 -0.13787763960E+04  0.25966238187E+04  0.22003251818E+04 0.  0.
        3    1    3    3  502    0  0.52687800074E+03  0.96508996046E+03 -0.73288697489E+03  0.13214092430E+04  0.10100000352E+00 0. -1.
       -3    1    3    3    0  502 -0.52687800074E+03 -0.96508996046E+03 -0.64588942111E+03  0.12752145757E+04  0.10100000352E+00 0.  1.
</event>
<event>
 5   0  0.1071208E-05  0.2202022E+04  0.7818609E-02  0.8517587E-01
        1   -1    0    0  501    0  0.00000000000E+00  0.00000000000E+00  0.10295157155E+04  0.10295157156E+04  0.50400001928E-02 0. -1.
       -1   -1    0    0    0  501  0.00000000000E+00  0.00000000000E+00 -0.11774715446E+04  0.11774715446E+04  0.50400001928E-02 0.  1.
    10030    2    1    2    0    0  0.00000000000E+00  0.00000000000E+00 -0.14795582909E+03  0.22069872602E+04  0.22020222159E+04 0.  0.
        4    1    3    3  502    0  0.32677714776E+03  0.53231769632E+03  0.83475184768E+03  0.10425726326E+04  0.12699999809E+01 0. -1.
       -4    1    3    3    0  502 -0.32677714776E+03 -0.53231769632E+03 -0.98270767677E+03  0.11644146276E+04  0.12699999809E+01 0.  1.
</event>
<event>
 5   0  0.2298329E-05  0.2185493E+04  0.7818609E-02  0.8524490E-01
        2   -1    0    0  501    0  0.00000000000E+00  0.00000000000E+00  0.21198796798E+04  0.21198796798E+04  0.25500000920E-02 0. -1.
       -2   -1    0    0    0  501  0.00000000000E+00  0.00000000000E+00 -0.56328452937E+03  0.56328452938E+03  0.25500000920E-02 0.  1.
    10030    2    1    2    0    0  0.00000000000E+00  0.00000000000E+00  0.15565951504E+04  0.26831642091E+04  0.21854934708E+04 0.  0.
        4    1    3    3  502    0 -0.44843703689E+03 -0.65549588063E+03 -0.14316256492E+03  0.80701162227E+03  0.12699999809E+01 0.  1.
       -4    1    3    3    0  502  0.44843703689E+03  0.65549588063E+03  0.16997577153E+04  0.18761525869E+04  0.12699999809E+01 0. -1.
</event>
<event>
 5   0  0.2229552E-05  0.2199372E+04  0.7818609E-02  0.8518690E-01
       -2   -1    0    0    0  501  0.00000000000E+00  0.00000000000E+00  0.76966111094E+03  0.76966111094E+03  0.25500000920E-02 0.  1.
        2   -1    0    0  501    0  0.00000000000E+00  0.00000000000E+00 -0.15712229419E+04  0.15712229419E+04  0.25500000920E-02 0. -1.
    10030    2    1    2    0    0  0.00000000000E+00  0.00000000000E+00 -0.80156183096E+03  0.23408840528E+04  0.21993719058E+04 0.  0.
        1    1    3    3  502    0 -0.34469284270E+03 -0.23786957939E+03 -0.14830206109E+04  0.15410208386E+04  0.50400001928E-02 0. -1.
       -1    1    3    3    0  502  0.34469284270E+03  0.23786957939E+03  0.68145877998E+03  0.79986321421E+03  0.50400001928E-02 0.  1.
</event>
<event>
 5   0  0.1005538E-05  0.2241974E+04  0.7818609E-02  0.8501158E-01
       -1   -1    0    0    0  501  0.00000000000E+00  0.00000000000E+00  0.30247083931E+04  0.30247083931E+04  0.50400001928E-02 0.  1.
        1   -1    0    0  501    0  0.00000000000E+00  0.00000000000E+00 -0.41544911125E+03  0.41544911128E+03  0.50400001928E-02 0. -1.
    10030    2    1    2    0    0  0.00000000000E+00  0.00000000000E+00  0.26092592818E+04  0.34401575044E+04  0.22419744992E+04 0.  0.
        3    1    3    3  502    0 -0.29023758921E+03 -0.75257990254E+03  0.24991216988E+04  0.26260661917E+04  0.10100000352E+00 0.  1.
       -3    1    3    3    0  502  0.29023758921E+03  0.75257990254E+03  0.11013758305E+03  0.81409131262E+03  0.10100000352E+00 0. -1.
</event>
<event>
 5   0  0.2319707E-05  0.2210127E+04  0.7818609E-02  0.8514225E-01
       -2   -1    0    0    0  501  0.00000000000E+00  0.00000000000E+00  0.81649922163E+03  0.81649922163E+03  0.25500000920E-02 0. -1.
        2   -1    0    0  501    0  0.00000000000E+00  0.00000000000E+00 -0.14956114106E+04  0.14956114106E+04  0.25500000920E-02 0.  1.
    10030    2    1    2    0    0  0.00000000000E+00  0.00000000000E+00 -0.67911218900E+03  0.23121106323E+04  0.22101271933E+04 0.  0.
        3    1    3    3  502    0 -0.47317211750E+03 -0.45158511402E+03 -0.12713551603E+04  0.14297429565E+04  0.10100000352E+00 0.  1.
       -3    1    3    3    0  502  0.47317211750E+03  0.45158511402E+03  0.59224297127E+03  0.88236767574E+03  0.10100000352E+00 0. -1.
</event>
<event>
 5   0  0.1071208E-05  0.2060781E+04  0.7818609E-02  0.8578719E-01
        1   -1    0    0  501    0  0.00000000000E+00  0.00000000000E+00  0.22548857136E+04  0.22548857136E+04  0.50400001928E-02 0.  1.
       -1   -1    0    0    0  501  0.00000000000E+00  0.00000000000E+00 -0.47084647272E+03  0.47084647275E+03  0.50400001928E-02 0. -1.
    10030    2    1    2    0    0  0.00000000000E+00  0.00000000000E+00  0.17840392409E+04  0.27257321863E+04  0.20607813903E+04 0.  0.
        4    1    3    3  502    0 -0.73035873004E+03  0.45536060392E+03  0.16413163852E+04  0.18532938902E+04  0.12699999809E+01 0.  1.
       -4    1    3    3    0  502  0.73035873004E+03 -0.45536060392E+03  0.14272285565E+03  0.87243829614E+03  0.12699999809E+01 0. -1.
</event>
<event>
 5   0  0.2284329E-05  0.2201620E+04  0.7818609E-02  0.8517754E-01
        2   -1    0    0  501    0  0.00000000000E+00  0.00000000000E+00  0.14281754776E+04  0.14281754776E+04  0.25500000920E-02 0. -1.
       -2   -1    0    0    0  501  0.00000000000E+00  0.00000000000E+00 -0.84848341224E+03  0.84848341224E+03  0.25500000920E-02 0.  1.
    10030    2    1    2    0    0  0.00000000000E+00  0.00000000000E+00  0.57969206540E+03  0.22766588899E+04  0.22016204964E+04 0.  0.
        2    1    3    3  502    0  0.31180228067E+03  0.55883264169E+02  0.13800266070E+04  0.14159156181E+04  0.25500000920E-02 0. -1.
       -2    1    3    3    0  502 -0.31180228067E+03 -0.55883264169E+02 -0.80033454162E+03  0.86074327180E+03  0.25500000920E-02 0.  1.
</event>
<event>
 5   0  0.1071208E-05  0.2192034E+04  0.7818609E-02  0.8521751E-01
       -1   -1    0    0    0  501  0.00000000000E+00  0.00000000000E+00  0.76968695475E+03  0.76968695477E+03  0.50400001928E-02 0. -1.
        1   -1    0    0  501    0  0.00000000000E+00  0.00000000000E+00 -0.15607043761E+04  0.15607043761E+04  0.50400001928E-02 0.  1.
    10030    2    1    2    0    0  0.00000000000E+00  0.00000000000E+00 -0.79101742134E+03  0.23303913309E+04  0.21920344874E+04 0.  0.
        4    1    3    3  502    0  0.63359984392E+03  0.47948639885E+03  0.40705470781E+03  0.89277719334E+03  0.12699999809E+01 0. -1.
       -4    1    3    3    0  502 -0.63359984392E+03 -0.47948639885E+03 -0.11980721292E+04  0.14376141375E+04  0.12699999809E+01 0.  1.
</event>
<event>
 5   0  0.1071208E-05  0.2177291E+04  0.7818609E-02  0.8527940E-01
       -1   -1    0    0    0  501  0.00000000000E+00  0.00000000000E+00  0.78077882048E+03  0.78077882050E+03  0.50400001928E-02 0. -1.
        1   -1    0    0  501    0  0.00000000000E+00  0.00000000000E+00 -0.15179068171E+04  0.15179068171E+04  0.50400001928E-02 0.  1.
    10030    2    1    2    0    0  0.00000000000E+00  0.00000000000E+00 -0.73712799657E+03  0.22986856376E+04  0.21772914313E+04 0.  0.
        4    1    3    3  502    0  0.44055072547E+03 -0.98299936882E+03 -0.20238679996E+03  0.10960541640E+04  0.12699999809E+01 0. -1.
       -4    1    3    3    0  502 -0.44055072547E+03  0.98299936882E+03 -0.53474119661E+03  0.12026314735E+04  0.12699999809E+01 0.  1.
</event>
<event>
 5   0  0.1007682E-05  0.2186208E+04  0.7818609E-02  0.8524190E-01
        1   -1    0    0  501    0  0.00000000000E+00  0.00000000000E+00  0.14108933804E+04  0.14108933804E+04  0.50400001928E-02 0.  1.
       -1   -1    0    0    0  501  0.00000000000E+00  0.00000000000E+00 -0.84689378830E+03  0.84689378831E+03  0.50400001928E-02 0. -1.
    10030    2    1    2    0    0  0.00000000000E+00  0.00000000000E+00  0.56399959213E+03  0.22577871688E+04  0.21862084437E+04 0.  0.
        2    1    3    3  502    0  0.35817836776E+03 -0.56808537221E+03  0.11727137067E+04  0.13513956383E+04  0.25500000920E-02 0.  1.
       -2    1    3    3    0  502 -0.35817836776E+03  0.56808537221E+03 -0.60871411457E+03  0.90639153048E+03  0.25500000920E-02 0. -1.
</event>
<event>
 5   0  0.2284329E-05  0.2202147E+04  0.7818609E-02  0.8517535E-01
        2   -1    0    0  501    0  0.00000000000E+00  0.00000000000E+00  0.19898658573E+04  0.19898658573E+04  0.25500000920E-02 0. -1.
       -2   -1    0    0    0  501  0.00000000000E+00  0.00000000000E+00 -0.60926843463E+03  0.60926843464E+03  0.25500000920E-02 0.  1.
    10030    2    1    2    0    0  0.00000000000E+00  0.00000000000E+00  0.13805974226E+04  0.25991342919E+04  0.22021466400E+04 0.  0.
        2    1    3    3  502    0  0.38886443537E+03  0.61105026214E+03 -0.28852021159E+03  0.77964215154E+03  0.25500000920E-02 0.  1.
       -2    1    3    3    0  502 -0.38886443537E+03 -0.61105026214E+03  0.16691176342E+04  0.18194921404E+04  0.25500000920E-02 0. -1.
</event>
<event>
 5   0  0.2229552E-05  0.2207344E+04  0.7818609E-02  0.8515378E-01
       -2   -1    0    0    0  501  0.00000000000E+00  0.00000000000E+00  0.11283454516E+04  0.11283454516E+04  0.25500000920E-02 0. -1.
        2   -1    0    0  501    0  0.00000000000E+00  0.00000000000E+00 -0.10795380542E+04  0.10795380542E+04  0.25500000920E-02 0.  1.
    10030    2    1    2    0    0  0.00000000000E+00  0.00000000000E+00  0.48807397331E+02  0.22078835058E+04  0.22073439726E+04 0.  0.
        1    1    3    3  502    0 -0.99130361764E+03  0.22758110549E+03  0.45301261536E+03  0.11134165670E+04  0.50400001928E-02 0. -1.
       -1    1    3    3    0  502  0.99130361764E+03 -0.22758110549E+03 -0.40420521803E+03  0.10944669388E+04  0.50400001928E-02 0.  1.
</event>
<event>
 5   0  0.8003875E-06  0.2200378E+04  0.7818609E-02  0.8518271E-01
        4   -1    0    0  501    0  0.00000000000E+00  0.00000000000E+00  0.14168974793E+04  0.14168980485E+04  0.12699999809E+01 0. -1.
       -4   -1    0    0    0  501  0.00000000000E+00  0.00000000000E+00 -0.85427060605E+03  0.85427155007E+03  0.12699999809E+01 0.  1.
    10030    2    1    2    0    0  0.00000000000E+00  0.00000000000E+00  0.56262687325E+03  0.22711695985E+04  0.22003777736E+04 0.  0.
        2    1    3    3  502    0 -0.38198773284E+03  0.18095933593E+03  0.13297460933E+04  0.13953084182E+04  0.25500000920E-02 0. -1.
       -2    1    3    3    0  502  0.38198773284E+03 -0.18095933593E+03 -0.76711922008E+03  0.87586118028E+03  0.25500000920E-02 0.  1.
</event>
<event>
 5   0  0.2229552E-05  0.2194526E+04  0.7818609E-02  0.8520710E-01
       -2   -1    0    0    0  501  0.00000000000E+00  0.00000000000E+00  0.73235586547E+03  0.73235586547E+03  0.25500000920E-02 0. -1.
        2   -1    0    0  501    0  0.00000000000E+00  0.00000000000E+00 -0.16439905116E+04  0.16439905116E+04  0.25500000920E-02 0.  1.
    10030    2    1    2    0    0  0.00000000000E+00  0.00000000000E+00 -0.91163464609E+03  0.23763463770E+04  0.21945260025E+04 0.  0.
        1    1    3    3  502    0  0.32757393183E+02 -0.10957520757E+04 -0.40456244036E+03  0.11685103451E+04  0.50400001928E-02 0.  1.
       -1    1    3    3    0  502 -0.32757393183E+02  0.10957520757E+04 -0.50707220573E+03  0.12078360320E+04  0.50400001928E-02 0. -1.
</event>
<event>
 5   0  0.1049198E-05  0.2188753E+04  0.7818609E-02  0.8523124E-01
        1   -1    0    0  501    0  0.00000000000E+00  0.00000000000E+00  0.14613052691E+04  0.14613052691E+04  0.50400001928E-02 0.  1.
       -1   -1    0    0    0  501  0.00000000000E+00  0.00000000000E+00 -0.81958192104E+03  0.81958192105E+03  0.50400001928E-02 0. -1.
    10030    2    1    2    0    0  0.00000000000E+00  0.00000000000E+00  0.64172334806E+03  0.22808871902E+04  0.21887525029E+04 0.  0.
        1    1    3    3  502    0 -0.76055236103E+03  0.33663407724E+03 -0.42034307884E+03  0.93190702314E+03  0.50400001928E-02 0. -1.
       -1    1    3    3    0  502  0.76055236103E+03 -0.33663407724E+03  0.10620664269E+04  0.13489801670E+04  0.50400001928E-02 0.  1.
</event>
<event>
 5   0  0.2289708E-05  0.2199812E+04  0.7818609E-02  0.8518506E-01
        2   -1    0    0  501    0  0.00000000000E+00  0.00000000000E+00  0.14141230064E+04  0.14141230064E+04  0.25500000920E-02 0.  1.
       -2   -1    0    0    0  501  0.00000000000E+00  0.00000000000E+00 -0.85550792332E+03  0.85550792332E+03  0.25500000920E-02 0. -1.
    10030    2    1    2    0    0  0.00000000000E+00  0.00000000000E+00  0.55861508306E+03  0.22696309297E+04  0.21998122070E+04 0.  0.
        5    1    3    3  502    0  0.10664134414E+04 -0.87292416502E+02  0.16439377738E+02  0.10701167867E+04  0.46999998093E+01 0. -1.
       -5    1    3    3    0  502 -0.10664134414E+04  0.87292416502E+02  0.54217570533E+03  0.11995141431E+04  0.46999998093E+01 0.  1.
</event>
<event>
 5   0  0.2298329E-05  0.2208444E+04  0.7818609E-02  0.8514922E-01
        2   -1    0    0  501    0  0.00000000000E+00  0.00000000000E+00  0.12471375752E+04  0.12471375752E+04  0.25500000920E-02 0.  1.
       -2   -1    0    0    0  501  0.00000000000E+00  0.00000000000E+00 -0.97768406257E+03  0.97768406257E+03  0.25500000920E-02 0. -1.
    10030    2    1    2    0    0  0.00000000000E+00  0.00000000000E+00  0.26945351263E+03  0.22248216378E+04  0.22084442770E+04 0.  0.
        4    1    3    3  502    0  0.76340870558E+03  0.79475082948E+03  0.64328749186E+02  0.11038847465E+04  0.12699999809E+01 0.  1.
       -4    1    3    3    0  502 -0.76340870558E+03 -0.79475082948E+03  0.20512476345E+03  0.11209368913E+04  0.12699999809E+01 0. -1.
</event>
<event>
 5   0  0.2298329E-05  0.2197818E+04  0.7818609E-02  0.8519337E-01
        2   -1    0    0  501    0  0.00000000000E+00  0.00000000000E+00  0.91094082329E+03  0.91094082329E+03  0.25500000920E-02 0. -1.
       -2   -1    0    0    0  501  0.00000000000E+00  0.00000000000E+00 -0.13256640457E+04  0.13256640457E+04  0.25500000920E-02 0.  1.
    10030    2    1    2    0    0  0.00000000000E+00  0.00000000000E+00 -0.41472322242E+03  0.22366048690E+04  0.21978184613E+04 0.  0.
        4    1    3    3  502    0  0.79777891060E+02 -0.58144507793E+03 -0.11528198395E+04  0.12936143497E+04  0.12699999809E+01 0.  1.
       -4    1    3    3    0  502 -0.79777891060E+02  0.58144507793E+03  0.73809661704E+03  0.94299051933E+03  0.12699999809E+01 0. -1.
</event>
<event>
 5   0  0.1007682E-05  0.2178623E+04  0.7818609E-02  0.8527379E-01
       -1   -1    0    0    0  501  0.00000000000E+00  0.00000000000E+00  0.10786889139E+04  0.10786889140E+04  0.50400001928E-02 0.  1.
        1   -1    0    0  501    0  0.00000000000E+00  0.00000000000E+00 -0.11000388832E+04  0.11000388832E+04  0.50400001928E-02 0. -1.
    10030    2    1    2    0    0  0.00000000000E+00  0.00000000000E+00 -0.21349969294E+02  0.21787277972E+04  0.21786231875E+04 0.  0.
        2    1    3    3  502    0  0.92728908370E+03 -0.53921084792E+03 -0.20038481825E+03  0.10912229189E+04  0.25500000920E-02 0. -1.
       -2    1    3    3    0  502 -0.92728908370E+03  0.53921084792E+03  0.17903484896E+03  0.10875048783E+04  0.25500000920E-02 0.  1.
</event>
<event>
 5   0  0.1005538E-05  0.2190887E+04  0.7818609E-02  0.8522231E-01
        1   -1    0    0  501    0  0.00000000000E+00  0.00000000000E+00  0.21508695065E+04  0.21508695065E+04  0.50400001928E-02 0.  1.
       -1   -1    0    0    0  501  0.00000000000E+00  0.00000000000E+00 -0.55791237823E+03  0.55791237825E+03  0.50400001928E-02 0. -1.
    10030    2    1    2    0    0  0.00000000000E+00  0.00000000000E+00  0.15929571283E+04  0.27087818848E+04  0.21908872373E+04 0.  0.
        3    1    3    3  502    0  0.65296993386E+03 -0.84761243495E+03  0.50604594029E+03  0.11835958256E+04  0.10100000352E+00 0.  1.
       -3    1    3    3    0  502 -0.65296993386E+03  0.84761243495E+03  0.10869111880E+04  0.15251860592E+04  0.10100000352E+00 0. -1.
</event>
<event>
 5   0  0.1033733E-05  0.2192208E+04  0.7818609E-02  0.8521678E-01
       -1   -1    0    0    0  501  0.00000000000E+00  0.00000000000E+00  0.82516224697E+03  0.82516224699E+03  0.50400001928E-02 0. -1.
        1   -1    0    0  501    0  0.00000000000E+00  0.00000000000E+00 -0.14560094885E+04  0.14560094885E+04  0.50400001928E-02 0.  1.
    10030    2    1    2    0    0  0.00000000000E+00  0.00000000000E+00 -0.63084724151E+03  0.22811717355E+04  0.21922080751E+04 0.  0.
        5    1    3    3  502    0  0.92346888797E+03 -0.58579060464E+03 -0.39243054924E+03  0.11618817692E+04  0.46999998093E+01 0.  1.
       -5    1    3    3    0  502 -0.92346888797E+03  0.58579060464E+03 -0.23841669227E+03  0.11192899663E+04  0.46999998093E+01 0. -1.
</event>
<event>
 5   0  0.2298329E-05  0.2202948E+04  0.7818609E-02  0.8517202E-01
       -2   -1    0    0    0  501  0.00000000000E+00  0.00000000000E+00  0.18853223026E+04  0.18853223026E+04  0.25500000920E-02 0. -1.
        2   -1    0    0  501    0  0.00000000000E+00  0.00000000000E+00 -0.64352153294E+03  0.64352153295E+03  0.25500000920E-02 0.  1.
    10030    2    1    2    0    0  0.00000000000E+00  0.00000000000E+00  0.12418007697E+04  0.25288438356E+04  0.22029484772E+04 0.  0.
        4    1    3    3  502    0  0.48452658849E+03 -0.44644667715E+03 -0.39238527645E+03  0.76684318382E+03  0.12699999809E+01 0.  1.
       -4    1    3    3    0  502 -0.48452658849E+03  0.44644667715E+03  0.16341860461E+04  0.17620006518E+04  0.12699999809E+01 0. -1.
</event>
<event>
 5   0  0.2289708E-05  0.2201091E+04  0.7818609E-02  0.8517974E-01
        2   -1    0    0  501    0  0.00000000000E+00  0.00000000000E+00  0.16562247636E+04  0.16562247636E+04  0.25500000920E-02 0.  1.
       -2   -1    0    0    0  501  0.00000000000E+00  0.00000000000E+00 -0.73130196869E+03  0.73130196869E+03  0.25500000920E-02 0. -1.
    10030    2    1    2    0    0  0.00000000000E+00  0.00000000000E+00  0.92492279491E+03  0.23875267323E+04  0.22010910297E+04 0.  0.
        5    1    3    3  502    0  0.75771100089E+03 -0.38316277362E+03 -0.29701454412E+03  0.89954399635E+03  0.46999998093E+01 0. -1.
       -5    1    3    3    0  502 -0.75771100089E+03  0.38316277362E+03  0.12219373390E+04  0.14879827359E+04  0.46999998093E+01 0.  1.
</event>
<event>
 5   0  0.2229552E-05  0.2198293E+04  0.7818609E-02  0.8519139E-01
       -2   -1    0    0    0  501  0.00000000000E+00  0.00000000000E+00  0.89265062261E+03  0.89265062261E+03  0.25500000920E-02 0.  1.
        2   -1    0    0  501    0  0.00000000000E+00  0.00000000000E+00 -0.13534113345E+04  0.13534113345E+04  0.25500000920E-02 0. -1.
    10030    2    1    2    0    0  0.00000000000E+00  0.00000000000E+00 -0.46076071187E+03  0.22460619571E+04  0.21982934020E+04 0.  0.
        1    1    3    3  502    0  0.10483233832E+03  0.37003422114E+02  0.88689156680E+03  0.89383204445E+03  0.50400001928E-02 0.  1.
       -1    1    3    3    0  502 -0.10483233832E+03 -0.37003422114E+02 -0.13476522787E+04  0.13522299126E+04  0.50400001928E-02 0. -1.
</event>
<event>
 5   0  0.2229552E-05  0.2202068E+04  0.7818609E-02  0.8517568E-01
       -2   -1    0    0    0  501  0.00000000000E+00  0.00000000000E+00  0.64388358249E+03  0.64388358250E+03  0.25500000920E-02 0.  1.
        2   -1    0    0  501    0  0.00000000000E+00  0.00000000000E+00 -0.18827571188E+04  0.18827571188E+04  0.25500000920E-02 0. -1.
    10030    2    1    2    0    0  0.00000000000E+00  0.00000000000E+00 -0.12388735363E+04  0.25266407013E+04  0.22020684809E+04 0.  0.
        1    1    3    3  502    0 -0.83806512766E+02  0.10528463561E+04 -0.97636199370E+03  0.14383294907E+04  0.50400001928E-02 0. -1.
       -1    1    3    3    0  502  0.83806512766E+02 -0.10528463561E+04 -0.26251154264E+03  0.10883112106E+04  0.50400001928E-02 0.  1.
</event>
<event>
 5   0  0.8003875E-06  0.2197505E+04  0.7818609E-02  0.8519467E-01
       -3   -1    0    0    0  501  0.00000000000E+00  0.00000000000E+00  0.10256747548E+04  0.10256747597E+04  0.10100000352E+00 0. -1.
        3   -1    0    0  501    0  0.00000000000E+00  0.00000000000E+00 -0.11770369840E+04  0.11770369884E+04  0.10100000352E+00 0.  1.
    10030    2    1    2    0    0  0.00000000000E+00  0.00000000000E+00 -0.15136222927E+03  0.22027117481E+04  0.21975050673E+04 0.  0.
        2    1    3    3  502    0 -0.39626123562E+03 -0.48250438668E+03 -0.98193814834E+03  0.11636305158E+04  0.25500000920E-02 0.  1.
       -2    1    3    3    0  502  0.39626123562E+03  0.48250438668E+03  0.83057591908E+03  0.10390812323E+04  0.25500000920E-02 0. -1.
</event>
<event>
 5   0  0.8003875E-06  0.2200733E+04  0.7818609E-02  0.8518123E-01
        3   -1    0    0  501    0  0.00000000000E+00  0.00000000000E+00  0.14657436136E+04  0.14657436170E+04  0.10100000352E+00 0. -1.
       -3   -1    0    0    0  501  0.00000000000E+00  0.00000000000E+00 -0.82606955046E+03  0.82606955663E+03  0.10100000352E+00 0.  1.
    10030    2    1    2    0    0  0.00000000000E+00  0.00000000000E+00  0.63967406309E+03  0.22918131737E+04  0.22007327680E+04 0.  0.
        4    1    3    3  502    0  0.10640767748E+03  0.90437230471E+03  0.96313463625E+03  0.13254590902E+04  0.12699999809E+01 0. -1.
       -4    1    3    3    0  502 -0.10640767748E+03 -0.90437230471E+03 -0.32346057315E+03  0.96635408347E+03  0.12699999809E+01 0.  1.
</event>
<event>
 5   0  0.2298329E-05  0.2189245E+04  0.7818609E-02  0.8522918E-01
       -2   -1    0    0    0  501  0.00000000000E+00  0.00000000000E+00  0.96303168830E+03  0.96303168830E+03  0.25500000920E-02 0. -1.
        2   -1    0    0  501    0  0.00000000000E+00  0.00000000000E+00 -0.12441945661E+04  0.12441945662E+04  0.25500000920E-02 0.  1.
    10030    2    1    2    0    0  0.00000000000E+00  0.00000000000E+00 -0.28116287785E+03  0.22072262545E+04  0.21892453436E+04 0.  0.
        4    1    3    3  502    0  0.20152326457E+03 -0.72888078549E+03 -0.93848423765E+03  0.12052522984E+04  0.12699999809E+01 0.  1.
       -4    1    3    3    0  502 -0.20152326457E+03  0.72888078549E+03  0.65732135980E+03  0.10019739560E+04  0.12699999809E+01 0. -1.
</event>
<event>
 5   0  0.1071208E-05  0.2195183E+04  0.7818609E-02  0.8520436E-01
        1   -1    0    0  501    0  0.00000000000E+00  0.00000000000E+00  0.85250160188E+03  0.85250160189E+03  0.50400001928E-02 0. -1.
       -1   -1    0    0    0  501  0.00000000000E+00  0.00000000000E+00 -0.14131429495E+04  0.14131429495E+04  0.50400001928E-02 0.  1.
    10030    2    1    2    0    0  0.00000000000E+00  0.00000000000E+00 -0.56064134764E+03  0.22656445514E+04  0.21951825693E+04 0.  0.
        4    1    3    3  502    0 -0.93332664369E+03  0.43912028025E+02 -0.87472169307E+03  0.12799088027E+04  0.12699999809E+01 0.  1.
       -4    1    3    3    0  502  0.93332664369E+03 -0.43912028025E+02  0.31408034542E+03  0.98573574872E+03  0.12699999809E+01 0. -1.
</event>
<event>
 5   0  0.2298329E-05  0.2201507E+04  0.7818609E-02  0.8517801E-01
       -2   -1    0    0    0  501  0.00000000000E+00  0.00000000000E+00  0.83185862973E+03  0.83185862974E+03  0.25500000920E-02 0.  1.
        2   -1    0    0  501    0  0.00000000000E+00  0.00000000000E+00 -0.14565672953E+04  0.14565672953E+04  0.25500000920E-02 0. -1.
    10030    2    1    2    0    0  0.00000000000E+00  0.00000000000E+00 -0.62470866558E+03  0.22884259251E+04  0.22015068243E+04 0.  0.
        4    1    3    3  502    0 -0.16876304327E+03 -0.10171786907E+03 -0.14380841409E+04  0.14515216495E+04  0.12699999809E+01 0. -1.
       -4    1    3    3    0  502  0.16876304327E+03  0.10171786907E+03  0.81337547534E+03  0.83690427556E+03  0.12699999809E+01 0.  1.
</event>
<event>
 5   0  0.1005538E-05  0.2204023E+04  0.7818609E-02  0.8516756E-01
       -1   -1    0    0    0  501  0.00000000000E+00  0.00000000000E+00  0.12453803539E+04  0.12453803539E+04  0.50400001928E-02 0.  1.
        1   -1    0    0  501    0  0.00000000000E+00  0.00000000000E+00 -0.97514711884E+03  0.97514711886E+03  0.50400001928E-02 0. -1.
    10030    2    1    2    0    0  0.00000000000E+00  0.00000000000E+00  0.27023323508E+03  0.22205274728E+04  0.22040227440E+04 0.  0.
        3    1    3    3  502    0  0.98034724158E+03  0.22520748248E+03 -0.31839861190E+03  0.10550719457E+04  0.10100000352E+00 0. -1.
       -3    1    3    3    0  502 -0.98034724158E+03 -0.22520748248E+03  0.58863184698E+03  0.11654555271E+04  0.10100000352E+00 0.  1.
</event>
<event>
 5   0  0.1071208E-05  0.2198962E+04  0.7818609E-02  0.8518860E-01
       -1   -1    0    0    0  501  0.00000000000E+00  0.00000000000E+00  0.77547433146E+03  0.77547433148E+03  0.50400001928E-02 0.  1.
        1   -1    0    0  501    0  0.00000000000E+00  0.00000000000E+00 -0.15588629370E+04  0.15588629370E+04  0.50400001928E-02 0. -1.
    10030    2    1    2    0    0  0.00000000000E+00  0.00000000000E+00 -0.78338860550E+03  0.23343372685E+04  0.21989617495E+04 0.  0.
        4    1    3    3  502    0  0.23489383293E+03  0.10299736110E+04 -0.68246847436E+02  0.10586217441E+04  0.12699999809E+01 0. -1.
       -4    1    3    3    0  502 -0.23489383293E+03 -0.10299736110E+04 -0.71514175807E+03  0.12757155243E+04  0.12699999809E+01 0.  1.
</event>
<event>
 5   0  0.1007682E-05  0.2201313E+04  0.7818609E-02  0.8517882E-01
       -1   -1    0    0    0  501  0.00000000000E+00  0.00000000000E+00  0.67025151410E+03  0.67025151412E+03  0.50400001928E-02 0.  1.
        1   -1    0    0  501    0  0.00000000000E+00  0.00000000000E+00 -0.18074482710E+04  0.18074482711E+04  0.50400001928E-02 0. -1.
    10030    2    1    2    0    0  0.00000000000E+00  0.00000000000E+00 -0.11371967569E+04  0.24776997852E+04  0.22013131902E+04 0.  0.
        2    1    3    3  502    0  0.27992253388E+03  0.67375716138E+03  0.35897094123E+03  0.81312082383E+03  0.25500000920E-02 0.  1.
       -2    1    3    3    0  502 -0.27992253388E+03 -0.67375716138E+03 -0.14961676982E+04  0.16645789613E+04  0.25500000920E-02 0. -1.
</event>
<event>
 5   0  0.2229552E-05  0.2205758E+04  0.7818609E-02  0.8516036E-01
        2   -1    0    0  501    0  0.00000000000E+00  0.00000000000E+00  0.15593156959E+04  0.15593156959E+04  0.25500000920E-02 0.  1.
       -2   -1    0    0    0  501  0.00000000000E+00  0.00000000000E+00 -0.78004832714E+03  0.78004832715E+03  0.25500000920E-02 0. -1.
    10030    2    1    2    0    0  0.00000000000E+00  0.00000000000E+00  0.77926736872E+03  0.23393640230E+04  0.22057575570E+04 0.  0.
        1    1    3    3  502    0 -0.10098959216E+04 -0.32306346835E+03  0.71146402497E+03  0.12768871665E+04  0.50400001928E-02 0. -1.
       -1    1    3    3    0  502  0.10098959216E+04  0.32306346835E+03  0.67803343745E+02  0.10624768565E+04  0.50400001928E-02 0.  1.
</event>
<event>
 5   0  0.1049198E-05  0.2196354E+04  0.7818609E-02  0.8519947E-01
       -1   -1    0    0    0  501  0.00000000000E+00  0.00000000000E+00  0.75886283149E+03  0.75886283151E+03  0.50400001928E-02 0.  1.
        1   -1    0    0  501    0  0.00000000000E+00  0.00000000000E+00 -0.15892103669E+04  0.15892103669E+04  0.50400001928E-02 0. -1.
    10030    2    1    2    0    0  0.00000000000E+00  0.00000000000E+00 -0.83034753540E+03  0.23480731984E+04  0.21963539595E+04 0.  0.
        1    1    3    3  502    0 -0.10588411527E+04 -0.28726883266E+03 -0.36362791866E+03  0.11558084755E+04  0.50400001928E-02 0.  1.
       -1    1    3    3    0  502  0.10588411527E+04  0.28726883266E+03 -0.46671961674E+03  0.11922647229E+04  0.50400001928E-02 0. -1.
</event>
<event>
 5   0  0.2229552E-05  0.2197002E+04  0.7818609E-02  0.8519677E-01
       -2   -1    0    0    0  501  0.00000000000E+00  0.00000000000E+00  0.92045909028E+03  0.92045909029E+03  0.25500000920E-02 0. -1.
        2   -1    0    0  501    0  0.00000000000E+00  0.00000000000E+00 -0.13109810217E+04  0.13109810217E+04  0.25500000920E-02 0.  1.
    10030    2    1    2    0    0  0.00000000000E+00  0.00000000000E+00 -0.39052193142E+03  0.22314401120E+04  0.21970019560E+04 0.  0.
        1    1    3    3  502    0 -0.58619215514E+03 -0.90159016388E+03  0.32346202140E+02  0.10758867706E+04  0.50400001928E-02 0.  1.
       -1    1    3    3    0  502  0.58619215514E+03  0.90159016388E+03 -0.42286813356E+03  0.11555533414E+04  0.50400001928E-02 0. -1.
</event>
<event>
 5   0  0.2284329E-05  0.2202634E+04  0.7818609E-02  0.8517333E-01
       -2   -1    0    0    0  501  0.00000000000E+00  0.00000000000E+00  0.73964563000E+03  0.73964563001E+03  0.25500000920E-02 0. -1.
        2   -1    0    0  501    0  0.00000000000E+00  0.00000000000E+00 -0.16398383518E+04  0.16398383518E+04  0.25500000920E-02 0.  1.
    10030    2    1    2    0    0  0.00000000000E+00  0.00000000000E+00 -0.90019272184E+03  0.23794839818E+04  0.22026341238E+04 0.  0.
        2    1    3    3  502    0 -0.16297414115E+02  0.10808744754E+04 -0.67758411302E+03  0.12758038515E+04  0.25500000920E-02 0.  1.
       -2    1    3    3    0  502  0.16297414115E+02 -0.10808744754E+04 -0.22260860882E+03  0.11036801303E+04  0.25500000920E-02 0. -1.
</event>
<event>
 5   0  0.2298329E-05  0.2204133E+04  0.7818609E-02  0.8516710E-01
       -2   -1    0    0    0  501  0.00000000000E+00  0.00000000000E+00  0.11543669440E+04  0.11543669440E+04  0.25500000920E-02 0. -1.
        2   -1    0    0  501    0  0.00000000000E+00  0.00000000000E+00 -0.10521358957E+04  0.10521358957E+04  0.25500000920E-02 0.  1.
    10030    2    1    2    0    0  0.00000000000E+00  0.00000000000E+00  0.10223104834E+03  0.22065028397E+04  0.22041332978E+04 0.  0.
        4    1    3    3  502    0  0.95595758470E+03 -0.23754545797E+03  0.54588012935E+03  0.11261747097E+04  0.12699999809E+01 0. -1.
       -4    1    3    3    0  502 -0.95595758470E+03  0.23754545797E+03 -0.44364908101E+03  0.10803281299E+04  0.12699999809E+01 0.  1.
</event>
<event>
 5   0  0.1071208E-05  0.2197193E+04  0.7818609E-02  0.8519597E-01
       -1   -1    0    0    0  501  0.00000000000E+00  0.00000000000E+00  0.12697231362E+04  0.12697231362E+04  0.50400001928E-02 0.  1.
        1   -1    0    0  501    0  0.00000000000E+00  0.00000000000E+00 -0.95053341878E+03  0.95053341880E+03  0.50400001928E-02 0. -1.
    10030    2    1    2    0    0  0.00000000000E+00  0.00000000000E+00  0.31918971742E+03  0.22202565550E+04  0.21971930034E+04 0.  0.
        4    1    3    3  502    0  0.53454316678E+03 -0.61498539861E+03 -0.58500433253E+03  0.10030828080E+04  0.12699999809E+01 0. -1.
       -4    1    3    3    0  502 -0.53454316678E+03  0.61498539861E+03  0.90419404994E+03  0.12171737470E+04  0.12699999809E+01 0.  1.
</event>
<event>
 5   0  0.1049198E-05  0.2193403E+04  0.7818609E-02  0.8521179E-01
        1   -1    0    0  501    0  0.00000000000E+00  0.00000000000E+00  0.12643243366E+04  0.12643243366E+04  0.50400001928E-02 0. -1.
       -1   -1    0    0    0  501  0.00000000000E+00  0.00000000000E+00 -0.95130181526E+03  0.95130181527E+03  0.50400001928E-02 0.  1.
    10030    2    1    2    0    0  0.00000000000E+00  0.00000000000E+00  0.31302252130E+03  0.22156261518E+04  0.21934028690E+04 0.  0.
        1    1    3    3  502    0 -0.31779957693E+03  0.13834978793E+02 -0.90367787256E+03  0.95803010136E+03  0.50400001928E-02 0.  1.
       -1    1    3    3    0  502  0.31779957693E+03 -0.13834978793E+02  0.12167003939E+04  0.12575960505E+04  0.50400001928E-02 0. -1.
</event>
<event>
 5   0  0.2298329E-05  0.2200640E+04  0.7818609E-02  0.8518162E-01
       -2   -1    0    0    0  501  0.00000000000E+00  0.00000000000E+00  0.20418306953E+04  0.20418306953E+04  0.25500000920E-02 0.  1.
        2   -1    0    0  501    0  0.00000000000E+00  0.00000000000E+00 -0.59295012040E+03  0.59295012041E+03  0.25500000920E-02 0. -1.
    10030    2    1    2    0    0  0.00000000000E+00  0.00000000000E+00  0.14488805749E+04  0.26347808157E+04  0.22006396858E+04 0.  0.
        4    1    3    3  502    0  0.32095295140E+03  0.10524141043E+04  0.71155076687E+03  0.13103023891E+04  0.12699999809E+01 0.  1.
       -4    1    3    3    0  502 -0.32095295140E+03 -0.10524141043E+04  0.73732980805E+03  0.13244784267E+04  0.12699999809E+01 0. -1.
</event>
<event>
 5   0  0.2289708E-05  0.2118584E+04  0.7818609E-02  0.8553101E-01
       -2   -1    0    0    0  501  0.00000000000E+00  0.00000000000E+00  0.10026680941E+04  0.10026680941E+04  0.25500000920E-02 0.  1.
        2   -1    0    0  501    0  0.00000000000E+00  0.00000000000E+00 -0.11191139676E+04  0.11191139676E+04  0.25500000920E-02 0. -1.
    10030    2    1    2    0    0  0.00000000000E+00  0.00000000000E+00 -0.11644587349E+03  0.21217820618E+04  0.21185843094E+04 0.  0.
        5    1    3    3  502    0 -0.27358315941E+03  0.18427053272E+02 -0.10829439609E+04  0.11171289155E+04  0.46999998093E+01 0. -1.
       -5    1    3    3    0  502  0.27358315941E+03 -0.18427053272E+02  0.96649808739E+03  0.10046531463E+04  0.46999998093E+01 0.  1.
</event>
<event>
 5   0  0.1007682E-05  0.2199590E+04  0.7818609E-02  0.8518599E-01
        1   -1    0    0  501    0  0.00000000000E+00  0.00000000000E+00  0.64017230415E+03  0.64017230417E+03  0.50400001928E-02 0.  1.
       -1   -1    0    0    0  501  0.00000000000E+00  0.00000000000E+00 -0.18894117852E+04  0.18894117852E+04  0.50400001928E-02 0. -1.
    10030    2    1    2    0    0  0.00000000000E+00  0.00000000000E+00 -0.12492394810E+04  0.25295840894E+04  0.21995900491E+04 0.  0.
        2    1    3    3  502    0  0.54622166324E+03 -0.31142107385E+03 -0.16623274233E+04  0.17772657800E+04  0.25500000920E-02 0. -1.
       -2    1    3    3    0  502 -0.54622166324E+03  0.31142107385E+03  0.41308794221E+03  0.75231830938E+03  0.25500000920E-02 0.  1.
</event>
<event>
 5   0  0.1005538E-05  0.2179483E+04  0.7818609E-02  0.8527017E-01
       -1   -1    0    0    0  501  0.00000000000E+00  0.00000000000E+00  0.14945796773E+04  0.14945796773E+04  0.50400001928E-02 0.  1.
        1   -1    0    0  501    0  0.00000000000E+00  0.00000000000E+00 -0.79456229555E+03  0.79456229557E+03  0.50400001928E-02 0. -1.
    10030    2    1    2    0    0  0.00000000000E+00  0.00000000000E+00  0.70001738178E+03  0.22891419729E+04  0.21794831124E+04 0.  0.
        3    1    3    3  502    0 -0.63942516651E+03  0.61461134521E+03  0.10150533180E+04  0.13479409845E+04  0.10100000352E+00 0.  1.
       -3    1    3    3    0  502  0.63942516651E+03 -0.61461134521E+03 -0.31503593619E+03  0.94120098838E+03  0.10100000352E+00 0. -1.
</event>
<event>
 5   0  0.2284329E-05  0.2197880E+04  0.7818609E-02  0.8519311E-01
        2   -1    0    0  501    0  0.00000000000E+00  0.00000000000E+00  0.12926786477E+04  0.12926786477E+04  0.25500000920E-02 0.  1.
       -2   -1    0    0    0  501  0.00000000000E+00  0.00000000000E+00 -0.93423781852E+03  0.93423781852E+03  0.25500000920E-02 0. -1.
    10030    2    1    2    0    0  0.00000000000E+00  0.00000000000E+00  0.35844082915E+03  0.22269164662E+04  0.21978801422E+04 0.  0.
        2    1    3    3  502    0  0.78192359956E+03  0.74342514679E+03 -0.32304994969E+02  0.10794114494E+04  0.25500000920E-02 0. -1.
       -2    1    3    3    0  502 -0.78192359956E+03 -0.74342514679E+03  0.39074582412E+03  0.11475050168E+04  0.25500000920E-02 0.  1.
</event>
<event>
 5   0  0.2298329E-05  0.2194661E+04  0.7818609E-02  0.8520654E-01
        2   -1    0    0  501    0  0.00000000000E+00  0.00000000000E+00  0.27362498598E+04  0.27362498598E+04  0.25500000920E-02 0. -1.
       -2   -1    0    0    0  501  0.00000000000E+00  0.00000000000E+00 -0.44006721511E+03  0.44006721512E+03  0.25500000920E-02 0.  1.
    10030    2    1    2    0    0  0.00000000000E+00  0.00000000000E+00  0.22961826446E+04  0.31763170749E+04  0.21946606623E+04 0.  0.
        4    1    3    3  502    0  0.65395052718E+03 -0.19084132626E+02 -0.12693748526E+03  0.66643096731E+03  0.12699999809E+01 0.  1.
       -4    1    3    3    0  502 -0.65395052718E+03  0.19084132626E+02  0.24231201299E+04  0.25098861076E+04  0.12699999809E+01 0. -1.
</event>
<event>
 5   0  0.1049198E-05  0.2206750E+04  0.7818609E-02  0.8515624E-01
       -1   -1    0    0    0  501  0.00000000000E+00  0.00000000000E+00  0.11523846591E+04  0.11523846591E+04  0.50400001928E-02 0. -1.
        1   -1    0    0  501    0  0.00000000000E+00  0.00000000000E+00 -0.10564497424E+04  0.10564497425E+04  0.50400001928E-02 0.  1.
    10030    2    1    2    0    0  0.00000000000E+00  0.00000000000E+00  0.95934916674E+02  0.22088344016E+04  0.22067500777E+04 0.  0.
        1    1    3    3  502    0  0.27418675451E+02 -0.73952247375E+03  0.86714818682E+03  0.11399961627E+04  0.50400001928E-02 0. -1.
       -1    1    3    3    0  502 -0.27418675451E+02  0.73952247375E+03 -0.77121327014E+03  0.10688382389E+04  0.50400001928E-02 0.  1.
</event>
<event>
 5   0  0.1049198E-05  0.2198384E+04  0.7818609E-02  0.8519101E-01
        1   -1    0    0  501    0  0.00000000000E+00  0.00000000000E+00  0.12990877762E+04  0.12990877762E+04  0.50400001928E-02 0. -1.
       -1   -1    0    0    0  501  0.00000000000E+00  0.00000000000E+00 -0.93005471533E+03  0.93005471534E+03  0.50400001928E-02 0.  1.
    10030    2    1    2    0    0  0.00000000000E+00  0.00000000000E+00  0.36903306089E+03  0.22291424916E+04  0.21983836898E+04 0.  0.
        1    1    3    3  502    0  0.15784985167E+03 -0.91694572214E+03  0.77795432132E+03  0.12128144784E+04  0.50400001928E-02 0.  1.
       -1    1    3    3    0  502 -0.15784985167E+03  0.91694572214E+03 -0.40892126043E+03  0.10163280131E+04  0.50400001928E-02 0. -1.
</event>
<event>
 5   0  0.2319707E-05  0.2185467E+04  0.7818609E-02  0.8524502E-01
       -2   -1    0    0    0  501  0.00000000000E+00  0.00000000000E+00  0.78806853316E+03  0.78806853316E+03  0.25500000920E-02 0.  1.
        2   -1    0    0  501    0  0.00000000000E+00  0.00000000000E+00 -0.15151805217E+04  0.15151805217E+04  0.25500000920E-02 0. -1.
    10030    2    1    2    0    0  0.00000000000E+00  0.00000000000E+00 -0.72711198856E+03  0.23032490549E+04  0.21854666241E+04 0.  0.
        3    1    3    3  502    0 -0.55460266754E+03 -0.76103153097E+03 -0.94779045348E+03  0.13360613249E+04  0.10100000352E+00 0. -1.
       -3    1    3    3    0  502  0.55460266754E+03  0.76103153097E+03  0.22067846492E+03  0.96718772999E+03  0.10100000352E+00 0.  1.
</event>
<event>
 5   0  0.1071208E-05  0.2212546E+04  0.7818609E-02  0.8513224E-01
        1   -1    0    0  501    0  0.00000000000E+00  0.00000000000E+00  0.19122294508E+04  0.19122294509E+04  0.50400001928E-02 0.  1.
       -1   -1    0    0    0  501  0.00000000000E+00  0.00000000000E+00 -0.64000702499E+03  0.64000702501E+03  0.50400001928E-02 0. -1.
    10030    2    1    2    0    0  0.00000000000E+00  0.00000000000E+00  0.12722224258E+04  0.25522364759E+04  0.22125462996E+04 0.  0.
        4    1    3    3  502    0 -0.23673320211E+03  0.30711003344E+03 -0.55904705109E+03  0.68036343218E+03  0.12699999809E+01 0. -1.
       -4    1    3    3    0  502  0.23673320211E+03 -0.30711003344E+03  0.18312694769E+04  0.18718730437E+04  0.12699999809E+01 0.  1.
</event>
<event>
 5   0  0.1005538E-05  0.2200293E+04  0.7818609E-02  0.8518306E-01
       -1   -1    0    0    0  501  0.00000000000E+00  0.00000000000E+00  0.10115115858E+04  0.10115115858E+04  0.50400001928E-02 0. -1.
        1   -1    0    0  501    0  0.00000000000E+00  0.00000000000E+00 -0.11965481483E+04  0.11965481483E+04  0.50400001928E-02 0.  1.
    10030    2    1    2    0    0  0.00000000000E+00  0.00000000000E+00 -0.18503656247E+03  0.22080597341E+04  0.22002929941E+04 0.  0.
        3    1    3    3  502    0  0.44212735928E+02 -0.30805861869E+03 -0.11514526901E+04  0.11927691253E+04  0.10100000352E+00 0.  1.
       -3    1    3    3    0  502 -0.44212735928E+02  0.30805861869E+03  0.96641612758E+03  0.10152906089E+04  0.10100000352E+00 0. -1.
</event>
<event>
 5   0  0.1049198E-05  0.2201767E+04  0.7818609E-02  0.8517693E-01
       -1   -1    0    0    0  501  0.00000000000E+00  0.00000000000E+00  0.16219938445E+04  0.16219938445E+04  0.50400001928E-02 0.  1.
        1   -1    0    0  501    0  0.00000000000E+00  0.00000000000E+00 -0.74719414232E+03  0.74719414234E+03  0.50400001928E-02 0. -1.
    10030    2    1    2    0    0  0.00000000000E+00  0.00000000000E+00  0.87479970216E+03  0.23691879868E+04  0.22017668355E+04 0.  0.
        1    1    3    3  502    0 -0.10253750769E+04  0.38917124828E+03  0.33477484481E+03  0.11467007045E+04  0.50400001928E-02 0. -1.
       -1    1    3    3    0  502  0.10253750769E+04 -0.38917124828E+03  0.54002485734E+03  0.12224872823E+04  0.50400001928E-02 0.  1.
</event>
<event>
 5   0  0.1005538E-05  0.2206837E+04  0.7818609E-02  0.8515588E-01
       -1   -1    0    0    0  501  0.00000000000E+00  0.00000000000E+00  0.10005094098E+04  0.10005094099E+04  0.50400001928E-02 0. -1.
        1   -1    0    0  501    0  0.00000000000E+00  0.00000000000E+00 -0.12169120291E+04  0.12169120292E+04  0.50400001928E-02 0.  1.
    10030    2    1    2    0    0  0.00000000000E+00  0.00000000000E+00 -0.21640261930E+03  0.22174214390E+04  0.22068365922E+04 0.  0.
        3    1    3    3  502    0 -0.49022622287E+03  0.43837691351E+03  0.78207089189E+03  0.10218272643E+04  0.10100000352E+00 0. -1.
       -3    1    3    3    0  502  0.49022622287E+03 -0.43837691351E+03 -0.99847351120E+03  0.11955941747E+04  0.10100000352E+00 0.  1.
</event>
<event>
 5   0  0.2289708E-05  0.2200094E+04  0.7818609E-02  0.8518389E-01
       -2   -1    0    0    0  501  0.00000000000E+00  0.00000000000E+00  0.48466433008E+03  0.48466433009E+03  0.25500000920E-02 0.  1.
        2   -1    0    0  501    0  0.00000000000E+00  0.00000000000E+00 -0.24967870088E+04  0.24967870088E+04  0.25500000920E-02 0. -1.
    10030    2    1    2    0    0  0.00000000000E+00  0.00000000000E+00 -0.20121226787E+04  0.29814513389E+04  0.22000941825E+04 0.  0.
        5    1    3    3  502    0 -0.50304777985E+03  0.33614969575E+03  0.23892571407E+03  0.65050847313E+03  0.46999998093E+01 0.  1.
       -5    1    3    3    0  502  0.50304777985E+03 -0.33614969575E+03 -0.22510483928E+04  0.23309428658E+04  0.46999998093E+01 0. -1.
</event>
<event>
 5   0  0.1071208E-05  0.2189754E+04  0.7818609E-02  0.8522705E-01
       -1   -1    0    0    0  501  0.00000000000E+00  0.00000000000E+00  0.55368321537E+03  0.55368321539E+03  0.50400001928E-02 0.  1.
        1   -1    0    0  501    0  0.00000000000E+00  0.00000000000E+00 -0.21650570891E+04  0.21650570891E+04  0.50400001928E-02 0. -1.
    10030    2    1    2    0    0  0.00000000000E+00  0.00000000000E+00 -0.16113738737E+04  0.27187403044E+04  0.21897541146E+04 0.  0.
        4    1    3    3  502    0 -0.63915280654E+03  0.45486896613E+02  0.29656784411E+03  0.70607327306E+03  0.12699999809E+01 0.  1.
       -4    1    3    3    0  502  0.63915280654E+03 -0.45486896613E+02 -0.19079417178E+04  0.20126670314E+04  0.12699999809E+01 0. -1.
</event>
<event>
 5   0  0.1049198E-05  0.2176928E+04  0.7818609E-02  0.8528093E-01
        1   -1    0    0  501    0  0.00000000000E+00  0.00000000000E+00  0.10646484716E+04  0.10646484716E+04  0.50400001928E-02 0. -1.
       -1   -1    0    0    0  501  0.00000000000E+00  0.00000000000E+00 -0.11128126430E+04  0.11128126430E+04  0.50400001928E-02 0.  1.
    10030    2    1    2    0    0  0.00000000000E+00  0.00000000000E+00 -0.48164171348E+02  0.21774611146E+04  0.21769283677E+04 0.  0.
        1    1    3    3  502    0 -0.63082321605E+03  0.53490284932E+03  0.68368933633E+03  0.10730750658E+04  0.50400001928E-02 0. -1.
       -1    1    3    3    0  502  0.63082321605E+03 -0.53490284932E+03 -0.73185350768E+03  0.11043860488E+04  0.50400001928E-02 0.  1.
</event>
<event>
 5   0  0.1005538E-05  0.2176082E+04  0.7818609E-02  0.8528450E-01
        1   -1    0    0  501    0  0.00000000000E+00  0.00000000000E+00  0.15206426339E+04  0.15206426340E+04  0.50400001928E-02 0. -1.
       -1   -1    0    0    0  501  0.00000000000E+00  0.00000000000E+00 -0.77850878852E+03  0.77850878854E+03  0.50400001928E-02 0.  1.
    10030    2    1    2    0    0  0.00000000000E+00  0.00000000000E+00  0.74213384542E+03  0.22991514225E+04  0.21760824017E+04 0.  0.
        3    1    3    3  502    0  0.21621730208E+03  0.48876231883E+02  0.14965313623E+04  0.15128598535E+04  0.10100000352E+00 0. -1.
       -3    1    3    3    0  502 -0.21621730208E+03 -0.48876231883E+02 -0.75439751689E+03  0.78629156899E+03  0.10100000352E+00 0.  1.
</event>
<event>
 5   0  0.2289708E-05  0.2220667E+04  0.7818609E-02  0.8509875E-01
        2   -1    0    0  501    0  0.00000000000E+00  0.00000000000E+00  0.19395688951E+04  0.19395688951E+04  0.25500000920E-02 0.  1.
       -2   -1    0    0    0  501  0.00000000000E+00  0.00000000000E+00 -0.63562610303E+03  0.63562610303E+03  0.25500000920E-02 0. -1.
    10030    2    1    2    0    0  0.00000000000E+00  0.00000000000E+00  0.13039427921E+04  0.25751949981E+04  0.22206671235E+04 0.  0.
        5    1    3    3  502    0 -0.51506616101E+03  0.68281425574E+03  0.14730244261E+04  0.17033354068E+04  0.46999998093E+01 0.  1.
       -5    1    3    3    0  502  0.51506616101E+03 -0.68281425574E+03 -0.16908163404E+03  0.87185959135E+03  0.46999998093E+01 0. -1.
</event>
<event>
 5   0  0.2298329E-05  0.2193316E+04  0.7818609E-02  0.8521215E-01
       -2   -1    0    0    0  501  0.00000000000E+00  0.00000000000E+00  0.14492090534E+04  0.14492090534E+04  0.25500000920E-02 0. -1.
        2   -1    0    0  501    0  0.00000000000E+00  0.00000000000E+00 -0.82987224164E+03  0.82987224165E+03  0.25500000920E-02 0.  1.
    10030    2    1    2    0    0  0.00000000000E+00  0.00000000000E+00  0.61933681174E+03  0.22790812950E+04  0.21933156323E+04 0.  0.
        4    1    3    3  502    0  0.84755663158E+03 -0.29943443551E+03 -0.34310307969E+03  0.96215100742E+03  0.12699999809E+01 0.  1.
       -4    1    3    3    0  502 -0.84755663158E+03  0.29943443551E+03  0.96243989142E+03  0.13169302876E+04  0.12699999809E+01 0. -1.
</event>
<event>
 5   0  0.1033733E-05  0.2189948E+04  0.7818609E-02  0.8522624E-01
       -1   -1    0    0    0  501  0.00000000000E+00  0.00000000000E+00  0.69749116075E+03  0.69749116076E+03  0.50400001928E-02 0. -1.
        1   -1    0    0  501    0  0.00000000000E+00  0.00000000000E+00 -0.17189726159E+04  0.17189726159E+04  0.50400001928E-02 0.  1.
    10030    2    1    2    0    0  0.00000000000E+00  0.00000000000E+00 -0.10214814551E+04  0.24164637766E+04  0.21899481319E+04 0.  0.
        5    1    3    3  502    0  0.52332085415E+03  0.54358405008E+03 -0.13862848848E+04  0.15783396998E+04  0.46999998093E+01 0.  1.
       -5    1    3    3    0  502 -0.52332085415E+03 -0.54358405008E+03  0.36480342973E+03  0.83812407687E+03  0.46999998093E+01 0. -1.
</event>
<event>
 5   0  0.2298329E-05  0.2201062E+04  0.7818609E-02  0.8517986E-01
       -2   -1    0    0    0  501  0.00000000000E+00  0.00000000000E+00  0.13654524393E+04  0.13654524394E+04  0.25500000920E-02 0.  1.
        2   -1    0    0  501    0  0.00000000000E+00  0.00000000000E+00 -0.88700893361E+03  0.88700893361E+03  0.25500000920E-02 0. -1.
    10030    2    1    2    0    0  0.00000000000E+00  0.00000000000E+00  0.47844350574E+03  0.22524613730E+04  0.22010620274E+04 0.  0.
        4    1    3    3  502    0 -0.10156685268E+04  0.20461648003E+02 -0.19394235351E+03  0.10342226476E+04  0.12699999809E+01 0. -1.
       -4    1    3    3    0  502  0.10156685268E+04 -0.20461648003E+02  0.67238585926E+03  0.12182387254E+04  0.12699999809E+01 0.  1.
</event>
<event>
 5   0  0.1005538E-05  0.2199861E+04  0.7818609E-02  0.8518486E-01
       -1   -1    0    0    0  501  0.00000000000E+00  0.00000000000E+00  0.96721938641E+03  0.96721938642E+03  0.50400001928E-02 0. -1.
        1   -1    0    0  501    0  0.00000000000E+00  0.00000000000E+00 -0.12508508083E+04  0.12508508083E+04  0.50400001928E-02 0.  1.
    10030    2    1    2    0    0  0.00000000000E+00  0.00000000000E+00 -0.28363142185E+03  0.22180701947E+04  0.21998610422E+04 0.  0.
        3    1    3    3  502    0  0.10908341268E+04  0.14025509018E+03 -0.15796573745E+03  0.11111002506E+04  0.10100000352E+00 0. -1.
       -3    1    3    3    0  502 -0.10908341268E+04 -0.14025509018E+03 -0.12566568439E+03  0.11069699440E+04  0.10100000352E+00 0.  1.
</event>
<event>
 5   0  0.2284329E-05  0.2199588E+04  0.7818609E-02  0.8518599E-01
        2   -1    0    0  501    0  0.00000000000E+00  0.00000000000E+00  0.11662669011E+04  0.11662669011E+04  0.25500000920E-02 0. -1.
       -2   -1    0    0    0  501  0.00000000000E+00  0.00000000000E+00 -0.10371101703E+04  0.10371101703E+04  0.25500000920E-02 0.  1.
    10030    2    1    2    0    0  0.00000000000E+00  0.00000000000E+00  0.12915673081E+03  0.22033770714E+04  0.21995883837E+04 0.  0.
        2    1    3    3  502    0  0.13189496920E+03 -0.18147331746E+03 -0.10139462075E+04  0.10384679868E+04  0.25500000920E-02 0.  1.
       -2    1    3    3    0  502 -0.13189496920E+03  0.18147331746E+03  0.11431029383E+04  0.11649090846E+04  0.25500000920E-02 0. -1.
</event>
<event>
 5   0  0.2229552E-05  0.2202374E+04  0.7818609E-02  0.8517441E-01
        2   -1    0    0  501    0  0.00000000000E+00  0.00000000000E+00  0.23436724824E+04  0.23436724824E+04  0.25500000920E-02 0.  1.
       -2   -1    0    0    0  501  0.00000000000E+00  0.00000000000E+00 -0.51739853018E+03  0.51739853018E+03  0.25500000920E-02 0. -1.
    10030    2    1    2    0    0  0.00000000000E+00  0.00000000000E+00  0.18262739522E+04  0.28610710126E+04  0.22023738989E+04 0.  0.
        1    1    3    3  502    0  0.80128549284E+03 -0.48139298870E+03  0.15696786903E+03  0.94785893599E+03  0.50400001928E-02 0. -1.
       -1    1    3    3    0  502 -0.80128549284E+03  0.48139298870E+03  0.16693060832E+04  0.19132120766E+04  0.50400001928E-02 0.  1.
</event>
<event>
 5   0  0.1071208E-05  0.2201113E+04  0.7818609E-02  0.8517965E-01
        1   -1    0    0  501    0  0.00000000000E+00  0.00000000000E+00  0.13607011695E+04  0.13607011695E+04  0.50400001928E-02 0. -1.
       -1   -1    0    0    0  501  0.00000000000E+00  0.00000000000E+00 -0.89014733869E+03  0.89014733871E+03  0.50400001928E-02 0.  1.
    10030    2    1    2    0    0  0.00000000000E+00  0.00000000000E+00  0.47055383083E+03  0.22508485082E+04  0.22011129229E+04 0.  0.
        4    1    3    3  502    0 -0.51226727800E+03  0.97002352550E+03  0.14461985829E+03  0.11064718345E+04  0.12699999809E+01 0.  1.
       -4    1    3    3    0  502  0.51226727800E+03 -0.97002352550E+03  0.32593397254E+03  0.11443766738E+04  0.12699999809E+01 0. -1.
</event>
<event>
 5   0  0.2229552E-05  0.2195006E+04  0.7818609E-02  0.8520510E-01
       -2   -1    0    0    0  501  0.00000000000E+00  0.00000000000E+00  0.37913894696E+03  0.37913894696E+03  0.25500000920E-02 0.  1.
        2   -1    0    0  501    0  0.00000000000E+00  0.00000000000E+00 -0.31769689559E+04  0.31769689559E+04  0.25500000920E-02 0. -1.
    10030    2    1    2    0    0  0.00000000000E+00  0.00000000000E+00 -0.27978300089E+04  0.35561079028E+04  0.21950058446E+04 0.  0.
        1    1    3    3  502    0  0.10608472287E+04 -0.27014933245E+02 -0.18524998573E+04  0.21349197574E+04  0.50400001928E-02 0. -1.
       -1    1    3    3    0  502 -0.10608472287E+04  0.27014933245E+02 -0.94533015162E+03  0.14211881454E+04  0.50400001928E-02 0.  1.
</event>
<event>
 5   0  0.1007682E-05  0.2196798E+04  0.7818609E-02  0.8519762E-01
        1   -1    0    0  501    0  0.00000000000E+00  0.00000000000E+00  0.11033222879E+04  0.11033222879E+04  0.50400001928E-02 0.  1.
       -1   -1    0    0    0  501  0.00000000000E+00  0.00000000000E+00 -0.10934975675E+04  0.10934975675E+04  0.50400001928E-02 0. -1.
    10030    2    1    2    0    0  0.00000000000E+00  0.00000000000E+00  0.98247203900E+01  0.21968198554E+04  0.21967978860E+04 0.  0.
        2    1    3    3  502    0 -0.17878302261E+03  0.68661178362E+03 -0.83359535594E+03  0.10946599143E+04  0.25500000920E-02 0. -1.
       -2    1    3    3    0  502  0.17878302261E+03 -0.68661178362E+03  0.84342007633E+03  0.11021599411E+04  0.25500000920E-02 0.  1.
</event>
<event>
 5   0  0.2298329E-05  0.2205182E+04  0.7818609E-02  0.8516275E-01
        2   -1    0    0  501    0  0.00000000000E+00  0.00000000000E+00  0.10900928427E+04  0.10900928427E+04  0.25500000920E-02 0. -1.
       -2   -1    0    0    0  501  0.00000000000E+00  0.00000000000E+00 -0.11152320519E+04  0.11152320519E+04  0.25500000920E-02 0.  1.
    10030    2    1    2    0    0  0.00000000000E+00  0.00000000000E+00 -0.25139209147E+02  0.22053248946E+04  0.22051816050E+04 0.  0.
        4    1    3    3  502    0 -0.93926437696E+03  0.23124897466E+03 -0.54176484018E+03  0.11086949143E+04  0.12699999809E+01 0.  1.
       -4    1    3    3    0  502  0.93926437696E+03 -0.23124897466E+03  0.51662563104E+03  0.10966299803E+04  0.12699999809E+01 0. -1.
</event>
<event>
 5   0  0.2319707E-05  0.2197557E+04  0.7818609E-02  0.8519446E-01
        2   -1    0    0  501    0  0.00000000000E+00  0.00000000000E+00  0.13522715920E+04  0.13522715920E+04  0.25500000920E-02 0. -1.
       -2   -1    0    0    0  501  0.00000000000E+00  0.00000000000E+00 -0.89280415299E+03  0.89280415300E+03  0.25500000920E-02 0.  1.
    10030    2    1    2    0    0  0.00000000000E+00  0.00000000000E+00  0.45946743898E+03  0.22450757450E+04  0.21975565461E+04 0.  0.
        3    1    3    3  502    0  0.59864595953E+03  0.72751030011E+03 -0.34788172443E+03  0.10043256076E+04  0.10100000352E+00 0.  1.
       -3    1    3    3    0  502 -0.59864595953E+03 -0.72751030011E+03  0.80734916340E+03  0.12407501374E+04  0.10100000352E+00 0. -1.
</event>
<event>
 5   0  0.1007682E-05  0.2214541E+04  0.7818609E-02  0.8512400E-01
        1   -1    0    0  501    0  0.00000000000E+00  0.00000000000E+00  0.63129147698E+03  0.63129147700E+03  0.50400001928E-02 0.  1.
       -1   -1    0    0    0  501  0.00000000000E+00  0.00000000000E+00 -0.19421261349E+04  0.19421261349E+04  0.50400001928E-02 0. -1.
    10030    2    1    2    0    0  0.00000000000E+00  0.00000000000E+00 -0.13108346580E+04  0.25734176119E+04  0.22145407436E+04 0.  0.
        2    1    3    3  502    0 -0.93252032025E+03  0.51133120525E+03 -0.10135752124E+04  0.14691454865E+04  0.25500000920E-02 0.  1.
       -2    1    3    3    0  502  0.93252032025E+03 -0.51133120525E+03 -0.29725944551E+03  0.11042721255E+04  0.25500000920E-02 0. -1.
</event>
<event>
 5   0  0.1071208E-05  0.2200703E+04  0.7818609E-02  0.8518136E-01
        1   -1    0    0  501    0  0.00000000000E+00  0.00000000000E+00  0.10511079961E+04  0.10511079961E+04  0.50400001928E-02 0. -1.
       -1   -1    0    0    0  501  0.00000000000E+00  0.00000000000E+00 -0.11519019035E+04  0.11519019035E+04  0.50400001928E-02 0.  1.
    10030    2    1    2    0    0  0.00000000000E+00  0.00000000000E+00 -0.10079390737E+03  0.22030098996E+04  0.22007028891E+04 0.  0.
        4    1    3    3  502    0  0.37677679324E+03 -0.10307892709E+04 -0.12975436442E+03  0.11051357748E+04  0.12699999809E+01 0.  1.
       -4    1    3    3    0  502 -0.37677679324E+03  0.10307892709E+04  0.28960457049E+02  0.10978741248E+04  0.12699999809E+01 0. -1.
</event>
<event>
 5   0  0.1005538E-05  0.2201638E+04  0.7818609E-02  0.8517747E-01
        1   -1    0    0  501    0  0.00000000000E+00  0.00000000000E+00  0.93912396662E+03  0.93912396664E+03  0.50400001928E-02 0. -1.
       -1   -1    0    0    0  501  0.00000000000E+00  0.00000000000E+00 -0.12903537430E+04  0.12903537430E+04  0.50400001928E-02 0.  1.
    10030    2    1    2    0    0  0.00000000000E+00  0.00000000000E+00 -0.35122977636E+03  0.22294777096E+04  0.22016376863E+04 0.  0.
        3    1    3    3  502    0 -0.10770768944E+04 -0.90837581315E+01 -0.40569928394E+03  0.11509861295E+04  0.10100000352E+00 0.  1.
       -3    1    3    3    0  502  0.10770768944E+04  0.90837581315E+01  0.54469507583E+02  0.10784915802E+04  0.10100000352E+00 0. -1.
</event>
<event>
 5   0  0.1005538E-05  0.2198720E+04  0.7818609E-02  0.8518961E-01
        1   -1    0    0  501    0  0.00000000000E+00  0.00000000000E+00  0.79070856335E+03  0.79070856337E+03  0.50400001928E-02 0.  1.
       -1   -1    0    0    0  501  0.00000000000E+00  0.00000000000E+00 -0.15284930721E+04  0.15284930721E+04  0.50400001928E-02 0. -1.
    10030    2    1    2    0    0  0.00000000000E+00  0.00000000000E+00 -0.73778450877E+03  0.23192016355E+04  0.21987201379E+04 0.  0.
        3    1    3    3  502    0 -0.15506975166E+03  0.22673209005E+03  0.75392751067E+03  0.80240935319E+03  0.10100000352E+00 0.  1.
       -3    1    3    3    0  502  0.15506975166E+03 -0.22673209005E+03 -0.14917120194E+04  0.15167922823E+04  0.10100000352E+00 0. -1.
</event>
<event>
 5   0  0.2229552E-05  0.2196449E+04  0.7818609E-02  0.8519907E-01
       -2   -1    0    0    0  501  0.00000000000E+00  0.00000000000E+00  0.11678639639E+04  0.11678639639E+04  0.25500000920E-02 0.  1.
        2   -1    0    0  501    0  0.00000000000E+00  0.00000000000E+00 -0.10327378839E+04  0.10327378839E+04  0.25500000920E-02 0. -1.
    10030    2    1    2    0    0  0.00000000000E+00  0.00000000000E+00  0.13512608000E+03  0.22006018477E+04  0.21964492789E+04 0.  0.
        1    1    3    3  502    0  0.46162461283E+03  0.10539048746E+02  0.10658850473E+04  0.11616020355E+04  0.50400001928E-02 0.  1.
       -1    1    3    3    0  502 -0.46162461283E+03 -0.10539048746E+02 -0.93075896729E+03  0.10389998123E+04  0.50400001928E-02 0. -1.
</event>
<event>
 5   0  0.2289708E-05  0.2292296E+04  0.7818609E-02  0.8480965E-01
        2   -1    0    0  501    0  0.00000000000E+00  0.00000000000E+00  0.16077980972E+04  0.16077980972E+04  0.25500000920E-02 0. -1.
       -2   -1    0    0    0  501  0.00000000000E+00  0.00000000000E+00 -0.81705239968E+03  0.81705239968E+03  0.25500000920E-02 0.  1.
    10030    2    1    2    0    0  0.00000000000E+00  0.00000000000E+00  0.79074569755E+03  0.24248504969E+04  0.22922960486E+04 0.  0.
        5    1    3    3  502    0  0.76632075202E+03  0.28502464151E+03 -0.45428385659E+03  0.93535151339E+03  0.46999998093E+01 0.  1.
       -5    1    3    3    0  502 -0.76632075202E+03 -0.28502464151E+03  0.12450295541E+04  0.14894989835E+04  0.46999998093E+01 0. -1.
</event>
<event>
 5   0  0.2284329E-05  0.2200792E+04  0.7818609E-02  0.8518099E-01
        2   -1    0    0  501    0  0.00000000000E+00  0.00000000000E+00  0.83041679834E+03  0.83041679835E+03  0.25500000920E-02 0. -1.
       -2   -1    0    0    0  501  0.00000000000E+00  0.00000000000E+00 -0.14581482645E+04  0.14581482645E+04  0.25500000920E-02 0.  1.
    10030    2    1    2    0    0  0.00000000000E+00  0.00000000000E+00 -0.62773146620E+03  0.22885650629E+04  0.22007915061E+04 0.  0.
        2    1    3    3  502    0 -0.70420263314E+03 -0.56350351324E+03  0.34170033199E+03  0.96446704186E+03  0.25500000920E-02 0. -1.
       -2    1    3    3    0  502  0.70420263314E+03  0.56350351324E+03 -0.96943179819E+03  0.13240980210E+04  0.25500000920E-02 0.  1.
</event>
<event>
 5   0  0.1049198E-05  0.2196768E+04  0.7818609E-02  0.8519775E-01
        1   -1    0    0  501    0  0.00000000000E+00  0.00000000000E+00  0.56860537851E+03  0.56860537853E+03  0.50400001928E-02 0. -1.
       -1   -1    0    0    0  501  0.00000000000E+00  0.00000000000E+00 -0.21217650101E+04  0.21217650101E+04  0.50400001928E-02 0.  1.
    10030    2    1    2    0    0  0.00000000000E+00  0.00000000000E+00 -0.15531596316E+04  0.26903703886E+04  0.21967676224E+04 0.  0.
        1    1    3    3  502    0  0.76466620810E+03  0.84391381003E+02  0.18354569074E+03  0.79090159667E+03  0.50400001928E-02 0. -1.
       -1    1    3    3    0  502 -0.76466620810E+03 -0.84391381003E+02 -0.17367053223E+04  0.18994687919E+04  0.50400001928E-02 0.  1.
</event>
<event>
 5   0  0.2284329E-05  0.2197659E+04  0.7818609E-02  0.8519403E-01
       -2   -1    0    0    0  501  0.00000000000E+00  0.00000000000E+00  0.66326156825E+03  0.66326156826E+03  0.25500000920E-02 0.  1.
        2   -1    0    0  501    0  0.00000000000E+00  0.00000000000E+00 -0.18204377631E+04  0.18204377631E+04  0.25500000920E-02 0. -1.
    10030    2    1    2    0    0  0.00000000000E+00  0.00000000000E+00 -0.11571761949E+04  0.24836993314E+04  0.21976591234E+04 0.  0.
        2    1    3    3  502    0 -0.90852445044E+03 -0.24937487572E+03  0.60547180291E+02  0.94407121910E+03  0.25500000920E-02 0.  1.
       -2    1    3    3    0  502  0.90852445044E+03  0.24937487572E+03 -0.12177233752E+04  0.15396281123E+04  0.25500000920E-02 0. -1.
</event>
<event>
 5   0  0.1049198E-05  0.2196007E+04  0.7818609E-02  0.8520092E-01
       -1   -1    0    0    0  501  0.00000000000E+00  0.00000000000E+00  0.10351814945E+04  0.10351814945E+04  0.50400001928E-02 0.  1.
        1   -1    0    0  501    0  0.00000000000E+00  0.00000000000E+00 -0.11646382227E+04  0.11646382227E+04  0.50400001928E-02 0. -1.
    10030    2    1    2    0    0  0.00000000000E+00  0.00000000000E+00 -0.12945672819E+03  0.21998197173E+04  0.21960072277E+04 0.  0.
        1    1    3    3  502    0 -0.73078654364E+03  0.22373293320E+03 -0.85445389065E+03  0.11463842502E+04  0.50400001928E-02 0. -1.
       -1    1    3    3    0  502  0.73078654364E+03 -0.22373293320E+03  0.72499716246E+03  0.10534354671E+04  0.50400001928E-02 0.  1.
</event>
<event>
 5   0  0.1033733E-05  0.2216428E+04  0.7818609E-02  0.8511621E-01
       -1   -1    0    0    0  501  0.00000000000E+00  0.00000000000E+00  0.80374210153E+03  0.80374210154E+03  0.50400001928E-02 0.  1.
        1   -1    0    0  501    0  0.00000000000E+00  0.00000000000E+00 -0.15280254908E+04  0.15280254908E+04  0.50400001928E-02 0. -1.
    10030    2    1    2    0    0  0.00000000000E+00  0.00000000000E+00 -0.72428338925E+03  0.23317675923E+04  0.22164281348E+04 0.  0.
        5    1    3    3  502    0  0.37588767300E+03  0.98587931231E+03 -0.55848247934E+01  0.10551316702E+04  0.46999998093E+01 0.  1.
       -5    1    3    3    0  502 -0.37588767300E+03 -0.98587931231E+03 -0.71869856446E+03  0.12766359221E+04  0.46999998093E+01 0. -1.
</event>
<event>
 5   0  0.2298329E-05  0.2190350E+04  0.7818609E-02  0.8522455E-01
        2   -1    0    0  501    0  0.00000000000E+00  0.00000000000E+00  0.13703299553E+04  0.13703299553E+04  0.25500000920E-02 0.  1.
       -2   -1    0    0    0  501  0.00000000000E+00  0.00000000000E+00 -0.87526996299E+03  0.87526996300E+03  0.25500000920E-02 0. -1.
    10030    2    1    2    0    0  0.00000000000E+00  0.00000000000E+00  0.49505999227E+03  0.22455999183E+04  0.21903503366E+04 0.  0.
        4    1    3    3  502    0  0.73730609945E+03  0.12020429955E+03  0.10685659538E+04  0.13038037308E+04  0.12699999809E+01 0.  1.
       -4    1    3    3    0  502 -0.73730609945E+03 -0.12020429955E+03 -0.57350596153E+03  0.94179618746E+03  0.12699999809E+01 0. -1.
</event>
<event>
 5   0  0.1005538E-05  0.2199798E+04  0.7818609E-02  0.8518512E-01
       -1   -1    0    0    0  501  0.00000000000E+00  0.00000000000E+00  0.62460688653E+03  0.62460688655E+03  0.50400001928E-02 0. -1.
        1   -1    0    0  501    0  0.00000000000E+00  0.00000000000E+00 -0.19368622638E+04  0.19368622638E+04  0.50400001928E-02 0.  1.
    10030    2    1    2    0    0  0.00000000000E+00  0.00000000000E+00 -0.13122553773E+04  0.25614691503E+04  0.21997977255E+04 0.  0.
        3    1    3    3  502    0 -0.25376541064E+03 -0.54327472091E+03 -0.17298090368E+04  0.18307877048E+04  0.10100000352E+00 0.  1.
       -3    1    3    3    0  502  0.25376541064E+03  0.54327472091E+03  0.41755365957E+03  0.73068144553E+03  0.10100000352E+00 0. -1.
</event>
<event>
 5   0  0.8003875E-06  0.2199596E+04  0.7818609E-02  0.8518596E-01
       -3   -1    0    0    0  501  0.00000000000E+00  0.00000000000E+00  0.11522927781E+04  0.11522927825E+04  0.10100000352E+00 0. -1.
        3   -1    0    0  501    0  0.00000000000E+00  0.00000000000E+00 -0.10496949814E+04  0.10496949863E+04  0.10100000352E+00 0.  1.
    10030    2    1    2    0    0  0.00000000000E+00  0.00000000000E+00  0.10259779669E+03  0.22019877688E+04  0.21995962871E+04 0.  0.
        3    1    3    3  502    0 -0.86993681037E+03  0.69080516177E+02 -0.61875218526E+03  0.10697740176E+04  0.10100000352E+00 0.  1.
       -3    1    3    3    0  502  0.86993681037E+03 -0.69080516177E+02  0.72134998196E+03  0.11322137512E+04  0.10100000352E+00 0. -1.
</event>
<event>
 5   0  0.1049198E-05  0.2207362E+04  0.7818609E-02  0.8515370E-01
       -1   -1    0    0    0  501  0.00000000000E+00  0.00000000000E+00  0.19328396376E+04  0.19328396376E+04  0.50400001928E-02 0.  1.
        1   -1    0    0  501    0  0.00000000000E+00  0.00000000000E+00 -0.63021864140E+03  0.63021864142E+03  0.50400001928E-02 0. -1.
    10030    2    1    2    0    0  0.00000000000E+00  0.00000000000E+00  0.13026209962E+04  0.25630582790E+04  0.22073618376E+04 0.  0.
        1    1    3    3  502    0 -0.26083549270E+01 -0.89489387151E+02 -0.62599546258E+03  0.63236498411E+03  0.50400001928E-02 0. -1.
       -1    1    3    3    0  502  0.26083549270E+01  0.89489387151E+02  0.19286164588E+04  0.19306932949E+04  0.50400001928E-02 0.  1.
</event>
<event>
 5   0  0.1007682E-05  0.2206173E+04  0.7818609E-02  0.8515863E-01
       -1   -1    0    0    0  501  0.00000000000E+00  0.00000000000E+00  0.61495397760E+03  0.61495397762E+03  0.50400001928E-02 0. -1.
        1   -1    0    0  501    0  0.00000000000E+00  0.00000000000E+00 -0.19786840964E+04  0.19786840964E+04  0.50400001928E-02 0.  1.
    10030    2    1    2    0    0  0.00000000000E+00  0.00000000000E+00 -0.13637301188E+04  0.25936380741E+04  0.22061728450E+04 0.  0.
        2    1    3    3  502    0  0.17589125939E+03 -0.72578285764E+03  0.27256888694E+03  0.79497942722E+03  0.25500000920E-02 0. -1.
       -2    1    3    3    0  502 -0.17589125939E+03  0.72578285764E+03 -0.16362990058E+04  0.17986586468E+04  0.25500000920E-02 0.  1.
</event>
<event>
 5   0  0.1071208E-05  0.2195925E+04  0.7818609E-02  0.8520126E-01
        1   -1    0    0  501    0  0.00000000000E+00  0.00000000000E+00  0.65177818758E+03  0.65177818760E+03  0.50400001928E-02 0.  1.
       -1   -1    0    0    0  501  0.00000000000E+00  0.00000000000E+00 -0.18495894706E+04  0.18495894706E+04  0.50400001928E-02 0. -1.
    10030    2    1    2    0    0  0.00000000000E+00  0.00000000000E+00 -0.11978112830E+04  0.25013676582E+04  0.21959253839E+04 0.  0.
        4    1    3    3  502    0 -0.12116693546E+03  0.10434030455E+04 -0.23484203867E+03  0.10763474057E+04  0.12699999809E+01 0.  1.
       -4    1    3    3    0  502  0.12116693546E+03 -0.10434030455E+04 -0.96296924433E+03  0.14250202525E+04  0.12699999809E+01 0. -1.
</event>
<event>
 5   0  0.8003875E-06  0.2347690E+04  0.7818609E-02  0.8459351E-01
       -3   -1    0    0    0  501  0.00000000000E+00  0.00000000000E+00  0.75404942759E+03  0.75404943436E+03  0.10100000352E+00 0.  1.
        3   -1    0    0  501    0  0.00000000000E+00  0.00000000000E+00 -0.18273495855E+04  0.18273495883E+04  0.10100000352E+00 0. -1.
    10030    2    1    2    0    0  0.00000000000E+00  0.00000000000E+00 -0.10733001579E+04  0.25813990227E+04  0.23476898614E+04 0.  0.
        2    1    3    3  502    0  0.10457451712E+03  0.10775748996E+04 -0.37827625727E+02  0.10832979383E+04  0.25500000920E-02 0.  1.
       -2    1    3    3    0  502 -0.10457451712E+03 -0.10775748996E+04 -0.10354725322E+04  0.14981010843E+04  0.25500000920E-02 0. -1.
</event>
<event>
 5   0  0.2229552E-05  0.2194995E+04  0.7818609E-02  0.8520514E-01
        2   -1    0    0  501    0  0.00000000000E+00  0.00000000000E+00  0.53282513742E+03  0.53282513743E+03  0.25500000920E-02 0. -1.
       -2   -1    0    0    0  501  0.00000000000E+00  0.00000000000E+00 -0.22605924145E+04  0.22605924145E+04  0.25500000920E-02 0.  1.
    10030    2    1    2    0    0  0.00000000000E+00  0.00000000000E+00 -0.17277672770E+04  0.27934175519E+04  0.21949947279E+04 0.  0.
        1    1    3    3  502    0  0.42499267374E+03 -0.89052291688E+03 -0.14753434304E+04  0.17749050892E+04  0.50400001928E-02 0.  1.
       -1    1    3    3    0  502 -0.42499267374E+03  0.89052291688E+03 -0.25242384668E+03  0.10185124627E+04  0.50400001928E-02 0. -1.
</event>
<event>
 5   0  0.1007682E-05  0.2207956E+04  0.7818609E-02  0.8515124E-01
        1   -1    0    0  501    0  0.00000000000E+00  0.00000000000E+00  0.12229175778E+04  0.12229175778E+04  0.50400001928E-02 0.  1.
       -1   -1    0    0    0  501  0.00000000000E+00  0.00000000000E+00 -0.99660593223E+03  0.99660593224E+03  0.50400001928E-02 0. -1.
    10030    2    1    2    0    0  0.00000000000E+00  0.00000000000E+00  0.22631164555E+03  0.22195235100E+04  0.22079555364E+04 0.  0.
        2    1    3    3  502    0 -0.15298290790E+03 -0.10825776372E+04 -0.40579411611E+02  0.10940862852E+04  0.25500000920E-02 0. -1.
       -2    1    3    3    0  502  0.15298290790E+03  0.10825776372E+04  0.26689105716E+03  0.11254372249E+04  0.25500000920E-02 0.  1.
</event>
<event>
 5   0  0.2319707E-05  0.2197874E+04  0.7818609E-02  0.8519314E-01
       -2   -1    0    0    0  501  0.00000000000E+00  0.00000000000E+00  0.89770982499E+03  0.89770982499E+03  0.25500000920E-02 0.  1.
        2   -1    0    0  501    0  0.00000000000E+00  0.00000000000E+00 -0.13452704005E+04  0.13452704006E+04  0.25500000920E-02 0. -1.
    10030    2    1    2    0    0  0.00000000000E+00  0.00000000000E+00 -0.44756057556E+03  0.22429802255E+04  0.21978739325E+04 0.  0.
        3    1    3    3  502    0  0.72556370344E+03  0.80447168018E+03 -0.41208006482E+03  0.11590631398E+04  0.10100000352E+00 0. -1.
       -3    1    3    3    0  502 -0.72556370344E+03 -0.80447168018E+03 -0.35480510737E+02  0.10839170858E+04  0.10100000352E+00 0.  1.
</event>
<event>
 5   0  0.1071208E-05  0.2144863E+04  0.7818609E-02  0.8541734E-01
       -1   -1    0    0    0  501  0.00000000000E+00  0.00000000000E+00  0.82724471578E+03  0.82724471579E+03  0.50400001928E-02 0.  1.
        1   -1    0    0  501    0  0.00000000000E+00  0.00000000000E+00 -0.13902890412E+04  0.13902890412E+04  0.50400001928E-02 0. -1.
    10030    2    1    2    0    0  0.00000000000E+00  0.00000000000E+00 -0.56304432538E+03  0.22175337570E+04  0.21448629446E+04 0.  0.
        4    1    3    3  502    0 -0.87382941756E+03 -0.61993600971E+03 -0.23292817058E+03  0.10964285899E+04  0.12699999809E+01 0. -1.
       -4    1    3    3    0  502  0.87382941756E+03  0.61993600971E+03 -0.33011615481E+03  0.11211051671E+04  0.12699999809E+01 0.  1.
</event>
<event>
 5   0  0.2229552E-05  0.2204931E+04  0.7818609E-02  0.8516378E-01
        2   -1    0    0  501    0  0.00000000000E+00  0.00000000000E+00  0.22692713866E+04  0.22692713866E+04  0.25500000920E-02 0.  1.
       -2   -1    0    0    0  501  0.00000000000E+00  0.00000000000E+00 -0.53560376949E+03  0.53560376950E+03  0.25500000920E-02 0. -1.
    10030    2    1    2    0    0  0.00000000000E+00  0.00000000000E+00  0.17336676171E+04  0.28048751561E+04  0.22049311179E+04 0.  0.
        1    1    3    3  502    0 -0.10568693408E+04  0.52937341484E+02  0.12602685184E+04  0.16456159649E+04  0.50400001928E-02 0. -1.
       -1    1    3    3    0  502  0.10568693408E+04 -0.52937341484E+02  0.47339909874E+03  0.11592591912E+04  0.50400001928E-02 0.  1.
</event>
<event>
 5   0  0.1005538E-05  0.2189283E+04  0.7818609E-02  0.8522902E-01
       -1   -1    0    0    0  501  0.00000000000E+00  0.00000000000E+00  0.11779448980E+04  0.11779448980E+04  0.50400001928E-02 0.  1.
        1   -1    0    0  501    0  0.00000000000E+00  0.00000000000E+00 -0.10172292194E+04  0.10172292194E+04  0.50400001928E-02 0. -1.
    10030    2    1    2    0    0  0.00000000000E+00  0.00000000000E+00  0.16071567861E+03  0.21951741174E+04  0.21892829594E+04 0.  0.
        3    1    3    3  502    0  0.44623323257E+03 -0.17633376144E+02 -0.92173374372E+03  0.10242207469E+04  0.10100000352E+00 0. -1.
       -3    1    3    3    0  502 -0.44623323257E+03  0.17633376144E+02  0.10824494223E+04  0.11709533705E+04  0.10100000352E+00 0.  1.
</event>
<event>
 5   0  0.2298329E-05  0.2198369E+04  0.7818609E-02  0.8519107E-01
        2   -1    0    0  501    0  0.00000000000E+00  0.00000000000E+00  0.84561098345E+03  0.84561098346E+03  0.25500000920E-02 0. -1.
       -2   -1    0    0    0  501  0.00000000000E+00  0.00000000000E+00 -0.14287965890E+04  0.14287965890E+04  0.25500000920E-02 0.  1.
    10030    2    1    2    0    0  0.00000000000E+00  0.00000000000E+00 -0.58318560559E+03  0.22744075725E+04  0.21983685668E+04 0.  0.
        4    1    3    3  502    0  0.24140088888E+03 -0.14262051415E+03  0.80799042209E+03  0.85525735033E+03  0.12699999809E+01 0. -1.
       -4    1    3    3    0  502 -0.24140088888E+03  0.14262051415E+03 -0.13911760277E+04  0.14191502222E+04  0.12699999809E+01 0.  1.
</event>
<event>
 5   0  0.2298329E-05  0.2219205E+04  0.7818609E-02  0.8510477E-01
        2   -1    0    0  501    0  0.00000000000E+00  0.00000000000E+00  0.17604183041E+04  0.17604183041E+04  0.25500000920E-02 0.  1.
       -2   -1    0    0    0  501  0.00000000000E+00  0.00000000000E+00 -0.69938899885E+03  0.69938899886E+03  0.25500000920E-02 0. -1.
    10030    2    1    2    0    0  0.00000000000E+00  0.00000000000E+00  0.10610293053E+04  0.24598073030E+04  0.22192045379E+04 0.  0.
        4    1    3    3  502    0 -0.20609528450E+03 -0.23727815483E+02 -0.67770078779E+03  0.70874413309E+03  0.12699999809E+01 0. -1.
       -4    1    3    3    0  502  0.20609528450E+03  0.23727815483E+02  0.17387300931E+04  0.17510631699E+04  0.12699999809E+01 0.  1.
</event>
<event>
 5   0  0.2289708E-05  0.2184223E+04  0.7818609E-02  0.8525024E-01
        2   -1    0    0  501    0  0.00000000000E+00  0.00000000000E+00  0.13623214805E+04  0.13623214805E+04  0.25500000920E-02 0.  1.
       -2   -1    0    0    0  501  0.00000000000E+00  0.00000000000E+00 -0.87549656387E+03  0.87549656388E+03  0.25500000920E-02 0. -1.
    10030    2    1    2    0    0  0.00000000000E+00  0.00000000000E+00  0.48682491665E+03  0.22378180444E+04  0.21842232259E+04 0.  0.
        5    1    3    3  502    0 -0.29935700928E+03  0.38629472416E+03 -0.75720301066E+03  0.90123067096E+03  0.46999998093E+01 0. -1.
       -5    1    3    3    0  502  0.29935700928E+03 -0.38629472416E+03  0.12440279273E+04  0.13365873734E+04  0.46999998093E+01 0.  1.
</event>
<event>
 5   0  0.2284329E-05  0.2193395E+04  0.7818609E-02  0.8521182E-01
       -2   -1    0    0    0  501  0.00000000000E+00  0.00000000000E+00  0.10758109741E+04  0.10758109741E+04  0.25500000920E-02 0.  1.
        2   -1    0    0  501    0  0.00000000000E+00  0.00000000000E+00 -0.11179900186E+04  0.11179900186E+04  0.25500000920E-02 0. -1.
    10030    2    1    2    0    0  0.00000000000E+00  0.00000000000E+00 -0.42179044494E+02  0.21938009928E+04  0.21933954783E+04 0.  0.
        2    1    3    3  502    0 -0.25238929243E+03 -0.10615477649E+04  0.89211956756E+02  0.10947797885E+04  0.25500000920E-02 0. -1.
       -2    1    3    3    0  502  0.25238929243E+03  0.10615477649E+04 -0.13139100125E+03  0.10990212042E+04  0.25500000920E-02 0.  1.
</event>
<event>
 5   0  0.2319707E-05  0.2196919E+04  0.7818609E-02  0.8519712E-01
        2   -1    0    0  501    0  0.00000000000E+00  0.00000000000E+00  0.12408085182E+04  0.12408085182E+04  0.25500000920E-02 0. -1.
       -2   -1    0    0    0  501  0.00000000000E+00  0.00000000000E+00 -0.97244093729E+03  0.97244093729E+03  0.25500000920E-02 0.  1.
    10030    2    1    2    0    0  0.00000000000E+00  0.00000000000E+00  0.26836758091E+03  0.22132494555E+04  0.21969187499E+04 0.  0.
        3    1    3    3  502    0  0.51052088147E+03 -0.66489241982E+03 -0.58095169596E+03  0.10199109685E+04  0.10100000352E+00 0.  1.
       -3    1    3    3    0  502 -0.51052088147E+03  0.66489241982E+03  0.84931927687E+03  0.11933384870E+04  0.10100000352E+00 0. -1.
</event>
<event>
 5   0  0.2319707E-05  0.2214815E+04  0.7818609E-02  0.8512287E-01
        2   -1    0    0  501    0  0.00000000000E+00  0.00000000000E+00  0.13442044422E+04  0.13442044422E+04  0.25500000920E-02 0. -1.
       -2   -1    0    0    0  501  0.00000000000E+00  0.00000000000E+00 -0.91232513418E+03  0.91232513418E+03  0.25500000920E-02 0.  1.
    10030    2    1    2    0    0  0.00000000000E+00  0.00000000000E+00  0.43187930805E+03  0.22565295764E+04  0.22148151148E+04 0.  0.
        3    1    3    3  502    0  0.82467948517E+03 -0.69295787640E+03  0.47781101768E+03  0.11783845936E+04  0.10100000352E+00 0. -1.
       -3    1    3    3    0  502 -0.82467948517E+03  0.69295787640E+03 -0.45931709629E+02  0.10781449828E+04  0.10100000352E+00 0.  1.
</event>
<event>
 5   0  0.2284329E-05  0.2200781E+04  0.7818609E-02  0.8518103E-01
        2   -1    0    0  501    0  0.00000000000E+00  0.00000000000E+00  0.12804639904E+04  0.12804639904E+04  0.25500000920E-02 0.  1.
       -2   -1    0    0    0  501  0.00000000000E+00  0.00000000000E+00 -0.94564107177E+03  0.94564107177E+03  0.25500000920E-02 0. -1.
    10030    2    1    2    0    0  0.00000000000E+00  0.00000000000E+00  0.33482291862E+03  0.22261050622E+04  0.22007810797E+04 0.  0.
        2    1    3    3  502    0  0.14100351695E+03  0.32662352141E+03 -0.88586511596E+03  0.95463182443E+03  0.25500000920E-02 0. -1.
       -2    1    3    3    0  502 -0.14100351695E+03 -0.32662352141E+03  0.12206880346E+04  0.12714732377E+04  0.25500000920E-02 0.  1.
</event>
<event>
 5   0  0.8003875E-06  0.2193059E+04  0.7818609E-02  0.8521322E-01
        4   -1    0    0  501    0  0.00000000000E+00  0.00000000000E+00  0.16430898528E+04  0.16430903436E+04  0.12699999809E+01 0. -1.
       -4   -1    0    0    0  501  0.00000000000E+00  0.00000000000E+00 -0.73177712797E+03  0.73177823001E+03  0.12699999809E+01 0.  1.
    10030    2    1    2    0    0  0.00000000000E+00  0.00000000000E+00  0.91131272483E+03  0.23748685736E+04  0.21930594747E+04 0.  0.
        2    1    3    3  502    0 -0.58865902580E+03  0.42474535577E+02  0.14564206950E+04  0.15714594413E+04  0.25500000920E-02 0. -1.
       -2    1    3    3    0  502  0.58865902580E+03 -0.42474535577E+02 -0.54510797014E+03  0.80340913235E+03  0.25500000920E-02 0.  1.
</event>
<event>
 5   0  0.2319707E-05  0.2199640E+04  0.7818609E-02  0.8518578E-01
        2   -1    0    0  501    0  0.00000000000E+00  0.00000000000E+00  0.11034656837E+04  0.11034656838E+04  0.25500000920E-02 0. -1.
       -2   -1    0    0    0  501  0.00000000000E+00  0.00000000000E+00 -0.10961864168E+04  0.10961864168E+04  0.25500000920E-02 0.  1.
    10030    2    1    2    0    0  0.00000000000E+00  0.00000000000E+00  0.72792669111E+01  0.21996521006E+04  0.21996400560E+04 0.  0.
        3    1    3    3  502    0  0.37227650032E+03  0.89715925710E+03 -0.51223096358E+03  0.10981188895E+04  0.10100000352E+00 0.  1.
       -3    1    3    3    0  502 -0.37227650032E+03 -0.89715925710E+03  0.51951023049E+03  0.11015332111E+04  0.10100000352E+00 0. -1.
</event>
<event>
 5   0  0.1071208E-05  0.2193528E+04  0.7818609E-02  0.8521127E-01
       -1   -1    0    0    0  501  0.00000000000E+00  0.00000000000E+00  0.63230646590E+03  0.63230646592E+03  0.50400001928E-02 0.  1.
        1   -1    0    0  501    0  0.00000000000E+00  0.00000000000E+00 -0.19023860849E+04  0.19023860849E+04  0.50400001928E-02 0. -1.
    10030    2    1    2    0    0  0.00000000000E+00  0.00000000000E+00 -0.12700796190E+04  0.25346925508E+04  0.21935277725E+04 0.  0.
        4    1    3    3  502    0 -0.23635929786E+03  0.27314810082E+01 -0.18726017157E+04  0.18874617817E+04  0.12699999809E+01 0. -1.
       -4    1    3    3    0  502  0.23635929786E+03 -0.27314810082E+01  0.60252209669E+03  0.64723076918E+03  0.12699999809E+01 0.  1.
</event>
<event>
 5   0  0.2229552E-05  0.2198594E+04  0.7818609E-02  0.8519013E-01
        2   -1    0    0  501    0  0.00000000000E+00  0.00000000000E+00  0.27033357234E+04  0.27033357234E+04  0.25500000920E-02 0.  1.
       -2   -1    0    0    0  501  0.00000000000E+00  0.00000000000E+00 -0.44702337202E+03  0.44702337203E+03  0.25500000920E-02 0. -1.
    10030    2    1    2    0    0  0.00000000000E+00  0.00000000000E+00  0.22563123514E+04  0.31503590954E+04  0.21985943244E+04 0.  0.
        1    1    3    3  502    0 -0.92881274140E+03  0.48027722063E+03  0.64203665543E+03  0.12270168639E+04  0.50400001928E-02 0. -1.
       -1    1    3    3    0  502  0.92881274140E+03 -0.48027722063E+03  0.16142756959E+04  0.19233422316E+04  0.50400001928E-02 0.  1.
</event>
<event>
 5   0  0.2284329E-05  0.2194882E+04  0.7818609E-02  0.8520562E-01
        2   -1    0    0  501    0  0.00000000000E+00  0.00000000000E+00  0.10661438874E+04  0.10661438874E+04  0.25500000920E-02 0. -1.
       -2   -1    0    0    0  501  0.00000000000E+00  0.00000000000E+00 -0.11296564392E+04  0.11296564392E+04  0.25500000920E-02 0.  1.
    10030    2    1    2    0    0  0.00000000000E+00  0.00000000000E+00 -0.63512551832E+02  0.21958003266E+04  0.21948815981E+04 0.  0.
        2    1    3    3  502    0  0.10694169166E+04  0.20554350407E+03 -0.16773827493E+03  0.11018333824E+04  0.25500000920E-02 0. -1.
       -2    1    3    3    0  502 -0.10694169166E+04 -0.20554350407E+03  0.10422572310E+03  0.10939669442E+04  0.25500000920E-02 0.  1.
</event>
<event>
 5   0  0.1007682E-05  0.2251140E+04  0.7818609E-02  0.8497439E-01
       -1   -1    0    0    0  501  0.00000000000E+00  0.00000000000E+00  0.80644252157E+03  0.80644252158E+03  0.50400001928E-02 0.  1.
        1   -1    0    0  501    0  0.00000000000E+00  0.00000000000E+00 -0.15709828974E+04  0.15709828974E+04  0.50400001928E-02 0. -1.
    10030    2    1    2    0    0  0.00000000000E+00  0.00000000000E+00 -0.76454037582E+03  0.23774254190E+04  0.22511396306E+04 0.  0.
        2    1    3    3  502    0 -0.29755789426E+03 -0.94962933196E+02  0.75975713896E+03  0.82145576224E+03  0.25500000920E-02 0.  1.
       -2    1    3    3    0  502  0.29755789426E+03  0.94962933196E+02 -0.15242975148E+04  0.15559696567E+04  0.25500000920E-02 0. -1.
</event>
<event>
 5   0  0.2289708E-05  0.2199253E+04  0.7818609E-02  0.8518739E-01
       -2   -1    0    0    0  501  0.00000000000E+00  0.00000000000E+00  0.10844226011E+04  0.10844226011E+04  0.25500000920E-02 0.  1.
        2   -1    0    0  501    0  0.00000000000E+00  0.00000000000E+00 -0.11150435325E+04  0.11150435325E+04  0.25500000920E-02 0. -1.
    10030    2    1    2    0    0  0.00000000000E+00  0.00000000000E+00 -0.30620931337E+02  0.21994661336E+04  0.21992529712E+04 0.  0.
        5    1    3    3  502    0 -0.95573262984E+03 -0.54329038543E+03  0.85039242873E+01  0.10994015233E+04  0.46999998093E+01 0. -1.
       -5    1    3    3    0  502  0.95573262984E+03  0.54329038543E+03 -0.39124855625E+02  0.11000646104E+04  0.46999998093E+01 0.  1.
</event>
<event>
 5   0  0.1005538E-05  0.2205469E+04  0.7818609E-02  0.8516155E-01
       -1   -1    0    0    0  501  0.00000000000E+00  0.00000000000E+00  0.72137080871E+03  0.72137080873E+03  0.50400001928E-02 0.  1.
        1   -1    0    0  501    0  0.00000000000E+00  0.00000000000E+00 -0.16857122605E+04  0.16857122605E+04  0.50400001928E-02 0. -1.
    10030    2    1    2    0    0  0.00000000000E+00  0.00000000000E+00 -0.96434145178E+03  0.24070830692E+04  0.22054692169E+04 0.  0.
        3    1    3    3  502    0  0.45249847597E+03 -0.20704110810E+02  0.61514424270E+03  0.76392799431E+03  0.10100000352E+00 0.  1.
       -3    1    3    3    0  502 -0.45249847597E+03  0.20704110810E+02 -0.15794856945E+04  0.16431550749E+04  0.10100000352E+00 0. -1.
</event>
<event>
 5   0  0.1005538E-05  0.2200418E+04  0.7818609E-02  0.8518254E-01
       -1   -1    0    0    0  501  0.00000000000E+00  0.00000000000E+00  0.39436258947E+03  0.39436258951E+03  0.50400001928E-02 0. -1.
        1   -1    0    0  501    0  0.00000000000E+00  0.00000000000E+00 -0.30694081815E+04  0.30694081815E+04  0.50400001928E-02 0.  1.
    10030    2    1    2    0    0  0.00000000000E+00  0.00000000000E+00 -0.26750455920E+04  0.34637707710E+04  0.22004179227E+04 0.  0.
        3    1    3    3  502    0 -0.70325148528E+02 -0.10150928651E+04 -0.19962229774E+04  0.22405948623E+04  0.10100000352E+00 0.  1.
       -3    1    3    3    0  502  0.70325148528E+02  0.10150928651E+04 -0.67882261463E+03  0.12231759087E+04  0.10100000352E+00 0. -1.
</event>
<event>
 5   0  0.1071208E-05  0.2200371E+04  0.7818609E-02  0.8518274E-01
        1   -1    0    0  501    0  0.00000000000E+00  0.00000000000E+00  0.10281916641E+04  0.10281916641E+04  0.50400001928E-02 0. -1.
       -1   -1    0    0    0  501  0.00000000000E+00  0.00000000000E+00 -0.11772200398E+04  0.11772200398E+04  0.50400001928E-02 0.  1.
    10030    2    1    2    0    0  0.00000000000E+00  0.00000000000E+00 -0.14902837565E+03  0.22054117039E+04  0.22003707249E+04 0.  0.
        4    1    3    3  502    0 -0.13229256845E+03  0.10261297867E+04  0.30045859810E+03  0.10773674604E+04  0.12699999809E+01 0.  1.
       -4    1    3    3    0  502  0.13229256845E+03 -0.10261297867E+04 -0.44948697375E+03  0.11280442435E+04  0.12699999809E+01 0. -1.
</event>
<event>
 5   0  0.2298329E-05  0.2201632E+04  0.7818609E-02  0.8517749E-01
       -2   -1    0    0    0  501  0.00000000000E+00  0.00000000000E+00  0.15353365116E+04  0.15353365116E+04  0.25500000920E-02 0.  1.
        2   -1    0    0  501    0  0.00000000000E+00  0.00000000000E+00 -0.78927017469E+03  0.78927017469E+03  0.25500000920E-02 0. -1.
    10030    2    1    2    0    0  0.00000000000E+00  0.00000000000E+00  0.74606633691E+03  0.23246066863E+04  0.22016315012E+04 0.  0.
        4    1    3    3  502    0 -0.99374356918E+03  0.16195094565E+03  0.84290624233E+03  0.13131058359E+04  0.12699999809E+01 0.  1.
       -4    1    3    3    0  502  0.99374356918E+03 -0.16195094565E+03 -0.96839905422E+02  0.10115008504E+04  0.12699999809E+01 0. -1.
</event>
<event>
 5   0  0.2284329E-05  0.2216554E+04  0.7818609E-02  0.8511569E-01
       -2   -1    0    0    0  501  0.00000000000E+00  0.00000000000E+00  0.50795447166E+03  0.50795447167E+03  0.25500000920E-02 0.  1.
        2   -1    0    0  501    0  0.00000000000E+00  0.00000000000E+00 -0.24180864454E+04  0.24180864454E+04  0.25500000920E-02 0. -1.
    10030    2    1    2    0    0  0.00000000000E+00  0.00000000000E+00 -0.19101319737E+04  0.29260409170E+04  0.22165539225E+04 0.  0.
        2    1    3    3  502    0  0.44808797869E+03  0.62674850724E+03  0.96605122550E+02  0.77648507886E+03  0.25500000920E-02 0.  1.
       -2    1    3    3    0  502 -0.44808797869E+03 -0.62674850724E+03 -0.20067370963E+04  0.21495558382E+04  0.25500000920E-02 0. -1.
</event>
<event>
 5   0  0.2298329E-05  0.2188289E+04  0.7818609E-02  0.8523318E-01
        2   -1    0    0  501    0  0.00000000000E+00  0.00000000000E+00  0.12055448415E+04  0.12055448415E+04  0.25500000920E-02 0.  1.
       -2   -1    0    0    0  501  0.00000000000E+00  0.00000000000E+00 -0.99303842264E+03  0.99303842264E+03  0.25500000920E-02 0. -1.
    10030    2    1    2    0    0  0.00000000000E+00  0.00000000000E+00  0.21250641889E+03  0.21985832642E+04  0.21882891471E+04 0.  0.
        4    1    3    3  502    0  0.32700909378E+03  0.21117022057E+03 -0.92111414057E+03  0.99999034112E+03  0.12699999809E+01 0. -1.
       -4    1    3    3    0  502 -0.32700909378E+03 -0.21117022057E+03  0.11336205595E+04  0.11985929231E+04  0.12699999809E+01 0.  1.
</event>
<event>
 5   0  0.2229552E-05  0.2188349E+04  0.7818609E-02  0.8523293E-01
        2   -1    0    0  501    0  0.00000000000E+00  0.00000000000E+00  0.27183688539E+04  0.27183688539E+04  0.25500000920E-02 0. -1.
       -2   -1    0    0    0  501  0.00000000000E+00  0.00000000000E+00 -0.44041760882E+03  0.44041760882E+03  0.25500000920E-02 0.  1.
    10030    2    1    2    0    0  0.00000000000E+00  0.00000000000E+00  0.22779512451E+04  0.31587864627E+04  0.21883487021E+04 0.  0.
        1    1    3    3  502    0  0.38014650283E+03 -0.96762786211E+03  0.16314513557E+04  0.19345409195E+04  0.50400001928E-02 0. -1.
       -1    1    3    3    0  502 -0.38014650283E+03  0.96762786211E+03  0.64649988941E+03  0.12242455433E+04  0.50400001928E-02 0.  1.
</event>
<event>
 5   0  0.2319707E-05  0.2195414E+04  0.7818609E-02  0.8520339E-01
        2   -1    0    0  501    0  0.00000000000E+00  0.00000000000E+00  0.16283673061E+04  0.16283673061E+04  0.25500000920E-02 0.  1.
       -2   -1    0    0    0  501  0.00000000000E+00  0.00000000000E+00 -0.73998097513E+03  0.73998097513E+03  0.25500000920E-02 0. -1.
    10030    2    1    2    0    0  0.00000000000E+00  0.00000000000E+00  0.88838633101E+03  0.23683482813E+04  0.21954141542E+04 0.  0.
        3    1    3    3  502    0 -0.61979571635E+03 -0.75148623872E+03  0.99010068457E+03  0.13889484054E+04  0.10100000352E+00 0.  1.
       -3    1    3    3    0  502  0.61979571635E+03  0.75148623872E+03 -0.10171435357E+03  0.97939987590E+03  0.10100000352E+00 0. -1.
</event>
<event>
 5   0  0.1049198E-05  0.2128755E+04  0.7818609E-02  0.8548681E-01
        1   -1    0    0  501    0  0.00000000000E+00  0.00000000000E+00  0.21999591879E+04  0.21999591879E+04  0.50400001928E-02 0.  1.
       -1   -1    0    0    0  501  0.00000000000E+00  0.00000000000E+00 -0.51496364759E+03  0.51496364761E+03  0.50400001928E-02 0. -1.
    10030    2    1    2    0    0  0.00000000000E+00  0.00000000000E+00  0.16849955403E+04  0.27149228355E+04  0.21287545730E+04 0.  0.
        1    1    3    3  502    0  0.16661558419E+03  0.36436662569E+03  0.21001160382E+04  0.21379923210E+04  0.50400001928E-02 0.  1.
       -1    1    3    3    0  502 -0.16661558419E+03 -0.36436662569E+03 -0.41512049786E+03  0.57693051452E+03  0.50400001928E-02 0. -1.
</event>
<event>
 5   0  0.2284329E-05  0.2206387E+04  0.7818609E-02  0.8515775E-01
       -2   -1    0    0    0  501  0.00000000000E+00  0.00000000000E+00  0.58774763568E+03  0.58774763569E+03  0.25500000920E-02 0.  1.
        2   -1    0    0  501    0  0.00000000000E+00  0.00000000000E+00 -0.20706771137E+04  0.20706771137E+04  0.25500000920E-02 0. -1.
    10030    2    1    2    0    0  0.00000000000E+00  0.00000000000E+00 -0.14829294780E+04  0.26584247494E+04  0.22063867094E+04 0.  0.
        2    1    3    3  502    0  0.27169828738E+03 -0.92509099911E+03 -0.13874207442E+04  0.16895412506E+04  0.25500000920E-02 0. -1.
       -2    1    3    3    0  502 -0.27169828738E+03  0.92509099911E+03 -0.95508733813E+02  0.96888349879E+03  0.25500000920E-02 0.  1.
</event>
<event>
 5   0  0.1007682E-05  0.2201575E+04  0.7818609E-02  0.8517773E-01
        1   -1    0    0  501    0  0.00000000000E+00  0.00000000000E+00  0.11262755106E+04  0.11262755106E+04  0.50400001928E-02 0.  1.
       -1   -1    0    0    0  501  0.00000000000E+00  0.00000000000E+00 -0.10758760719E+04  0.10758760719E+04  0.50400001928E-02 0. -1.
    10030    2    1    2    0    0  0.00000000000E+00  0.00000000000E+00  0.50399438731E+02  0.22021515825E+04  0.22015747747E+04 0.  0.
        2    1    3    3  502    0  0.66268477534E+03  0.35390898706E+03  0.82997883948E+03  0.11194943308E+04  0.25500000920E-02 0.  1.
       -2    1    3    3    0  502 -0.66268477534E+03 -0.35390898706E+03 -0.77957940075E+03  0.10826572517E+04  0.25500000920E-02 0. -1.
</event>
<event>
 5   0  0.2298329E-05  0.2199555E+04  0.7818609E-02  0.8518613E-01
        2   -1    0    0  501    0  0.00000000000E+00  0.00000000000E+00  0.12781940517E+04  0.12781940517E+04  0.25500000920E-02 0. -1.
       -2   -1    0    0    0  501  0.00000000000E+00  0.00000000000E+00 -0.94626521094E+03  0.94626521095E+03  0.25500000920E-02 0.  1.
    10030    2    1    2    0    0  0.00000000000E+00  0.00000000000E+00  0.33192884075E+03  0.22244592626E+04  0.21995550131E+04 0.  0.
        4    1    3    3  502    0  0.47508440675E+03 -0.98955977571E+03  0.97558287270E+02  0.11020222210E+04  0.12699999809E+01 0. -1.
       -4    1    3    3    0  502 -0.47508440675E+03  0.98955977571E+03  0.23437055348E+03  0.11224370417E+04  0.12699999809E+01 0.  1.
</event>
<event>
 5   0  0.2298329E-05  0.2193972E+04  0.7818609E-02  0.8520941E-01
       -2   -1    0    0    0  501  0.00000000000E+00  0.00000000000E+00  0.94243561782E+03  0.94243561782E+03  0.25500000920E-02 0. -1.
        2   -1    0    0  501    0  0.00000000000E+00  0.00000000000E+00 -0.12768815526E+04  0.12768815526E+04  0.25500000920E-02 0.  1.
    10030    2    1    2    0    0  0.00000000000E+00  0.00000000000E+00 -0.33444593477E+03  0.22193171704E+04  0.21939723379E+04 0.  0.
        4    1    3    3  502    0 -0.37625743841E+03 -0.10208395183E+04 -0.30917965396E+03  0.11310511276E+04  0.12699999809E+01 0.  1.
       -4    1    3    3    0  502  0.37625743841E+03  0.10208395183E+04 -0.25266280812E+02  0.10882660428E+04  0.12699999809E+01 0. -1.
</event>
<event>
 5   0  0.1049198E-05  0.2204041E+04  0.7818609E-02  0.8516748E-01
       -1   -1    0    0    0  501  0.00000000000E+00  0.00000000000E+00  0.17515116766E+04  0.17515116766E+04  0.50400001928E-02 0. -1.
        1   -1    0    0  501    0  0.00000000000E+00  0.00000000000E+00 -0.69337224079E+03  0.69337224081E+03  0.50400001928E-02 0.  1.
    10030    2    1    2    0    0  0.00000000000E+00  0.00000000000E+00  0.10581394358E+04  0.24448839174E+04  0.22040413572E+04 0.  0.
        1    1    3    3  502    0 -0.42279256979E+03  0.96607919732E+03  0.88401460172E+03  0.13760611864E+04  0.50400001928E-02 0. -1.
       -1    1    3    3    0  502  0.42279256979E+03 -0.96607919732E+03  0.17412483412E+03  0.10688227311E+04  0.50400001928E-02 0.  1.
</event>
<event>
 5   0  0.1005538E-05  0.2200047E+04  0.7818609E-02  0.8518408E-01
        1   -1    0    0  501    0  0.00000000000E+00  0.00000000000E+00  0.21055580456E+04  0.21055580456E+04  0.50400001928E-02 0.  1.
       -1   -1    0    0    0  501  0.00000000000E+00  0.00000000000E+00 -0.57469431951E+03  0.57469431953E+03  0.50400001928E-02 0. -1.
    10030    2    1    2    0    0  0.00000000000E+00  0.00000000000E+00  0.15308637261E+04  0.26802523652E+04  0.22000474979E+04 0.  0.
        3    1    3    3  502    0  0.71040389256E+03  0.57454554578E+03  0.19122302736E+02  0.91386101099E+03  0.10100000352E+00 0. -1.
       -3    1    3    3    0  502 -0.71040389256E+03 -0.57454554578E+03  0.15117414234E+04  0.17663913542E+04  0.10100000352E+00 0.  1.
</event>
<event>
 5   0  0.2319707E-05  0.2200829E+04  0.7818609E-02  0.8518083E-01
       -2   -1    0    0    0  501  0.00000000000E+00  0.00000000000E+00  0.53004469444E+03  0.53004469445E+03  0.25500000920E-02 0.  1.
        2   -1    0    0  501    0  0.00000000000E+00  0.00000000000E+00 -0.22845476478E+04  0.22845476478E+04  0.25500000920E-02 0. -1.
    10030    2    1    2    0    0  0.00000000000E+00  0.00000000000E+00 -0.17545029533E+04  0.28145923422E+04  0.22008292618E+04 0.  0.
        3    1    3    3  502    0  0.71530927470E+02 -0.53999493871E+03 -0.21000362719E+04  0.21695307236E+04  0.10100000352E+00 0. -1.
       -3    1    3    3    0  502 -0.71530927470E+02  0.53999493871E+03  0.34553331851E+03  0.64506161862E+03  0.10100000352E+00 0.  1.
</event>
<event>
 5   0  0.1033733E-05  0.2144274E+04  0.7818609E-02  0.8541987E-01
       -1   -1    0    0    0  501  0.00000000000E+00  0.00000000000E+00  0.12089871451E+04  0.12089871451E+04  0.50400001928E-02 0.  1.
        1   -1    0    0  501    0  0.00000000000E+00  0.00000000000E+00 -0.95077784124E+03  0.95077784125E+03  0.50400001928E-02 0. -1.
    10030    2    1    2    0    0  0.00000000000E+00  0.00000000000E+00  0.25820930388E+03  0.21597649864E+04  0.21442744115E+04 0.  0.
        5    1    3    3  502    0 -0.51648746912E+03 -0.84585757773E+03 -0.28277706623E+03  0.10306402412E+04  0.46999998093E+01 0. -1.
       -5    1    3    3    0  502  0.51648746912E+03  0.84585757773E+03  0.54098637011E+03  0.11291247452E+04  0.46999998093E+01 0.  1.
</event>
<event>
 5   0  0.1071208E-05  0.2177595E+04  0.7818609E-02  0.8527812E-01
        1   -1    0    0  501    0  0.00000000000E+00  0.00000000000E+00  0.11825595004E+04  0.11825595004E+04  0.50400001928E-02 0. -1.
       -1   -1    0    0    0  501  0.00000000000E+00  0.00000000000E+00 -0.10024695565E+04  0.10024695565E+04  0.50400001928E-02 0.  1.
    10030    2    1    2    0    0  0.00000000000E+00  0.00000000000E+00  0.18008994392E+03  0.21850290569E+04  0.21775949099E+04 0.  0.
        4    1    3    3  502    0  0.58033980687E+03 -0.77039337910E+03  0.59692101863E+03  0.11342912172E+04  0.12699999809E+01 0. -1.
       -4    1    3    3    0  502 -0.58033980687E+03  0.77039337910E+03 -0.41683107471E+03  0.10507378397E+04  0.12699999809E+01 0.  1.
</event>
<event>
 5   0  0.2298329E-05  0.2199012E+04  0.7818609E-02  0.8518840E-01
       -2   -1    0    0    0  501  0.00000000000E+00  0.00000000000E+00  0.73346519000E+03  0.73346519001E+03  0.25500000920E-02 0.  1.
        2   -1    0    0  501    0  0.00000000000E+00  0.00000000000E+00 -0.16482214989E+04  0.16482214989E+04  0.25500000920E-02 0. -1.
    10030    2    1    2    0    0  0.00000000000E+00  0.00000000000E+00 -0.91475630888E+03  0.23816866889E+04  0.21990116824E+04 0.  0.
        4    1    3    3  502    0 -0.32989105163E+03  0.70259409856E+03  0.38605908099E+03  0.86689664908E+03  0.12699999809E+01 0.  1.
       -4    1    3    3    0  502  0.32989105163E+03 -0.70259409856E+03 -0.13008153899E+04  0.15147900398E+04  0.12699999809E+01 0. -1.
</event>
<event>
 5   0  0.2229552E-05  0.2201750E+04  0.7818609E-02  0.8517700E-01
        2   -1    0    0  501    0  0.00000000000E+00  0.00000000000E+00  0.11098232025E+04  0.11098232025E+04  0.25500000920E-02 0.  1.
       -2   -1    0    0    0  501  0.00000000000E+00  0.00000000000E+00 -0.10919993376E+04  0.10919993376E+04  0.25500000920E-02 0. -1.
    10030    2    1    2    0    0  0.00000000000E+00  0.00000000000E+00  0.17823864884E+02  0.22018225401E+04  0.22017503964E+04 0.  0.
        1    1    3    3  502    0 -0.48554656421E+03 -0.98023830512E+03 -0.11479984569E+03  0.10999098170E+04  0.50400001928E-02 0.  1.
       -1    1    3    3    0  502  0.48554656421E+03  0.98023830512E+03  0.13262371057E+03  0.11019127232E+04  0.50400001928E-02 0. -1.
</event>
<event>
 5   0  0.1007682E-05  0.2227147E+04  0.7818609E-02  0.8507213E-01
       -1   -1    0    0    0  501  0.00000000000E+00  0.00000000000E+00  0.71749503224E+03  0.71749503226E+03  0.50400001928E-02 0. -1.
        1   -1    0    0  501    0  0.00000000000E+00  0.00000000000E+00 -0.17282990087E+04  0.17282990087E+04  0.50400001928E-02 0.  1.
    10030    2    1    2    0    0  0.00000000000E+00  0.00000000000E+00 -0.10108039765E+04  0.24457940410E+04  0.22271470118E+04 0.  0.
        2    1    3    3  502    0  0.11591484307E+03 -0.10654254000E+04 -0.17325499682E+03  0.10856264678E+04  0.25500000920E-02 0. -1.
       -2    1    3    3    0  502 -0.11591484307E+03  0.10654254000E+04 -0.83754897963E+03  0.13601675731E+04  0.25500000920E-02 0.  1.
</event>
<event>
 5   0  0.2284329E-05  0.2189729E+04  0.7818609E-02  0.8522715E-01
       -2   -1    0    0    0  501  0.00000000000E+00  0.00000000000E+00  0.10855468118E+04  0.10855468118E+04  0.25500000920E-02 0. -1.
        2   -1    0    0  501    0  0.00000000000E+00  0.00000000000E+00 -0.11042619150E+04  0.11042619150E+04  0.25500000920E-02 0.  1.
    10030    2    1    2    0    0  0.00000000000E+00  0.00000000000E+00 -0.18715103214E+02  0.21898087268E+04  0.21897287514E+04 0.  0.
        2    1    3    3  502    0  0.80502604961E+03 -0.53185775501E+03  0.50814409116E+03  0.10904815585E+04  0.25500000920E-02 0. -1.
       -2    1    3    3    0  502 -0.80502604961E+03  0.53185775501E+03 -0.52685919438E+03  0.10993271682E+04  0.25500000920E-02 0.  1.
</event>
<event>
 5   0  0.2229552E-05  0.2181835E+04  0.7818609E-02  0.8526027E-01
        2   -1    0    0  501    0  0.00000000000E+00  0.00000000000E+00  0.22624650532E+04  0.22624650532E+04  0.25500000920E-02 0. -1.
       -2   -1    0    0    0  501  0.00000000000E+00  0.00000000000E+00 -0.52601971549E+03  0.52601971549E+03  0.25500000920E-02 0.  1.
    10030    2    1    2    0    0  0.00000000000E+00  0.00000000000E+00  0.17364453377E+04  0.27884847687E+04  0.21818352125E+04 0.  0.
        1    1    3    3  502    0 -0.10459731198E+04 -0.26310820607E+03  0.65893699212E+03  0.12639160000E+04  0.50400001928E-02 0.  1.
       -1    1    3    3    0  502  0.10459731198E+04  0.26310820607E+03  0.10775083456E+04  0.15245687686E+04  0.50400001928E-02 0. -1.
</event>
<event>
 5   0  0.2319707E-05  0.2195841E+04  0.7818609E-02  0.8520161E-01
        2   -1    0    0  501    0  0.00000000000E+00  0.00000000000E+00  0.16235584725E+04  0.16235584725E+04  0.25500000920E-02 0.  1.
       -2   -1    0    0    0  501  0.00000000000E+00  0.00000000000E+00 -0.74246155949E+03  0.74246155949E+03  0.25500000920E-02 0. -1.
    10030    2    1    2    0    0  0.00000000000E+00  0.00000000000E+00  0.88109691304E+03  0.23660200320E+04  0.21958413016E+04 0.  0.
        3    1    3    3  502    0 -0.27844601769E+02 -0.10560890038E+04  0.76259393284E+03  0.13029385336E+04  0.10100000352E+00 0. -1.
       -3    1    3    3    0  502  0.27844601769E+02  0.10560890038E+04  0.11850298020E+03  0.10630814984E+04  0.10100000352E+00 0.  1.
</event>
<event>
 5   0  0.2284329E-05  0.2203690E+04  0.7818609E-02  0.8516894E-01
        2   -1    0    0  501    0  0.00000000000E+00  0.00000000000E+00  0.13515491436E+04  0.13515491436E+04  0.25500000920E-02 0. -1.
       -2   -1    0    0    0  501  0.00000000000E+00  0.00000000000E+00 -0.89827443468E+03  0.89827443469E+03  0.25500000920E-02 0.  1.
    10030    2    1    2    0    0  0.00000000000E+00  0.00000000000E+00  0.45327470892E+03  0.22498235783E+04  0.22036896723E+04 0.  0.
        2    1    3    3  502    0  0.66281407253E+03 -0.78087362335E+03 -0.18803809451E+03  0.10413666191E+04  0.25500000920E-02 0.  1.
       -2    1    3    3    0  502 -0.66281407253E+03  0.78087362335E+03  0.64131280342E+03  0.12084569592E+04  0.25500000920E-02 0. -1.
</event>
<event>
 5   0  0.1033733E-05  0.2205131E+04  0.7818609E-02  0.8516296E-01
       -1   -1    0    0    0  501  0.00000000000E+00  0.00000000000E+00  0.57359285918E+03  0.57359285921E+03  0.50400001928E-02 0. -1.
        1   -1    0    0  501    0  0.00000000000E+00  0.00000000000E+00 -0.21193611728E+04  0.21193611728E+04  0.50400001928E-02 0.  1.
    10030    2    1    2    0    0  0.00000000000E+00  0.00000000000E+00 -0.15457683137E+04  0.26929540321E+04  0.22051307760E+04 0.  0.
        5    1    3    3  502    0 -0.26628661580E+01 -0.78028600664E+03 -0.17241642963E+04  0.18925163021E+04  0.46999998093E+01 0.  1.
       -5    1    3    3    0  502  0.26628661580E+01  0.78028600664E+03  0.17839598261E+03  0.80043773001E+03  0.46999998093E+01 0. -1.
</event>
<event>
 5   0  0.2298329E-05  0.2187133E+04  0.7818609E-02  0.8523803E-01
        2   -1    0    0  501    0  0.00000000000E+00  0.00000000000E+00  0.14685014113E+04  0.14685014113E+04  0.25500000920E-02 0. -1.
       -2   -1    0    0    0  501  0.00000000000E+00  0.00000000000E+00 -0.81435890824E+03  0.81435890825E+03  0.25500000920E-02 0.  1.
    10030    2    1    2    0    0  0.00000000000E+00  0.00000000000E+00  0.65414250305E+03  0.22828603195E+04  0.21871325575E+04 0.  0.
        4    1    3    3  502    0 -0.15718358707E+03 -0.45758429486E+03 -0.69656488758E+03  0.84811221101E+03  0.12699999809E+01 0.  1.
       -4    1    3    3    0  502  0.15718358707E+03  0.45758429486E+03  0.13507073906E+04  0.14347481085E+04  0.12699999809E+01 0. -1.
</event>
<event>
 5   0  0.1005538E-05  0.2208929E+04  0.7818609E-02  0.8514721E-01
        1   -1    0    0  501    0  0.00000000000E+00  0.00000000000E+00  0.11524372219E+04  0.11524372219E+04  0.50400001928E-02 0. -1.
       -1   -1    0    0    0  501  0.00000000000E+00  0.00000000000E+00 -0.10584890648E+04  0.10584890648E+04  0.50400001928E-02 0.  1.
    10030    2    1    2    0    0  0.00000000000E+00  0.00000000000E+00  0.93948157082E+02  0.22109262867E+04  0.22089293309E+04 0.  0.
        3    1    3    3  502    0  0.58171447539E+03  0.77907314343E+03  0.57137089995E+03  0.11277461635E+04  0.10100000352E+00 0. -1.
       -3    1    3    3    0  502 -0.58171447539E+03 -0.77907314343E+03 -0.47742274286E+03  0.10831801232E+04  0.10100000352E+00 0.  1.
</event>
<event>
 5   0  0.1005538E-05  0.2209709E+04  0.7818609E-02  0.8514398E-01
       -1   -1    0    0    0  501  0.00000000000E+00  0.00000000000E+00  0.98185245505E+03  0.98185245506E+03  0.50400001928E-02 0.  1.
        1   -1    0    0  501    0  0.00000000000E+00  0.00000000000E+00 -0.12432661586E+04  0.12432661587E+04  0.50400001928E-02 0. -1.
    10030    2    1    2    0    0  0.00000000000E+00  0.00000000000E+00 -0.26141370360E+03  0.22251186137E+04  0.22097094200E+04 0.  0.
        3    1    3    3  502    0  0.33946179009E+03  0.92897243528E+03  0.36514941560E+03  0.10543046042E+04  0.10100000352E+00 0.  1.
       -3    1    3    3    0  502 -0.33946179009E+03 -0.92897243528E+03 -0.62656311920E+03  0.11708140096E+04  0.10100000352E+00 0. -1.
</event>
<event>
 5   0  0.2319707E-05  0.2200872E+04  0.7818609E-02  0.8518065E-01
       -2   -1    0    0    0  501  0.00000000000E+00  0.00000000000E+00  0.68368684568E+03  0.68368684569E+03  0.25500000920E-02 0. -1.
        2   -1    0    0  501    0  0.00000000000E+00  0.00000000000E+00 -0.17712197548E+04  0.17712197548E+04  0.25500000920E-02 0.  1.
    10030    2    1    2    0    0  0.00000000000E+00  0.00000000000E+00 -0.10875329092E+04  0.24549066005E+04  0.22008722336E+04 0.  0.
        3    1    3    3  502    0 -0.97048313660E+03  0.18411696290E+03 -0.10847450628E+04  0.14671088698E+04  0.10100000352E+00 0.  1.
       -3    1    3    3    0  502  0.97048313660E+03 -0.18411696290E+03 -0.27878463307E+01  0.98779773068E+03  0.10100000352E+00 0. -1.
</event>
<event>
 5   0  0.8003875E-06  0.2175353E+04  0.7818609E-02  0.8528757E-01
       -3   -1    0    0    0  501  0.00000000000E+00  0.00000000000E+00  0.10563356607E+04  0.10563356655E+04  0.10100000352E+00 0.  1.
        3   -1    0    0  501    0  0.00000000000E+00  0.00000000000E+00 -0.11199476828E+04  0.11199476874E+04  0.10100000352E+00 0. -1.
    10030    2    1    2    0    0  0.00000000000E+00  0.00000000000E+00 -0.63612022172E+02  0.21762833529E+04  0.21753534753E+04 0.  0.
        3    1    3    3  502    0  0.69984357667E+03 -0.36542101464E+03 -0.78027494859E+03  0.11100191689E+04  0.10100000352E+00 0. -1.
       -3    1    3    3    0  502 -0.69984357667E+03  0.36542101464E+03  0.71666292641E+03  0.10662641840E+04  0.10100000352E+00 0.  1.
</event>
<event>
 5   0  0.1005538E-05  0.2187041E+04  0.7818609E-02  0.8523841E-01
       -1   -1    0    0    0  501  0.00000000000E+00  0.00000000000E+00  0.70904794740E+03  0.70904794742E+03  0.50400001928E-02 0.  1.
        1   -1    0    0  501    0  0.00000000000E+00  0.00000000000E+00 -0.16864692405E+04  0.16864692405E+04  0.50400001928E-02 0. -1.
    10030    2    1    2    0    0  0.00000000000E+00  0.00000000000E+00 -0.97742129309E+03  0.23955171879E+04  0.21870414293E+04 0.  0.
        3    1    3    3  502    0  0.45326881777E+03 -0.22564724771E+03  0.57291591481E+03  0.76459267404E+03  0.10100000352E+00 0.  1.
       -3    1    3    3    0  502 -0.45326881777E+03  0.22564724771E+03 -0.15503372079E+04  0.16309245139E+04  0.10100000352E+00 0. -1.
</event>
<event>
 5   0  0.1071208E-05  0.2215330E+04  0.7818609E-02  0.8512075E-01
       -1   -1    0    0    0  501  0.00000000000E+00  0.00000000000E+00  0.14525194822E+04  0.14525194822E+04  0.50400001928E-02 0. -1.
        1   -1    0    0  501    0  0.00000000000E+00  0.00000000000E+00 -0.84468485773E+03  0.84468485774E+03  0.50400001928E-02 0.  1.
    10030    2    1    2    0    0  0.00000000000E+00  0.00000000000E+00  0.60783462448E+03  0.22972043400E+04  0.22153295125E+04 0.  0.
        4    1    3    3  502    0  0.10199914626E+04 -0.32848096724E+03  0.59470466121E+03  0.12255437881E+04  0.12699999809E+01 0. -1.
       -4    1    3    3    0  502 -0.10199914626E+04  0.32848096724E+03  0.13129963270E+02  0.10716605519E+04  0.12699999809E+01 0.  1.
</event>
<event>
 5   0  0.1033733E-05  0.2223380E+04  0.7818609E-02  0.8508760E-01
       -1   -1    0    0    0  501  0.00000000000E+00  0.00000000000E+00  0.97558091509E+03  0.97558091511E+03  0.50400001928E-02 0. -1.
        1   -1    0    0  501    0  0.00000000000E+00  0.00000000000E+00 -0.12667880752E+04  0.12667880752E+04  0.50400001928E-02 0.  1.
    10030    2    1    2    0    0  0.00000000000E+00  0.00000000000E+00 -0.29120716009E+03  0.22423689903E+04  0.22233796524E+04 0.  0.
        5    1    3    3  502    0 -0.95342331460E+02  0.10975769156E+04  0.42145760694E+01  0.11017282326E+04  0.46999998093E+01 0. -1.
       -5    1    3    3    0  502  0.95342331460E+02 -0.10975769156E+04 -0.29542173616E+03  0.11406407577E+04  0.46999998093E+01 0.  1.
</event>
<event>
 5   0  0.1071208E-05  0.2200718E+04  0.7818609E-02  0.8518129E-01
       -1   -1    0    0    0  501  0.00000000000E+00  0.00000000000E+00  0.66000380428E+03  0.66000380430E+03  0.50400001928E-02 0.  1.
        1   -1    0    0  501    0  0.00000000000E+00  0.00000000000E+00 -0.18345199235E+04  0.18345199235E+04  0.50400001928E-02 0. -1.
    10030    2    1    2    0    0  0.00000000000E+00  0.00000000000E+00 -0.11745161192E+04  0.24945237278E+04  0.22007181815E+04 0.  0.
        4    1    3    3  502    0  0.51600041706E+03 -0.77756060459E+03  0.73616405041E+02  0.93609717028E+03  0.12699999809E+01 0.  1.
       -4    1    3    3    0  502 -0.51600041706E+03  0.77756060459E+03 -0.12481325243E+04  0.15584265575E+04  0.12699999809E+01 0. -1.
</event>
<event>
 5   0  0.2319707E-05  0.2198472E+04  0.7818609E-02  0.8519065E-01
       -2   -1    0    0    0  501  0.00000000000E+00  0.00000000000E+00  0.78219678980E+03  0.78219678981E+03  0.25500000920E-02 0. -1.
        2   -1    0    0  501    0  0.00000000000E+00  0.00000000000E+00 -0.15447766857E+04  0.15447766857E+04  0.25500000920E-02 0.  1.
    10030    2    1    2    0    0  0.00000000000E+00  0.00000000000E+00 -0.76257989587E+03  0.23269734755E+04  0.21984716187E+04 0.  0.
        3    1    3    3  502    0  0.85327201560E+03 -0.28198074767E+03  0.28874609707E+03  0.94390708941E+03  0.10100000352E+00 0. -1.
       -3    1    3    3    0  502 -0.85327201560E+03  0.28198074767E+03 -0.10513259929E+04  0.13830663861E+04  0.10100000352E+00 0.  1.
</event>
<event>
 5   0  0.1049198E-05  0.2197462E+04  0.7818609E-02  0.8519485E-01
       -1   -1    0    0    0  501  0.00000000000E+00  0.00000000000E+00  0.11391343008E+04  0.11391343008E+04  0.50400001928E-02 0. -1.
        1   -1    0    0  501    0  0.00000000000E+00  0.00000000000E+00 -0.10597602677E+04  0.10597602677E+04  0.50400001928E-02 0.  1.
    10030    2    1    2    0    0  0.00000000000E+00  0.00000000000E+00  0.79374033135E+02  0.21988945685E+04  0.21974615096E+04 0.  0.
        1    1    3    3  502    0 -0.19614526452E+03  0.74893926368E+03  0.81982759604E+03  0.11276082089E+04  0.50400001928E-02 0. -1.
       -1    1    3    3    0  502  0.19614526452E+03 -0.74893926368E+03 -0.74045356291E+03  0.10712863596E+04  0.50400001928E-02 0.  1.
</event>
<event>
 5   0  0.2319707E-05  0.2188954E+04  0.7818609E-02  0.8523040E-01
        2   -1    0    0  501    0  0.00000000000E+00  0.00000000000E+00  0.20918069043E+04  0.20918069043E+04  0.25500000920E-02 0. -1.
       -2   -1    0    0    0  501  0.00000000000E+00  0.00000000000E+00 -0.57265336731E+03  0.57265336731E+03  0.25500000920E-02 0.  1.
    10030    2    1    2    0    0  0.00000000000E+00  0.00000000000E+00  0.15191535370E+04  0.26644602716E+04  0.21889543326E+04 0.  0.
        3    1    3    3  502    0  0.86208625575E+03  0.29074344423E+03  0.15001445672E+04  0.17544680663E+04  0.10100000352E+00 0. -1.
       -3    1    3    3    0  502 -0.86208625575E+03 -0.29074344423E+03  0.19008969786E+02  0.90999220538E+03  0.10100000352E+00 0.  1.
</event>
<event>
 5   0  0.2298329E-05  0.2200345E+04  0.7818609E-02  0.8518285E-01
       -2   -1    0    0    0  501  0.00000000000E+00  0.00000000000E+00  0.72928153468E+03  0.72928153468E+03  0.25500000920E-02 0.  1.
        2   -1    0    0  501    0  0.00000000000E+00  0.00000000000E+00 -0.16596872767E+04  0.16596872767E+04  0.25500000920E-02 0. -1.
    10030    2    1    2    0    0  0.00000000000E+00  0.00000000000E+00 -0.93040574200E+03  0.23889688114E+04  0.22003447768E+04 0.  0.
        4    1    3    3  502    0  0.57937085165E+03  0.15301634542E+03 -0.14669527444E+04  0.15846250512E+04  0.12699999809E+01 0. -1.
       -4    1    3    3    0  502 -0.57937085165E+03 -0.15301634542E+03  0.53654700244E+03  0.80434376012E+03  0.12699999809E+01 0.  1.
</event>
<event>
 5   0  0.1071208E-05  0.2198423E+04  0.7818609E-02  0.8519085E-01
       -1   -1    0    0    0  501  0.00000000000E+00  0.00000000000E+00  0.73678225942E+03  0.73678225943E+03  0.50400001928E-02 0. -1.
        1   -1    0    0  501    0  0.00000000000E+00  0.00000000000E+00 -0.16399232977E+04  0.16399232977E+04  0.50400001928E-02 0.  1.
    10030    2    1    2    0    0  0.00000000000E+00  0.00000000000E+00 -0.90314103826E+03  0.23767055571E+04  0.21984234283E+04 0.  0.
        4    1    3    3  502    0 -0.14940247985E+03  0.10400587371E+04 -0.80058440156E+03  0.13209770152E+04  0.12699999809E+01 0.  1.
       -4    1    3    3    0  502  0.14940247985E+03 -0.10400587371E+04 -0.10255663670E+03  0.10557285420E+04  0.12699999809E+01 0. -1.
</event>
<event>
 5   0  0.1049198E-05  0.2199589E+04  0.7818609E-02  0.8518599E-01
       -1   -1    0    0    0  501  0.00000000000E+00  0.00000000000E+00  0.95691733444E+03  0.95691733445E+03  0.50400001928E-02 0. -1.
        1   -1    0    0  501    0  0.00000000000E+00  0.00000000000E+00 -0.12640051664E+04  0.12640051664E+04  0.50400001928E-02 0.  1.
    10030    2    1    2    0    0  0.00000000000E+00  0.00000000000E+00 -0.30708783193E+03  0.22209225008E+04  0.21995894658E+04 0.  0.
        1    1    3    3  502    0 -0.10734112183E+04  0.84867320530E+02 -0.37962251976E+03  0.11417212283E+04  0.50400001928E-02 0. -1.
       -1    1    3    3    0  502  0.10734112183E+04 -0.84867320530E+02  0.72534687834E+02  0.10792012725E+04  0.50400001928E-02 0.  1.
</event>
<event>
 5   0  0.2284329E-05  0.2208053E+04  0.7818609E-02  0.8515084E-01
        2   -1    0    0  501    0  0.00000000000E+00  0.00000000000E+00  0.78285408613E+03  0.78285408613E+03  0.25500000920E-02 0. -1.
       -2   -1    0    0    0  501  0.00000000000E+00  0.00000000000E+00 -0.15569629287E+04  0.15569629287E+04  0.25500000920E-02 0.  1.
    10030    2    1    2    0    0  0.00000000000E+00  0.00000000000E+00 -0.77410884254E+03  0.23398170148E+04  0.22080532518E+04 0.  0.
        2    1    3    3  502    0 -0.64335754288E+02 -0.97590575969E+03  0.15570532359E+03  0.99034099626E+03  0.25500000920E-02 0. -1.
       -2    1    3    3    0  502  0.64335754288E+02  0.97590575969E+03 -0.92981416613E+03  0.13494760185E+04  0.25500000920E-02 0.  1.
</event>
<event>
 5   0  0.2319707E-05  0.2201494E+04  0.7818609E-02  0.8517807E-01
        2   -1    0    0  501    0  0.00000000000E+00  0.00000000000E+00  0.11428221818E+04  0.11428221818E+04  0.25500000920E-02 0.  1.
       -2   -1    0    0    0  501  0.00000000000E+00  0.00000000000E+00 -0.10602208184E+04  0.10602208184E+04  0.25500000920E-02 0. -1.
    10030    2    1    2    0    0  0.00000000000E+00  0.00000000000E+00  0.82601363493E+02  0.22030430002E+04  0.22014939190E+04 0.  0.
        3    1    3    3  502    0 -0.45373821236E+03 -0.33530441943E+03  0.98713051543E+03  0.11369846453E+04  0.10100000352E+00 0.  1.
       -3    1    3    3    0  502  0.45373821236E+03  0.33530441943E+03 -0.90452915194E+03  0.10660583549E+04  0.10100000352E+00 0. -1.
</event>
<event>
 5   0  0.1071208E-05  0.2183920E+04  0.7818609E-02  0.8525151E-01
        1   -1    0    0  501    0  0.00000000000E+00  0.00000000000E+00  0.13318024213E+04  0.13318024213E+04  0.50400001928E-02 0.  1.
       -1   -1    0    0    0  501  0.00000000000E+00  0.00000000000E+00 -0.89531062358E+03  0.89531062359E+03  0.50400001928E-02 0. -1.
    10030    2    1    2    0    0  0.00000000000E+00  0.00000000000E+00  0.43649179772E+03  0.22271130449E+04  0.21839201966E+04 0.  0.
        4    1    3    3  502    0  0.83036876028E+03  0.65869438162E+03 -0.49598034869E+02  0.10610618005E+04  0.12699999809E+01 0.  1.
       -4    1    3    3    0  502 -0.83036876028E+03 -0.65869438162E+03  0.48608983259E+03  0.11660512444E+04  0.12699999809E+01 0. -1.
</event>
<event>
 5   0  0.1007682E-05  0.2116749E+04  0.7818609E-02  0.8553901E-01
        1   -1    0    0  501    0  0.00000000000E+00  0.00000000000E+00  0.23510568937E+04  0.23510568938E+04  0.50400001928E-02 0.  1.
       -1   -1    0    0    0  501  0.00000000000E+00  0.00000000000E+00 -0.47644826681E+03  0.47644826684E+03  0.50400001928E-02 0. -1.
    10030    2    1    2    0    0  0.00000000000E+00  0.00000000000E+00  0.18746086269E+04  0.28275051606E+04  0.21167493779E+04 0.  0.
        2    1    3    3  502    0  0.24551031155E+02  0.10391559033E+03 -0.46923512398E+03  0.48123051090E+03  0.25500000920E-02 0. -1.
       -2    1    3    3    0  502 -0.24551031155E+02 -0.10391559033E+03  0.23438437509E+04  0.23462746497E+04  0.25500000920E-02 0.  1.
</event>
<event>
 5   0  0.1049198E-05  0.2196539E+04  0.7818609E-02  0.8519870E-01
       -1   -1    0    0    0  501  0.00000000000E+00  0.00000000000E+00  0.16032306003E+04  0.16032306003E+04  0.50400001928E-02 0.  1.
        1   -1    0    0  501    0  0.00000000000E+00  0.00000000000E+00 -0.75235319566E+03  0.75235319568E+03  0.50400001928E-02 0. -1.
    10030    2    1    2    0    0  0.00000000000E+00  0.00000000000E+00  0.85087740467E+03  0.23555837960E+04  0.21965387914E+04 0.  0.
        1    1    3    3  502    0 -0.50564377465E+03 -0.14534194916E+03  0.14592946329E+04  0.15512384519E+04  0.50400001928E-02 0.  1.
       -1    1    3    3    0  502  0.50564377465E+03  0.14534194916E+03 -0.60841722821E+03  0.80434534414E+03  0.50400001928E-02 0. -1.
</event>
<event>
 5   0  0.2284329E-05  0.2213025E+04  0.7818609E-02  0.8513026E-01
       -2   -1    0    0    0  501  0.00000000000E+00  0.00000000000E+00  0.92154379882E+03  0.92154379882E+03  0.25500000920E-02 0.  1.
        2   -1    0    0  501    0  0.00000000000E+00  0.00000000000E+00 -0.13286070219E+04  0.13286070219E+04  0.25500000920E-02 0. -1.
    10030    2    1    2    0    0  0.00000000000E+00  0.00000000000E+00 -0.40706322305E+03  0.22501508207E+04  0.22130246832E+04 0.  0.
        2    1    3    3  502    0 -0.90560741892E+02  0.53811192415E+03  0.77521985490E+03  0.94801451166E+03  0.25500000920E-02 0.  1.
       -2    1    3    3    0  502  0.90560741892E+02 -0.53811192415E+03 -0.11822830779E+04  0.13021363090E+04  0.25500000920E-02 0. -1.
</event>
<event>
 5   0  0.1033733E-05  0.2220719E+04  0.7818609E-02  0.8509853E-01
        1   -1    0    0  501    0  0.00000000000E+00  0.00000000000E+00  0.96453839905E+03  0.96453839906E+03  0.50400001928E-02 0. -1.
       -1   -1    0    0    0  501  0.00000000000E+00  0.00000000000E+00 -0.12782265256E+04  0.12782265256E+04  0.50400001928E-02 0.  1.
    10030    2    1    2    0    0  0.00000000000E+00  0.00000000000E+00 -0.31368812659E+03  0.22427649247E+04  0.22207193129E+04 0.  0.
        5    1    3    3  502    0 -0.32352085337E+03 -0.40715195370E+03  0.83393420349E+03  0.98280557676E+03  0.46999998093E+01 0. -1.
       -5    1    3    3    0  502  0.32352085337E+03  0.40715195370E+03 -0.11476223301E+04  0.12599593479E+04  0.46999998093E+01 0.  1.
</event>
<event>
 5   0  0.1005538E-05  0.2234071E+04  0.7818609E-02  0.8504379E-01
       -1   -1    0    0    0  501  0.00000000000E+00  0.00000000000E+00  0.10311392137E+04  0.10311392137E+04  0.50400001928E-02 0. -1.
        1   -1    0    0  501    0  0.00000000000E+00  0.00000000000E+00 -0.12100868345E+04  0.12100868345E+04  0.50400001928E-02 0.  1.
    10030    2    1    2    0    0  0.00000000000E+00  0.00000000000E+00 -0.17894762080E+03  0.22412260482E+04  0.22340707124E+04 0.  0.
        3    1    3    3  502    0 -0.58253243318E+03 -0.69937385692E+03 -0.73908164587E+03  0.11724800710E+04  0.10100000352E+00 0.  1.
       -3    1    3    3    0  502  0.58253243318E+03  0.69937385692E+03  0.56013402507E+03  0.10687459772E+04  0.10100000352E+00 0. -1.
</event>
<event>
 5   0  0.2319707E-05  0.2205894E+04  0.7818609E-02  0.8515979E-01
       -2   -1    0    0    0  501  0.00000000000E+00  0.00000000000E+00  0.64866069067E+03  0.64866069067E+03  0.25500000920E-02 0.  1.
        2   -1    0    0  501    0  0.00000000000E+00  0.00000000000E+00 -0.18753896543E+04  0.18753896543E+04  0.25500000920E-02 0. -1.
    10030    2    1    2    0    0  0.00000000000E+00  0.00000000000E+00 -0.12267289636E+04  0.25240503449E+04  0.22058935137E+04 0.  0.
        3    1    3    3  502    0 -0.80417879257E+03  0.61810998100E+03 -0.11759696882E+03  0.10210742070E+04  0.10100000352E+00 0.  1.
       -3    1    3    3    0  502  0.80417879257E+03 -0.61810998100E+03 -0.11091319948E+04  0.15029761379E+04  0.10100000352E+00 0. -1.
</event>
<event>
 5   0  0.2319707E-05  0.2209253E+04  0.7818609E-02  0.8514587E-01
       -2   -1    0    0    0  501  0.00000000000E+00  0.00000000000E+00  0.61848904090E+03  0.61848904091E+03  0.25500000920E-02 0.  1.
        2   -1    0    0  501    0  0.00000000000E+00  0.00000000000E+00 -0.19728721842E+04  0.19728721842E+04  0.25500000920E-02 0. -1.
    10030    2    1    2    0    0  0.00000000000E+00  0.00000000000E+00 -0.13543831433E+04  0.25913612251E+04  0.22092531091E+04 0.  0.
        3    1    3    3  502    0  0.10540459370E+04 -0.23662357450E+03 -0.40665683444E+03  0.11542847762E+04  0.10100000352E+00 0.  1.
       -3    1    3    3    0  502 -0.10540459370E+04  0.23662357450E+03 -0.94772630884E+03  0.14370764489E+04  0.10100000352E+00 0. -1.
</event>
<event>
 5   0  0.1049198E-05  0.2191687E+04  0.7818609E-02  0.8521896E-01
       -1   -1    0    0    0  501  0.00000000000E+00  0.00000000000E+00  0.10866993704E+04  0.10866993704E+04  0.50400001928E-02 0.  1.
        1   -1    0    0  501    0  0.00000000000E+00  0.00000000000E+00 -0.11050646160E+04  0.11050646160E+04  0.50400001928E-02 0. -1.
    10030    2    1    2    0    0  0.00000000000E+00  0.00000000000E+00 -0.18365245593E+02  0.21917639864E+04  0.21916870420E+04 0.  0.
        1    1    3    3  502    0  0.61469476622E+03 -0.72638194895E+03  0.53433680869E+03  0.10913277310E+04  0.50400001928E-02 0.  1.
       -1    1    3    3    0  502 -0.61469476622E+03  0.72638194895E+03 -0.55270205429E+03  0.11004362554E+04  0.50400001928E-02 0. -1.
</event>
<event>
 5   0  0.2229552E-05  0.2206634E+04  0.7818609E-02  0.8515672E-01
        2   -1    0    0  501    0  0.00000000000E+00  0.00000000000E+00  0.11838460205E+04  0.11838460205E+04  0.25500000920E-02 0. -1.
       -2   -1    0    0    0  501  0.00000000000E+00  0.00000000000E+00 -0.10282658290E+04  0.10282658290E+04  0.25500000920E-02 0.  1.
    10030    2    1    2    0    0  0.00000000000E+00  0.00000000000E+00  0.15558019148E+03  0.22121118495E+04  0.22066340065E+04 0.  0.
        1    1    3    3  502    0  0.36693927653E+03 -0.13891957638E+03  0.11115460480E+04  0.11787610861E+04  0.50400001928E-02 0. -1.
       -1    1    3    3    0  502 -0.36693927653E+03  0.13891957638E+03 -0.95596585649E+03  0.10333507634E+04  0.50400001928E-02 0.  1.
</event>
<event>
 5   0  0.1007682E-05  0.2079501E+04  0.7818609E-02  0.8570328E-01
        1   -1    0    0  501    0  0.00000000000E+00  0.00000000000E+00  0.13541235370E+04  0.13541235370E+04  0.50400001928E-02 0. -1.
       -1   -1    0    0    0  501  0.00000000000E+00  0.00000000000E+00 -0.79836218816E+03  0.79836218818E+03  0.50400001928E-02 0.  1.
    10030    2    1    2    0    0  0.00000000000E+00  0.00000000000E+00  0.55576134887E+03  0.21524857252E+04  0.20795009306E+04 0.  0.
        2    1    3    3  502    0 -0.39140775385E+03  0.92436456217E+03  0.55837323372E+03  0.11486646777E+04  0.25500000920E-02 0. -1.
       -2    1    3    3    0  502  0.39140775385E+03 -0.92436456217E+03 -0.26118848511E+01  0.10038210476E+04  0.25500000920E-02 0.  1.
</event>
<event>
 5   0  0.1049198E-05  0.2202469E+04  0.7818609E-02  0.8517401E-01
       -1   -1    0    0    0  501  0.00000000000E+00  0.00000000000E+00  0.13653503014E+04  0.13653503014E+04  0.50400001928E-02 0. -1.
        1   -1    0    0  501    0  0.00000000000E+00  0.00000000000E+00 -0.88821004108E+03  0.88821004109E+03  0.50400001928E-02 0.  1.
    10030    2    1    2    0    0  0.00000000000E+00  0.00000000000E+00  0.47714026031E+03  0.22535603425E+04  0.22024693844E+04 0.  0.
        1    1    3    3  502    0 -0.60099580570E+03 -0.92137962669E+03  0.18658333463E+03  0.11157731471E+04  0.50400001928E-02 0.  1.
       -1    1    3    3    0  502  0.60099580570E+03  0.92137962669E+03  0.29055692568E+03  0.11377871954E+04  0.50400001928E-02 0. -1.
</event>
<event>
 5   0  0.8003875E-06  0.2199182E+04  0.7818609E-02  0.8518769E-01
        4   -1    0    0  501    0  0.00000000000E+00  0.00000000000E+00  0.87695409039E+03  0.87695500999E+03  0.12699999809E+01 0.  1.
       -4   -1    0    0    0  501  0.00000000000E+00  0.00000000000E+00 -0.13787482635E+04  0.13787488484E+04  0.12699999809E+01 0. -1.
    10030    2    1    2    0    0  0.00000000000E+00  0.00000000000E+00 -0.50179417307E+03  0.22557038584E+04  0.21991822354E+04 0.  0.
        3    1    3    3  502    0  0.66505435128E+03 -0.64039281950E+03 -0.86349094578E+03  0.12641269229E+04  0.10100000352E+00 0. -1.
       -3    1    3    3    0  502 -0.66505435128E+03  0.64039281950E+03  0.36169677272E+03  0.99157693550E+03  0.10100000352E+00 0.  1.
</event>
<event>
 5   0  0.2229552E-05  0.2204904E+04  0.7818609E-02  0.8516390E-01
       -2   -1    0    0    0  501  0.00000000000E+00  0.00000000000E+00  0.10617102876E+04  0.10617102877E+04  0.25500000920E-02 0.  1.
        2   -1    0    0  501    0  0.00000000000E+00  0.00000000000E+00 -0.11447568483E+04  0.11447568483E+04  0.25500000920E-02 0. -1.
    10030    2    1    2    0    0  0.00000000000E+00  0.00000000000E+00 -0.83046560683E+02  0.22064671360E+04  0.22049037373E+04 0.  0.
        1    1    3    3  502    0 -0.27670057677E+03  0.43106541614E+03  0.93539610565E+03  0.10664644751E+04  0.50400001928E-02 0.  1.
       -1    1    3    3    0  502  0.27670057677E+03 -0.43106541614E+03 -0.10184426663E+04  0.11400026609E+04  0.50400001928E-02 0. -1.
</event>
<event>
 5   0  0.1007682E-05  0.2208107E+04  0.7818609E-02  0.8515062E-01
        1   -1    0    0  501    0  0.00000000000E+00  0.00000000000E+00  0.10132225989E+04  0.10132225989E+04  0.50400001928E-02 0.  1.
       -1   -1    0    0    0  501  0.00000000000E+00  0.00000000000E+00 -0.12030266418E+04  0.12030266418E+04  0.50400001928E-02 0. -1.
    10030    2    1    2    0    0  0.00000000000E+00  0.00000000000E+00 -0.18980404293E+03  0.22162492407E+04  0.22081066827E+04 0.  0.
        2    1    3    3  502    0 -0.98650111018E+03  0.35342248307E+01  0.40264449585E+03  0.10655137358E+04  0.25500000920E-02 0.  1.
       -2    1    3    3    0  502  0.98650111018E+03 -0.35342248307E+01 -0.59244853878E+03  0.11507355049E+04  0.25500000920E-02 0. -1.
</event>
<event>
 5   0  0.1007682E-05  0.2194721E+04  0.7818609E-02  0.8520628E-01
       -1   -1    0    0    0  501  0.00000000000E+00  0.00000000000E+00  0.13701126875E+04  0.13701126875E+04  0.50400001928E-02 0.  1.
        1   -1    0    0  501    0  0.00000000000E+00  0.00000000000E+00 -0.87890614010E+03  0.87890614012E+03  0.50400001928E-02 0. -1.
    10030    2    1    2    0    0  0.00000000000E+00  0.00000000000E+00  0.49120654735E+03  0.22490188276E+04  0.21947213524E+04 0.  0.
        2    1    3    3  502    0  0.17324145601E+02 -0.10065618092E+04 -0.20193209604E+03  0.10267635430E+04  0.25500000920E-02 0. -1.
       -2    1    3    3    0  502 -0.17324145601E+02  0.10065618092E+04  0.69313864340E+03  0.12222552846E+04  0.25500000920E-02 0.  1.
</event>
<event>
 5   0  0.2284329E-05  0.2196668E+04  0.7818609E-02  0.8519816E-01
        2   -1    0    0  501    0  0.00000000000E+00  0.00000000000E+00  0.14951701354E+04  0.14951701354E+04  0.25500000920E-02 0.  1.
       -2   -1    0    0    0  501  0.00000000000E+00  0.00000000000E+00 -0.80682323962E+03  0.80682323962E+03  0.25500000920E-02 0. -1.
    10030    2    1    2    0    0  0.00000000000E+00  0.00000000000E+00  0.68834689577E+03  0.23019933750E+04  0.21966683978E+04 0.  0.
        2    1    3    3  502    0 -0.10363592910E+04 -0.22687796332E+03  0.46246862179E+02  0.10619100539E+04  0.25500000920E-02 0. -1.
       -2    1    3    3    0  502  0.10363592910E+04  0.22687796332E+03  0.64210003359E+03  0.12400833211E+04  0.25500000920E-02 0.  1.
</event>
<event>
 5   0  0.1005538E-05  0.2202063E+04  0.7818609E-02  0.8517570E-01
        1   -1    0    0  501    0  0.00000000000E+00  0.00000000000E+00  0.12044660402E+04  0.12044660402E+04  0.50400001928E-02 0.  1.
       -1   -1    0    0    0  501  0.00000000000E+00  0.00000000000E+00 -0.10064790380E+04  0.10064790380E+04  0.50400001928E-02 0. -1.
    10030    2    1    2    0    0  0.00000000000E+00  0.00000000000E+00  0.19798700221E+03  0.22109450782E+04  0.22020625073E+04 0.  0.
        3    1    3    3  502    0  0.34201856390E+03 -0.99917612592E+03 -0.21361460019E+03  0.10774789261E+04  0.10100000352E+00 0. -1.
       -3    1    3    3    0  502 -0.34201856390E+03  0.99917612592E+03  0.41160160240E+03  0.11334661521E+04  0.10100000352E+00 0.  1.
</event>
<event>
 5   0  0.2289708E-05  0.2137224E+04  0.7818609E-02  0.8545021E-01
       -2   -1    0    0    0  501  0.00000000000E+00  0.00000000000E+00  0.46037910578E+03  0.46037910578E+03  0.25500000920E-02 0. -1.
        2   -1    0    0  501    0  0.00000000000E+00  0.00000000000E+00 -0.24804160448E+04  0.24804160448E+04  0.25500000920E-02 0.  1.
    10030    2    1    2    0    0  0.00000000000E+00  0.00000000000E+00 -0.20200369390E+04  0.29407951506E+04  0.21372241068E+04 0.  0.
        5    1    3    3  502    0 -0.52106424450E+02  0.99946503731E+03 -0.49468527954E+03  0.11164143747E+04  0.46999998093E+01 0. -1.
       -5    1    3    3    0  502  0.52106424450E+02 -0.99946503731E+03 -0.15253516595E+04  0.18243807759E+04  0.46999998093E+01 0.  1.
</event>
<event>
 5   0  0.1005538E-05  0.2198241E+04  0.7818609E-02  0.8519161E-01
        1   -1    0    0  501    0  0.00000000000E+00  0.00000000000E+00  0.19197879719E+04  0.19197879719E+04  0.50400001928E-02 0.  1.
       -1   -1    0    0    0  501  0.00000000000E+00  0.00000000000E+00 -0.62927049145E+03  0.62927049147E+03  0.50400001928E-02 0. -1.
    10030    2    1    2    0    0  0.00000000000E+00  0.00000000000E+00  0.12905174804E+04  0.25490584633E+04  0.21982410428E+04 0.  0.
        3    1    3    3  502    0 -0.22899252948E+03 -0.17720426581E+03  0.18747670996E+04  0.18969951550E+04  0.10100000352E+00 0.  1.
       -3    1    3    3    0  502  0.22899252948E+03  0.17720426581E+03 -0.58424961915E+03  0.65206330832E+03  0.10100000352E+00 0. -1.
</event>
<event>
 5   0  0.2284329E-05  0.2320715E+04  0.7818609E-02  0.8469798E-01
       -2   -1    0    0    0  501  0.00000000000E+00  0.00000000000E+00  0.94974980162E+03  0.94974980163E+03  0.25500000920E-02 0.  1.
        2   -1    0    0  501    0  0.00000000000E+00  0.00000000000E+00 -0.14176672611E+04  0.14176672611E+04  0.25500000920E-02 0. -1.
    10030    2    1    2    0    0  0.00000000000E+00  0.00000000000E+00 -0.46791745945E+03  0.23674170627E+04  0.23207147175E+04 0.  0.
        2    1    3    3  502    0  0.30174729739E+02  0.18768664749E+03 -0.14016744563E+04  0.14145063003E+04  0.25500000920E-02 0. -1.
       -2    1    3    3    0  502 -0.30174729739E+02 -0.18768664749E+03  0.93375699687E+03  0.95291076244E+03  0.25500000920E-02 0.  1.
</event>
<event>
 5   0  0.2284329E-05  0.2180846E+04  0.7818609E-02  0.8526443E-01
        2   -1    0    0  501    0  0.00000000000E+00  0.00000000000E+00  0.12345689245E+04  0.12345689245E+04  0.25500000920E-02 0.  1.
       -2   -1    0    0    0  501  0.00000000000E+00  0.00000000000E+00 -0.96310705205E+03  0.96310705205E+03  0.25500000920E-02 0. -1.
    10030    2    1    2    0    0  0.00000000000E+00  0.00000000000E+00  0.27146187248E+03  0.21976759766E+04  0.21808457419E+04 0.  0.
        2    1    3    3  502    0 -0.30249277682E+03 -0.15202792773E+03 -0.90880470283E+03  0.96981460019E+03  0.25500000920E-02 0. -1.
       -2    1    3    3    0  502  0.30249277682E+03  0.15202792773E+03  0.11802665753E+04  0.12278613764E+04  0.25500000920E-02 0.  1.
</event>
<event>
 5   0  0.1049198E-05  0.2194947E+04  0.7818609E-02  0.8520534E-01
        1   -1    0    0  501    0  0.00000000000E+00  0.00000000000E+00  0.15188810911E+04  0.15188810911E+04  0.50400001928E-02 0. -1.
       -1   -1    0    0    0  501  0.00000000000E+00  0.00000000000E+00 -0.79298373487E+03  0.79298373489E+03  0.50400001928E-02 0.  1.
    10030    2    1    2    0    0  0.00000000000E+00  0.00000000000E+00  0.72589735620E+03  0.23118648260E+04  0.21949469246E+04 0.  0.
        1    1    3    3  502    0 -0.99439456572E+03 -0.25426166047E+03  0.77220547821E+03  0.12844340563E+04  0.50400001928E-02 0. -1.
       -1    1    3    3    0  502  0.99439456572E+03  0.25426166047E+03 -0.46308122010E+02  0.10274307697E+04  0.50400001928E-02 0.  1.
</event>
<event>
 5   0  0.2319707E-05  0.2210619E+04  0.7818609E-02  0.8514021E-01
        2   -1    0    0  501    0  0.00000000000E+00  0.00000000000E+00  0.70592352037E+03  0.70592352037E+03  0.25500000920E-02 0.  1.
       -2   -1    0    0    0  501  0.00000000000E+00  0.00000000000E+00 -0.17306540026E+04  0.17306540026E+04  0.25500000920E-02 0. -1.
    10030    2    1    2    0    0  0.00000000000E+00  0.00000000000E+00 -0.10247304823E+04  0.24365775230E+04  0.22106192491E+04 0.  0.
        3    1    3    3  502    0 -0.10410369169E+04  0.32823510344E+03 -0.70395166189E+03  0.12988626170E+04  0.10100000352E+00 0. -1.
       -3    1    3    3    0  502  0.10410369169E+04 -0.32823510344E+03 -0.32077882037E+03  0.11377149060E+04  0.10100000352E+00 0.  1.
</event>
<event>
 5   0  0.2284329E-05  0.2187509E+04  0.7818609E-02  0.8523645E-01
       -2   -1    0    0    0  501  0.00000000000E+00  0.00000000000E+00  0.51311173472E+03  0.51311173472E+03  0.25500000920E-02 0.  1.
        2   -1    0    0  501    0  0.00000000000E+00  0.00000000000E+00 -0.23314598040E+04  0.23314598040E+04  0.25500000920E-02 0. -1.
    10030    2    1    2    0    0  0.00000000000E+00  0.00000000000E+00 -0.18183480693E+04  0.28445715388E+04  0.21875094372E+04 0.  0.
        2    1    3    3  502    0 -0.36959603784E+03  0.99413642115E+03 -0.56172713306E+03  0.12001857469E+04  0.25500000920E-02 0.  1.
       -2    1    3    3    0  502  0.36959603784E+03 -0.99413642115E+03 -0.12566209363E+04  0.16443857919E+04  0.25500000920E-02 0. -1.
</event>
<event>
 5   0  0.1005538E-05  0.2198191E+04  0.7818609E-02  0.8519182E-01
        1   -1    0    0  501    0  0.00000000000E+00  0.00000000000E+00  0.11815249093E+04  0.11815249093E+04  0.50400001928E-02 0.  1.
       -1   -1    0    0    0  501  0.00000000000E+00  0.00000000000E+00 -0.10224165954E+04  0.10224165954E+04  0.50400001928E-02 0. -1.
    10030    2    1    2    0    0  0.00000000000E+00  0.00000000000E+00  0.15910831385E+03  0.22039415047E+04  0.21981907790E+04 0.  0.
        3    1    3    3  502    0  0.50173271539E+03 -0.22975544217E+03 -0.87345204781E+03  0.10331707366E+04  0.10100000352E+00 0. -1.
       -3    1    3    3    0  502 -0.50173271539E+03  0.22975544217E+03  0.10325603617E+04  0.11707707682E+04  0.10100000352E+00 0.  1.
</event>
<event>
 5   0  0.1005538E-05  0.2208139E+04  0.7818609E-02  0.8515048E-01
       -1   -1    0    0    0  501  0.00000000000E+00  0.00000000000E+00  0.10065266182E+04  0.10065266182E+04  0.50400001928E-02 0. -1.
        1   -1    0    0  501    0  0.00000000000E+00  0.00000000000E+00 -0.12110658330E+04  0.12110658330E+04  0.50400001928E-02 0.  1.
    10030    2    1    2    0    0  0.00000000000E+00  0.00000000000E+00 -0.20453921482E+03  0.22175924512E+04  0.22081394859E+04 0.  0.
        3    1    3    3  502    0 -0.86914129074E+03  0.42801517893E+03 -0.63403273654E+03  0.11578432959E+04  0.10100000352E+00 0.  1.
       -3    1    3    3    0  502  0.86914129074E+03 -0.42801517893E+03  0.42949352171E+03  0.10597491553E+04  0.10100000352E+00 0. -1.
</event>
<event>
 5   0  0.1071208E-05  0.2168287E+04  0.7818609E-02  0.8531745E-01
        1   -1    0    0  501    0  0.00000000000E+00  0.00000000000E+00  0.11289784305E+04  0.11289784305E+04  0.50400001928E-02 0. -1.
       -1   -1    0    0    0  501  0.00000000000E+00  0.00000000000E+00 -0.10410887421E+04  0.10410887421E+04  0.50400001928E-02 0.  1.
    10030    2    1    2    0    0  0.00000000000E+00  0.00000000000E+00  0.87889688348E+02  0.21700671726E+04  0.21682866361E+04 0.  0.
        4    1    3    3  502    0  0.89911374842E+02 -0.63826891112E+03 -0.82848989990E+03  0.10496991880E+04  0.12699999809E+01 0.  1.
       -4    1    3    3    0  502 -0.89911374842E+02  0.63826891112E+03  0.91637958825E+03  0.11203679846E+04  0.12699999809E+01 0. -1.
</event>
<event>
 5   0  0.2319707E-05  0.2166377E+04  0.7818609E-02  0.8532555E-01
        2   -1    0    0  501    0  0.00000000000E+00  0.00000000000E+00  0.18926478916E+04  0.18926478916E+04  0.25500000920E-02 0.  1.
       -2   -1    0    0    0  501  0.00000000000E+00  0.00000000000E+00 -0.61992353043E+03  0.61992353043E+03  0.25500000920E-02 0. -1.
    10030    2    1    2    0    0  0.00000000000E+00  0.00000000000E+00  0.12727243612E+04  0.25125714220E+04  0.21663766642E+04 0.  0.
        3    1    3    3  502    0  0.53906003358E+03  0.76786811990E+03  0.12642539450E+04  0.15743396130E+04  0.10100000352E+00 0.  1.
       -3    1    3    3    0  502 -0.53906003358E+03 -0.76786811990E+03  0.84704161624E+01  0.93823180905E+03  0.10100000352E+00 0. -1.
</event>
<event>
 5   0  0.2284329E-05  0.2207351E+04  0.7818609E-02  0.8515375E-01
        2   -1    0    0  501    0  0.00000000000E+00  0.00000000000E+00  0.26413161288E+04  0.26413161288E+04  0.25500000920E-02 0.  1.
       -2   -1    0    0    0  501  0.00000000000E+00  0.00000000000E+00 -0.46117136990E+03  0.46117136991E+03  0.25500000920E-02 0. -1.
    10030    2    1    2    0    0  0.00000000000E+00  0.00000000000E+00  0.21801447589E+04  0.31024874987E+04  0.22073507899E+04 0.  0.
        2    1    3    3  502    0 -0.58971819786E+03  0.88772001955E+03  0.68689236311E+03  0.12679256699E+04  0.25500000920E-02 0. -1.
       -2    1    3    3    0  502  0.58971819786E+03 -0.88772001955E+03  0.14932523958E+04  0.18345618287E+04  0.25500000920E-02 0.  1.
</event>
<event>
 5   0  0.2298329E-05  0.2202154E+04  0.7818609E-02  0.8517532E-01
        2   -1    0    0  501    0  0.00000000000E+00  0.00000000000E+00  0.16150168581E+04  0.16150168581E+04  0.25500000920E-02 0. -1.
       -2   -1    0    0    0  501  0.00000000000E+00  0.00000000000E+00 -0.75068586114E+03  0.75068586114E+03  0.25500000920E-02 0.  1.
    10030    2    1    2    0    0  0.00000000000E+00  0.00000000000E+00  0.86433099696E+03  0.23657027192E+04  0.22021537829E+04 0.  0.
        4    1    3    3  502    0  0.56304592765E+03  0.86547418421E+03  0.21263463742E+02  0.10327245654E+04  0.12699999809E+01 0.  1.
       -4    1    3    3    0  502 -0.56304592765E+03 -0.86547418421E+03  0.84306753322E+03  0.13329781539E+04  0.12699999809E+01 0. -1.
</event>
<event>
 5   0  0.1007682E-05  0.2228242E+04  0.7818609E-02  0.8506764E-01
        1   -1    0    0  501    0  0.00000000000E+00  0.00000000000E+00  0.11715988551E+04  0.11715988551E+04  0.50400001928E-02 0.  1.
       -1   -1    0    0    0  501  0.00000000000E+00  0.00000000000E+00 -0.10594631749E+04  0.10594631749E+04  0.50400001928E-02 0. -1.
    10030    2    1    2    0    0  0.00000000000E+00  0.00000000000E+00  0.11213568018E+03  0.22310620301E+04  0.22282422156E+04 0.  0.
        2    1    3    3  502    0  0.28634887799E+03 -0.95643147748E+03 -0.43903642152E+03  0.10906465195E+04  0.25500000920E-02 0.  1.
       -2    1    3    3    0  502 -0.28634887799E+03  0.95643147748E+03  0.55117210170E+03  0.11404155106E+04  0.25500000920E-02 0. -1.
</event>
<event>
 5   0  0.8003875E-06  0.2200542E+04  0.7818609E-02  0.8518203E-01
       -3   -1    0    0    0  501  0.00000000000E+00  0.00000000000E+00  0.14075228379E+04  0.14075228415E+04  0.10100000352E+00 0. -1.
        3   -1    0    0  501    0  0.00000000000E+00  0.00000000000E+00 -0.86008995488E+03  0.86008996081E+03  0.10100000352E+00 0.  1.
    10030    2    1    2    0    0  0.00000000000E+00  0.00000000000E+00  0.54743288304E+03  0.22676128024E+04  0.22005419923E+04 0.  0.
        5    1    3    3  502    0  0.23633021450E+03  0.77399594784E+03 -0.49442441839E+03  0.94836664485E+03  0.46999998093E+01 0.  1.
       -5    1    3    3    0  502 -0.23633021450E+03 -0.77399594784E+03  0.10418573014E+04  0.13192461575E+04  0.46999998093E+01 0. -1.
</event>
<event>
 5   0  0.2229552E-05  0.2209662E+04  0.7818609E-02  0.8514417E-01
       -2   -1    0    0    0  501  0.00000000000E+00  0.00000000000E+00  0.88783537947E+03  0.88783537948E+03  0.25500000920E-02 0.  1.
        2   -1    0    0  501    0  0.00000000000E+00  0.00000000000E+00 -0.13748627464E+04  0.13748627464E+04  0.25500000920E-02 0. -1.
    10030    2    1    2    0    0  0.00000000000E+00  0.00000000000E+00 -0.48702736696E+03  0.22626981259E+04  0.22096622260E+04 0.  0.
        1    1    3    3  502    0  0.18604947927E+03  0.10441332703E+04 -0.56049657231E+03  0.11995770515E+04  0.50400001928E-02 0.  1.
       -1    1    3    3    0  502 -0.18604947927E+03 -0.10441332703E+04  0.73469205355E+02  0.10631210745E+04  0.50400001928E-02 0. -1.
</event>
<event>
 5   0  0.2284329E-05  0.2191219E+04  0.7818609E-02  0.8522092E-01
       -2   -1    0    0    0  501  0.00000000000E+00  0.00000000000E+00  0.87877738637E+03  0.87877738638E+03  0.25500000920E-02 0.  1.
        2   -1    0    0  501    0  0.00000000000E+00  0.00000000000E+00 -0.13659434402E+04  0.13659434402E+04  0.25500000920E-02 0. -1.
    10030    2    1    2    0    0  0.00000000000E+00  0.00000000000E+00 -0.48716605386E+03  0.22447208266E+04  0.21912190273E+04 0.  0.
        2    1    3    3  502    0  0.69446470845E+03 -0.73323271081E+03 -0.67874757276E+03  0.12168030683E+04  0.25500000920E-02 0. -1.
       -2    1    3    3    0  502 -0.69446470845E+03  0.73323271081E+03  0.19158151890E+03  0.10279177583E+04  0.25500000920E-02 0.  1.
</event>
<event>
 5   0  0.1049198E-05  0.2197108E+04  0.7818609E-02  0.8519633E-01
        1   -1    0    0  501    0  0.00000000000E+00  0.00000000000E+00  0.13556476085E+04  0.13556476085E+04  0.50400001928E-02 0.  1.
       -1   -1    0    0    0  501  0.00000000000E+00  0.00000000000E+00 -0.89021719938E+03  0.89021719940E+03  0.50400001928E-02 0. -1.
    10030    2    1    2    0    0  0.00000000000E+00  0.00000000000E+00  0.46543040915E+03  0.22458648079E+04  0.21971079331E+04 0.  0.
        1    1    3    3  502    0 -0.91164983142E+03 -0.41084505291E+03  0.69769628642E+03  0.12192945422E+04  0.50400001928E-02 0. -1.
       -1    1    3    3    0  502  0.91164983142E+03  0.41084505291E+03 -0.23226587727E+03  0.10265702657E+04  0.50400001928E-02 0.  1.
</event>
<event>
 5   0  0.1005538E-05  0.2194519E+04  0.7818609E-02  0.8520713E-01
       -1   -1    0    0    0  501  0.00000000000E+00  0.00000000000E+00  0.12618741534E+04  0.12618741534E+04  0.50400001928E-02 0.  1.
        1   -1    0    0  501    0  0.00000000000E+00  0.00000000000E+00 -0.95411959369E+03  0.95411959371E+03  0.50400001928E-02 0. -1.
    10030    2    1    2    0    0  0.00000000000E+00  0.00000000000E+00  0.30775455966E+03  0.22159937471E+04  0.21945194048E+04 0.  0.
        3    1    3    3  502    0 -0.59548644942E+03  0.43651896230E+03 -0.66574630450E+03  0.99416853101E+03  0.10100000352E+00 0. -1.
       -3    1    3    3    0  502  0.59548644942E+03 -0.43651896230E+03  0.97350086415E+03  0.12218252161E+04  0.10100000352E+00 0.  1.
</event>
<event>
 5   0  0.1071208E-05  0.2198383E+04  0.7818609E-02  0.8519101E-01
       -1   -1    0    0    0  501  0.00000000000E+00  0.00000000000E+00  0.78028629797E+03  0.78028629799E+03  0.50400001928E-02 0. -1.
        1   -1    0    0  501    0  0.00000000000E+00  0.00000000000E+00 -0.15484347480E+04  0.15484347480E+04  0.50400001928E-02 0.  1.
    10030    2    1    2    0    0  0.00000000000E+00  0.00000000000E+00 -0.76814845003E+03  0.23287210460E+04  0.21983834217E+04 0.  0.
        4    1    3    3  502    0 -0.21506161708E+03  0.33154843473E+03 -0.14705778357E+04  0.15227529831E+04  0.12699999809E+01 0.  1.
       -4    1    3    3    0  502  0.21506161708E+03 -0.33154843473E+03  0.70242938566E+03  0.80596806293E+03  0.12699999809E+01 0. -1.
</event>
<event>
 5   0  0.1005538E-05  0.2206687E+04  0.7818609E-02  0.8515650E-01
        1   -1    0    0  501    0  0.00000000000E+00  0.00000000000E+00  0.11851460503E+04  0.11851460503E+04  0.50400001928E-02 0.  1.
       -1   -1    0    0    0  501  0.00000000000E+00  0.00000000000E+00 -0.10271875689E+04  0.10271875689E+04  0.50400001928E-02 0. -1.
    10030    2    1    2    0    0  0.00000000000E+00  0.00000000000E+00  0.15795848136E+03  0.22123336192E+04  0.22066873727E+04 0.  0.
        3    1    3    3  502    0 -0.35014635553E+03 -0.27056471793E+03 -0.93432918022E+03  0.10338175681E+04  0.10100000352E+00 0. -1.
       -3    1    3    3    0  502  0.35014635553E+03  0.27056471793E+03  0.10922876616E+04  0.11785160511E+04  0.10100000352E+00 0.  1.
</event>
<event>
 5   0  0.2319707E-05  0.2188345E+04  0.7818609E-02  0.8523295E-01
        2   -1    0    0  501    0  0.00000000000E+00  0.00000000000E+00  0.22603001092E+04  0.22603001092E+04  0.25500000920E-02 0.  1.
       -2   -1    0    0    0  501  0.00000000000E+00  0.00000000000E+00 -0.52967003043E+03  0.52967003044E+03  0.25500000920E-02 0. -1.
    10030    2    1    2    0    0  0.00000000000E+00  0.00000000000E+00  0.17306300788E+04  0.27899701397E+04  0.21883447879E+04 0.  0.
        3    1    3    3  502    0 -0.53472058798E+03  0.10554702175E+02  0.20822990514E+04  0.21498853129E+04  0.10100000352E+00 0.  1.
       -3    1    3    3    0  502  0.53472058798E+03 -0.10554702175E+02 -0.35166897262E+03  0.64008482676E+03  0.10100000352E+00 0. -1.
</event>
<event>
 5   0  0.1007682E-05  0.2207072E+04  0.7818609E-02  0.8515490E-01
       -1   -1    0    0    0  501  0.00000000000E+00  0.00000000000E+00  0.99144211743E+03  0.99144211744E+03  0.50400001928E-02 0.  1.
        1   -1    0    0  501    0  0.00000000000E+00  0.00000000000E+00 -0.12283038640E+04  0.12283038640E+04  0.50400001928E-02 0. -1.
    10030    2    1    2    0    0  0.00000000000E+00  0.00000000000E+00 -0.23686174656E+03  0.22197459814E+04  0.22070724354E+04 0.  0.
        2    1    3    3  502    0  0.66743779932E+03  0.87084878507E+03  0.32067577371E+00  0.10972014060E+04  0.25500000920E-02 0.  1.
       -2    1    3    3    0  502 -0.66743779932E+03 -0.87084878507E+03 -0.23718242233E+03  0.11225445755E+04  0.25500000920E-02 0. -1.
</event>
<event>
 5   0  0.2229552E-05  0.2201249E+04  0.7818609E-02  0.8517908E-01
        2   -1    0    0  501    0  0.00000000000E+00  0.00000000000E+00  0.15661971802E+04  0.15661971802E+04  0.25500000920E-02 0. -1.
       -2   -1    0    0    0  501  0.00000000000E+00  0.00000000000E+00 -0.77344945858E+03  0.77344945858E+03  0.25500000920E-02 0.  1.
    10030    2    1    2    0    0  0.00000000000E+00  0.00000000000E+00  0.79274772165E+03  0.23396466388E+04  0.22012490646E+04 0.  0.
        1    1    3    3  502    0  0.63530967191E+03 -0.12754304225E+03 -0.54921742209E+03  0.84942650276E+03  0.50400001928E-02 0.  1.
       -1    1    3    3    0  502 -0.63530967191E+03  0.12754304225E+03  0.13419651437E+04  0.14902201361E+04  0.50400001928E-02 0. -1.
</event>
<event>
 5   0  0.1007682E-05  0.2199892E+04  0.7818609E-02  0.8518473E-01
        1   -1    0    0  501    0  0.00000000000E+00  0.00000000000E+00  0.12784970907E+04  0.12784970907E+04  0.50400001928E-02 0. -1.
       -1   -1    0    0    0  501  0.00000000000E+00  0.00000000000E+00 -0.94633050542E+03  0.94633050543E+03  0.50400001928E-02 0.  1.
    10030    2    1    2    0    0  0.00000000000E+00  0.00000000000E+00  0.33216658526E+03  0.22248275961E+04  0.21998916319E+04 0.  0.
        2    1    3    3  502    0  0.62201773797E+03 -0.52368302632E+03 -0.58307700170E+03  0.10005642250E+04  0.25500000920E-02 0.  1.
       -2    1    3    3    0  502 -0.62201773797E+03  0.52368302632E+03  0.91524358696E+03  0.12242633711E+04  0.25500000920E-02 0. -1.
</event>
<event>
 5   0  0.1005538E-05  0.2202551E+04  0.7818609E-02  0.8517367E-01
       -1   -1    0    0    0  501  0.00000000000E+00  0.00000000000E+00  0.87511517851E+03  0.87511517852E+03  0.50400001928E-02 0.  1.
        1   -1    0    0  501    0  0.00000000000E+00  0.00000000000E+00 -0.13858831666E+04  0.13858831666E+04  0.50400001928E-02 0. -1.
    10030    2    1    2    0    0  0.00000000000E+00  0.00000000000E+00 -0.51076798805E+03  0.22609983451E+04  0.22025506984E+04 0.  0.
        3    1    3    3  502    0  0.48903814342E+03 -0.70086269461E+03  0.45762701922E+03  0.96942731617E+03  0.10100000352E+00 0.  1.
       -3    1    3    3    0  502 -0.48903814342E+03  0.70086269461E+03 -0.96839500728E+03  0.12915710289E+04  0.10100000352E+00 0. -1.
</event>
<event>
 5   0  0.2229552E-05  0.2193454E+04  0.7818609E-02  0.8521158E-01
        2   -1    0    0  501    0  0.00000000000E+00  0.00000000000E+00  0.12072089311E+04  0.12072089311E+04  0.25500000920E-02 0. -1.
       -2   -1    0    0    0  501  0.00000000000E+00  0.00000000000E+00 -0.99635637906E+03  0.99635637907E+03  0.25500000920E-02 0.  1.
    10030    2    1    2    0    0  0.00000000000E+00  0.00000000000E+00  0.21085255202E+03  0.22035653101E+04  0.21934541886E+04 0.  0.
        1    1    3    3  502    0  0.84071402354E+02 -0.63575962718E+02  0.12021087519E+04  0.12067209102E+04  0.50400001928E-02 0. -1.
       -1    1    3    3    0  502 -0.84071402354E+02  0.63575962718E+02 -0.99125619991E+03  0.99684439990E+03  0.50400001928E-02 0.  1.
</event>
<event>
 5   0  0.1071208E-05  0.2216153E+04  0.7818609E-02  0.8511735E-01
        1   -1    0    0  501    0  0.00000000000E+00  0.00000000000E+00  0.14301329508E+04  0.14301329508E+04  0.50400001928E-02 0.  1.
       -1   -1    0    0    0  501  0.00000000000E+00  0.00000000000E+00 -0.85854531448E+03  0.85854531450E+03  0.50400001928E-02 0. -1.
    10030    2    1    2    0    0  0.00000000000E+00  0.00000000000E+00  0.57158763634E+03  0.22886782653E+04  0.22161533738E+04 0.  0.
        4    1    3    3  502    0  0.80640884916E+03  0.25610350176E+03 -0.45312699207E+03  0.95979681155E+03  0.12699999809E+01 0. -1.
       -4    1    3    3    0  502 -0.80640884916E+03 -0.25610350176E+03  0.10247146284E+04  0.13288814538E+04  0.12699999809E+01 0.  1.
</event>
<event>
 5   0  0.2284329E-05  0.2206221E+04  0.7818609E-02  0.8515843E-01
        2   -1    0    0  501    0  0.00000000000E+00  0.00000000000E+00  0.13122271853E+04  0.13122271853E+04  0.25500000920E-02 0.  1.
       -2   -1    0    0    0  501  0.00000000000E+00  0.00000000000E+00 -0.92731841358E+03  0.92731841358E+03  0.25500000920E-02 0. -1.
    10030    2    1    2    0    0  0.00000000000E+00  0.00000000000E+00  0.38490877169E+03  0.22395455989E+04  0.22062206886E+04 0.  0.
        2    1    3    3  502    0  0.72048189064E+03 -0.83039193489E+03  0.28441814279E+03  0.11355785311E+04  0.25500000920E-02 0. -1.
       -2    1    3    3    0  502 -0.72048189064E+03  0.83039193489E+03  0.10049062891E+03  0.11039670678E+04  0.25500000920E-02 0.  1.
</event>
<event>
 5   0  0.1033733E-05  0.2260293E+04  0.7818609E-02  0.8493744E-01
       -1   -1    0    0    0  501  0.00000000000E+00  0.00000000000E+00  0.58724160373E+03  0.58724160375E+03  0.50400001928E-02 0.  1.
        1   -1    0    0  501    0  0.00000000000E+00  0.00000000000E+00 -0.21749666624E+04  0.21749666624E+04  0.50400001928E-02 0. -1.
    10030    2    1    2    0    0  0.00000000000E+00  0.00000000000E+00 -0.15877250587E+04  0.27622082661E+04  0.22602928225E+04 0.  0.
        5    1    3    3  502    0  0.65912316308E+03 -0.51226313006E+03  0.13711123702E+03  0.84597780103E+03  0.46999998093E+01 0.  1.
       -5    1    3    3    0  502 -0.65912316308E+03  0.51226313006E+03 -0.17248362957E+04  0.19162304651E+04  0.46999998093E+01 0. -1.
</event>
<event>
 5   0  0.2319707E-05  0.2189169E+04  0.7818609E-02  0.8522950E-01
        2   -1    0    0  501    0  0.00000000000E+00  0.00000000000E+00  0.17220863728E+04  0.17220863728E+04  0.25500000920E-02 0.  1.
       -2   -1    0    0    0  501  0.00000000000E+00  0.00000000000E+00 -0.69573455289E+03  0.69573455290E+03  0.25500000920E-02 0. -1.
    10030    2    1    2    0    0  0.00000000000E+00  0.00000000000E+00  0.10263518199E+04  0.24178209257E+04  0.21891687853E+04 0.  0.
        3    1    3    3  502    0  0.49647172998E+03 -0.59209221107E+03 -0.34307872953E+03  0.84543502999E+03  0.10100000352E+00 0. -1.
       -3    1    3    3    0  502 -0.49647172998E+03  0.59209221107E+03  0.13694305494E+04  0.15723858957E+04  0.10100000352E+00 0.  1.
</event>
<event>
 5   0  0.1007682E-05  0.2199298E+04  0.7818609E-02  0.8518720E-01
       -1   -1    0    0    0  501  0.00000000000E+00  0.00000000000E+00  0.57834825847E+03  0.57834825849E+03  0.50400001928E-02 0.  1.
        1   -1    0    0  501    0  0.00000000000E+00  0.00000000000E+00 -0.20908297194E+04  0.20908297194E+04  0.50400001928E-02 0. -1.
    10030    2    1    2    0    0  0.00000000000E+00  0.00000000000E+00 -0.15124814609E+04  0.26691779779E+04  0.21992978216E+04 0.  0.
        2    1    3    3  502    0  0.62849869165E+03 -0.60520912865E+03 -0.15685154608E+04  0.17948619572E+04  0.25500000920E-02 0. -1.
       -2    1    3    3    0  502 -0.62849869165E+03  0.60520912865E+03  0.56033999864E+02  0.87431602064E+03  0.25500000920E-02 0.  1.
</event>
<event>
 5   0  0.2284329E-05  0.2206437E+04  0.7818609E-02  0.8515754E-01
        2   -1    0    0  501    0  0.00000000000E+00  0.00000000000E+00  0.14757264567E+04  0.14757264567E+04  0.25500000920E-02 0. -1.
       -2   -1    0    0    0  501  0.00000000000E+00  0.00000000000E+00 -0.82474014401E+03  0.82474014401E+03  0.25500000920E-02 0.  1.
    10030    2    1    2    0    0  0.00000000000E+00  0.00000000000E+00  0.65098631264E+03  0.23004666007E+04  0.22064368111E+04 0.  0.
        2    1    3    3  502    0  0.71151902094E+03 -0.84309675113E+03  0.32090073594E+03  0.11489337367E+04  0.25500000920E-02 0.  1.
       -2    1    3    3    0  502 -0.71151902094E+03  0.84309675113E+03  0.33008557670E+03  0.11515328640E+04  0.25500000920E-02 0. -1.
</event>
<event>
 5   0  0.2229552E-05  0.2204133E+04  0.7818609E-02  0.8516710E-01
       -2   -1    0    0    0  501  0.00000000000E+00  0.00000000000E+00  0.10592425227E+04  0.10592425227E+04  0.25500000920E-02 0. -1.
        2   -1    0    0  501    0  0.00000000000E+00  0.00000000000E+00 -0.11466217611E+04  0.11466217611E+04  0.25500000920E-02 0.  1.
    10030    2    1    2    0    0  0.00000000000E+00  0.00000000000E+00 -0.87379238381E+02  0.22058642839E+04  0.22041329605E+04 0.  0.
        1    1    3    3  502    0  0.29987629796E+03 -0.48845948307E+03 -0.98572175806E+03  0.11402481506E+04  0.50400001928E-02 0.  1.
       -1    1    3    3    0  502 -0.29987629796E+03  0.48845948307E+03  0.89834251968E+03  0.10656161332E+04  0.50400001928E-02 0. -1.
</event>
<event>
 5   0  0.1005538E-05  0.2201890E+04  0.7818609E-02  0.8517642E-01
       -1   -1    0    0    0  501  0.00000000000E+00  0.00000000000E+00  0.12657276258E+04  0.12657276258E+04  0.50400001928E-02 0. -1.
        1   -1    0    0  501    0  0.00000000000E+00  0.00000000000E+00 -0.95761533446E+03  0.95761533447E+03  0.50400001928E-02 0.  1.
    10030    2    1    2    0    0  0.00000000000E+00  0.00000000000E+00  0.30811229133E+03  0.22233429603E+04  0.22018902640E+04 0.  0.
        3    1    3    3  502    0 -0.27940767192E+03 -0.93441493984E+03  0.66979682342E+03  0.11831431535E+04  0.10100000352E+00 0. -1.
       -3    1    3    3    0  502  0.27940767192E+03  0.93441493984E+03 -0.36168453209E+03  0.10401998067E+04  0.10100000352E+00 0.  1.
</event>
<event>
 5   0  0.1071208E-05  0.2185519E+04  0.7818609E-02  0.8524480E-01
        1   -1    0    0  501    0  0.00000000000E+00  0.00000000000E+00  0.20952274022E+04  0.20952274022E+04  0.50400001928E-02 0.  1.
       -1   -1    0    0    0  501  0.00000000000E+00  0.00000000000E+00 -0.56992532808E+03  0.56992532810E+03  0.50400001928E-02 0. -1.
    10030    2    1    2    0    0  0.00000000000E+00  0.00000000000E+00  0.15253020741E+04  0.26651527303E+04  0.21855188534E+04 0.  0.
        4    1    3    3  502    0  0.67441621352E+03  0.75852679786E+03  0.26892571942E+03  0.10500108512E+04  0.12699999809E+01 0. -1.
       -4    1    3    3    0  502 -0.67441621352E+03 -0.75852679786E+03  0.12563763547E+04  0.16151418791E+04  0.12699999809E+01 0.  1.
</event>
<event>
 5   0  0.2284329E-05  0.2183024E+04  0.7818609E-02  0.8525527E-01
       -2   -1    0    0    0  501  0.00000000000E+00  0.00000000000E+00  0.54604762074E+03  0.54604762074E+03  0.25500000920E-02 0.  1.
        2   -1    0    0  501    0  0.00000000000E+00  0.00000000000E+00 -0.21818583283E+04  0.21818583283E+04  0.25500000920E-02 0. -1.
    10030    2    1    2    0    0  0.00000000000E+00  0.00000000000E+00 -0.16358107076E+04  0.27279059491E+04  0.21830240942E+04 0.  0.
        2    1    3    3  502    0 -0.12394367175E+03 -0.88973480563E+03 -0.43145069638E+02  0.89936174878E+03  0.25500000920E-02 0.  1.
       -2    1    3    3    0  502  0.12394367175E+03  0.88973480563E+03 -0.15926656380E+04  0.18285442003E+04  0.25500000920E-02 0. -1.
</event>
<event>
 5   0  0.2298329E-05  0.2190747E+04  0.7818609E-02  0.8522289E-01
        2   -1    0    0  501    0  0.00000000000E+00  0.00000000000E+00  0.41167148625E+03  0.41167148626E+03  0.25500000920E-02 0.  1.
       -2   -1    0    0    0  501  0.00000000000E+00  0.00000000000E+00 -0.29145636389E+04  0.29145636389E+04  0.25500000920E-02 0. -1.
    10030    2    1    2    0    0  0.00000000000E+00  0.00000000000E+00 -0.25028921526E+04  0.33262351252E+04  0.21907466718E+04 0.  0.
        4    1    3    3  502    0 -0.55241932788E+02  0.90261186867E+03 -0.31293659967E+03  0.95691733442E+03  0.12699999809E+01 0.  1.
       -4    1    3    3    0  502  0.55241932788E+02 -0.90261186867E+03 -0.21899555530E+04  0.23693177907E+04  0.12699999809E+01 0. -1.
</event>
<event>
 5   0  0.2319707E-05  0.2204453E+04  0.7818609E-02  0.8516577E-01
       -2   -1    0    0    0  501  0.00000000000E+00  0.00000000000E+00  0.75968986727E+03  0.75968986727E+03  0.25500000920E-02 0. -1.
        2   -1    0    0  501    0  0.00000000000E+00  0.00000000000E+00 -0.15992098738E+04  0.15992098738E+04  0.25500000920E-02 0.  1.
    10030    2    1    2    0    0  0.00000000000E+00  0.00000000000E+00 -0.83952000652E+03  0.23588997411E+04  0.22044532535E+04 0.  0.
        3    1    3    3  502    0  0.65718855976E+03  0.25891821848E+03  0.48567112044E+03  0.85721169752E+03  0.10100000352E+00 0. -1.
       -3    1    3    3    0  502 -0.65718855976E+03 -0.25891821848E+03 -0.13251911270E+04  0.15016880435E+04  0.10100000352E+00 0.  1.
</event>
<event>
 5   0  0.2289708E-05  0.2191664E+04  0.7818609E-02  0.8521906E-01
       -2   -1    0    0    0  501  0.00000000000E+00  0.00000000000E+00  0.80730217850E+03  0.80730217850E+03  0.25500000920E-02 0. -1.
        2   -1    0    0  501    0  0.00000000000E+00  0.00000000000E+00 -0.14874823767E+04  0.14874823767E+04  0.25500000920E-02 0.  1.
    10030    2    1    2    0    0  0.00000000000E+00  0.00000000000E+00 -0.68018019816E+03  0.22947845552E+04  0.21916639917E+04 0.  0.
        5    1    3    3  502    0 -0.35463654309E+03 -0.17494737038E+03 -0.14101601064E+04  0.14645638517E+04  0.46999998093E+01 0.  1.
       -5    1    3    3    0  502  0.35463654309E+03  0.17494737038E+03  0.72997990820E+03  0.83022070347E+03  0.46999998093E+01 0. -1.
</event>
<event>
 5   0  0.1071208E-05  0.2198451E+04  0.7818609E-02  0.8519073E-01
        1   -1    0    0  501    0  0.00000000000E+00  0.00000000000E+00  0.23564197379E+04  0.23564197379E+04  0.50400001928E-02 0. -1.
       -1   -1    0    0    0  501  0.00000000000E+00  0.00000000000E+00 -0.51276811769E+03  0.51276811771E+03  0.50400001928E-02 0.  1.
    10030    2    1    2    0    0  0.00000000000E+00  0.00000000000E+00  0.18436516202E+04  0.28691878556E+04  0.21984511944E+04 0.  0.
        4    1    3    3  502    0  0.82496400985E+03  0.65919449994E+03  0.52341404276E+03  0.11785868145E+04  0.12699999809E+01 0.  1.
       -4    1    3    3    0  502 -0.82496400985E+03 -0.65919449994E+03  0.13202375774E+04  0.16906010411E+04  0.12699999809E+01 0. -1.
</event>
<event>
 5   0  0.1033733E-05  0.2207952E+04  0.7818609E-02  0.8515125E-01
       -1   -1    0    0    0  501  0.00000000000E+00  0.00000000000E+00  0.75008137098E+03  0.75008137100E+03  0.50400001928E-02 0.  1.
        1   -1    0    0  501    0  0.00000000000E+00  0.00000000000E+00 -0.16248414996E+04  0.16248414996E+04  0.50400001928E-02 0. -1.
    10030    2    1    2    0    0  0.00000000000E+00  0.00000000000E+00 -0.87476012862E+03  0.23749228706E+04  0.22079522999E+04 0.  0.
        5    1    3    3  502    0  0.50622992915E+03 -0.85158588907E+03 -0.96132407770E+03  0.13804467900E+04  0.46999998093E+01 0. -1.
       -5    1    3    3    0  502 -0.50622992915E+03  0.85158588907E+03  0.86563949082E+02  0.99447608061E+03  0.46999998093E+01 0.  1.
</event>
<event>
 5   0  0.1049198E-05  0.2204088E+04  0.7818609E-02  0.8516729E-01
       -1   -1    0    0    0  501  0.00000000000E+00  0.00000000000E+00  0.88975087859E+03  0.88975087861E+03  0.50400001928E-02 0. -1.
        1   -1    0    0  501    0  0.00000000000E+00  0.00000000000E+00 -0.13649894761E+04  0.13649894761E+04  0.50400001928E-02 0.  1.
    10030    2    1    2    0    0  0.00000000000E+00  0.00000000000E+00 -0.47523859754E+03  0.22547403548E+04  0.22040876441E+04 0.  0.
        1    1    3    3  502    0 -0.24001794421E+03 -0.10733166099E+04 -0.30910678506E+03  0.11424378159E+04  0.50400001928E-02 0. -1.
       -1    1    3    3    0  502  0.24001794421E+03  0.10733166099E+04 -0.16613181248E+03  0.11123025388E+04  0.50400001928E-02 0.  1.
</event>
<event>
 5   0  0.2298329E-05  0.2204131E+04  0.7818609E-02  0.8516711E-01
       -2   -1    0    0    0  501  0.00000000000E+00  0.00000000000E+00  0.12529756679E+04  0.12529756679E+04  0.25500000920E-02 0. -1.
        2   -1    0    0  501    0  0.00000000000E+00  0.00000000000E+00 -0.96933074676E+03  0.96933074676E+03  0.25500000920E-02 0.  1.
    10030    2    1    2    0    0  0.00000000000E+00  0.00000000000E+00  0.28364492114E+03  0.22223064147E+04  0.22041305223E+04 0.  0.
        4    1    3    3  502    0  0.86090360504E+03 -0.13112421298E+03  0.82281625338E+03  0.11980721081E+04  0.12699999809E+01 0. -1.
       -4    1    3    3    0  502 -0.86090360504E+03  0.13112421298E+03 -0.53917133224E+03  0.10242343066E+04  0.12699999809E+01 0.  1.
</event>
<event>
 5   0  0.2298329E-05  0.2204065E+04  0.7818609E-02  0.8516738E-01
       -2   -1    0    0    0  501  0.00000000000E+00  0.00000000000E+00  0.15002545592E+04  0.15002545592E+04  0.25500000920E-02 0.  1.
        2   -1    0    0  501    0  0.00000000000E+00  0.00000000000E+00 -0.80951279352E+03  0.80951279353E+03  0.25500000920E-02 0. -1.
    10030    2    1    2    0    0  0.00000000000E+00  0.00000000000E+00  0.69074176569E+03  0.23097673527E+04  0.22040646626E+04 0.  0.
        4    1    3    3  502    0  0.45478402120E+03 -0.77144157518E+03  0.10184529344E+04  0.13561705654E+04  0.12699999809E+01 0.  1.
       -4    1    3    3    0  502 -0.45478402120E+03  0.77144157518E+03 -0.32771116873E+03  0.95359678736E+03  0.12699999809E+01 0. -1.
</event>
<event>
 5   0  0.8003875E-06  0.2192896E+04  0.7818609E-02  0.8521391E-01
        3   -1    0    0  501    0  0.00000000000E+00  0.00000000000E+00  0.71603868649E+03  0.71603869361E+03  0.10100000352E+00 0. -1.
       -3   -1    0    0    0  501  0.00000000000E+00  0.00000000000E+00 -0.16789565456E+04  0.16789565486E+04  0.10100000352E+00 0.  1.
    10030    2    1    2    0    0  0.00000000000E+00  0.00000000000E+00 -0.96291785912E+03  0.23949952423E+04  0.21928956672E+04 0.  0.
        4    1    3    3  502    0 -0.83308386643E+03 -0.70732999885E+03 -0.38468222443E+03  0.11585881419E+04  0.12699999809E+01 0.  1.
       -4    1    3    3    0  502  0.83308386643E+03  0.70732999885E+03 -0.57823563469E+03  0.12364071004E+04  0.12699999809E+01 0. -1.
</event>
<event>
 5   0  0.2284329E-05  0.2210606E+04  0.7818609E-02  0.8514027E-01
        2   -1    0    0  501    0  0.00000000000E+00  0.00000000000E+00  0.13983658058E+04  0.13983658058E+04  0.25500000920E-02 0. -1.
       -2   -1    0    0    0  501  0.00000000000E+00  0.00000000000E+00 -0.87365886398E+03  0.87365886398E+03  0.25500000920E-02 0.  1.
    10030    2    1    2    0    0  0.00000000000E+00  0.00000000000E+00  0.52470694185E+03  0.22720246698E+04  0.22106059634E+04 0.  0.
        2    1    3    3  502    0  0.33010221307E+03 -0.25442765110E+03 -0.78980476265E+03  0.89302433551E+03  0.25500000920E-02 0.  1.
       -2    1    3    3    0  502 -0.33010221307E+03  0.25442765110E+03  0.13145117045E+04  0.13790003343E+04  0.25500000920E-02 0. -1.
</event>
<event>
 5   0  0.1007682E-05  0.2187224E+04  0.7818609E-02  0.8523765E-01
        1   -1    0    0  501    0  0.00000000000E+00  0.00000000000E+00  0.84217989808E+03  0.84217989810E+03  0.50400001928E-02 0.  1.
       -1   -1    0    0    0  501  0.00000000000E+00  0.00000000000E+00 -0.14201087850E+04  0.14201087851E+04  0.50400001928E-02 0. -1.
    10030    2    1    2    0    0  0.00000000000E+00  0.00000000000E+00 -0.57792888696E+03  0.22622886832E+04  0.21872238769E+04 0.  0.
        2    1    3    3  502    0  0.81283389616E+03 -0.39661960226E+03  0.34693695667E+03  0.96869567128E+03  0.25500000920E-02 0.  1.
       -2    1    3    3    0  502 -0.81283389616E+03  0.39661960226E+03 -0.92486584364E+03  0.12935930119E+04  0.25500000920E-02 0. -1.
</event>
<event>
 5   0  0.1005538E-05  0.2196017E+04  0.7818609E-02  0.8520088E-01
       -1   -1    0    0    0  501  0.00000000000E+00  0.00000000000E+00  0.13479931229E+04  0.13479931229E+04  0.50400001928E-02 0. -1.
        1   -1    0    0  501    0  0.00000000000E+00  0.00000000000E+00 -0.89438361176E+03  0.89438361177E+03  0.50400001928E-02 0.  1.
    10030    2    1    2    0    0  0.00000000000E+00  0.00000000000E+00  0.45360951109E+03  0.22423767346E+04  0.21960172658E+04 0.  0.
        3    1    3    3  502    0  0.34912394348E+03 -0.49849858018E+02 -0.83497874245E+03  0.90640059951E+03  0.10100000352E+00 0.  1.
       -3    1    3    3    0  502 -0.34912394348E+03  0.49849858018E+02  0.12885882535E+04  0.13359761351E+04  0.10100000352E+00 0. -1.
</event>
<event>
 5   0  0.2289708E-05  0.2199599E+04  0.7818609E-02  0.8518595E-01
        2   -1    0    0  501    0  0.00000000000E+00  0.00000000000E+00  0.13367232977E+04  0.13367232977E+04  0.25500000920E-02 0.  1.
       -2   -1    0    0    0  501  0.00000000000E+00  0.00000000000E+00 -0.90486857072E+03  0.90486857073E+03  0.25500000920E-02 0. -1.
    10030    2    1    2    0    0  0.00000000000E+00  0.00000000000E+00  0.43185472695E+03  0.22415918684E+04  0.21995989633E+04 0.  0.
        5    1    3    3  502    0  0.17752215935E+02  0.94692020133E+03  0.78567479491E+03  0.12305608405E+04  0.46999998093E+01 0.  1.
       -5    1    3    3    0  502 -0.17752215935E+02 -0.94692020133E+03 -0.35382006796E+03  0.10110310279E+04  0.46999998093E+01 0. -1.
</event>
<event>
 5   0  0.2229552E-05  0.2159497E+04  0.7818609E-02  0.8535478E-01
       -2   -1    0    0    0  501  0.00000000000E+00  0.00000000000E+00  0.58336557251E+03  0.58336557252E+03  0.25500000920E-02 0. -1.
        2   -1    0    0  501    0  0.00000000000E+00  0.00000000000E+00 -0.19985015890E+04  0.19985015890E+04  0.25500000920E-02 0.  1.
    10030    2    1    2    0    0  0.00000000000E+00  0.00000000000E+00 -0.14151360165E+04  0.25818671615E+04  0.21594971856E+04 0.  0.
        1    1    3    3  502    0 -0.30604246952E+03 -0.89091274521E+03 -0.76654134737E+02  0.94512611282E+03  0.50400001928E-02 0. -1.
       -1    1    3    3    0  502  0.30604246952E+03  0.89091274521E+03 -0.13384818818E+04  0.16367410487E+04  0.50400001928E-02 0.  1.
</event>
<event>
 5   0  0.1071208E-05  0.2189145E+04  0.7818609E-02  0.8522960E-01
       -1   -1    0    0    0  501  0.00000000000E+00  0.00000000000E+00  0.93236113945E+03  0.93236113947E+03  0.50400001928E-02 0. -1.
        1   -1    0    0  501    0  0.00000000000E+00  0.00000000000E+00 -0.12850056125E+04  0.12850056125E+04  0.50400001928E-02 0.  1.
    10030    2    1    2    0    0  0.00000000000E+00  0.00000000000E+00 -0.35264447300E+03  0.22173667519E+04  0.21891453100E+04 0.  0.
        4    1    3    3  502    0  0.23452076485E+02 -0.10652758473E+04 -0.43000061962E+03  0.11490277528E+04  0.12699999809E+01 0. -1.
       -4    1    3    3    0  502 -0.23452076485E+02  0.10652758473E+04  0.77356146622E+02  0.10683389992E+04  0.12699999809E+01 0.  1.
</event>
<event>
 5   0  0.1071208E-05  0.2207019E+04  0.7818609E-02  0.8515512E-01
        1   -1    0    0  501    0  0.00000000000E+00  0.00000000000E+00  0.10089088401E+04  0.10089088401E+04  0.50400001928E-02 0. -1.
       -1   -1    0    0    0  501  0.00000000000E+00  0.00000000000E+00 -0.12069807793E+04  0.12069807793E+04  0.50400001928E-02 0.  1.
    10030    2    1    2    0    0  0.00000000000E+00  0.00000000000E+00 -0.19807193922E+03  0.22158896194E+04  0.22070193276E+04 0.  0.
        4    1    3    3  502    0 -0.34660193071E+03 -0.91236654851E+03 -0.61606814180E+03  0.11541608144E+04  0.12699999809E+01 0.  1.
       -4    1    3    3    0  502  0.34660193071E+03  0.91236654851E+03  0.41799620259E+03  0.10617288051E+04  0.12699999809E+01 0. -1.
</event>
<event>
 5   0  0.1033733E-05  0.2203618E+04  0.7818609E-02  0.8516924E-01
       -1   -1    0    0    0  501  0.00000000000E+00  0.00000000000E+00  0.10049443363E+04  0.10049443363E+04  0.50400001928E-02 0.  1.
        1   -1    0    0  501    0  0.00000000000E+00  0.00000000000E+00 -0.12080106010E+04  0.12080106011E+04  0.50400001928E-02 0. -1.
    10030    2    1    2    0    0  0.00000000000E+00  0.00000000000E+00 -0.20306626474E+03  0.22129549374E+04  0.22036183079E+04 0.  0.
        5    1    3    3  502    0 -0.43020479345E+03  0.14021549377E+03  0.90732511736E+03  0.10139021193E+04  0.46999998093E+01 0.  1.
       -5    1    3    3    0  502  0.43020479345E+03 -0.14021549377E+03 -0.11103913821E+04  0.11990528180E+04  0.46999998093E+01 0. -1.
</event>
<event>
 5   0  0.2298329E-05  0.2205744E+04  0.7818609E-02  0.8516041E-01
        2   -1    0    0  501    0  0.00000000000E+00  0.00000000000E+00  0.20525328307E+04  0.20525328307E+04  0.25500000920E-02 0.  1.
       -2   -1    0    0    0  501  0.00000000000E+00  0.00000000000E+00 -0.59259791036E+03  0.59259791037E+03  0.25500000920E-02 0. -1.
    10030    2    1    2    0    0  0.00000000000E+00  0.00000000000E+00  0.14599349204E+04  0.26451307411E+04  0.22057440164E+04 0.  0.
        4    1    3    3  502    0 -0.10783702941E+04 -0.15767525795E+03  0.52723125387E+03  0.12106685699E+04  0.12699999809E+01 0.  1.
       -4    1    3    3    0  502  0.10783702941E+04  0.15767525795E+03  0.93270366651E+03  0.14344621712E+04  0.12699999809E+01 0. -1.
</event>
<event>
 5   0  0.1033733E-05  0.2197603E+04  0.7818609E-02  0.8519426E-01
       -1   -1    0    0    0  501  0.00000000000E+00  0.00000000000E+00  0.10344856557E+04  0.10344856557E+04  0.50400001928E-02 0. -1.
        1   -1    0    0  501    0  0.00000000000E+00  0.00000000000E+00 -0.11671164213E+04  0.11671164213E+04  0.50400001928E-02 0.  1.
    10030    2    1    2    0    0  0.00000000000E+00  0.00000000000E+00 -0.13263076562E+03  0.22016020770E+04  0.21976034186E+04 0.  0.
        5    1    3    3  502    0 -0.35878749272E+03 -0.45010697096E+03 -0.10039769326E+04  0.11572884349E+04  0.46999998093E+01 0.  1.
       -5    1    3    3    0  502  0.35878749272E+03  0.45010697096E+03  0.87134616703E+03  0.10443136421E+04  0.46999998093E+01 0. -1.
</event>
<event>
 5   0  0.2319707E-05  0.2205859E+04  0.7818609E-02  0.8515993E-01
        2   -1    0    0  501    0  0.00000000000E+00  0.00000000000E+00  0.88019814231E+03  0.88019814232E+03  0.25500000920E-02 0. -1.
       -2   -1    0    0    0  501  0.00000000000E+00  0.00000000000E+00 -0.13820224244E+04  0.13820224244E+04  0.25500000920E-02 0.  1.
    10030    2    1    2    0    0  0.00000000000E+00  0.00000000000E+00 -0.50182428205E+03  0.22622205667E+04  0.22058590803E+04 0.  0.
        3    1    3    3  502    0 -0.66641742559E+03 -0.62026869095E+03 -0.88940143386E+03  0.12727452042E+04  0.10100000352E+00 0.  1.
       -3    1    3    3    0  502  0.66641742559E+03  0.62026869095E+03  0.38757715182E+03  0.98947536246E+03  0.10100000352E+00 0. -1.
</event>
<event>
 5   0  0.2319707E-05  0.2196899E+04  0.7818609E-02  0.8519720E-01
       -2   -1    0    0    0  501  0.00000000000E+00  0.00000000000E+00  0.11566678240E+04  0.11566678240E+04  0.25500000920E-02 0.  1.
        2   -1    0    0  501    0  0.00000000000E+00  0.00000000000E+00 -0.10431612289E+04  0.10431612289E+04  0.25500000920E-02 0. -1.
    10030    2    1    2    0    0  0.00000000000E+00  0.00000000000E+00  0.11350659505E+03  0.21998290529E+04  0.21968987494E+04 0.  0.
        3    1    3    3  502    0 -0.80152337458E+03 -0.45345910938E+03 -0.54281588362E+03  0.10689780061E+04  0.10100000352E+00 0. -1.
       -3    1    3    3    0  502  0.80152337458E+03  0.45345910938E+03  0.65632247867E+03  0.11308510468E+04  0.10100000352E+00 0.  1.
</event>
<event>
 5   0  0.8003875E-06  0.2197840E+04  0.7818609E-02  0.8519328E-01
       -3   -1    0    0    0  501  0.00000000000E+00  0.00000000000E+00  0.61451339397E+03  0.61451340227E+03  0.10100000352E+00 0.  1.
        3   -1    0    0  501    0  0.00000000000E+00  0.00000000000E+00 -0.19651721522E+04  0.19651721548E+04  0.10100000352E+00 0. -1.
    10030    2    1    2    0    0  0.00000000000E+00  0.00000000000E+00 -0.13506587583E+04  0.25796855571E+04  0.21978395056E+04 0.  0.
        3    1    3    3  502    0  0.85568539322E+03  0.56422820399E+03 -0.21014784046E+03  0.10462853738E+04  0.10100000352E+00 0.  1.
       -3    1    3    3    0  502 -0.85568539322E+03 -0.56422820399E+03 -0.11405109178E+04  0.15334001833E+04  0.10100000352E+00 0. -1.
</event>
<event>
 5   0  0.1033733E-05  0.2194749E+04  0.7818609E-02  0.8520617E-01
        1   -1    0    0  501    0  0.00000000000E+00  0.00000000000E+00  0.13963863159E+04  0.13963863159E+04  0.50400001928E-02 0. -1.
       -1   -1    0    0    0  501  0.00000000000E+00  0.00000000000E+00 -0.86239060297E+03  0.86239060298E+03  0.50400001928E-02 0.  1.
    10030    2    1    2    0    0  0.00000000000E+00  0.00000000000E+00  0.53399571289E+03  0.22587769188E+04  0.21947486753E+04 0.  0.
        5    1    3    3  502    0  0.10734605578E+04  0.85619612342E+01  0.50127323613E+03  0.11847733216E+04  0.46999998093E+01 0. -1.
       -5    1    3    3    0  502 -0.10734605578E+04 -0.85619612342E+01  0.32722476758E+02  0.10740035972E+04  0.46999998093E+01 0.  1.
</event>
<event>
 5   0  0.2319707E-05  0.2142887E+04  0.7818609E-02  0.8542583E-01
       -2   -1    0    0    0  501  0.00000000000E+00  0.00000000000E+00  0.55139153949E+03  0.55139153950E+03  0.25500000920E-02 0.  1.
        2   -1    0    0  501    0  0.00000000000E+00  0.00000000000E+00 -0.20819881889E+04  0.20819881889E+04  0.25500000920E-02 0. -1.
    10030    2    1    2    0    0  0.00000000000E+00  0.00000000000E+00 -0.15305966494E+04  0.26333797284E+04  0.21428865324E+04 0.  0.
        3    1    3    3  502    0 -0.31798527413E+03 -0.41226528280E+03 -0.19160792566E+04  0.19855571072E+04  0.10100000352E+00 0. -1.
       -3    1    3    3    0  502  0.31798527413E+03  0.41226528280E+03  0.38548260719E+03  0.64782262125E+03  0.10100000352E+00 0.  1.
</event>
<event>
 5   0  0.2284329E-05  0.2210892E+04  0.7818609E-02  0.8513908E-01
       -2   -1    0    0    0  501  0.00000000000E+00  0.00000000000E+00  0.97377609826E+03  0.97377609826E+03  0.25500000920E-02 0. -1.
        2   -1    0    0  501    0  0.00000000000E+00  0.00000000000E+00 -0.12549197077E+04  0.12549197077E+04  0.25500000920E-02 0.  1.
    10030    2    1    2    0    0  0.00000000000E+00  0.00000000000E+00 -0.28114360940E+03  0.22286958059E+04  0.22108919617E+04 0.  0.
        2    1    3    3  502    0 -0.71024654280E+03  0.34237975394E+03  0.64048163061E+03  0.10158202433E+04  0.25500000920E-02 0. -1.
       -2    1    3    3    0  502  0.71024654280E+03 -0.34237975394E+03 -0.92162524001E+03  0.12128755627E+04  0.25500000920E-02 0.  1.
</event>
<event>
 5   0  0.2229552E-05  0.2198424E+04  0.7818609E-02  0.8519084E-01
        2   -1    0    0  501    0  0.00000000000E+00  0.00000000000E+00  0.12158126481E+04  0.12158126481E+04  0.25500000920E-02 0.  1.
       -2   -1    0    0    0  501  0.00000000000E+00  0.00000000000E+00 -0.99379352578E+03  0.99379352578E+03  0.25500000920E-02 0. -1.
    10030    2    1    2    0    0  0.00000000000E+00  0.00000000000E+00  0.22201912231E+03  0.22096061739E+04  0.21984237428E+04 0.  0.
        1    1    3    3  502    0 -0.29327853808E+03 -0.21520636467E+03 -0.93154220532E+03  0.10000484791E+04  0.50400001928E-02 0. -1.
       -1    1    3    3    0  502  0.29327853808E+03  0.21520636467E+03  0.11535613276E+04  0.12095576947E+04  0.50400001928E-02 0.  1.
</event>
<event>
 5   0  0.1049198E-05  0.2205104E+04  0.7818609E-02  0.8516307E-01
       -1   -1    0    0    0  501  0.00000000000E+00  0.00000000000E+00  0.54146940713E+03  0.54146940715E+03  0.50400001928E-02 0.  1.
        1   -1    0    0  501    0  0.00000000000E+00  0.00000000000E+00 -0.22450399263E+04  0.22450399263E+04  0.50400001928E-02 0. -1.
    10030    2    1    2    0    0  0.00000000000E+00  0.00000000000E+00 -0.17035705191E+04  0.27865093334E+04  0.22051035694E+04 0.  0.
        1    1    3    3  502    0 -0.10201126283E+04  0.10355233336E+03 -0.13639473582E+04  0.17063719571E+04  0.50400001928E-02 0. -1.
       -1    1    3    3    0  502  0.10201126283E+04 -0.10355233336E+03 -0.33962316094E+03  0.10801373763E+04  0.50400001928E-02 0.  1.
</event>
<event>
 5   0  0.2298329E-05  0.2207599E+04  0.7818609E-02  0.8515272E-01
        2   -1    0    0  501    0  0.00000000000E+00  0.00000000000E+00  0.19514754848E+04  0.19514754848E+04  0.25500000920E-02 0. -1.
       -2   -1    0    0    0  501  0.00000000000E+00  0.00000000000E+00 -0.62433416784E+03  0.62433416784E+03  0.25500000920E-02 0.  1.
    10030    2    1    2    0    0  0.00000000000E+00  0.00000000000E+00  0.13271413169E+04  0.25758096526E+04  0.22075985349E+04 0.  0.
        4    1    3    3  502    0 -0.72407823803E+03  0.63925579137E+03  0.40199820334E+02  0.96672379718E+03  0.12699999809E+01 0.  1.
       -4    1    3    3    0  502  0.72407823803E+03 -0.63925579137E+03  0.12869414966E+04  0.16090858554E+04  0.12699999809E+01 0. -1.
</event>
<event>
 5   0  0.2298329E-05  0.2213611E+04  0.7818609E-02  0.8512784E-01
        2   -1    0    0  501    0  0.00000000000E+00  0.00000000000E+00  0.14346332968E+04  0.14346332968E+04  0.25500000920E-02 0.  1.
       -2   -1    0    0    0  501  0.00000000000E+00  0.00000000000E+00 -0.85388941221E+03  0.85388941221E+03  0.25500000920E-02 0. -1.
    10030    2    1    2    0    0  0.00000000000E+00  0.00000000000E+00  0.58074388458E+03  0.22885227090E+04  0.22136107901E+04 0.  0.
        4    1    3    3  502    0  0.47149740030E+03  0.98865978215E+03  0.12606396277E+03  0.11025659613E+04  0.12699999809E+01 0.  1.
       -4    1    3    3    0  502 -0.47149740030E+03 -0.98865978215E+03  0.45467992181E+03  0.11859567477E+04  0.12699999809E+01 0. -1.
</event>
<event>
 5   0  0.2289708E-05  0.2213904E+04  0.7818609E-02  0.8512663E-01
        2   -1    0    0  501    0  0.00000000000E+00  0.00000000000E+00  0.18186497035E+04  0.18186497035E+04  0.25500000920E-02 0. -1.
       -2   -1    0    0    0  501  0.00000000000E+00  0.00000000000E+00 -0.67376513682E+03  0.67376513682E+03  0.25500000920E-02 0.  1.
    10030    2    1    2    0    0  0.00000000000E+00  0.00000000000E+00  0.11448845667E+04  0.24924148404E+04  0.22139040326E+04 0.  0.
        5    1    3    3  502    0  0.30793879659E+03  0.30089691970E+03 -0.57562911605E+03  0.71884367423E+03  0.46999998093E+01 0.  1.
       -5    1    3    3    0  502 -0.30793879659E+03 -0.30089691970E+03  0.17205136828E+04  0.17735711661E+04  0.46999998093E+01 0. -1.
</event>
<event>
 5   0  0.1071208E-05  0.2198067E+04  0.7818609E-02  0.8519233E-01
        1   -1    0    0  501    0  0.00000000000E+00  0.00000000000E+00  0.17020214995E+04  0.17020214996E+04  0.50400001928E-02 0.  1.
       -1   -1    0    0    0  501  0.00000000000E+00  0.00000000000E+00 -0.70967043401E+03  0.70967043402E+03  0.50400001928E-02 0. -1.
    10030    2    1    2    0    0  0.00000000000E+00  0.00000000000E+00  0.99235106554E+03  0.24116919336E+04  0.21980667290E+04 0.  0.
        4    1    3    3  502    0 -0.93223746497E+03  0.37165135993E+03  0.98768785480E+03  0.14080910254E+04  0.12699999809E+01 0.  1.
       -4    1    3    3    0  502  0.93223746497E+03 -0.37165135993E+03  0.46632107452E+01  0.10036009082E+04  0.12699999809E+01 0. -1.
</event>
<event>
 5   0  0.1007682E-05  0.2202293E+04  0.7818609E-02  0.8517474E-01
       -1   -1    0    0    0  501  0.00000000000E+00  0.00000000000E+00  0.53420361740E+03  0.53420361743E+03  0.50400001928E-02 0. -1.
        1   -1    0    0  501    0  0.00000000000E+00  0.00000000000E+00 -0.22697786030E+04  0.22697786030E+04  0.50400001928E-02 0.  1.
    10030    2    1    2    0    0  0.00000000000E+00  0.00000000000E+00 -0.17355749856E+04  0.28039822204E+04  0.22022932961E+04 0.  0.
        2    1    3    3  502    0 -0.91200521991E+02  0.28954239624E+03 -0.22154499983E+04  0.22361509407E+04  0.25500000920E-02 0.  1.
       -2    1    3    3    0  502  0.91200521991E+02 -0.28954239624E+03  0.47987501272E+03  0.56783127976E+03  0.25500000920E-02 0. -1.
</event>
<event>
 5   0  0.2319707E-05  0.2200857E+04  0.7818609E-02  0.8518071E-01
       -2   -1    0    0    0  501  0.00000000000E+00  0.00000000000E+00  0.44660319056E+03  0.44660319057E+03  0.25500000920E-02 0.  1.
        2   -1    0    0  501    0  0.00000000000E+00  0.00000000000E+00 -0.27114524920E+04  0.27114524920E+04  0.25500000920E-02 0. -1.
    10030    2    1    2    0    0  0.00000000000E+00  0.00000000000E+00 -0.22648493014E+04  0.31580556826E+04  0.22008574093E+04 0.  0.
        3    1    3    3  502    0 -0.81260651354E+03 -0.93514579614E+02 -0.21886948585E+04  0.23365486334E+04  0.10100000352E+00 0. -1.
       -3    1    3    3    0  502  0.81260651354E+03  0.93514579614E+02 -0.76154442935E+02  0.82150704916E+03  0.10100000352E+00 0.  1.
</event>
<event>
 5   0  0.2298329E-05  0.2209968E+04  0.7818609E-02  0.8514291E-01
        2   -1    0    0  501    0  0.00000000000E+00  0.00000000000E+00  0.65871148224E+03  0.65871148225E+03  0.25500000920E-02 0.  1.
       -2   -1    0    0    0  501  0.00000000000E+00  0.00000000000E+00 -0.18536025457E+04  0.18536025457E+04  0.25500000920E-02 0. -1.
    10030    2    1    2    0    0  0.00000000000E+00  0.00000000000E+00 -0.11948910635E+04  0.25123140280E+04  0.22099676743E+04 0.  0.
        4    1    3    3  502    0 -0.83403373254E+03  0.12479510457E+03  0.21424147073E+03  0.87010752543E+03  0.12699999809E+01 0.  1.
       -4    1    3    3    0  502  0.83403373254E+03 -0.12479510457E+03 -0.14091325342E+04  0.16422065026E+04  0.12699999809E+01 0. -1.
</event>
<event>
 5   0  0.2298329E-05  0.2165118E+04  0.7818609E-02  0.8533089E-01
        2   -1    0    0  501    0  0.00000000000E+00  0.00000000000E+00  0.16543381443E+04  0.16543381443E+04  0.25500000920E-02 0. -1.
       -2   -1    0    0    0  501  0.00000000000E+00  0.00000000000E+00 -0.70840063513E+03  0.70840063514E+03  0.25500000920E-02 0.  1.
    10030    2    1    2    0    0  0.00000000000E+00  0.00000000000E+00  0.94593750918E+03  0.23627387794E+04  0.21651181881E+04 0.  0.
        4    1    3    3  502    0 -0.23335287011E+02 -0.90613835704E+03  0.11188534427E+04  0.14399534357E+04  0.12699999809E+01 0. -1.
       -4    1    3    3    0  502  0.23335287011E+02  0.90613835704E+03 -0.17291593354E+03  0.92278534378E+03  0.12699999809E+01 0.  1.
</event>
<event>
 5   0  0.1005538E-05  0.2214264E+04  0.7818609E-02  0.8512515E-01
        1   -1    0    0  501    0  0.00000000000E+00  0.00000000000E+00  0.87078245198E+03  0.87078245200E+03  0.50400001928E-02 0.  1.
       -1   -1    0    0    0  501  0.00000000000E+00  0.00000000000E+00 -0.14076317345E+04  0.14076317345E+04  0.50400001928E-02 0. -1.
    10030    2    1    2    0    0  0.00000000000E+00  0.00000000000E+00 -0.53684928252E+03  0.22784141865E+04  0.22142637723E+04 0.  0.
        3    1    3    3  502    0  0.58217405569E+03  0.84920659728E+03 -0.68723311728E+03  0.12378884617E+04  0.10100000352E+00 0. -1.
       -3    1    3    3    0  502 -0.58217405569E+03 -0.84920659728E+03  0.15038383476E+03  0.10405257248E+04  0.10100000352E+00 0.  1.
</event>
<event>
 5   0  0.1049198E-05  0.2200579E+04  0.7818609E-02  0.8518187E-01
       -1   -1    0    0    0  501  0.00000000000E+00  0.00000000000E+00  0.73655369447E+03  0.73655369449E+03  0.50400001928E-02 0.  1.
        1   -1    0    0  501    0  0.00000000000E+00  0.00000000000E+00 -0.16436513502E+04  0.16436513502E+04  0.50400001928E-02 0. -1.
    10030    2    1    2    0    0  0.00000000000E+00  0.00000000000E+00 -0.90709765569E+03  0.23802050447E+04  0.22005794459E+04 0.  0.
        1    1    3    3  502    0  0.14545174578E+03  0.10497166158E+04 -0.77363771187E+03  0.13120885995E+04  0.50400001928E-02 0.  1.
       -1    1    3    3    0  502 -0.14545174578E+03 -0.10497166158E+04 -0.13345994382E+03  0.10681164451E+04  0.50400001928E-02 0. -1.
</event>
<event>
 5   0  0.1007682E-05  0.2200651E+04  0.7818609E-02  0.8518157E-01
       -1   -1    0    0    0  501  0.00000000000E+00  0.00000000000E+00  0.62571869665E+03  0.62571869667E+03  0.50400001928E-02 0. -1.
        1   -1    0    0  501    0  0.00000000000E+00  0.00000000000E+00 -0.19349210256E+04  0.19349210256E+04  0.50400001928E-02 0.  1.
    10030    2    1    2    0    0  0.00000000000E+00  0.00000000000E+00 -0.13092023290E+04  0.25606397223E+04  0.22006510512E+04 0.  0.
        2    1    3    3  502    0 -0.10612573528E+04 -0.83162192891E+02 -0.33060416405E+03  0.11146668707E+04  0.25500000920E-02 0. -1.
       -2    1    3    3    0  502  0.10612573528E+04  0.83162192891E+02 -0.97859816492E+03  0.14459728516E+04  0.25500000920E-02 0.  1.
</event>
<event>
 5   0  0.2229552E-05  0.2199043E+04  0.7818609E-02  0.8518826E-01
        2   -1    0    0  501    0  0.00000000000E+00  0.00000000000E+00  0.54197737335E+03  0.54197737335E+03  0.25500000920E-02 0. -1.
       -2   -1    0    0    0  501  0.00000000000E+00  0.00000000000E+00 -0.22306244047E+04  0.22306244047E+04  0.25500000920E-02 0.  1.
    10030    2    1    2    0    0  0.00000000000E+00  0.00000000000E+00 -0.16886470314E+04  0.27726017781E+04  0.21990433882E+04 0.  0.
        1    1    3    3  502    0 -0.98393780375E+03  0.32651227687E+03 -0.13062113999E+04  0.16676126918E+04  0.50400001928E-02 0. -1.
       -1    1    3    3    0  502  0.98393780375E+03 -0.32651227687E+03 -0.38243563152E+03  0.11049890863E+04  0.50400001928E-02 0.  1.
</event>
<event>
 5   0  0.2298329E-05  0.2208517E+04  0.7818609E-02  0.8514891E-01
       -2   -1    0    0    0  501  0.00000000000E+00  0.00000000000E+00  0.89412195730E+03  0.89412195731E+03  0.25500000920E-02 0. -1.
        2   -1    0    0  501    0  0.00000000000E+00  0.00000000000E+00 -0.13637817445E+04  0.13637817445E+04  0.25500000920E-02 0.  1.
    10030    2    1    2    0    0  0.00000000000E+00  0.00000000000E+00 -0.46965978721E+03  0.22579037018E+04  0.22085173332E+04 0.  0.
        4    1    3    3  502    0  0.20312628052E+03  0.28383188354E+03 -0.13059043988E+04  0.13517428512E+04  0.12699999809E+01 0.  1.
       -4    1    3    3    0  502 -0.20312628052E+03 -0.28383188354E+03  0.83624461159E+03  0.90616085066E+03  0.12699999809E+01 0. -1.
</event>
<event>
 5   0  0.1033733E-05  0.2183546E+04  0.7818609E-02  0.8525308E-01
       -1   -1    0    0    0  501  0.00000000000E+00  0.00000000000E+00  0.42019546152E+03  0.42019546155E+03  0.50400001928E-02 0. -1.
        1   -1    0    0  501    0  0.00000000000E+00  0.00000000000E+00 -0.28366996563E+04  0.28366996563E+04  0.50400001928E-02 0.  1.
    10030    2    1    2    0    0  0.00000000000E+00  0.00000000000E+00 -0.24165041948E+04  0.32568951178E+04  0.21835460346E+04 0.  0.
        5    1    3    3  502    0  0.50030077677E+03 -0.96917627180E+03 -0.12804461553E+04  0.16820130676E+04  0.46999998093E+01 0. -1.
       -5    1    3    3    0  502 -0.50030077677E+03  0.96917627180E+03 -0.11360580395E+04  0.15748820502E+04  0.46999998093E+01 0.  1.
</event>
<event>
 5   0  0.2229552E-05  0.2205812E+04  0.7818609E-02  0.8516013E-01
       -2   -1    0    0    0  501  0.00000000000E+00  0.00000000000E+00  0.14158333626E+04  0.14158333626E+04  0.25500000920E-02 0. -1.
        2   -1    0    0  501    0  0.00000000000E+00  0.00000000000E+00 -0.85914153122E+03  0.85914153123E+03  0.25500000920E-02 0.  1.
    10030    2    1    2    0    0  0.00000000000E+00  0.00000000000E+00  0.55669183134E+03  0.22749748938E+04  0.22058116357E+04 0.  0.
        1    1    3    3  502    0 -0.94312702178E+03  0.42823518505E+03  0.66907471922E+03  0.12330997254E+04  0.50400001928E-02 0. -1.
       -1    1    3    3    0  502  0.94312702178E+03 -0.42823518505E+03 -0.11238288788E+03  0.10418751684E+04  0.50400001928E-02 0.  1.
</event>
<event>
 5   0  0.1005538E-05  0.2197577E+04  0.7818609E-02  0.8519437E-01
       -1   -1    0    0    0  501  0.00000000000E+00  0.00000000000E+00  0.85401534872E+03  0.85401534873E+03  0.50400001928E-02 0. -1.
        1   -1    0    0  501    0  0.00000000000E+00  0.00000000000E+00 -0.14137174887E+04  0.14137174887E+04  0.50400001928E-02 0.  1.
    10030    2    1    2    0    0  0.00000000000E+00  0.00000000000E+00 -0.55970213996E+03  0.22677328374E+04  0.21975772424E+04 0.  0.
        3    1    3    3  502    0 -0.30468144707E+03  0.12052379128E+03  0.80243000969E+03  0.86674719446E+03  0.10100000352E+00 0. -1.
       -3    1    3    3    0  502  0.30468144707E+03 -0.12052379128E+03 -0.13621321497E+04  0.14009856430E+04  0.10100000352E+00 0.  1.
</event>
<event>
 5   0  0.8003875E-06  0.2200494E+04  0.7818609E-02  0.8518223E-01
       -3   -1    0    0    0  501  0.00000000000E+00  0.00000000000E+00  0.12379893878E+04  0.12379893919E+04  0.10100000352E+00 0.  1.
        3   -1    0    0  501    0  0.00000000000E+00  0.00000000000E+00 -0.97783009741E+03  0.97783010263E+03  0.10100000352E+00 0. -1.
    10030    2    1    2    0    0  0.00000000000E+00  0.00000000000E+00  0.26015929038E+03  0.22158194945E+04  0.22004938482E+04 0.  0.
        2    1    3    3  502    0  0.93002514642E+03  0.58209611525E+03  0.21287537161E+03  0.11176307907E+04  0.25500000920E-02 0. -1.
       -2    1    3    3    0  502 -0.93002514642E+03 -0.58209611525E+03  0.47283918773E+02  0.10981887039E+04  0.25500000920E-02 0.  1.
</event>
<event>
 5   0  0.1033733E-05  0.2207020E+04  0.7818609E-02  0.8515512E-01
        1   -1    0    0  501    0  0.00000000000E+00  0.00000000000E+00  0.17448005358E+04  0.17448005358E+04  0.50400001928E-02 0. -1.
       -1   -1    0    0    0  501  0.00000000000E+00  0.00000000000E+00 -0.69792202452E+03  0.69792202453E+03  0.50400001928E-02 0.  1.
    10030    2    1    2    0    0  0.00000000000E+00  0.00000000000E+00  0.10468785113E+04  0.24427225604E+04  0.22070203645E+04 0.  0.
        5    1    3    3  502    0  0.61105892232E+03  0.91668624505E+03  0.45338721677E+03  0.11913390520E+04  0.46999998093E+01 0. -1.
       -5    1    3    3    0  502 -0.61105892232E+03 -0.91668624505E+03  0.59349129454E+03  0.12513835084E+04  0.46999998093E+01 0.  1.
</event>
<event>
 5   0  0.8003875E-06  0.2191166E+04  0.7818609E-02  0.8522114E-01
        4   -1    0    0  501    0  0.00000000000E+00  0.00000000000E+00  0.13386147123E+04  0.13386153147E+04  0.12699999809E+01 0. -1.
       -4   -1    0    0    0  501  0.00000000000E+00  0.00000000000E+00 -0.89667342265E+03  0.89667432203E+03  0.12699999809E+01 0.  1.
    10030    2    1    2    0    0  0.00000000000E+00  0.00000000000E+00  0.44194128962E+03  0.22352896367E+04  0.21911658214E+04 0.  0.
        2    1    3    3  502    0  0.75316074966E+03 -0.78745537302E+03  0.33712675334E+03  0.11406101556E+04  0.25500000920E-02 0.  1.
       -2    1    3    3    0  502 -0.75316074966E+03  0.78745537302E+03  0.10481453628E+03  0.10946794811E+04  0.25500000920E-02 0. -1.
</event>
<event>
 5   0  0.2289708E-05  0.2171426E+04  0.7818609E-02  0.8530416E-01
        2   -1    0    0  501    0  0.00000000000E+00  0.00000000000E+00  0.94582276507E+03  0.94582276507E+03  0.25500000920E-02 0. -1.
       -2   -1    0    0    0  501  0.00000000000E+00  0.00000000000E+00 -0.12462930039E+04  0.12462930039E+04  0.25500000920E-02 0.  1.
    10030    2    1    2    0    0  0.00000000000E+00  0.00000000000E+00 -0.30047023880E+03  0.21921157689E+04  0.21714256101E+04 0.  0.
        5    1    3    3  502    0 -0.24679680146E+03 -0.16255775463E+03  0.90442807945E+03  0.95149667666E+03  0.46999998093E+01 0. -1.
       -5    1    3    3    0  502  0.24679680146E+03  0.16255775463E+03 -0.12048983183E+04  0.12406190923E+04  0.46999998093E+01 0.  1.
</event>
<event>
 5   0  0.2298329E-05  0.2207826E+04  0.7818609E-02  0.8515178E-01
       -2   -1    0    0    0  501  0.00000000000E+00  0.00000000000E+00  0.71874977636E+03  0.71874977637E+03  0.25500000920E-02 0. -1.
        2   -1    0    0  501    0  0.00000000000E+00  0.00000000000E+00 -0.16954773929E+04  0.16954773929E+04  0.25500000920E-02 0.  1.
    10030    2    1    2    0    0  0.00000000000E+00  0.00000000000E+00 -0.97672761651E+03  0.24142271692E+04  0.22078260774E+04 0.  0.
        4    1    3    3  502    0 -0.42581418406E+03 -0.27985876596E+03  0.58246216176E+03  0.77388786721E+03  0.12699999809E+01 0. -1.
       -4    1    3    3    0  502  0.42581418406E+03  0.27985876596E+03 -0.15591897783E+04  0.16403393020E+04  0.12699999809E+01 0.  1.
</event>
<event>
 5   0  0.1049198E-05  0.2202095E+04  0.7818609E-02  0.8517556E-01
        1   -1    0    0  501    0  0.00000000000E+00  0.00000000000E+00  0.19597050176E+04  0.19597050176E+04  0.50400001928E-02 0.  1.
       -1   -1    0    0    0  501  0.00000000000E+00  0.00000000000E+00 -0.61861661506E+03  0.61861661509E+03  0.50400001928E-02 0. -1.
    10030    2    1    2    0    0  0.00000000000E+00  0.00000000000E+00  0.13410884026E+04  0.25783216327E+04  0.22020954426E+04 0.  0.
        1    1    3    3  502    0  0.81543287176E+02 -0.10030142850E+04  0.14742335884E+03  0.10170647031E+04  0.50400001928E-02 0. -1.
       -1    1    3    3    0  502 -0.81543287176E+02  0.10030142850E+04  0.11936650437E+04  0.15612569296E+04  0.50400001928E-02 0.  1.
</event>
<event>
 5   0  0.2289708E-05  0.2192610E+04  0.7818609E-02  0.8521510E-01
       -2   -1    0    0    0  501  0.00000000000E+00  0.00000000000E+00  0.71684792884E+03  0.71684792885E+03  0.25500000920E-02 0.  1.
        2   -1    0    0  501    0  0.00000000000E+00  0.00000000000E+00 -0.16766236662E+04  0.16766236662E+04  0.25500000920E-02 0. -1.
    10030    2    1    2    0    0  0.00000000000E+00  0.00000000000E+00 -0.95977573737E+03  0.23934715951E+04  0.21926095891E+04 0.  0.
        5    1    3    3  502    0 -0.62398491257E+03 -0.54160412467E+03  0.30665378518E+03  0.88133468838E+03  0.46999998093E+01 0.  1.
       -5    1    3    3    0  502  0.62398491257E+03  0.54160412467E+03 -0.12664295226E+04  0.15121369067E+04  0.46999998093E+01 0. -1.
</event>
<event>
 5   0  0.1033733E-05  0.2170220E+04  0.7818609E-02  0.8530926E-01
       -1   -1    0    0    0  501  0.00000000000E+00  0.00000000000E+00  0.12855869500E+04  0.12855869500E+04  0.50400001928E-02 0.  1.
        1   -1    0    0  501    0  0.00000000000E+00  0.00000000000E+00 -0.91589566908E+03  0.91589566910E+03  0.50400001928E-02 0. -1.
    10030    2    1    2    0    0  0.00000000000E+00  0.00000000000E+00  0.36969128090E+03  0.22014826191E+04  0.21702198227E+04 0.  0.
        5    1    3    3  502    0  0.93800527764E+03 -0.47389033678E+03  0.45895192954E+03  0.11467715186E+04  0.46999998093E+01 0. -1.
       -5    1    3    3    0  502 -0.93800527764E+03  0.47389033678E+03 -0.89260648637E+02  0.10547111005E+04  0.46999998093E+01 0.  1.
</event>
<event>
 5   0  0.2319707E-05  0.2182323E+04  0.7818609E-02  0.8525822E-01
        2   -1    0    0  501    0  0.00000000000E+00  0.00000000000E+00  0.22560689427E+04  0.22560689427E+04  0.25500000920E-02 0.  1.
       -2   -1    0    0    0  501  0.00000000000E+00  0.00000000000E+00 -0.52774689592E+03  0.52774689593E+03  0.25500000920E-02 0. -1.
    10030    2    1    2    0    0  0.00000000000E+00  0.00000000000E+00  0.17283220468E+04  0.27838158387E+04  0.21823229656E+04 0.  0.
        3    1    3    3  502    0 -0.46549226728E+03 -0.32297076523E+03 -0.32541248350E+03  0.65336548785E+03  0.10100000352E+00 0. -1.
       -3    1    3    3    0  502  0.46549226728E+03  0.32297076523E+03  0.20537345303E+04  0.21304503508E+04  0.10100000352E+00 0.  1.
</event>
<event>
 5   0  0.2289708E-05  0.2203405E+04  0.7818609E-02  0.8517012E-01
       -2   -1    0    0    0  501  0.00000000000E+00  0.00000000000E+00  0.50384149167E+03  0.50384149167E+03  0.25500000920E-02 0.  1.
        2   -1    0    0  501    0  0.00000000000E+00  0.00000000000E+00 -0.24089887975E+04  0.24089887975E+04  0.25500000920E-02 0. -1.
    10030    2    1    2    0    0  0.00000000000E+00  0.00000000000E+00 -0.19051473058E+04  0.29128302892E+04  0.22034051004E+04 0.  0.
        5    1    3    3  502    0  0.34250828274E+03 -0.51332260681E+03  0.25390881690E+03  0.66731087186E+03  0.46999998093E+01 0.  1.
       -5    1    3    3    0  502 -0.34250828274E+03  0.51332260681E+03 -0.21590561227E+04  0.22455194173E+04  0.46999998093E+01 0. -1.
</event>
<event>
 5   0  0.1071208E-05  0.2205582E+04  0.7818609E-02  0.8516108E-01
       -1   -1    0    0    0  501  0.00000000000E+00  0.00000000000E+00  0.75295671343E+03  0.75295671345E+03  0.50400001928E-02 0. -1.
        1   -1    0    0  501    0  0.00000000000E+00  0.00000000000E+00 -0.16151636913E+04  0.16151636913E+04  0.50400001928E-02 0.  1.
    10030    2    1    2    0    0  0.00000000000E+00  0.00000000000E+00 -0.86220697790E+03  0.23681204048E+04  0.22055823219E+04 0.  0.
        4    1    3    3  502    0 -0.46675010608E+03 -0.32800025346E+03 -0.14444265282E+04  0.15530001404E+04  0.12699999809E+01 0.  1.
       -4    1    3    3    0  502  0.46675010608E+03  0.32800025346E+03  0.58221955029E+03  0.81512026440E+03  0.12699999809E+01 0. -1.
</event>
<event>
 5   0  0.2319707E-05  0.2243184E+04  0.7818609E-02  0.8500666E-01
        2   -1    0    0  501    0  0.00000000000E+00  0.00000000000E+00  0.11054620575E+04  0.11054620575E+04  0.25500000920E-02 0. -1.
       -2   -1    0    0    0  501  0.00000000000E+00  0.00000000000E+00 -0.11379569721E+04  0.11379569721E+04  0.25500000920E-02 0.  1.
    10030    2    1    2    0    0  0.00000000000E+00  0.00000000000E+00 -0.32494914674E+02  0.22434190296E+04  0.22431836801E+04 0.  0.
        3    1    3    3  502    0  0.40470530715E+03 -0.10441332732E+04 -0.79242697247E+02  0.11226219725E+04  0.10100000352E+00 0. -1.
       -3    1    3    3    0  502 -0.40470530715E+03  0.10441332732E+04  0.46747782573E+02  0.11207970571E+04  0.10100000352E+00 0.  1.
</event>
<event>
 5   0  0.2284329E-05  0.2185981E+04  0.7818609E-02  0.8524286E-01
        2   -1    0    0  501    0  0.00000000000E+00  0.00000000000E+00  0.20397386657E+04  0.20397386657E+04  0.25500000920E-02 0.  1.
       -2   -1    0    0    0  501  0.00000000000E+00  0.00000000000E+00 -0.58567733716E+03  0.58567733716E+03  0.25500000920E-02 0. -1.
    10030    2    1    2    0    0  0.00000000000E+00  0.00000000000E+00  0.14540613286E+04  0.26254160029E+04  0.21859814366E+04 0.  0.
        2    1    3    3  502    0 -0.38805167436E+03  0.57887373887E+03  0.17382826828E+04  0.18727801774E+04  0.25500000920E-02 0.  1.
       -2    1    3    3    0  502  0.38805167436E+03 -0.57887373887E+03 -0.28422135427E+03  0.75263582545E+03  0.25500000920E-02 0. -1.
</event>
<event>
 5   0  0.2298329E-05  0.2205431E+04  0.7818609E-02  0.8516171E-01
        2   -1    0    0  501    0  0.00000000000E+00  0.00000000000E+00  0.14298516997E+04  0.14298516997E+04  0.25500000920E-02 0.  1.
       -2   -1    0    0    0  501  0.00000000000E+00  0.00000000000E+00 -0.85042501025E+03  0.85042501025E+03  0.25500000920E-02 0. -1.
    10030    2    1    2    0    0  0.00000000000E+00  0.00000000000E+00  0.57942668941E+03  0.22802767099E+04  0.22054311563E+04 0.  0.
        4    1    3    3  502    0 -0.59707833838E+03 -0.87119017557E+03 -0.38071028827E+02  0.10568471414E+04  0.12699999809E+01 0.  1.
       -4    1    3    3    0  502  0.59707833838E+03  0.87119017557E+03  0.61749771823E+03  0.12234295685E+04  0.12699999809E+01 0. -1.
</event>
<event>
 5   0  0.2289708E-05  0.2213598E+04  0.7818609E-02  0.8512790E-01
        2   -1    0    0  501    0  0.00000000000E+00  0.00000000000E+00  0.15642618175E+04  0.15642618175E+04  0.25500000920E-02 0.  1.
       -2   -1    0    0    0  501  0.00000000000E+00  0.00000000000E+00 -0.78311943830E+03  0.78311943830E+03  0.25500000920E-02 0. -1.
    10030    2    1    2    0    0  0.00000000000E+00  0.00000000000E+00  0.78114237924E+03  0.23473812558E+04  0.22135978279E+04 0.  0.
        5    1    3    3  502    0 -0.10980287009E+04 -0.47283319948E+02  0.25198619756E+03  0.11275734451E+04  0.46999998093E+01 0.  1.
       -5    1    3    3    0  502  0.10980287009E+04  0.47283319948E+02  0.52915618168E+03  0.12198078107E+04  0.46999998093E+01 0. -1.
</event>
<event>
 5   0  0.2229552E-05  0.2200196E+04  0.7818609E-02  0.8518347E-01
        2   -1    0    0  501    0  0.00000000000E+00  0.00000000000E+00  0.12645120676E+04  0.12645120676E+04  0.25500000920E-02 0.  1.
       -2   -1    0    0    0  501  0.00000000000E+00  0.00000000000E+00 -0.95706134188E+03  0.95706134188E+03  0.25500000920E-02 0. -1.
    10030    2    1    2    0    0  0.00000000000E+00  0.00000000000E+00  0.30745072576E+03  0.22215734095E+04  0.22001960061E+04 0.  0.
        1    1    3    3  502    0 -0.85023933463E+03 -0.17611813076E+03 -0.52833104394E+03  0.10163947138E+04  0.50400001928E-02 0. -1.
       -1    1    3    3    0  502  0.85023933463E+03  0.17611813076E+03  0.83578176970E+03  0.12051786958E+04  0.50400001928E-02 0.  1.
</event>
<event>
 5   0  0.2229552E-05  0.2202576E+04  0.7818609E-02  0.8517357E-01
       -2   -1    0    0    0  501  0.00000000000E+00  0.00000000000E+00  0.86158755861E+03  0.86158755861E+03  0.25500000920E-02 0. -1.
        2   -1    0    0  501    0  0.00000000000E+00  0.00000000000E+00 -0.14076750903E+04  0.14076750903E+04  0.25500000920E-02 0.  1.
    10030    2    1    2    0    0  0.00000000000E+00  0.00000000000E+00 -0.54608753165E+03  0.22692626489E+04  0.22025760775E+04 0.  0.
        1    1    3    3  502    0 -0.12562784313E+03 -0.30613558628E+03 -0.13552433086E+04  0.13950576252E+04  0.50400001928E-02 0.  1.
       -1    1    3    3    0  502  0.12562784313E+03  0.30613558628E+03  0.80915577690E+03  0.87420502370E+03  0.50400001928E-02 0. -1.
</event>
<event>
 5   0  0.1049198E-05  0.2200529E+04  0.7818609E-02  0.8518208E-01
       -1   -1    0    0    0  501  0.00000000000E+00  0.00000000000E+00  0.81290605098E+03  0.81290605100E+03  0.50400001928E-02 0.  1.
        1   -1    0    0  501    0  0.00000000000E+00  0.00000000000E+00 -0.14892034020E+04  0.14892034020E+04  0.50400001928E-02 0. -1.
    10030    2    1    2    0    0  0.00000000000E+00  0.00000000000E+00 -0.67629735103E+03  0.23021094530E+04  0.22005294424E+04 0.  0.
        1    1    3    3  502    0 -0.48230993335E+03  0.85950318177E+03  0.17352368613E+03  0.10007392572E+04  0.50400001928E-02 0.  1.
       -1    1    3    3    0  502  0.48230993335E+03 -0.85950318177E+03 -0.84982103716E+03  0.13013701958E+04  0.50400001928E-02 0. -1.
</event>
<event>
 5   0  0.1007682E-05  0.2198301E+04  0.7818609E-02  0.8519136E-01
        1   -1    0    0  501    0  0.00000000000E+00  0.00000000000E+00  0.11067335650E+04  0.11067335650E+04  0.50400001928E-02 0.  1.
       -1   -1    0    0    0  501  0.00000000000E+00  0.00000000000E+00 -0.10916194382E+04  0.10916194382E+04  0.50400001928E-02 0. -1.
    10030    2    1    2    0    0  0.00000000000E+00  0.00000000000E+00  0.15114126809E+02  0.21983530032E+04  0.21983010462E+04 0.  0.
        2    1    3    3  502    0 -0.42855519200E+02  0.50233859996E+03  0.98428440602E+03  0.11058917020E+04  0.25500000920E-02 0.  1.
       -2    1    3    3    0  502  0.42855519200E+02 -0.50233859996E+03 -0.96917027921E+03  0.10924613012E+04  0.25500000920E-02 0. -1.
</event>
<event>
 5   0  0.2229552E-05  0.2204295E+04  0.7818609E-02  0.8516643E-01
        2   -1    0    0  501    0  0.00000000000E+00  0.00000000000E+00  0.64841439325E+03  0.64841439326E+03  0.25500000920E-02 0. -1.
       -2   -1    0    0    0  501  0.00000000000E+00  0.00000000000E+00 -0.18733840262E+04  0.18733840262E+04  0.25500000920E-02 0.  1.
    10030    2    1    2    0    0  0.00000000000E+00  0.00000000000E+00 -0.12249696329E+04  0.25217984194E+04  0.22042950498E+04 0.  0.
        1    1    3    3  502    0 -0.40482301489E+02  0.10496185509E+04 -0.23065821955E+03  0.10754260241E+04  0.50400001928E-02 0.  1.
       -1    1    3    3    0  502  0.40482301489E+02 -0.10496185509E+04 -0.99431141337E+03  0.14463723953E+04  0.50400001928E-02 0. -1.
</event>
<event>
 5   0  0.1033733E-05  0.2200778E+04  0.7818609E-02  0.8518104E-01
        1   -1    0    0  501    0  0.00000000000E+00  0.00000000000E+00  0.21462521157E+04  0.21462521157E+04  0.50400001928E-02 0.  1.
       -1   -1    0    0    0  501  0.00000000000E+00  0.00000000000E+00 -0.56417237675E+03  0.56417237677E+03  0.50400001928E-02 0. -1.
    10030    2    1    2    0    0  0.00000000000E+00  0.00000000000E+00  0.15820797390E+04  0.27104244925E+04  0.22007781872E+04 0.  0.
        5    1    3    3  502    0 -0.49191064427E+03  0.11071949619E+03  0.19955932256E+04  0.20583122457E+04  0.46999998093E+01 0.  1.
       -5    1    3    3    0  502  0.49191064427E+03 -0.11071949619E+03 -0.41351348663E+03  0.65211224678E+03  0.46999998093E+01 0. -1.
</event>
<event>
 5   0  0.2289708E-05  0.2186128E+04  0.7818609E-02  0.8524224E-01
       -2   -1    0    0    0  501  0.00000000000E+00  0.00000000000E+00  0.61796989614E+03  0.61796989615E+03  0.25500000920E-02 0.  1.
        2   -1    0    0  501    0  0.00000000000E+00  0.00000000000E+00 -0.19334090180E+04  0.19334090180E+04  0.25500000920E-02 0. -1.
    10030    2    1    2    0    0  0.00000000000E+00  0.00000000000E+00 -0.13154391219E+04  0.25513789142E+04  0.21861276907E+04 0.  0.
        5    1    3    3  502    0 -0.36889219688E+02  0.78635743512E+03  0.22729690942E+03  0.81939294928E+03  0.46999998093E+01 0.  1.
       -5    1    3    3    0  502  0.36889219688E+02 -0.78635743512E+03 -0.15427360313E+04  0.17319859649E+04  0.46999998093E+01 0. -1.
</event>
<event>
 5   0  0.1005538E-05  0.2202047E+04  0.7818609E-02  0.8517577E-01
       -1   -1    0    0    0  501  0.00000000000E+00  0.00000000000E+00  0.14082587428E+04  0.14082587428E+04  0.50400001928E-02 0.  1.
        1   -1    0    0  501    0  0.00000000000E+00  0.00000000000E+00 -0.86081681180E+03  0.86081681182E+03  0.50400001928E-02 0. -1.
    10030    2    1    2    0    0  0.00000000000E+00  0.00000000000E+00  0.54744193098E+03  0.22690755546E+04  0.22020470487E+04 0.  0.
        3    1    3    3  502    0  0.31450417142E+03  0.62319688870E+03 -0.60364553773E+03  0.92286249319E+03  0.10100000352E+00 0. -1.
       -3    1    3    3    0  502 -0.31450417142E+03 -0.62319688870E+03  0.11510874687E+04  0.13462130614E+04  0.10100000352E+00 0.  1.
</event>
<event>
 5   0  0.2284329E-05  0.2217281E+04  0.7818609E-02  0.8511270E-01
        2   -1    0    0  501    0  0.00000000000E+00  0.00000000000E+00  0.93409795363E+03  0.93409795364E+03  0.25500000920E-02 0. -1.
       -2   -1    0    0    0  501  0.00000000000E+00  0.00000000000E+00 -0.13157971898E+04  0.13157971898E+04  0.25500000920E-02 0.  1.
    10030    2    1    2    0    0  0.00000000000E+00  0.00000000000E+00 -0.38169923615E+03  0.22498951434E+04  0.22172807331E+04 0.  0.
        2    1    3    3  502    0  0.58143865856E+03  0.65833615092E+03  0.49556650985E+03  0.10084956951E+04  0.25500000920E-02 0. -1.
       -2    1    3    3    0  502 -0.58143865856E+03 -0.65833615092E+03 -0.87726574600E+03  0.12413994484E+04  0.25500000920E-02 0.  1.
</event>
<event>
 5   0  0.1071208E-05  0.2188819E+04  0.7818609E-02  0.8523096E-01
       -1   -1    0    0    0  501  0.00000000000E+00  0.00000000000E+00  0.68599707807E+03  0.68599707808E+03  0.50400001928E-02 0. -1.
        1   -1    0    0  501    0  0.00000000000E+00  0.00000000000E+00 -0.17459731399E+04  0.17459731400E+04  0.50400001928E-02 0.  1.
    10030    2    1    2    0    0  0.00000000000E+00  0.00000000000E+00 -0.10599760619E+04  0.24319702180E+04  0.21888192912E+04 0.  0.
        4    1    3    3  502    0  0.55792066180E+03  0.17001613794E+03  0.49892352933E+03  0.76753322602E+03  0.12699999809E+01 0. -1.
       -4    1    3    3    0  502 -0.55792066180E+03 -0.17001613794E+03 -0.15588995912E+04  0.16644369920E+04  0.12699999809E+01 0.  1.
</event>
<event>
 5   0  0.1033733E-05  0.2147676E+04  0.7818609E-02  0.8540528E-01
       -1   -1    0    0    0  501  0.00000000000E+00  0.00000000000E+00  0.98378034445E+03  0.98378034446E+03  0.50400001928E-02 0. -1.
        1   -1    0    0  501    0  0.00000000000E+00  0.00000000000E+00 -0.11721398067E+04  0.11721398067E+04  0.50400001928E-02 0.  1.
    10030    2    1    2    0    0  0.00000000000E+00  0.00000000000E+00 -0.18835946221E+03  0.21559201511E+04  0.21476760489E+04 0.  0.
        5    1    3    3  502    0  0.39788005605E+03  0.25620792176E+03  0.87344726455E+03  0.99341997772E+03  0.46999998093E+01 0. -1.
       -5    1    3    3    0  502 -0.39788005605E+03 -0.25620792176E+03 -0.10618067268E+04  0.11625001734E+04  0.46999998093E+01 0.  1.
</event>
<event>
 5   0  0.1049198E-05  0.2194423E+04  0.7818609E-02  0.8520753E-01
       -1   -1    0    0    0  501  0.00000000000E+00  0.00000000000E+00  0.51220040745E+03  0.51220040748E+03  0.50400001928E-02 0. -1.
        1   -1    0    0  501    0  0.00000000000E+00  0.00000000000E+00 -0.23503951958E+04  0.23503951958E+04  0.50400001928E-02 0.  1.
    10030    2    1    2    0    0  0.00000000000E+00  0.00000000000E+00 -0.18381947884E+04  0.28625956033E+04  0.21944232746E+04 0.  0.
        1    1    3    3  502    0  0.33590525357E+03 -0.37265037631E+03  0.35381193579E+03  0.61390840382E+03  0.50400001928E-02 0. -1.
       -1    1    3    3    0  502 -0.33590525357E+03  0.37265037631E+03 -0.21920067242E+04  0.22486871995E+04  0.50400001928E-02 0.  1.
</event>
<event>
 5   0  0.1007682E-05  0.2205161E+04  0.7818609E-02  0.8516283E-01
       -1   -1    0    0    0  501  0.00000000000E+00  0.00000000000E+00  0.86136946428E+03  0.86136946430E+03  0.50400001928E-02 0. -1.
        1   -1    0    0  501    0  0.00000000000E+00  0.00000000000E+00 -0.14113386294E+04  0.14113386294E+04  0.50400001928E-02 0.  1.
    10030    2    1    2    0    0  0.00000000000E+00  0.00000000000E+00 -0.54996916513E+03  0.22727080937E+04  0.22051612178E+04 0.  0.
        2    1    3    3  502    0  0.36056254128E+03 -0.38450881494E+03 -0.12730654932E+04  0.13778781241E+04  0.25500000920E-02 0.  1.
       -2    1    3    3    0  502 -0.36056254128E+03  0.38450881494E+03  0.72309632803E+03  0.89482996963E+03  0.25500000920E-02 0. -1.
</event>
<event>
 5   0  0.2319707E-05  0.2199563E+04  0.7818609E-02  0.8518610E-01
       -2   -1    0    0    0  501  0.00000000000E+00  0.00000000000E+00  0.62097523000E+03  0.62097523000E+03  0.25500000920E-02 0.  1.
        2   -1    0    0  501    0  0.00000000000E+00  0.00000000000E+00 -0.19477743490E+04  0.19477743490E+04  0.25500000920E-02 0. -1.
    10030    2    1    2    0    0  0.00000000000E+00  0.00000000000E+00 -0.13267991190E+04  0.25687495790E+04  0.21995632515E+04 0.  0.
        3    1    3    3  502    0  0.10234006561E+04  0.14037826196E+03 -0.22260230792E+03  0.10566961517E+04  0.10100000352E+00 0.  1.
       -3    1    3    3    0  502 -0.10234006561E+04 -0.14037826196E+03 -0.11041968111E+04  0.15120534273E+04  0.10100000352E+00 0. -1.
</event>
<event>
 5   0  0.2229552E-05  0.2204758E+04  0.7818609E-02  0.8516450E-01
        2   -1    0    0  501    0  0.00000000000E+00  0.00000000000E+00  0.13843021553E+04  0.13843021553E+04  0.25500000920E-02 0. -1.
       -2   -1    0    0    0  501  0.00000000000E+00  0.00000000000E+00 -0.87787170594E+03  0.87787170594E+03  0.25500000920E-02 0.  1.
    10030    2    1    2    0    0  0.00000000000E+00  0.00000000000E+00  0.50643044937E+03  0.22621738613E+04  0.22047582132E+04 0.  0.
        1    1    3    3  502    0 -0.93538355317E+03 -0.54231947948E+03  0.32707225627E+02  0.10817220401E+04  0.50400001928E-02 0.  1.
       -1    1    3    3    0  502  0.93538355317E+03  0.54231947948E+03  0.47372322374E+03  0.11804518212E+04  0.50400001928E-02 0. -1.
</event>
<event>
 5   0  0.1007682E-05  0.2198025E+04  0.7818609E-02  0.8519251E-01
       -1   -1    0    0    0  501  0.00000000000E+00  0.00000000000E+00  0.94972962236E+03  0.94972962238E+03  0.50400001928E-02 0.  1.
        1   -1    0    0  501    0  0.00000000000E+00  0.00000000000E+00 -0.12717599655E+04  0.12717599655E+04  0.50400001928E-02 0. -1.
    10030    2    1    2    0    0  0.00000000000E+00  0.00000000000E+00 -0.32203034315E+03  0.22214895879E+04  0.21980246694E+04 0.  0.
        2    1    3    3  502    0 -0.49582365449E+03 -0.73263456763E+03  0.49804567089E+03  0.10152063812E+04  0.25500000920E-02 0.  1.
       -2    1    3    3    0  502  0.49582365449E+03  0.73263456763E+03 -0.82007601404E+03  0.12062832067E+04  0.25500000920E-02 0. -1.
</event>
<event>
 5   0  0.1071208E-05  0.2198800E+04  0.7818609E-02  0.8518928E-01
        1   -1    0    0  501    0  0.00000000000E+00  0.00000000000E+00  0.12711804695E+04  0.12711804695E+04  0.50400001928E-02 0.  1.
       -1   -1    0    0    0  501  0.00000000000E+00  0.00000000000E+00 -0.95083264944E+03  0.95083264945E+03  0.50400001928E-02 0. -1.
    10030    2    1    2    0    0  0.00000000000E+00  0.00000000000E+00  0.32034782008E+03  0.22220131190E+04  0.21987995759E+04 0.  0.
        4    1    3    3  502    0 -0.42127457884E+03 -0.21851892282E+02  0.11861402616E+04  0.12589202155E+04  0.12699999809E+01 0.  1.
       -4    1    3    3    0  502  0.42127457884E+03  0.21851892282E+02 -0.86579244153E+03  0.96309290345E+03  0.12699999809E+01 0. -1.
</event>
<event>
 5   0  0.1005538E-05  0.2100237E+04  0.7818609E-02  0.8561139E-01
       -1   -1    0    0    0  501  0.00000000000E+00  0.00000000000E+00  0.51083615930E+03  0.51083615933E+03  0.50400001928E-02 0.  1.
        1   -1    0    0  501    0  0.00000000000E+00  0.00000000000E+00 -0.21587141491E+04  0.21587141491E+04  0.50400001928E-02 0. -1.
    10030    2    1    2    0    0  0.00000000000E+00  0.00000000000E+00 -0.16478779898E+04  0.26695503084E+04  0.21002373628E+04 0.  0.
        3    1    3    3  502    0 -0.50640437083E+03  0.71442324322E+03 -0.87262437035E+02  0.88003448817E+03  0.10100000352E+00 0.  1.
       -3    1    3    3    0  502  0.50640437083E+03 -0.71442324322E+03 -0.15606155528E+04  0.17895158203E+04  0.10100000352E+00 0. -1.
</event>
<event>
 5   0  0.1071208E-05  0.2206446E+04  0.7818609E-02  0.8515750E-01
        1   -1    0    0  501    0  0.00000000000E+00  0.00000000000E+00  0.20575831887E+04  0.20575831887E+04  0.50400001928E-02 0.  1.
       -1   -1    0    0    0  501  0.00000000000E+00  0.00000000000E+00 -0.59151965667E+03  0.59151965670E+03  0.50400001928E-02 0. -1.
    10030    2    1    2    0    0  0.00000000000E+00  0.00000000000E+00  0.14660635321E+04  0.26491028454E+04  0.22064459218E+04 0.  0.
        4    1    3    3  502    0  0.91254505634E+03  0.19460226727E+01  0.14773744792E+04  0.17364847340E+04  0.12699999809E+01 0.  1.
       -4    1    3    3    0  502 -0.91254505634E+03 -0.19460226727E+01 -0.11310947125E+02  0.91261811141E+03  0.12699999809E+01 0. -1.
</event>
<event>
 5   0  0.2284329E-05  0.2199677E+04  0.7818609E-02  0.8518563E-01
       -2   -1    0    0    0  501  0.00000000000E+00  0.00000000000E+00  0.12194154529E+04  0.12194154529E+04  0.25500000920E-02 0. -1.
        2   -1    0    0  501    0  0.00000000000E+00  0.00000000000E+00 -0.99198716175E+03  0.99198716175E+03  0.25500000920E-02 0.  1.
    10030    2    1    2    0    0  0.00000000000E+00  0.00000000000E+00  0.22742829110E+03  0.22114026146E+04  0.21996767709E+04 0.  0.
        2    1    3    3  502    0 -0.76143492390E+03 -0.46465099255E+03  0.76054175842E+03  0.11722232955E+04  0.25500000920E-02 0. -1.
       -2    1    3    3    0  502  0.76143492390E+03  0.46465099255E+03 -0.53311346732E+03  0.10391793191E+04  0.25500000920E-02 0.  1.
</event>
<event>
 5   0  0.2229552E-05  0.2194378E+04  0.7818609E-02  0.8520772E-01
       -2   -1    0    0    0  501  0.00000000000E+00  0.00000000000E+00  0.93757401237E+03  0.93757401237E+03  0.25500000920E-02 0.  1.
        2   -1    0    0  501    0  0.00000000000E+00  0.00000000000E+00 -0.12839770085E+04  0.12839770085E+04  0.25500000920E-02 0. -1.
    10030    2    1    2    0    0  0.00000000000E+00  0.00000000000E+00 -0.34640299610E+03  0.22215510208E+04  0.21943777939E+04 0.  0.
        1    1    3    3  502    0  0.97108085285E+03 -0.47259843677E+03  0.22783349057E+02  0.10802158980E+04  0.50400001928E-02 0.  1.
       -1    1    3    3    0  502 -0.97108085285E+03  0.47259843677E+03 -0.36918634516E+03  0.11413351229E+04  0.50400001928E-02 0. -1.
</event>
<event>
 5   0  0.1049198E-05  0.2191042E+04  0.7818609E-02  0.8522166E-01
        1   -1    0    0  501    0  0.00000000000E+00  0.00000000000E+00  0.17400418294E+04  0.17400418294E+04  0.50400001928E-02 0. -1.
       -1   -1    0    0    0  501  0.00000000000E+00  0.00000000000E+00 -0.68973390797E+03  0.68973390799E+03  0.50400001928E-02 0.  1.
    10030    2    1    2    0    0  0.00000000000E+00  0.00000000000E+00  0.10503079215E+04  0.24297757374E+04  0.21910416254E+04 0.  0.
        1    1    3    3  502    0  0.42967526330E+03 -0.28581732969E+03  0.15968088061E+04  0.16781271528E+04  0.50400001928E-02 0. -1.
       -1    1    3    3    0  502 -0.42967526330E+03  0.28581732969E+03 -0.54650088461E+03  0.75164858461E+03  0.50400001928E-02 0.  1.
</event>
<event>
 5   0  0.2284329E-05  0.2200606E+04  0.7818609E-02  0.8518176E-01
        2   -1    0    0  501    0  0.00000000000E+00  0.00000000000E+00  0.12527558931E+04  0.12527558931E+04  0.25500000920E-02 0. -1.
       -2   -1    0    0    0  501  0.00000000000E+00  0.00000000000E+00 -0.96640252632E+03  0.96640252633E+03  0.25500000920E-02 0.  1.
    10030    2    1    2    0    0  0.00000000000E+00  0.00000000000E+00  0.28635336675E+03  0.22191584194E+04  0.22006057893E+04 0.  0.
        2    1    3    3  502    0  0.38490356832E+03 -0.71276367067E+02 -0.89380951033E+03  0.97576970550E+03  0.25500000920E-02 0.  1.
       -2    1    3    3    0  502 -0.38490356832E+03  0.71276367067E+02  0.11801628771E+04  0.12433887139E+04  0.25500000920E-02 0. -1.
</event>
<event>
 5   0  0.1005538E-05  0.2198750E+04  0.7818609E-02  0.8518949E-01
        1   -1    0    0  501    0  0.00000000000E+00  0.00000000000E+00  0.11412756749E+04  0.11412756749E+04  0.50400001928E-02 0.  1.
       -1   -1    0    0    0  501  0.00000000000E+00  0.00000000000E+00 -0.10590127359E+04  0.10590127359E+04  0.50400001928E-02 0. -1.
    10030    2    1    2    0    0  0.00000000000E+00  0.00000000000E+00  0.82262938975E+02  0.22002884109E+04  0.21987500767E+04 0.  0.
        3    1    3    3  502    0 -0.76603482332E+03  0.11077001724E+03 -0.74014910874E+03  0.10709342000E+04  0.10100000352E+00 0. -1.
       -3    1    3    3    0  502  0.76603482332E+03 -0.11077001724E+03  0.82241204772E+03  0.11293542109E+04  0.10100000352E+00 0.  1.
</event>
<event>
 5   0  0.2229552E-05  0.2216818E+04  0.7818609E-02  0.8511460E-01
        2   -1    0    0  501    0  0.00000000000E+00  0.00000000000E+00  0.14045605022E+04  0.14045605022E+04  0.25500000920E-02 0. -1.
       -2   -1    0    0    0  501  0.00000000000E+00  0.00000000000E+00 -0.87470113003E+03  0.87470113004E+03  0.25500000920E-02 0.  1.
    10030    2    1    2    0    0  0.00000000000E+00  0.00000000000E+00  0.52985937218E+03  0.22792616323E+04  0.22168181328E+04 0.  0.
        1    1    3    3  502    0 -0.78965257474E+03  0.50818218429E+03  0.87038916831E+03  0.12803818280E+04  0.50400001928E-02 0. -1.
       -1    1    3    3    0  502  0.78965257474E+03 -0.50818218429E+03 -0.34052979613E+03  0.99887980423E+03  0.50400001928E-02 0.  1.
</event>
<event>
 5   0  0.1005538E-05  0.2200805E+04  0.7818609E-02  0.8518093E-01
       -1   -1    0    0    0  501  0.00000000000E+00  0.00000000000E+00  0.10885163896E+04  0.10885163896E+04  0.50400001928E-02 0. -1.
        1   -1    0    0  501    0  0.00000000000E+00  0.00000000000E+00 -0.11124188171E+04  0.11124188171E+04  0.50400001928E-02 0.  1.
    10030    2    1    2    0    0  0.00000000000E+00  0.00000000000E+00 -0.23902427452E+02  0.22009352067E+04  0.22008054113E+04 0.  0.
        3    1    3    3  502    0 -0.89248967263E+03 -0.27514678208E+03 -0.59391554415E+03  0.11067878077E+04  0.10100000352E+00 0.  1.
       -3    1    3    3    0  502  0.89248967263E+03  0.27514678208E+03  0.57001311670E+03  0.10941473991E+04  0.10100000352E+00 0. -1.
</event>
<event>
 5   0  0.2289708E-05  0.2207956E+04  0.7818609E-02  0.8515124E-01
       -2   -1    0    0    0  501  0.00000000000E+00  0.00000000000E+00  0.86220817756E+03  0.86220817756E+03  0.25500000920E-02 0. -1.
        2   -1    0    0  501    0  0.00000000000E+00  0.00000000000E+00 -0.14135422675E+04  0.14135422675E+04  0.25500000920E-02 0.  1.
    10030    2    1    2    0    0  0.00000000000E+00  0.00000000000E+00 -0.55133408996E+03  0.22757504451E+04  0.22079562517E+04 0.  0.
        5    1    3    3  502    0  0.92006811889E+03 -0.58301397587E+02 -0.90162061397E+03  0.12895217012E+04  0.46999998093E+01 0.  1.
       -5    1    3    3    0  502 -0.92006811889E+03  0.58301397587E+02  0.35028652401E+03  0.98622874388E+03  0.46999998093E+01 0. -1.
</event>
<event>
 5   0  0.2229552E-05  0.2198678E+04  0.7818609E-02  0.8518979E-01
       -2   -1    0    0    0  501  0.00000000000E+00  0.00000000000E+00  0.56888104921E+03  0.56888104922E+03  0.25500000920E-02 0.  1.
        2   -1    0    0  501    0  0.00000000000E+00  0.00000000000E+00 -0.21244271671E+04  0.21244271671E+04  0.25500000920E-02 0. -1.
    10030    2    1    2    0    0  0.00000000000E+00  0.00000000000E+00 -0.15555461179E+04  0.26933082163E+04  0.21986781081E+04 0.  0.
        1    1    3    3  502    0  0.87250205390E+03 -0.53001359726E+03 -0.27812447149E+03  0.10580772510E+04  0.50400001928E-02 0.  1.
       -1    1    3    3    0  502 -0.87250205390E+03  0.53001359726E+03 -0.12774216464E+04  0.16352309653E+04  0.50400001928E-02 0. -1.
</event>
<event>
 5   0  0.1007682E-05  0.2181243E+04  0.7818609E-02  0.8526276E-01
       -1   -1    0    0    0  501  0.00000000000E+00  0.00000000000E+00  0.74146457787E+03  0.74146457789E+03  0.50400001928E-02 0.  1.
        1   -1    0    0  501    0  0.00000000000E+00  0.00000000000E+00 -0.16041977155E+04  0.16041977155E+04  0.50400001928E-02 0. -1.
    10030    2    1    2    0    0  0.00000000000E+00  0.00000000000E+00 -0.86273313762E+03  0.23456622934E+04  0.21812434820E+04 0.  0.
        2    1    3    3  502    0  0.10289391203E+04 -0.36096430851E+03 -0.40868559766E+03  0.11644890996E+04  0.25500000920E-02 0. -1.
       -2    1    3    3    0  502 -0.10289391203E+04  0.36096430851E+03 -0.45404753996E+03  0.11811731938E+04  0.25500000920E-02 0.  1.
</event>
<event>
 5   0  0.2284329E-05  0.2200961E+04  0.7818609E-02  0.8518028E-01
        2   -1    0    0  501    0  0.00000000000E+00  0.00000000000E+00  0.11485564726E+04  0.11485564726E+04  0.25500000920E-02 0. -1.
       -2   -1    0    0    0  501  0.00000000000E+00  0.00000000000E+00 -0.10544168578E+04  0.10544168578E+04  0.25500000920E-02 0.  1.
    10030    2    1    2    0    0  0.00000000000E+00  0.00000000000E+00  0.94139614811E+02  0.22029733304E+04  0.22009609782E+04 0.  0.
        2    1    3    3  502    0  0.49932200979E+03  0.25061612618E+03  0.99605396644E+03  0.11420395861E+04  0.25500000920E-02 0. -1.
       -2    1    3    3    0  502 -0.49932200979E+03 -0.25061612618E+03 -0.90191435163E+03  0.10609337443E+04  0.25500000920E-02 0.  1.
</event>
<event>
 5   0  0.2229552E-05  0.2200641E+04  0.7818609E-02  0.8518161E-01
       -2   -1    0    0    0  501  0.00000000000E+00  0.00000000000E+00  0.67262668830E+03  0.67262668831E+03  0.25500000920E-02 0. -1.
        2   -1    0    0  501    0  0.00000000000E+00  0.00000000000E+00 -0.17999667332E+04  0.17999667332E+04  0.25500000920E-02 0.  1.
    10030    2    1    2    0    0  0.00000000000E+00  0.00000000000E+00 -0.11273400449E+04  0.24725934215E+04  0.22006414181E+04 0.  0.
        1    1    3    3  502    0 -0.10184032696E+04  0.40975582277E+03 -0.47913532433E+03  0.11977544460E+04  0.50400001928E-02 0. -1.
       -1    1    3    3    0  502  0.10184032696E+04 -0.40975582277E+03 -0.64820472057E+03  0.12748389755E+04  0.50400001928E-02 0.  1.
</event>
<event>
 5   0  0.1007682E-05  0.2200966E+04  0.7818609E-02  0.8518026E-01
       -1   -1    0    0    0  501  0.00000000000E+00  0.00000000000E+00  0.79881725094E+03  0.79881725095E+03  0.50400001928E-02 0.  1.
        1   -1    0    0  501    0  0.00000000000E+00  0.00000000000E+00 -0.15160700849E+04  0.15160700849E+04  0.50400001928E-02 0. -1.
    10030    2    1    2    0    0  0.00000000000E+00  0.00000000000E+00 -0.71725283400E+03  0.23148873359E+04  0.22009660947E+04 0.  0.
        2    1    3    3  502    0 -0.27659667363E+03 -0.38382586929E+03 -0.14036516112E+04  0.14812379497E+04  0.25500000920E-02 0. -1.
       -2    1    3    3    0  502  0.27659667363E+03  0.38382586929E+03  0.68639877722E+03  0.83364938624E+03  0.25500000920E-02 0.  1.
</event>
<event>
 5   0  0.1071208E-05  0.2197281E+04  0.7818609E-02  0.8519561E-01
        1   -1    0    0  501    0  0.00000000000E+00  0.00000000000E+00  0.16229125021E+04  0.16229125021E+04  0.50400001928E-02 0. -1.
       -1   -1    0    0    0  501  0.00000000000E+00  0.00000000000E+00 -0.74373105063E+03  0.74373105065E+03  0.50400001928E-02 0.  1.
    10030    2    1    2    0    0  0.00000000000E+00  0.00000000000E+00  0.87918145146E+03  0.23666435528E+04  0.21972805195E+04 0.  0.
        4    1    3    3  502    0  0.37978550101E+03  0.13433709644E+03 -0.66131063459E+03  0.77434930786E+03  0.12699999809E+01 0.  1.
       -4    1    3    3    0  502 -0.37978550101E+03 -0.13433709644E+03  0.15404920860E+04  0.15922942449E+04  0.12699999809E+01 0. -1.
</event>
<event>
 5   0  0.2289708E-05  0.2196722E+04  0.7818609E-02  0.8519794E-01
       -2   -1    0    0    0  501  0.00000000000E+00  0.00000000000E+00  0.12743458685E+04  0.12743458685E+04  0.25500000920E-02 0.  1.
        2   -1    0    0  501    0  0.00000000000E+00  0.00000000000E+00 -0.94667948047E+03  0.94667948047E+03  0.25500000920E-02 0. -1.
    10030    2    1    2    0    0  0.00000000000E+00  0.00000000000E+00  0.32766638805E+03  0.22210253490E+04  0.21967221807E+04 0.  0.
        5    1    3    3  502    0  0.10399314444E+04  0.24365363568E+03  0.42269403401E+03  0.11487022415E+04  0.46999998093E+01 0.  1.
       -5    1    3    3    0  502 -0.10399314444E+04 -0.24365363568E+03 -0.95027645957E+02  0.10723231075E+04  0.46999998093E+01 0. -1.
</event>
<event>
 5   0  0.1005538E-05  0.2201830E+04  0.7818609E-02  0.8517667E-01
        1   -1    0    0  501    0  0.00000000000E+00  0.00000000000E+00  0.10496497730E+04  0.10496497730E+04  0.50400001928E-02 0.  1.
       -1   -1    0    0    0  501  0.00000000000E+00  0.00000000000E+00 -0.11546841991E+04  0.11546841991E+04  0.50400001928E-02 0. -1.
    10030    2    1    2    0    0  0.00000000000E+00  0.00000000000E+00 -0.10503442611E+03  0.22043339722E+04  0.22018301547E+04 0.  0.
        3    1    3    3  502    0  0.24173260089E+03  0.10719951263E+04 -0.11896886444E+03  0.11053333443E+04  0.10100000352E+00 0. -1.
       -3    1    3    3    0  502 -0.24173260089E+03 -0.10719951263E+04  0.13934438331E+02  0.10990006278E+04  0.10100000352E+00 0.  1.
</event>
<event>
 5   0  0.1005538E-05  0.2185597E+04  0.7818609E-02  0.8524447E-01
        1   -1    0    0  501    0  0.00000000000E+00  0.00000000000E+00  0.14840674722E+04  0.14840674722E+04  0.50400001928E-02 0. -1.
       -1   -1    0    0    0  501  0.00000000000E+00  0.00000000000E+00 -0.80468612541E+03  0.80468612542E+03  0.50400001928E-02 0.  1.
    10030    2    1    2    0    0  0.00000000000E+00  0.00000000000E+00  0.67938134675E+03  0.22887535976E+04  0.21855969473E+04 0.  0.
        3    1    3    3  502    0  0.46524843992E+03 -0.57113682651E+02  0.13734459739E+04  0.14512311797E+04  0.10100000352E+00 0. -1.
       -3    1    3    3    0  502 -0.46524843992E+03  0.57113682651E+02 -0.69406462714E+03  0.83752241787E+03  0.10100000352E+00 0.  1.
</event>
<event>
 5   0  0.2319707E-05  0.2195881E+04  0.7818609E-02  0.8520145E-01
        2   -1    0    0  501    0  0.00000000000E+00  0.00000000000E+00  0.16946736130E+04  0.16946736130E+04  0.25500000920E-02 0.  1.
       -2   -1    0    0    0  501  0.00000000000E+00  0.00000000000E+00 -0.71133057375E+03  0.71133057375E+03  0.25500000920E-02 0. -1.
    10030    2    1    2    0    0  0.00000000000E+00  0.00000000000E+00  0.98334303930E+03  0.24060041868E+04  0.21958808287E+04 0.  0.
        3    1    3    3  502    0  0.58265113994E+03  0.36741400229E+03 -0.44512577908E+03  0.82012948329E+03  0.10100000352E+00 0. -1.
       -3    1    3    3    0  502 -0.58265113994E+03 -0.36741400229E+03  0.14284688184E+04  0.15858747035E+04  0.10100000352E+00 0.  1.
</event>
<event>
 5   0  0.2289708E-05  0.2145175E+04  0.7818609E-02  0.8541600E-01
       -2   -1    0    0    0  501  0.00000000000E+00  0.00000000000E+00  0.19163430405E+04  0.19163430405E+04  0.25500000920E-02 0. -1.
        2   -1    0    0  501    0  0.00000000000E+00  0.00000000000E+00 -0.60033318931E+03  0.60033318931E+03  0.25500000920E-02 0.  1.
    10030    2    1    2    0    0  0.00000000000E+00  0.00000000000E+00  0.13160098511E+04  0.25166762298E+04  0.21451753581E+04 0.  0.
        5    1    3    3  502    0  0.52637930735E+03 -0.85690222349E+03  0.10955013142E+04  0.14871119041E+04  0.46999998093E+01 0. -1.
       -5    1    3    3    0  502 -0.52637930735E+03  0.85690222349E+03  0.22050853690E+03  0.10295643257E+04  0.46999998093E+01 0.  1.
</event>
<event>
 5   0  0.1033733E-05  0.2202870E+04  0.7818609E-02  0.8517235E-01
        1   -1    0    0  501    0  0.00000000000E+00  0.00000000000E+00  0.17931769568E+04  0.17931769568E+04  0.50400001928E-02 0. -1.
       -1   -1    0    0    0  501  0.00000000000E+00  0.00000000000E+00 -0.67654162332E+03  0.67654162334E+03  0.50400001928E-02 0.  1.
    10030    2    1    2    0    0  0.00000000000E+00  0.00000000000E+00  0.11166353335E+04  0.24697185801E+04  0.22028698094E+04 0.  0.
        5    1    3    3  502    0  0.19043159986E+03 -0.55999507469E+03 -0.48336154027E+03  0.76388424942E+03  0.46999998093E+01 0.  1.
       -5    1    3    3    0  502 -0.19043159986E+03  0.55999507469E+03  0.15999968737E+04  0.17058343307E+04  0.46999998093E+01 0. -1.
</event>
<event>
 5   0  0.1007682E-05  0.2190277E+04  0.7818609E-02  0.8522486E-01
       -1   -1    0    0    0  501  0.00000000000E+00  0.00000000000E+00  0.95403472771E+03  0.95403472773E+03  0.50400001928E-02 0. -1.
        1   -1    0    0  501    0  0.00000000000E+00  0.00000000000E+00 -0.12571113060E+04  0.12571113060E+04  0.50400001928E-02 0.  1.
    10030    2    1    2    0    0  0.00000000000E+00  0.00000000000E+00 -0.30307657828E+03  0.22111460337E+04  0.21902765511E+04 0.  0.
        2    1    3    3  502    0 -0.18746496466E+03  0.33888617792E+03 -0.11856721782E+04  0.12473193130E+04  0.25500000920E-02 0.  1.
       -2    1    3    3    0  502  0.18746496466E+03 -0.33888617792E+03  0.88259559990E+03  0.96382672070E+03  0.25500000920E-02 0. -1.
</event>
<event>
 5   0  0.2298329E-05  0.2200674E+04  0.7818609E-02  0.8518148E-01
       -2   -1    0    0    0  501  0.00000000000E+00  0.00000000000E+00  0.50783180487E+03  0.50783180487E+03  0.25500000920E-02 0. -1.
        2   -1    0    0  501    0  0.00000000000E+00  0.00000000000E+00 -0.23841393014E+04  0.23841393014E+04  0.25500000920E-02 0.  1.
    10030    2    1    2    0    0  0.00000000000E+00  0.00000000000E+00 -0.18763074966E+04  0.28919711063E+04  0.22006742281E+04 0.  0.
        4    1    3    3  502    0  0.58816516924E+02  0.48076522143E+03  0.36020732468E+03  0.60361039625E+03  0.12699999809E+01 0. -1.
       -4    1    3    3    0  502 -0.58816516924E+02 -0.48076522143E+03 -0.22365148212E+04  0.22883607101E+04  0.12699999809E+01 0.  1.
</event>
<event>
 5   0  0.2289708E-05  0.2211005E+04  0.7818609E-02  0.8513861E-01
       -2   -1    0    0    0  501  0.00000000000E+00  0.00000000000E+00  0.87734442506E+03  0.87734442506E+03  0.25500000920E-02 0. -1.
        2   -1    0    0  501    0  0.00000000000E+00  0.00000000000E+00 -0.13929945744E+04  0.13929945744E+04  0.25500000920E-02 0.  1.
    10030    2    1    2    0    0  0.00000000000E+00  0.00000000000E+00 -0.51565014932E+03  0.22703389994E+04  0.22110052229E+04 0.  0.
        5    1    3    3  502    0  0.52352230780E+03  0.94785083925E+03 -0.29098466540E+02  0.10832200289E+04  0.46999998093E+01 0. -1.
       -5    1    3    3    0  502 -0.52352230780E+03 -0.94785083925E+03 -0.48655168278E+03  0.11871189706E+04  0.46999998093E+01 0.  1.
</event>
<event>
 5   0  0.1049198E-05  0.2189807E+04  0.7818609E-02  0.8522683E-01
        1   -1    0    0  501    0  0.00000000000E+00  0.00000000000E+00  0.11120752703E+04  0.11120752703E+04  0.50400001928E-02 0. -1.
       -1   -1    0    0    0  501  0.00000000000E+00  0.00000000000E+00 -0.10779968724E+04  0.10779968724E+04  0.50400001928E-02 0.  1.
    10030    2    1    2    0    0  0.00000000000E+00  0.00000000000E+00  0.34078397950E+02  0.21900721427E+04  0.21898069899E+04 0.  0.
        1    1    3    3  502    0  0.29047722594E+03  0.10556663111E+04  0.14740240257E+02  0.10950002986E+04  0.50400001928E-02 0. -1.
       -1    1    3    3    0  502 -0.29047722594E+03 -0.10556663111E+04  0.19338157694E+02  0.10950718441E+04  0.50400001928E-02 0.  1.
</event>
<event>
 5   0  0.2284329E-05  0.2202539E+04  0.7818609E-02  0.8517372E-01
       -2   -1    0    0    0  501  0.00000000000E+00  0.00000000000E+00  0.15751267373E+04  0.15751267373E+04  0.25500000920E-02 0. -1.
        2   -1    0    0  501    0  0.00000000000E+00  0.00000000000E+00 -0.76996649723E+03  0.76996649724E+03  0.25500000920E-02 0.  1.
    10030    2    1    2    0    0  0.00000000000E+00  0.00000000000E+00  0.80516024004E+03  0.23450932345E+04  0.22025392769E+04 0.  0.
        2    1    3    3  502    0  0.75670593829E+03  0.75977987612E+03  0.66966525568E+03  0.12642471641E+04  0.25500000920E-02 0. -1.
       -2    1    3    3    0  502 -0.75670593829E+03 -0.75977987612E+03  0.13549498436E+03  0.10808460704E+04  0.25500000920E-02 0.  1.
</event>
<event>
 5   0  0.1007682E-05  0.2204791E+04  0.7818609E-02  0.8516437E-01
        1   -1    0    0  501    0  0.00000000000E+00  0.00000000000E+00  0.19071872342E+04  0.19071872342E+04  0.50400001928E-02 0. -1.
       -1   -1    0    0    0  501  0.00000000000E+00  0.00000000000E+00 -0.63720864908E+03  0.63720864910E+03  0.50400001928E-02 0.  1.
    10030    2    1    2    0    0  0.00000000000E+00  0.00000000000E+00  0.12699785851E+04  0.25443958833E+04  0.22047913290E+04 0.  0.
        2    1    3    3  502    0  0.24631754498E+03 -0.37541657897E+03 -0.52689983469E+03  0.69226683912E+03  0.25500000920E-02 0.  1.
       -2    1    3    3    0  502 -0.24631754498E+03  0.37541657897E+03  0.17968784198E+04  0.18521290442E+04  0.25500000920E-02 0. -1.
</event>
<event>
 5   0  0.2229552E-05  0.2195260E+04  0.7818609E-02  0.8520404E-01
       -2   -1    0    0    0  501  0.00000000000E+00  0.00000000000E+00  0.57424039225E+03  0.57424039226E+03  0.25500000920E-02 0.  1.
        2   -1    0    0  501    0  0.00000000000E+00  0.00000000000E+00 -0.20980617724E+04  0.20980617724E+04  0.25500000920E-02 0. -1.
    10030    2    1    2    0    0  0.00000000000E+00  0.00000000000E+00 -0.15238213801E+04  0.26723021647E+04  0.21952601806E+04 0.  0.
        1    1    3    3  502    0 -0.74451993043E+03 -0.22545323376E+03 -0.17045585163E+04  0.18736752181E+04  0.50400001928E-02 0. -1.
       -1    1    3    3    0  502  0.74451993043E+03  0.22545323376E+03  0.18073713612E+03  0.79862694659E+03  0.50400001928E-02 0.  1.
</event>
<event>
 5   0  0.1005538E-05  0.2218294E+04  0.7818609E-02  0.8510852E-01
        1   -1    0    0  501    0  0.00000000000E+00  0.00000000000E+00  0.15581827981E+04  0.15581827981E+04  0.50400001928E-02 0. -1.
       -1   -1    0    0    0  501  0.00000000000E+00  0.00000000000E+00 -0.78951387096E+03  0.78951387097E+03  0.50400001928E-02 0.  1.
    10030    2    1    2    0    0  0.00000000000E+00  0.00000000000E+00  0.76866892716E+03  0.23476966691E+04  0.22182938783E+04 0.  0.
        3    1    3    3  502    0 -0.11067045278E+04  0.73004606374E+02  0.39393781826E+03  0.11769926080E+04  0.10100000352E+00 0. -1.
       -3    1    3    3    0  502  0.11067045278E+04 -0.73004606374E+02  0.37473110890E+03  0.11707040611E+04  0.10100000352E+00 0.  1.
</event>
<event>
 5   0  0.1005538E-05  0.2106394E+04  0.7818609E-02  0.8558432E-01
       -1   -1    0    0    0  501  0.00000000000E+00  0.00000000000E+00  0.15962541463E+04  0.15962541463E+04  0.50400001928E-02 0. -1.
        1   -1    0    0  501    0  0.00000000000E+00  0.00000000000E+00 -0.69489188367E+03  0.69489188369E+03  0.50400001928E-02 0.  1.
    10030    2    1    2    0    0  0.00000000000E+00  0.00000000000E+00  0.90136226260E+03  0.22911460300E+04  0.21063941232E+04 0.  0.
        3    1    3    3  502    0 -0.37089743315E+03 -0.67158674366E+02 -0.61901344870E+03  0.72474330168E+03  0.10100000352E+00 0.  1.
       -3    1    3    3    0  502  0.37089743315E+03  0.67158674366E+02  0.15203757113E+04  0.15664027283E+04  0.10100000352E+00 0. -1.
</event>
<event>
 5   0  0.2298329E-05  0.2204123E+04  0.7818609E-02  0.8516714E-01
       -2   -1    0    0    0  501  0.00000000000E+00  0.00000000000E+00  0.10416229297E+04  0.10416229297E+04  0.25500000920E-02 0.  1.
        2   -1    0    0  501    0  0.00000000000E+00  0.00000000000E+00 -0.11660073342E+04  0.11660073342E+04  0.25500000920E-02 0. -1.
    10030    2    1    2    0    0  0.00000000000E+00  0.00000000000E+00 -0.12438440451E+03  0.22076302638E+04  0.22041233862E+04 0.  0.
        4    1    3    3  502    0 -0.58775426606E+03 -0.23047825915E+03  0.84255174173E+03  0.10528391879E+04  0.12699999809E+01 0.  1.
       -4    1    3    3    0  502  0.58775426606E+03  0.23047825915E+03 -0.96693614624E+03  0.11547910759E+04  0.12699999809E+01 0. -1.
</event>
<event>
 5   0  0.2229552E-05  0.2177057E+04  0.7818609E-02  0.8528038E-01
        2   -1    0    0  501    0  0.00000000000E+00  0.00000000000E+00  0.79194541856E+03  0.79194541856E+03  0.25500000920E-02 0.  1.
       -2   -1    0    0    0  501  0.00000000000E+00  0.00000000000E+00 -0.14961824101E+04  0.14961824101E+04  0.25500000920E-02 0. -1.
    10030    2    1    2    0    0  0.00000000000E+00  0.00000000000E+00 -0.70423699149E+03  0.22881278286E+04  0.21770574682E+04 0.  0.
        1    1    3    3  502    0 -0.56047141892E+03 -0.67500659266E+03 -0.10292980830E+04  0.13524853623E+04  0.50400001928E-02 0. -1.
       -1    1    3    3    0  502  0.56047141892E+03  0.67500659266E+03  0.32506109150E+03  0.93564246632E+03  0.50400001928E-02 0.  1.
</event>
<event>
 5   0  0.8003875E-06  0.2216944E+04  0.7818609E-02  0.8511409E-01
        4   -1    0    0  501    0  0.00000000000E+00  0.00000000000E+00  0.10306719046E+04  0.10306726871E+04  0.12699999809E+01 0. -1.
       -4   -1    0    0    0  501  0.00000000000E+00  0.00000000000E+00 -0.11921429303E+04  0.11921436068E+04  0.12699999809E+01 0.  1.
    10030    2    1    2    0    0  0.00000000000E+00  0.00000000000E+00 -0.16147102569E+03  0.22228162938E+04  0.22169437034E+04 0.  0.
        3    1    3    3  502    0  0.10533434692E+03 -0.44667745119E+03 -0.10924146540E+04  0.11848990913E+04  0.10100000352E+00 0.  1.
       -3    1    3    3    0  502 -0.10533434692E+03  0.44667745119E+03  0.93094362832E+03  0.10379172026E+04  0.10100000352E+00 0. -1.
</event>
<event>
 5   0  0.1071208E-05  0.2221846E+04  0.7818609E-02  0.8509390E-01
       -1   -1    0    0    0  501  0.00000000000E+00  0.00000000000E+00  0.75741037608E+03  0.75741037610E+03  0.50400001928E-02 0. -1.
        1   -1    0    0  501    0  0.00000000000E+00  0.00000000000E+00 -0.16294332175E+04  0.16294332175E+04  0.50400001928E-02 0.  1.
    10030    2    1    2    0    0  0.00000000000E+00  0.00000000000E+00 -0.87202284139E+03  0.23868435936E+04  0.22218457427E+04 0.  0.
        4    1    3    3  502    0 -0.56794149608E+02  0.41491487882E+03 -0.15413885577E+04  0.15972664871E+04  0.12699999809E+01 0.  1.
       -4    1    3    3    0  502  0.56794149608E+02 -0.41491487882E+03  0.66936571628E+03  0.78957710651E+03  0.12699999809E+01 0. -1.
</event>
<event>
 5   0  0.1033733E-05  0.2238602E+04  0.7818609E-02  0.8502531E-01
        1   -1    0    0  501    0  0.00000000000E+00  0.00000000000E+00  0.15524234318E+04  0.15524234318E+04  0.50400001928E-02 0. -1.
       -1   -1    0    0    0  501  0.00000000000E+00  0.00000000000E+00 -0.80701844976E+03  0.80701844978E+03  0.50400001928E-02 0.  1.
    10030    2    1    2    0    0  0.00000000000E+00  0.00000000000E+00  0.74540498202E+03  0.23594418816E+04  0.22386016629E+04 0.  0.
        5    1    3    3  502    0  0.63638504328E+03 -0.73413245250E+02  0.13400914706E+04  0.14853426094E+04  0.46999998093E+01 0. -1.
       -5    1    3    3    0  502 -0.63638504328E+03  0.73413245250E+02 -0.59468648855E+03  0.87409927214E+03  0.46999998093E+01 0.  1.
</event>
<event>
 5   0  0.2284329E-05  0.2178318E+04  0.7818609E-02  0.8527507E-01
       -2   -1    0    0    0  501  0.00000000000E+00  0.00000000000E+00  0.10669156580E+04  0.10669156580E+04  0.25500000920E-02 0. -1.
        2   -1    0    0  501    0  0.00000000000E+00  0.00000000000E+00 -0.11118663116E+04  0.11118663116E+04  0.25500000920E-02 0.  1.
    10030    2    1    2    0    0  0.00000000000E+00  0.00000000000E+00 -0.44950653630E+02  0.21787819696E+04  0.21783182297E+04 0.  0.
        2    1    3    3  502    0 -0.16768483253E+03  0.56104398813E+03 -0.94102752901E+03  0.11083417208E+04  0.25500000920E-02 0.  1.
       -2    1    3    3    0  502  0.16768483253E+03 -0.56104398813E+03  0.89607687538E+03  0.10704402488E+04  0.25500000920E-02 0. -1.
</event>
<event>
 5   0  0.1071208E-05  0.2200591E+04  0.7818609E-02  0.8518182E-01
        1   -1    0    0  501    0  0.00000000000E+00  0.00000000000E+00  0.15753447404E+04  0.15753447404E+04  0.50400001928E-02 0. -1.
       -1   -1    0    0    0  501  0.00000000000E+00  0.00000000000E+00 -0.76849887754E+03  0.76849887755E+03  0.50400001928E-02 0.  1.
    10030    2    1    2    0    0  0.00000000000E+00  0.00000000000E+00  0.80684586289E+03  0.23438436180E+04  0.22005914339E+04 0.  0.
        4    1    3    3  502    0  0.10897379123E+04 -0.46846144669E+02  0.55749714856E+03  0.12249603922E+04  0.12699999809E+01 0.  1.
       -4    1    3    3    0  502 -0.10897379123E+04  0.46846144669E+02  0.24934871434E+03  0.11188832258E+04  0.12699999809E+01 0. -1.
</event>
<event>
 5   0  0.2289708E-05  0.2197454E+04  0.7818609E-02  0.8519489E-01
       -2   -1    0    0    0  501  0.00000000000E+00  0.00000000000E+00  0.13154369615E+04  0.13154369615E+04  0.25500000920E-02 0.  1.
        2   -1    0    0  501    0  0.00000000000E+00  0.00000000000E+00 -0.91771865682E+03  0.91771865683E+03  0.25500000920E-02 0. -1.
    10030    2    1    2    0    0  0.00000000000E+00  0.00000000000E+00  0.39771830472E+03  0.22331556184E+04  0.21974540191E+04 0.  0.
        5    1    3    3  502    0  0.22034055015E+03  0.40448954200E+03 -0.81485261201E+03  0.93603879029E+03  0.46999998093E+01 0. -1.
       -5    1    3    3    0  502 -0.22034055015E+03 -0.40448954200E+03  0.12125709167E+04  0.12971168281E+04  0.46999998093E+01 0.  1.
</event>
<event>
 5   0  0.1033733E-05  0.2208865E+04  0.7818609E-02  0.8514748E-01
        1   -1    0    0  501    0  0.00000000000E+00  0.00000000000E+00  0.94123640088E+03  0.94123640090E+03  0.50400001928E-02 0.  1.
       -1   -1    0    0    0  501  0.00000000000E+00  0.00000000000E+00 -0.12959238340E+04  0.12959238340E+04  0.50400001928E-02 0. -1.
    10030    2    1    2    0    0  0.00000000000E+00  0.00000000000E+00 -0.35468743308E+03  0.22371602349E+04  0.22088645819E+04 0.  0.
        5    1    3    3  502    0  0.10933548287E+04  0.12540435014E+03 -0.83432886874E+02  0.11036911566E+04  0.46999998093E+01 0.  1.
       -5    1    3    3    0  502 -0.10933548287E+04 -0.12540435014E+03 -0.27125454620E+03  0.11334690783E+04  0.46999998093E+01 0. -1.
</event>
<event>
 5   0  0.1049198E-05  0.2172051E+04  0.7818609E-02  0.8530152E-01
       -1   -1    0    0    0  501  0.00000000000E+00  0.00000000000E+00  0.81937591020E+03  0.81937591022E+03  0.50400001928E-02 0. -1.
        1   -1    0    0  501    0  0.00000000000E+00  0.00000000000E+00 -0.14394503301E+04  0.14394503301E+04  0.50400001928E-02 0.  1.
    10030    2    1    2    0    0  0.00000000000E+00  0.00000000000E+00 -0.62007441985E+03  0.22588262403E+04  0.21720505744E+04 0.  0.
        1    1    3    3  502    0 -0.93729382378E+03 -0.20465023285E+01  0.26044681323E+03  0.97280853348E+03  0.50400001928E-02 0. -1.
       -1    1    3    3    0  502  0.93729382378E+03  0.20465023285E+01 -0.88052123308E+03  0.12860177068E+04  0.50400001928E-02 0.  1.
</event>
<event>
 5   0  0.2284329E-05  0.2194484E+04  0.7818609E-02  0.8520727E-01
       -2   -1    0    0    0  501  0.00000000000E+00  0.00000000000E+00  0.86739652001E+03  0.86739652001E+03  0.25500000920E-02 0.  1.
        2   -1    0    0  501    0  0.00000000000E+00  0.00000000000E+00 -0.13879927431E+04  0.13879927431E+04  0.25500000920E-02 0. -1.
    10030    2    1    2    0    0  0.00000000000E+00  0.00000000000E+00 -0.52059622306E+03  0.22553892631E+04  0.21944840625E+04 0.  0.
        2    1    3    3  502    0  0.52237328639E+03  0.52336480639E+03  0.57285179976E+03  0.93538428221E+03  0.25500000920E-02 0.  1.
       -2    1    3    3    0  502 -0.52237328639E+03 -0.52336480639E+03 -0.10934480228E+04  0.13200049809E+04  0.25500000920E-02 0. -1.
</event>
<event>
 5   0  0.1033733E-05  0.2197281E+04  0.7818609E-02  0.8519561E-01
        1   -1    0    0  501    0  0.00000000000E+00  0.00000000000E+00  0.10886640740E+04  0.10886640740E+04  0.50400001928E-02 0. -1.
       -1   -1    0    0    0  501  0.00000000000E+00  0.00000000000E+00 -0.11087082470E+04  0.11087082471E+04  0.50400001928E-02 0.  1.
    10030    2    1    2    0    0  0.00000000000E+00  0.00000000000E+00 -0.20044173090E+02  0.21973723210E+04  0.21972808988E+04 0.  0.
        5    1    3    3  502    0 -0.12738557745E+03 -0.81986011079E+03  0.71014054466E+03  0.10921169213E+04  0.46999998093E+01 0. -1.
       -5    1    3    3    0  502  0.12738557745E+03  0.81986011079E+03 -0.73018471775E+03  0.11052553997E+04  0.46999998093E+01 0.  1.
</event>
<event>
 5   0  0.2229552E-05  0.2206767E+04  0.7818609E-02  0.8515617E-01
        2   -1    0    0  501    0  0.00000000000E+00  0.00000000000E+00  0.18927782921E+04  0.18927782921E+04  0.25500000920E-02 0. -1.
       -2   -1    0    0    0  501  0.00000000000E+00  0.00000000000E+00 -0.64321070574E+03  0.64321070575E+03  0.25500000920E-02 0.  1.
    10030    2    1    2    0    0  0.00000000000E+00  0.00000000000E+00  0.12495675864E+04  0.25359889979E+04  0.22067671024E+04 0.  0.
        1    1    3    3  502    0  0.41762773407E+03 -0.23031861958E+03 -0.51864075443E+03  0.70459053568E+03  0.50400001928E-02 0.  1.
       -1    1    3    3    0  502 -0.41762773407E+03  0.23031861958E+03  0.17682083408E+04  0.18313984622E+04  0.50400001928E-02 0. -1.
</event>
<event>
 5   0  0.1049198E-05  0.2191908E+04  0.7818609E-02  0.8521804E-01
        1   -1    0    0  501    0  0.00000000000E+00  0.00000000000E+00  0.22670798129E+04  0.22670798129E+04  0.50400001928E-02 0.  1.
       -1   -1    0    0    0  501  0.00000000000E+00  0.00000000000E+00 -0.52980711196E+03  0.52980711198E+03  0.50400001928E-02 0. -1.
    10030    2    1    2    0    0  0.00000000000E+00  0.00000000000E+00  0.17372727009E+04  0.27968869249E+04  0.21919078523E+04 0.  0.
        1    1    3    3  502    0  0.68233099105E+03  0.30693577521E+03 -0.15322822889E+03  0.76371725240E+03  0.50400001928E-02 0. -1.
       -1    1    3    3    0  502 -0.68233099105E+03 -0.30693577521E+03  0.18905009298E+04  0.20331696725E+04  0.50400001928E-02 0.  1.
</event>
<event>
 5   0  0.1007682E-05  0.2067495E+04  0.7818609E-02  0.8575699E-01
       -1   -1    0    0    0  501  0.00000000000E+00  0.00000000000E+00  0.53132698178E+03  0.53132698180E+03  0.50400001928E-02 0. -1.
        1   -1    0    0  501    0  0.00000000000E+00  0.00000000000E+00 -0.20112542152E+04  0.20112542152E+04  0.50400001928E-02 0.  1.
    10030    2    1    2    0    0  0.00000000000E+00  0.00000000000E+00 -0.14799272335E+04  0.25425811970E+04  0.20674947466E+04 0.  0.
        2    1    3    3  502    0  0.72980755211E+03 -0.22509842998E+03  0.11678974068E+03  0.77261129284E+03  0.25500000920E-02 0. -1.
       -2    1    3    3    0  502 -0.72980755211E+03  0.22509842998E+03 -0.15967169741E+04  0.17699699042E+04  0.25500000920E-02 0.  1.
</event>
<event>
 5   0  0.2298329E-05  0.2199303E+04  0.7818609E-02  0.8518718E-01
       -2   -1    0    0    0  501  0.00000000000E+00  0.00000000000E+00  0.15406952948E+04  0.15406952948E+04  0.25500000920E-02 0. -1.
        2   -1    0    0  501    0  0.00000000000E+00  0.00000000000E+00 -0.78486188162E+03  0.78486188162E+03  0.25500000920E-02 0.  1.
    10030    2    1    2    0    0  0.00000000000E+00  0.00000000000E+00  0.75583341316E+03  0.23255571764E+04  0.21993026241E+04 0.  0.
        4    1    3    3  502    0 -0.57390840293E+03 -0.70702655396E+03  0.10297236239E+04  0.13746234966E+04  0.12699999809E+01 0. -1.
       -4    1    3    3    0  502  0.57390840293E+03  0.70702655396E+03 -0.27389021071E+03  0.95093367980E+03  0.12699999809E+01 0.  1.
</event>
<event>
 5   0  0.2284329E-05  0.2195494E+04  0.7818609E-02  0.8520306E-01
        2   -1    0    0  501    0  0.00000000000E+00  0.00000000000E+00  0.12697477539E+04  0.12697477539E+04  0.25500000920E-02 0.  1.
       -2   -1    0    0    0  501  0.00000000000E+00  0.00000000000E+00 -0.94904559443E+03  0.94904559443E+03  0.25500000920E-02 0. -1.
    10030    2    1    2    0    0  0.00000000000E+00  0.00000000000E+00  0.32070215948E+03  0.22187933483E+04  0.21954940327E+04 0.  0.
        2    1    3    3  502    0  0.24271964271E+03  0.25958392281E+03  0.12100031720E+04  0.12611123321E+04  0.25500000920E-02 0.  1.
       -2    1    3    3    0  502 -0.24271964271E+03 -0.25958392281E+03 -0.88930101253E+03  0.95768101622E+03  0.25500000920E-02 0. -1.
</event>
<event>
 5   0  0.2298329E-05  0.2184479E+04  0.7818609E-02  0.8524916E-01
       -2   -1    0    0    0  501  0.00000000000E+00  0.00000000000E+00  0.60015617284E+03  0.60015617284E+03  0.25500000920E-02 0.  1.
        2   -1    0    0  501    0  0.00000000000E+00  0.00000000000E+00 -0.19877944883E+04  0.19877944883E+04  0.25500000920E-02 0. -1.
    10030    2    1    2    0    0  0.00000000000E+00  0.00000000000E+00 -0.13876383154E+04  0.25879506611E+04  0.21844790065E+04 0.  0.
        4    1    3    3  502    0 -0.21608453812E+03  0.35784620734E+03 -0.18892735125E+04  0.19349683340E+04  0.12699999809E+01 0. -1.
       -4    1    3    3    0  502  0.21608453812E+03 -0.35784620734E+03  0.50163519704E+03  0.65298232712E+03  0.12699999809E+01 0.  1.
</event>
<event>
 5   0  0.1007682E-05  0.2185199E+04  0.7818609E-02  0.8524614E-01
        1   -1    0    0  501    0  0.00000000000E+00  0.00000000000E+00  0.94579284369E+03  0.94579284371E+03  0.50400001928E-02 0.  1.
       -1   -1    0    0    0  501  0.00000000000E+00  0.00000000000E+00 -0.12621934136E+04  0.12621934136E+04  0.50400001928E-02 0. -1.
    10030    2    1    2    0    0  0.00000000000E+00  0.00000000000E+00 -0.31640056986E+03  0.22079862573E+04  0.21851988449E+04 0.  0.
        2    1    3    3  502    0  0.54982000307E+03  0.42977474012E+03 -0.10076603418E+04  0.12257192695E+04  0.25500000920E-02 0. -1.
       -2    1    3    3    0  502 -0.54982000307E+03 -0.42977474012E+03  0.69125977196E+03  0.98226698782E+03  0.25500000920E-02 0.  1.
</event>
<event>
 5   0  0.2229552E-05  0.2197202E+04  0.7818609E-02  0.8519593E-01
       -2   -1    0    0    0  501  0.00000000000E+00  0.00000000000E+00  0.60185218427E+03  0.60185218428E+03  0.25500000920E-02 0. -1.
        2   -1    0    0  501    0  0.00000000000E+00  0.00000000000E+00 -0.20053504228E+04  0.20053504228E+04  0.25500000920E-02 0.  1.
    10030    2    1    2    0    0  0.00000000000E+00  0.00000000000E+00 -0.14034982386E+04  0.26072026071E+04  0.21972023414E+04 0.  0.
        1    1    3    3  502    0  0.76215058328E+03 -0.59417377040E+03 -0.13217507813E+04  0.16373579660E+04  0.50400001928E-02 0.  1.
       -1    1    3    3    0  502 -0.76215058328E+03  0.59417377040E+03 -0.81747457247E+02  0.96984464107E+03  0.50400001928E-02 0. -1.
</event>
<event>
 5   0  0.1071208E-05  0.2195517E+04  0.7818609E-02  0.8520296E-01
       -1   -1    0    0    0  501  0.00000000000E+00  0.00000000000E+00  0.62379187684E+03  0.62379187686E+03  0.50400001928E-02 0. -1.
        1   -1    0    0  501    0  0.00000000000E+00  0.00000000000E+00 -0.19318526186E+04  0.19318526186E+04  0.50400001928E-02 0.  1.
    10030    2    1    2    0    0  0.00000000000E+00  0.00000000000E+00 -0.13080607418E+04  0.25556444955E+04  0.21955172245E+04 0.  0.
        4    1    3    3  502    0  0.81600338348E+03 -0.54646001094E+03 -0.83071996272E+02  0.98558745673E+03  0.12699999809E+01 0. -1.
       -4    1    3    3    0  502 -0.81600338348E+03  0.54646001094E+03 -0.12249887455E+04  0.15700570387E+04  0.12699999809E+01 0.  1.
</event>
<event>
 5   0  0.1007682E-05  0.2197975E+04  0.7818609E-02  0.8519271E-01
       -1   -1    0    0    0  501  0.00000000000E+00  0.00000000000E+00  0.65783063427E+03  0.65783063429E+03  0.50400001928E-02 0.  1.
        1   -1    0    0  501    0  0.00000000000E+00  0.00000000000E+00 -0.18359944804E+04  0.18359944804E+04  0.50400001928E-02 0. -1.
    10030    2    1    2    0    0  0.00000000000E+00  0.00000000000E+00 -0.11781638461E+04  0.24938251147E+04  0.21979748985E+04 0.  0.
        2    1    3    3  502    0  0.56327847220E+03  0.93479636618E+03 -0.44269404147E+03  0.11777541755E+04  0.25500000920E-02 0. -1.
       -2    1    3    3    0  502 -0.56327847220E+03 -0.93479636618E+03 -0.73546980463E+03  0.13160709392E+04  0.25500000920E-02 0.  1.
</event>
<event>
 5   0  0.1049198E-05  0.2203558E+04  0.7818609E-02  0.8516949E-01
        1   -1    0    0  501    0  0.00000000000E+00  0.00000000000E+00  0.12569698808E+04  0.12569698808E+04  0.50400001928E-02 0.  1.
       -1   -1    0    0    0  501  0.00000000000E+00  0.00000000000E+00 -0.96574886672E+03  0.96574886673E+03  0.50400001928E-02 0. -1.
    10030    2    1    2    0    0  0.00000000000E+00  0.00000000000E+00  0.29122101404E+03  0.22227187475E+04  0.22035582478E+04 0.  0.
        1    1    3    3  502    0 -0.25115817558E+03  0.48429388674E+03  0.11111675363E+04  0.12378668311E+04  0.50400001928E-02 0.  1.
       -1    1    3    3    0  502  0.25115817558E+03 -0.48429388674E+03 -0.81994652222E+03  0.98485191639E+03  0.50400001928E-02 0. -1.
</event>
<event>
 5   0  0.2229552E-05  0.2200539E+04  0.7818609E-02  0.8518204E-01
        2   -1    0    0  501    0  0.00000000000E+00  0.00000000000E+00  0.19918993826E+04  0.19918993826E+04  0.25500000920E-02 0.  1.
       -2   -1    0    0    0  501  0.00000000000E+00  0.00000000000E+00 -0.60775804683E+03  0.60775804684E+03  0.25500000920E-02 0. -1.
    10030    2    1    2    0    0  0.00000000000E+00  0.00000000000E+00  0.13841413358E+04  0.25996574294E+04  0.22005389142E+04 0.  0.
        1    1    3    3  502    0  0.16247246025E+03  0.68059442576E+03 -0.31104433970E+03  0.76573797999E+03  0.50400001928E-02 0. -1.
       -1    1    3    3    0  502 -0.16247246025E+03 -0.68059442576E+03  0.16951856755E+04  0.18339194494E+04  0.50400001928E-02 0.  1.
</event>
<event>
 5   0  0.1005538E-05  0.2198052E+04  0.7818609E-02  0.8519239E-01
        1   -1    0    0  501    0  0.00000000000E+00  0.00000000000E+00  0.16023834627E+04  0.16023834627E+04  0.50400001928E-02 0.  1.
       -1   -1    0    0    0  501  0.00000000000E+00  0.00000000000E+00 -0.75378868037E+03  0.75378868039E+03  0.50400001928E-02 0. -1.
    10030    2    1    2    0    0  0.00000000000E+00  0.00000000000E+00  0.84859478235E+03  0.23561721431E+04  0.21980523341E+04 0.  0.
        3    1    3    3  502    0  0.54673543242E+03  0.60529411665E+03 -0.36527514955E+03  0.89371502494E+03  0.10100000352E+00 0. -1.
       -3    1    3    3    0  502 -0.54673543242E+03 -0.60529411665E+03  0.12138699319E+04  0.14624571182E+04  0.10100000352E+00 0.  1.
</event>
<event>
 5   0  0.1033733E-05  0.2129031E+04  0.7818609E-02  0.8548562E-01
        1   -1    0    0  501    0  0.00000000000E+00  0.00000000000E+00  0.24505746986E+04  0.24505746986E+04  0.50400001928E-02 0.  1.
       -1   -1    0    0    0  501  0.00000000000E+00  0.00000000000E+00 -0.46241924659E+03  0.46241924662E+03  0.50400001928E-02 0. -1.
    10030    2    1    2    0    0  0.00000000000E+00  0.00000000000E+00  0.19881554520E+04  0.29129939452E+04  0.21290306770E+04 0.  0.
        5    1    3    3  502    0  0.46625060371E+03  0.78367684011E+03  0.24263440942E+03  0.94362734266E+03  0.46999998093E+01 0. -1.
       -5    1    3    3    0  502 -0.46625060371E+03 -0.78367684011E+03  0.17455210426E+04  0.19693666026E+04  0.46999998093E+01 0.  1.
</event>
<event>
 5   0  0.1005538E-05  0.2155643E+04  0.7818609E-02  0.8537121E-01
        1   -1    0    0  501    0  0.00000000000E+00  0.00000000000E+00  0.12751222537E+04  0.12751222537E+04  0.50400001928E-02 0. -1.
       -1   -1    0    0    0  501  0.00000000000E+00  0.00000000000E+00 -0.91104934018E+03  0.91104934019E+03  0.50400001928E-02 0.  1.
    10030    2    1    2    0    0  0.00000000000E+00  0.00000000000E+00  0.36407291350E+03  0.21861715939E+04  0.21556430947E+04 0.  0.
        3    1    3    3  502    0 -0.25269807110E+03  0.22763915510E+02  0.12444044562E+04  0.12700066818E+04  0.10100000352E+00 0. -1.
       -3    1    3    3    0  502  0.25269807110E+03 -0.22763915510E+02 -0.88033154266E+03  0.91616491212E+03  0.10100000352E+00 0.  1.
</event>
<event>
 5   0  0.2284329E-05  0.2187943E+04  0.7818609E-02  0.8523463E-01
       -2   -1    0    0    0  501  0.00000000000E+00  0.00000000000E+00  0.88917504883E+03  0.88917504884E+03  0.25500000920E-02 0. -1.
        2   -1    0    0  501    0  0.00000000000E+00  0.00000000000E+00 -0.13459366649E+04  0.13459366649E+04  0.25500000920E-02 0.  1.
    10030    2    1    2    0    0  0.00000000000E+00  0.00000000000E+00 -0.45676161602E+03  0.22351117137E+04  0.21879426864E+04 0.  0.
        2    1    3    3  502    0 -0.10224638874E+04  0.38462634886E+03 -0.16878382314E+03  0.11053767720E+04  0.25500000920E-02 0. -1.
       -2    1    3    3    0  502  0.10224638874E+04 -0.38462634886E+03 -0.28797779288E+03  0.11297349417E+04  0.25500000920E-02 0.  1.
</event>
<event>
 5   0  0.2284329E-05  0.2197526E+04  0.7818609E-02  0.8519458E-01
       -2   -1    0    0    0  501  0.00000000000E+00  0.00000000000E+00  0.88528371032E+03  0.88528371032E+03  0.25500000920E-02 0. -1.
        2   -1    0    0  501    0  0.00000000000E+00  0.00000000000E+00 -0.13637214898E+04  0.13637214898E+04  0.25500000920E-02 0.  1.
    10030    2    1    2    0    0  0.00000000000E+00  0.00000000000E+00 -0.47843777951E+03  0.22490052002E+04  0.21975262641E+04 0.  0.
        2    1    3    3  502    0 -0.64160663946E+03 -0.40698096162E+03 -0.10515301394E+04  0.12973080656E+04  0.25500000920E-02 0.  1.
       -2    1    3    3    0  502  0.64160663946E+03  0.40698096162E+03  0.57309235992E+03  0.95169713456E+03  0.25500000920E-02 0. -1.
</event>
<event>
 5   0  0.2298329E-05  0.2186396E+04  0.7818609E-02  0.8524112E-01
       -2   -1    0    0    0  501  0.00000000000E+00  0.00000000000E+00  0.46100961737E+03  0.46100961738E+03  0.25500000920E-02 0. -1.
        2   -1    0    0  501    0  0.00000000000E+00  0.00000000000E+00 -0.25923133723E+04  0.25923133723E+04  0.25500000920E-02 0.  1.
    10030    2    1    2    0    0  0.00000000000E+00  0.00000000000E+00 -0.21313037549E+04  0.30533229897E+04  0.21863955689E+04 0.  0.
        4    1    3    3  502    0  0.11057325997E+02 -0.89739355173E+03 -0.19393174520E+03  0.91817677265E+03  0.12699999809E+01 0. -1.
       -4    1    3    3    0  502 -0.11057325997E+02  0.89739355173E+03 -0.19373720097E+04  0.21351462170E+04  0.12699999809E+01 0.  1.
</event>
<event>
 5   0  0.8003875E-06  0.2198205E+04  0.7818609E-02  0.8519176E-01
        3   -1    0    0  501    0  0.00000000000E+00  0.00000000000E+00  0.16199256843E+04  0.16199256874E+04  0.10100000352E+00 0.  1.
       -3   -1    0    0    0  501  0.00000000000E+00  0.00000000000E+00 -0.74572932986E+03  0.74572933670E+03  0.10100000352E+00 0. -1.
    10030    2    1    2    0    0  0.00000000000E+00  0.00000000000E+00  0.87419635440E+03  0.23656550241E+04  0.21982048192E+04 0.  0.
        3    1    3    3  502    0  0.26559917994E+03 -0.86624822472E+03 -0.23246762516E+03  0.93539837405E+03  0.10100000352E+00 0. -1.
       -3    1    3    3    0  502 -0.26559917994E+03  0.86624822472E+03  0.11066639796E+04  0.14302566501E+04  0.10100000352E+00 0.  1.
</event>
<event>
 5   0  0.1005538E-05  0.2207773E+04  0.7818609E-02  0.8515200E-01
       -1   -1    0    0    0  501  0.00000000000E+00  0.00000000000E+00  0.13242269977E+04  0.13242269977E+04  0.50400001928E-02 0.  1.
        1   -1    0    0  501    0  0.00000000000E+00  0.00000000000E+00 -0.92020849908E+03  0.92020849909E+03  0.50400001928E-02 0. -1.
    10030    2    1    2    0    0  0.00000000000E+00  0.00000000000E+00  0.40401849860E+03  0.22444354968E+04  0.22077725771E+04 0.  0.
        3    1    3    3  502    0 -0.47131119741E+03 -0.54304259009E+03 -0.64947692013E+03  0.96894260895E+03  0.10100000352E+00 0. -1.
       -3    1    3    3    0  502  0.47131119741E+03  0.54304259009E+03  0.10534954187E+04  0.12754928878E+04  0.10100000352E+00 0.  1.
</event>
<event>
 5   0  0.1071208E-05  0.2199836E+04  0.7818609E-02  0.8518496E-01
        1   -1    0    0  501    0  0.00000000000E+00  0.00000000000E+00  0.12099673424E+04  0.12099673424E+04  0.50400001928E-02 0.  1.
       -1   -1    0    0    0  501  0.00000000000E+00  0.00000000000E+00 -0.99987799996E+03  0.99987799997E+03  0.50400001928E-02 0. -1.
    10030    2    1    2    0    0  0.00000000000E+00  0.00000000000E+00  0.21008934247E+03  0.22098453424E+04  0.21998361088E+04 0.  0.
        4    1    3    3  502    0 -0.37057213954E+02  0.54266429628E+02 -0.99790365728E+03  0.10000657001E+04  0.12699999809E+01 0. -1.
       -4    1    3    3    0  502  0.37057213954E+02 -0.54266429628E+02  0.12079929998E+04  0.12097796423E+04  0.12699999809E+01 0.  1.
</event>
<event>
 5   0  0.2289708E-05  0.2253060E+04  0.7818609E-02  0.8496662E-01
       -2   -1    0    0    0  501  0.00000000000E+00  0.00000000000E+00  0.88694467452E+03  0.88694467452E+03  0.25500000920E-02 0. -1.
        2   -1    0    0  501    0  0.00000000000E+00  0.00000000000E+00 -0.14308328903E+04  0.14308328903E+04  0.25500000920E-02 0.  1.
    10030    2    1    2    0    0  0.00000000000E+00  0.00000000000E+00 -0.54388821577E+03  0.23177775648E+04  0.22530597970E+04 0.  0.
        5    1    3    3  502    0  0.10035902351E+04  0.17947530517E+03 -0.76491971622E+03  0.12745701265E+04  0.46999998093E+01 0.  1.
       -5    1    3    3    0  502 -0.10035902351E+04 -0.17947530517E+03  0.22103150045E+03  0.10432074383E+04  0.46999998093E+01 0. -1.
</event>
<event>
 5   0  0.1033733E-05  0.2176920E+04  0.7818609E-02  0.8528096E-01
       -1   -1    0    0    0  501  0.00000000000E+00  0.00000000000E+00  0.11864878997E+04  0.11864878997E+04  0.50400001928E-02 0. -1.
        1   -1    0    0  501    0  0.00000000000E+00  0.00000000000E+00 -0.99853090610E+03  0.99853090611E+03  0.50400001928E-02 0.  1.
    10030    2    1    2    0    0  0.00000000000E+00  0.00000000000E+00  0.18795699357E+03  0.21850188058E+04  0.21769196931E+04 0.  0.
        5    1    3    3  502    0 -0.62844519165E+03 -0.62315183881E+03 -0.54198845266E+03  0.10378030381E+04  0.46999998093E+01 0.  1.
       -5    1    3    3    0  502  0.62844519165E+03  0.62315183881E+03  0.72994544623E+03  0.11472157677E+04  0.46999998093E+01 0. -1.
</event>
<event>
 5   0  0.1007682E-05  0.2209272E+04  0.7818609E-02  0.8514579E-01
        1   -1    0    0  501    0  0.00000000000E+00  0.00000000000E+00  0.98541223800E+03  0.98541223801E+03  0.50400001928E-02 0.  1.
       -1   -1    0    0    0  501  0.00000000000E+00  0.00000000000E+00 -0.12382846895E+04  0.12382846895E+04  0.50400001928E-02 0. -1.
    10030    2    1    2    0    0  0.00000000000E+00  0.00000000000E+00 -0.25287245150E+03  0.22236969275E+04  0.22092721762E+04 0.  0.
        2    1    3    3  502    0  0.56281958008E+03  0.24894112715E+02 -0.10828165579E+04  0.12206052985E+04  0.25500000920E-02 0. -1.
       -2    1    3    3    0  502 -0.56281958008E+03 -0.24894112715E+02  0.82994410639E+03  0.10030916291E+04  0.25500000920E-02 0.  1.
</event>
<event>
 5   0  0.2319707E-05  0.2204632E+04  0.7818609E-02  0.8516503E-01
       -2   -1    0    0    0  501  0.00000000000E+00  0.00000000000E+00  0.20041119921E+04  0.20041119921E+04  0.25500000920E-02 0. -1.
        2   -1    0    0  501    0  0.00000000000E+00  0.00000000000E+00 -0.60630375516E+03  0.60630375516E+03  0.25500000920E-02 0.  1.
    10030    2    1    2    0    0  0.00000000000E+00  0.00000000000E+00  0.13978082369E+04  0.26104157473E+04  0.22046320569E+04 0.  0.
        3    1    3    3  502    0 -0.91087367033E+03  0.56894013724E+03  0.40474955465E+03  0.11476959246E+04  0.10100000352E+00 0. -1.
       -3    1    3    3    0  502  0.91087367033E+03 -0.56894013724E+03  0.99305868230E+03  0.14627198227E+04  0.10100000352E+00 0.  1.
</event>
<event>
 5   0  0.1005538E-05  0.2213327E+04  0.7818609E-02  0.8512901E-01
        1   -1    0    0  501    0  0.00000000000E+00  0.00000000000E+00  0.15655069124E+04  0.15655069124E+04  0.50400001928E-02 0.  1.
       -1   -1    0    0    0  501  0.00000000000E+00  0.00000000000E+00 -0.78230535473E+03  0.78230535475E+03  0.50400001928E-02 0. -1.
    10030    2    1    2    0    0  0.00000000000E+00  0.00000000000E+00  0.78320155768E+03  0.23478122672E+04  0.22133273056E+04 0.  0.
        3    1    3    3  502    0 -0.24395573561E+03 -0.42569074745E+03  0.14438298372E+04  0.15249169231E+04  0.10100000352E+00 0.  1.
       -3    1    3    3    0  502  0.24395573561E+03  0.42569074745E+03 -0.66062827951E+03  0.82289534407E+03  0.10100000352E+00 0. -1.
</event>
<event>
 5   0  0.1005538E-05  0.2198290E+04  0.7818609E-02  0.8519140E-01
        1   -1    0    0  501    0  0.00000000000E+00  0.00000000000E+00  0.15505895160E+04  0.15505895160E+04  0.50400001928E-02 0.  1.
       -1   -1    0    0    0  501  0.00000000000E+00  0.00000000000E+00 -0.77913547666E+03  0.77913547667E+03  0.50400001928E-02 0. -1.
    10030    2    1    2    0    0  0.00000000000E+00  0.00000000000E+00  0.77145403934E+03  0.23297249927E+04  0.21982896094E+04 0.  0.
        3    1    3    3  502    0  0.72393891104E+02  0.10844723120E+04  0.55921633374E+03  0.12223109216E+04  0.10100000352E+00 0.  1.
       -3    1    3    3    0  502 -0.72393891104E+02 -0.10844723120E+04  0.21223770559E+03  0.11074140711E+04  0.10100000352E+00 0. -1.
</event>
<event>
 5   0  0.1005538E-05  0.2197395E+04  0.7818609E-02  0.8519513E-01
        1   -1    0    0  501    0  0.00000000000E+00  0.00000000000E+00  0.14428995136E+04  0.14428995137E+04  0.50400001928E-02 0.  1.
       -1   -1    0    0    0  501  0.00000000000E+00  0.00000000000E+00 -0.83660419114E+03  0.83660419115E+03  0.50400001928E-02 0. -1.
    10030    2    1    2    0    0  0.00000000000E+00  0.00000000000E+00  0.60629532251E+03  0.22795037048E+04  0.21973946214E+04 0.  0.
        3    1    3    3  502    0  0.10666178754E+04 -0.47647836269E+02  0.57204732536E+03  0.12112729507E+04  0.10100000352E+00 0.  1.
       -3    1    3    3    0  502 -0.10666178754E+04  0.47647836269E+02  0.34247997143E+02  0.10682307541E+04  0.10100000352E+00 0. -1.
</event>
<event>
 5   0  0.8003875E-06  0.2205724E+04  0.7818609E-02  0.8516049E-01
        4   -1    0    0  501    0  0.00000000000E+00  0.00000000000E+00  0.15263618134E+04  0.15263623417E+04  0.12699999809E+01 0.  1.
       -4   -1    0    0    0  501  0.00000000000E+00  0.00000000000E+00 -0.79686391828E+03  0.79686493031E+03  0.12699999809E+01 0. -1.
    10030    2    1    2    0    0  0.00000000000E+00  0.00000000000E+00  0.72949789508E+03  0.23232272720E+04  0.22057238672E+04 0.  0.
        5    1    3    3  502    0 -0.56304571425E+03  0.45948221596E+03 -0.50898320187E+03  0.88726003680E+03  0.46999998093E+01 0. -1.
       -5    1    3    3    0  502  0.56304571425E+03 -0.45948221596E+03  0.12384810969E+04  0.14359672352E+04  0.46999998093E+01 0.  1.
</event>
<event>
 5   0  0.1071208E-05  0.2202807E+04  0.7818609E-02  0.8517261E-01
       -1   -1    0    0    0  501  0.00000000000E+00  0.00000000000E+00  0.89201414130E+03  0.89201414131E+03  0.50400001928E-02 0. -1.
        1   -1    0    0  501    0  0.00000000000E+00  0.00000000000E+00 -0.13599438643E+04  0.13599438643E+04  0.50400001928E-02 0.  1.
    10030    2    1    2    0    0  0.00000000000E+00  0.00000000000E+00 -0.46792972299E+03  0.22519580056E+04  0.22028065356E+04 0.  0.
        4    1    3    3  502    0  0.44333927988E+03  0.98662119682E+02 -0.12597497909E+04  0.13391247438E+04  0.12699999809E+01 0.  1.
       -4    1    3    3    0  502 -0.44333927988E+03 -0.98662119682E+02  0.79182006792E+03  0.91283326178E+03  0.12699999809E+01 0. -1.
</event>
<event>
 5   0  0.1071208E-05  0.2199474E+04  0.7818609E-02  0.8518647E-01
       -1   -1    0    0    0  501  0.00000000000E+00  0.00000000000E+00  0.13712777591E+04  0.13712777591E+04  0.50400001928E-02 0. -1.
        1   -1    0    0  501    0  0.00000000000E+00  0.00000000000E+00 -0.88196647249E+03  0.88196647251E+03  0.50400001928E-02 0.  1.
    10030    2    1    2    0    0  0.00000000000E+00  0.00000000000E+00  0.48931128658E+03  0.22532442316E+04  0.21994735807E+04 0.  0.
        4    1    3    3  502    0  0.99273115985E+03 -0.40094701163E+03  0.50208704624E+03  0.11825255502E+04  0.12699999809E+01 0. -1.
       -4    1    3    3    0  502 -0.99273115985E+03  0.40094701163E+03 -0.12775759656E+02  0.10707186814E+04  0.12699999809E+01 0.  1.
</event>
<event>
 5   0  0.2319707E-05  0.2201058E+04  0.7818609E-02  0.8517988E-01
       -2   -1    0    0    0  501  0.00000000000E+00  0.00000000000E+00  0.41422998608E+03  0.41422998609E+03  0.25500000920E-02 0. -1.
        2   -1    0    0  501    0  0.00000000000E+00  0.00000000000E+00 -0.29238929640E+04  0.29238929640E+04  0.25500000920E-02 0.  1.
    10030    2    1    2    0    0  0.00000000000E+00  0.00000000000E+00 -0.25096629780E+04  0.33381229501E+04  0.22010580563E+04 0.  0.
        3    1    3    3  502    0 -0.55214605213E+03  0.11044626042E+03  0.17921753328E+03  0.59091672320E+03  0.10100000352E+00 0. -1.
       -3    1    3    3    0  502  0.55214605213E+03 -0.11044626042E+03 -0.26888805113E+04  0.27472062269E+04  0.10100000352E+00 0.  1.
</event>
<event>
 5   0  0.2298329E-05  0.2199248E+04  0.7818609E-02  0.8518741E-01
       -2   -1    0    0    0  501  0.00000000000E+00  0.00000000000E+00  0.61511794288E+03  0.61511794289E+03  0.25500000920E-02 0.  1.
        2   -1    0    0  501    0  0.00000000000E+00  0.00000000000E+00 -0.19657585931E+04  0.19657585931E+04  0.25500000920E-02 0. -1.
    10030    2    1    2    0    0  0.00000000000E+00  0.00000000000E+00 -0.13506406502E+04  0.25808765360E+04  0.21992484007E+04 0.  0.
        4    1    3    3  502    0  0.19220664135E+03  0.93476542149E+03 -0.34224567698E+02  0.95493597698E+03  0.12699999809E+01 0. -1.
       -4    1    3    3    0  502 -0.19220664135E+03 -0.93476542149E+03 -0.13164160825E+04  0.16259405590E+04  0.12699999809E+01 0.  1.
</event>
<event>
 5   0  0.2298329E-05  0.2191808E+04  0.7818609E-02  0.8521846E-01
        2   -1    0    0  501    0  0.00000000000E+00  0.00000000000E+00  0.18004248575E+04  0.18004248575E+04  0.25500000920E-02 0. -1.
       -2   -1    0    0    0  501  0.00000000000E+00  0.00000000000E+00 -0.66706776524E+03  0.66706776525E+03  0.25500000920E-02 0.  1.
    10030    2    1    2    0    0  0.00000000000E+00  0.00000000000E+00  0.11333570923E+04  0.24674926228E+04  0.21918078257E+04 0.  0.
        4    1    3    3  502    0  0.54739959481E+03  0.32738454219E+03  0.15699350706E+04  0.16945573739E+04  0.12699999809E+01 0. -1.
       -4    1    3    3    0  502 -0.54739959481E+03 -0.32738454219E+03 -0.43657797828E+03  0.77293524884E+03  0.12699999809E+01 0.  1.
</event>
<event>
 5   0  0.1033733E-05  0.2200628E+04  0.7818609E-02  0.8518167E-01
        1   -1    0    0  501    0  0.00000000000E+00  0.00000000000E+00  0.13524067687E+04  0.13524067687E+04  0.50400001928E-02 0. -1.
       -1   -1    0    0    0  501  0.00000000000E+00  0.00000000000E+00 -0.89521242405E+03  0.89521242407E+03  0.50400001928E-02 0.  1.
    10030    2    1    2    0    0  0.00000000000E+00  0.00000000000E+00  0.45719434466E+03  0.22476191928E+04  0.22006284028E+04 0.  0.
        5    1    3    3  502    0 -0.10372599549E+04  0.23757761624E+03  0.51442635904E+03  0.11819508901E+04  0.46999998093E+01 0. -1.
       -5    1    3    3    0  502  0.10372599549E+04 -0.23757761624E+03 -0.57232014383E+02  0.10656683027E+04  0.46999998093E+01 0.  1.
</event>
<event>
 5   0  0.1005538E-05  0.2204251E+04  0.7818609E-02  0.8516661E-01
       -1   -1    0    0    0  501  0.00000000000E+00  0.00000000000E+00  0.13795599179E+04  0.13795599179E+04  0.50400001928E-02 0. -1.
        1   -1    0    0  501    0  0.00000000000E+00  0.00000000000E+00 -0.88048417393E+03  0.88048417394E+03  0.50400001928E-02 0.  1.
    10030    2    1    2    0    0  0.00000000000E+00  0.00000000000E+00  0.49907574394E+03  0.22600440918E+04  0.22042510517E+04 0.  0.
        3    1    3    3  502    0 -0.94227167054E+03 -0.88112817813E+02 -0.32959608834E+03  0.10021344029E+04  0.10100000352E+00 0. -1.
       -3    1    3    3    0  502  0.94227167054E+03  0.88112817813E+02  0.82867183228E+03  0.12579096890E+04  0.10100000352E+00 0.  1.
</event>
<event>
 5   0  0.2298329E-05  0.2199679E+04  0.7818609E-02  0.8518562E-01
        2   -1    0    0  501    0  0.00000000000E+00  0.00000000000E+00  0.28532990431E+04  0.28532990431E+04  0.25500000920E-02 0.  1.
       -2   -1    0    0    0  501  0.00000000000E+00  0.00000000000E+00 -0.42394671736E+03  0.42394671737E+03  0.25500000920E-02 0. -1.
    10030    2    1    2    0    0  0.00000000000E+00  0.00000000000E+00  0.24293523257E+04  0.32772457605E+04  0.21996788520E+04 0.  0.
        4    1    3    3  502    0 -0.79595425600E+03  0.75728862133E+03  0.11384749886E+04  0.15821365764E+04  0.12699999809E+01 0. -1.
       -4    1    3    3    0  502  0.79595425600E+03 -0.75728862133E+03  0.12908773371E+04  0.16951091841E+04  0.12699999809E+01 0.  1.
</event>
<event>
 5   0  0.2289708E-05  0.2197278E+04  0.7818609E-02  0.8519562E-01
        2   -1    0    0  501    0  0.00000000000E+00  0.00000000000E+00  0.13284370635E+04  0.13284370635E+04  0.25500000920E-02 0.  1.
       -2   -1    0    0    0  501  0.00000000000E+00  0.00000000000E+00 -0.90859200344E+03  0.90859200345E+03  0.25500000920E-02 0. -1.
    10030    2    1    2    0    0  0.00000000000E+00  0.00000000000E+00  0.41984506004E+03  0.22370290669E+04  0.21972776729E+04 0.  0.
        5    1    3    3  502    0  0.62608025329E+03  0.39222273462E+03 -0.61791148887E+03  0.96314685027E+03  0.46999998093E+01 0. -1.
       -5    1    3    3    0  502 -0.62608025329E+03 -0.39222273462E+03  0.10377565489E+04  0.12738822167E+04  0.46999998093E+01 0.  1.
</event>
<event>
 5   0  0.1033733E-05  0.2192286E+04  0.7818609E-02  0.8521646E-01
       -1   -1    0    0    0  501  0.00000000000E+00  0.00000000000E+00  0.95436561174E+03  0.95436561176E+03  0.50400001928E-02 0.  1.
        1   -1    0    0  501    0  0.00000000000E+00  0.00000000000E+00 -0.12589823224E+04  0.12589823224E+04  0.50400001928E-02 0. -1.
    10030    2    1    2    0    0  0.00000000000E+00  0.00000000000E+00 -0.30461671064E+03  0.22133479342E+04  0.21922859616E+04 0.  0.
        5    1    3    3  502    0 -0.60498022685E+03  0.18857018439E+03  0.75068227589E+03  0.98239796348E+03  0.46999998093E+01 0.  1.
       -5    1    3    3    0  502  0.60498022685E+03 -0.18857018439E+03 -0.10552989865E+04  0.12309499707E+04  0.46999998093E+01 0. -1.
</event>
<event>
 5   0  0.1005538E-05  0.2194757E+04  0.7818609E-02  0.8520613E-01
       -1   -1    0    0    0  501  0.00000000000E+00  0.00000000000E+00  0.55451611606E+03  0.55451611608E+03  0.50400001928E-02 0. -1.
        1   -1    0    0  501    0  0.00000000000E+00  0.00000000000E+00 -0.21716953227E+04  0.21716953227E+04  0.50400001928E-02 0.  1.
    10030    2    1    2    0    0  0.00000000000E+00  0.00000000000E+00 -0.16171792067E+04  0.27262114388E+04  0.21947574405E+04 0.  0.
        3    1    3    3  502    0 -0.10641945780E+04  0.23812097995E+03 -0.65631461431E+03  0.12727767220E+04  0.10100000352E+00 0. -1.
       -3    1    3    3    0  502  0.10641945780E+04 -0.23812097995E+03 -0.96086459234E+03  0.14534347168E+04  0.10100000352E+00 0.  1.
</event>
<event>
 5   0  0.2284329E-05  0.2201334E+04  0.7818609E-02  0.8517873E-01
        2   -1    0    0  501    0  0.00000000000E+00  0.00000000000E+00  0.18485066292E+04  0.18485066292E+04  0.25500000920E-02 0.  1.
       -2   -1    0    0    0  501  0.00000000000E+00  0.00000000000E+00 -0.65537627959E+03  0.65537627960E+03  0.25500000920E-02 0. -1.
    10030    2    1    2    0    0  0.00000000000E+00  0.00000000000E+00  0.11931303496E+04  0.25038829088E+04  0.22013335935E+04 0.  0.
        2    1    3    3  502    0  0.26032116493E+03 -0.63765248458E+03  0.15731078831E+04  0.17172758112E+04  0.25500000920E-02 0.  1.
       -2    1    3    3    0  502 -0.26032116493E+03  0.63765248458E+03 -0.37997753347E+03  0.78660709757E+03  0.25500000920E-02 0. -1.
</event>
<event>
 5   0  0.2289708E-05  0.2316886E+04  0.7818609E-02  0.8471293E-01
       -2   -1    0    0    0  501  0.00000000000E+00  0.00000000000E+00  0.11928823139E+04  0.11928823139E+04  0.25500000920E-02 0. -1.
        2   -1    0    0  501    0  0.00000000000E+00  0.00000000000E+00 -0.11249978350E+04  0.11249978350E+04  0.25500000920E-02 0.  1.
    10030    2    1    2    0    0  0.00000000000E+00  0.00000000000E+00  0.67884478948E+02  0.23178801489E+04  0.23168858587E+04 0.  0.
        5    1    3    3  502    0  0.45883535203E+03  0.35550144548E+03 -0.96901319157E+03  0.11295662059E+04  0.46999998093E+01 0.  1.
       -5    1    3    3    0  502 -0.45883535203E+03 -0.35550144548E+03  0.10368976705E+04  0.11883139430E+04  0.46999998093E+01 0. -1.
</event>
<event>
 5   0  0.2229552E-05  0.2202262E+04  0.7818609E-02  0.8517487E-01
       -2   -1    0    0    0  501  0.00000000000E+00  0.00000000000E+00  0.47186614346E+03  0.47186614347E+03  0.25500000920E-02 0. -1.
        2   -1    0    0  501    0  0.00000000000E+00  0.00000000000E+00 -0.25695623318E+04  0.25695623318E+04  0.25500000920E-02 0.  1.
    10030    2    1    2    0    0  0.00000000000E+00  0.00000000000E+00 -0.20976961883E+04  0.30414284752E+04  0.22022619898E+04 0.  0.
        1    1    3    3  502    0 -0.33384576272E+03  0.33132535293E+03  0.32615100021E+03  0.57236697821E+03  0.50400001928E-02 0. -1.
       -1    1    3    3    0  502  0.33384576272E+03 -0.33132535293E+03 -0.24238471885E+04  0.24690614970E+04  0.50400001928E-02 0.  1.
</event>
<event>
 5   0  0.2298329E-05  0.2192776E+04  0.7818609E-02  0.8521441E-01
       -2   -1    0    0    0  501  0.00000000000E+00  0.00000000000E+00  0.65014375196E+03  0.65014375197E+03  0.25500000920E-02 0.  1.
        2   -1    0    0  501    0  0.00000000000E+00  0.00000000000E+00 -0.18489247581E+04  0.18489247581E+04  0.25500000920E-02 0. -1.
    10030    2    1    2    0    0  0.00000000000E+00  0.00000000000E+00 -0.11987810061E+04  0.24990685101E+04  0.21927762123E+04 0.  0.
        4    1    3    3  502    0  0.12126796896E+03  0.55873502999E+03  0.46679109268E+03  0.73809639691E+03  0.12699999809E+01 0.  1.
       -4    1    3    3    0  502 -0.12126796896E+03 -0.55873502999E+03 -0.16655720988E+04  0.17609721131E+04  0.12699999809E+01 0. -1.
</event>
<event>
 5   0  0.2289708E-05  0.2184761E+04  0.7818609E-02  0.8524798E-01
       -2   -1    0    0    0  501  0.00000000000E+00  0.00000000000E+00  0.73598062013E+03  0.73598062014E+03  0.25500000920E-02 0.  1.
        2   -1    0    0  501    0  0.00000000000E+00  0.00000000000E+00 -0.16213683438E+04  0.16213683438E+04  0.25500000920E-02 0. -1.
    10030    2    1    2    0    0  0.00000000000E+00  0.00000000000E+00 -0.88538772369E+03  0.23573489640E+04  0.21847614782E+04 0.  0.
        5    1    3    3  502    0 -0.91364793581E+03 -0.35161581576E+03  0.80243495045E+02  0.98226643076E+03  0.46999998093E+01 0.  1.
       -5    1    3    3    0  502  0.91364793581E+03  0.35161581576E+03 -0.96563121873E+03  0.13750825332E+04  0.46999998093E+01 0. -1.
</event>
<event>
 5   0  0.2319707E-05  0.2195553E+04  0.7818609E-02  0.8520281E-01
       -2   -1    0    0    0  501  0.00000000000E+00  0.00000000000E+00  0.12907229381E+04  0.12907229381E+04  0.25500000920E-02 0.  1.
        2   -1    0    0  501    0  0.00000000000E+00  0.00000000000E+00 -0.93367278534E+03  0.93367278535E+03  0.25500000920E-02 0. -1.
    10030    2    1    2    0    0  0.00000000000E+00  0.00000000000E+00  0.35705015276E+03  0.22243957235E+04  0.21955526691E+04 0.  0.
        3    1    3    3  502    0  0.27343517513E+03 -0.14791861861E+03  0.12451934308E+04  0.12834147432E+04  0.10100000352E+00 0.  1.
       -3    1    3    3    0  502 -0.27343517513E+03  0.14791861861E+03 -0.88814327803E+03  0.94098098027E+03  0.10100000352E+00 0. -1.
</event>
<event>
 5   0  0.1071208E-05  0.2192349E+04  0.7818609E-02  0.8521619E-01
        1   -1    0    0  501    0  0.00000000000E+00  0.00000000000E+00  0.16634604919E+04  0.16634604919E+04  0.50400001928E-02 0. -1.
       -1   -1    0    0    0  501  0.00000000000E+00  0.00000000000E+00 -0.72234897603E+03  0.72234897605E+03  0.50400001928E-02 0.  1.
    10030    2    1    2    0    0  0.00000000000E+00  0.00000000000E+00  0.94111151589E+03  0.23858094680E+04  0.21923494092E+04 0.  0.
        4    1    3    3  502    0  0.17740042621E+03  0.42696509004E+03  0.15521552926E+04  0.16195548045E+04  0.12699999809E+01 0. -1.
       -4    1    3    3    0  502 -0.17740042621E+03 -0.42696509004E+03 -0.61104377675E+03  0.76625466350E+03  0.12699999809E+01 0.  1.
</event>
<event>
 5   0  0.2289708E-05  0.2210493E+04  0.7818609E-02  0.8514073E-01
       -2   -1    0    0    0  501  0.00000000000E+00  0.00000000000E+00  0.18589289623E+04  0.18589289623E+04  0.25500000920E-02 0. -1.
        2   -1    0    0  501    0  0.00000000000E+00  0.00000000000E+00 -0.65713648515E+03  0.65713648516E+03  0.25500000920E-02 0.  1.
    10030    2    1    2    0    0  0.00000000000E+00  0.00000000000E+00  0.12017924772E+04  0.25160654475E+04  0.22104931979E+04 0.  0.
        5    1    3    3  502    0 -0.41530656797E+03 -0.82441800206E+03 -0.90907931656E+02  0.92759416210E+03  0.46999998093E+01 0.  1.
       -5    1    3    3    0  502  0.41530656797E+03  0.82441800206E+03  0.12927004088E+04  0.15884712854E+04  0.46999998093E+01 0. -1.
</event>
<event>
 5   0  0.1033733E-05  0.2198389E+04  0.7818609E-02  0.8519099E-01
       -1   -1    0    0    0  501  0.00000000000E+00  0.00000000000E+00  0.71571275659E+03  0.71571275661E+03  0.50400001928E-02 0. -1.
        1   -1    0    0  501    0  0.00000000000E+00  0.00000000000E+00 -0.16881469057E+04  0.16881469057E+04  0.50400001928E-02 0.  1.
    10030    2    1    2    0    0  0.00000000000E+00  0.00000000000E+00 -0.97243414911E+03  0.24038596623E+04  0.21983887513E+04 0.  0.
        5    1    3    3  502    0  0.41235791612E+02  0.10537070173E+04 -0.82538023016E+03  0.13391316154E+04  0.46999998093E+01 0. -1.
       -5    1    3    3    0  502 -0.41235791612E+02 -0.10537070173E+04 -0.14705391895E+03  0.10647280470E+04  0.46999998093E+01 0.  1.
</event>
<event>
 5   0  0.1033733E-05  0.2209220E+04  0.7818609E-02  0.8514600E-01
       -1   -1    0    0    0  501  0.00000000000E+00  0.00000000000E+00  0.11228318998E+04  0.11228318999E+04  0.50400001928E-02 0.  1.
        1   -1    0    0  501    0  0.00000000000E+00  0.00000000000E+00 -0.10866839896E+04  0.10866839896E+04  0.50400001928E-02 0. -1.
    10030    2    1    2    0    0  0.00000000000E+00  0.00000000000E+00  0.36147910213E+02  0.22095158895E+04  0.22092201779E+04 0.  0.
        5    1    3    3  502    0  0.46804364916E+03 -0.67986922578E+03  0.75223919642E+03  0.11167689646E+04  0.46999998093E+01 0.  1.
       -5    1    3    3    0  502 -0.46804364916E+03  0.67986922578E+03 -0.71609128621E+03  0.10927469249E+04  0.46999998093E+01 0. -1.
</event>
<event>
 5   0  0.1033733E-05  0.2203438E+04  0.7818609E-02  0.8516999E-01
       -1   -1    0    0    0  501  0.00000000000E+00  0.00000000000E+00  0.68161759500E+03  0.68161759502E+03  0.50400001928E-02 0. -1.
        1   -1    0    0  501    0  0.00000000000E+00  0.00000000000E+00 -0.17807408410E+04  0.17807408410E+04  0.50400001928E-02 0.  1.
    10030    2    1    2    0    0  0.00000000000E+00  0.00000000000E+00 -0.10991232460E+04  0.24623584361E+04  0.22034375774E+04 0.  0.
        5    1    3    3  502    0 -0.67612742788E+03  0.17967178891E+03  0.40152339596E+03  0.80664327802E+03  0.46999998093E+01 0. -1.
       -5    1    3    3    0  502  0.67612742788E+03 -0.17967178891E+03 -0.15006466420E+04  0.16557151580E+04  0.46999998093E+01 0.  1.
</event>
<event>
 5   0  0.1049198E-05  0.2200450E+04  0.7818609E-02  0.8518241E-01
        1   -1    0    0  501    0  0.00000000000E+00  0.00000000000E+00  0.89652629790E+03  0.89652629791E+03  0.50400001928E-02 0.  1.
       -1   -1    0    0    0  501  0.00000000000E+00  0.00000000000E+00 -0.13502055061E+04  0.13502055061E+04  0.50400001928E-02 0. -1.
    10030    2    1    2    0    0  0.00000000000E+00  0.00000000000E+00 -0.45367920819E+03  0.22467318040E+04  0.22004497211E+04 0.  0.
        1    1    3    3  502    0  0.89016536646E+03 -0.39030805333E+03 -0.75320166766E+03  0.12296534098E+04  0.50400001928E-02 0. -1.
       -1    1    3    3    0  502 -0.89016536646E+03  0.39030805333E+03  0.29952245947E+03  0.10170783942E+04  0.50400001928E-02 0.  1.
</event>
<event>
 5   0  0.2319707E-05  0.2199400E+04  0.7818609E-02  0.8518678E-01
        2   -1    0    0  501    0  0.00000000000E+00  0.00000000000E+00  0.10840941983E+04  0.10840941983E+04  0.25500000920E-02 0. -1.
       -2   -1    0    0    0  501  0.00000000000E+00  0.00000000000E+00 -0.11155308574E+04  0.11155308574E+04  0.25500000920E-02 0.  1.
    10030    2    1    2    0    0  0.00000000000E+00  0.00000000000E+00 -0.31436659142E+02  0.21996250557E+04  0.21994004006E+04 0.  0.
        3    1    3    3  502    0  0.78288327811E+03  0.53630196236E+03  0.54004923746E+03  0.10918695943E+04  0.10100000352E+00 0. -1.
       -3    1    3    3    0  502 -0.78288327811E+03 -0.53630196236E+03 -0.57148589660E+03  0.11077554614E+04  0.10100000352E+00 0.  1.
</event>
<event>
 5   0  0.8003875E-06  0.2180498E+04  0.7818609E-02  0.8526589E-01
       -4   -1    0    0    0  501  0.00000000000E+00  0.00000000000E+00  0.16777691968E+04  0.16777696774E+04  0.12699999809E+01 0.  1.
        4   -1    0    0  501    0  0.00000000000E+00  0.00000000000E+00 -0.70846535775E+03  0.70846649605E+03  0.12699999809E+01 0. -1.
    10030    2    1    2    0    0  0.00000000000E+00  0.00000000000E+00  0.96930383902E+03  0.23862361735E+04  0.21804983704E+04 0.  0.
        4    1    3    3  502    0 -0.17408452028E+03  0.54920570203E+03 -0.52826636740E+03  0.78166443642E+03  0.12699999809E+01 0. -1.
       -4    1    3    3    0  502  0.17408452028E+03 -0.54920570203E+03  0.14975702064E+04  0.16045717371E+04  0.12699999809E+01 0.  1.
</event>
<event>
 5   0  0.1071208E-05  0.2198497E+04  0.7818609E-02  0.8519054E-01
       -1   -1    0    0    0  501  0.00000000000E+00  0.00000000000E+00  0.12190982851E+04  0.12190982851E+04  0.50400001928E-02 0.  1.
        1   -1    0    0  501    0  0.00000000000E+00  0.00000000000E+00 -0.99118073553E+03  0.99118073554E+03  0.50400001928E-02 0. -1.
    10030    2    1    2    0    0  0.00000000000E+00  0.00000000000E+00  0.22791754954E+03  0.22102790206E+04  0.21984965180E+04 0.  0.
        4    1    3    3  502    0  0.80759883880E+03 -0.72297960838E+03  0.29777663713E+03  0.11240942741E+04  0.12699999809E+01 0.  1.
       -4    1    3    3    0  502 -0.80759883880E+03  0.72297960838E+03 -0.69859087588E+02  0.10861847465E+04  0.12699999809E+01 0. -1.
</event>
<event>
 5   0  0.2284329E-05  0.2206103E+04  0.7818609E-02  0.8515892E-01
        2   -1    0    0  501    0  0.00000000000E+00  0.00000000000E+00  0.18007718427E+04  0.18007718427E+04  0.25500000920E-02 0. -1.
       -2   -1    0    0    0  501  0.00000000000E+00  0.00000000000E+00 -0.67566729655E+03  0.67566729656E+03  0.25500000920E-02 0.  1.
    10030    2    1    2    0    0  0.00000000000E+00  0.00000000000E+00  0.11251045461E+04  0.24764391392E+04  0.22061030281E+04 0.  0.
        2    1    3    3  502    0 -0.47831727661E+03  0.46529296202E+03  0.15484963760E+04  0.16861571647E+04  0.25500000920E-02 0. -1.
       -2    1    3    3    0  502  0.47831727661E+03 -0.46529296202E+03 -0.42339182989E+03  0.79028197451E+03  0.25500000920E-02 0.  1.
</event>
<event>
 5   0  0.2284329E-05  0.2193311E+04  0.7818609E-02  0.8521217E-01
        2   -1    0    0  501    0  0.00000000000E+00  0.00000000000E+00  0.10434278583E+04  0.10434278583E+04  0.25500000920E-02 0. -1.
       -2   -1    0    0    0  501  0.00000000000E+00  0.00000000000E+00 -0.11525986395E+04  0.11525986395E+04  0.25500000920E-02 0.  1.
    10030    2    1    2    0    0  0.00000000000E+00  0.00000000000E+00 -0.10917078122E+03  0.21960264978E+04  0.21933112227E+04 0.  0.
        2    1    3    3  502    0 -0.45803436373E+03  0.56733923706E+03  0.76556496140E+03  0.10572412205E+04  0.25500000920E-02 0. -1.
       -2    1    3    3    0  502  0.45803436373E+03 -0.56733923706E+03 -0.87473574262E+03  0.11387852773E+04  0.25500000920E-02 0.  1.
</event>
<event>
 5   0  0.1049198E-05  0.2193698E+04  0.7818609E-02  0.8521056E-01
       -1   -1    0    0    0  501  0.00000000000E+00  0.00000000000E+00  0.14479397740E+04  0.14479397740E+04  0.50400001928E-02 0.  1.
        1   -1    0    0  501    0  0.00000000000E+00  0.00000000000E+00 -0.83088955252E+03  0.83088955253E+03  0.50400001928E-02 0. -1.
    10030    2    1    2    0    0  0.00000000000E+00  0.00000000000E+00  0.61705022145E+03  0.22788293265E+04  0.21936982754E+04 0.  0.
        1    1    3    3  502    0 -0.82816178054E+03 -0.68510088183E+03  0.53579102785E+03  0.12009526130E+04  0.50400001928E-02 0. -1.
       -1    1    3    3    0  502  0.82816178054E+03  0.68510088183E+03  0.81259193600E+02  0.10778767135E+04  0.50400001928E-02 0.  1.
</event>
<event>
 5   0  0.2289708E-05  0.2208616E+04  0.7818609E-02  0.8514851E-01
       -2   -1    0    0    0  501  0.00000000000E+00  0.00000000000E+00  0.53704224482E+03  0.53704224483E+03  0.25500000920E-02 0.  1.
        2   -1    0    0  501    0  0.00000000000E+00  0.00000000000E+00 -0.22707632271E+04  0.22707632271E+04  0.25500000920E-02 0. -1.
    10030    2    1    2    0    0  0.00000000000E+00  0.00000000000E+00 -0.17337209823E+04  0.28078054719E+04  0.22086156578E+04 0.  0.
        5    1    3    3  502    0 -0.47496073193E+03 -0.99416445998E+03 -0.77238151016E+03  0.13455652929E+04  0.46999998093E+01 0.  1.
       -5    1    3    3    0  502  0.47496073193E+03  0.99416445998E+03 -0.96133947212E+03  0.14622401790E+04  0.46999998093E+01 0. -1.
</event>
<event>
 5   0  0.1005538E-05  0.2201517E+04  0.7818609E-02  0.8517797E-01
       -1   -1    0    0    0  501  0.00000000000E+00  0.00000000000E+00  0.11150944491E+04  0.11150944491E+04  0.50400001928E-02 0.  1.
        1   -1    0    0  501    0  0.00000000000E+00  0.00000000000E+00 -0.10866063683E+04  0.10866063683E+04  0.50400001928E-02 0. -1.
    10030    2    1    2    0    0  0.00000000000E+00  0.00000000000E+00  0.28488080836E+02  0.22017008174E+04  0.22015165043E+04 0.  0.
        3    1    3    3  502    0  0.39547367318E+03 -0.29224203514E+03  0.99914316665E+03  0.11135941410E+04  0.10100000352E+00 0.  1.
       -3    1    3    3    0  502 -0.39547367318E+03  0.29224203514E+03 -0.97065508582E+03  0.10881066763E+04  0.10100000352E+00 0. -1.
</event>
<event>
 5   0  0.2298329E-05  0.2201460E+04  0.7818609E-02  0.8517821E-01
        2   -1    0    0  501    0  0.00000000000E+00  0.00000000000E+00  0.98714324084E+03  0.98714324084E+03  0.25500000920E-02 0.  1.
       -2   -1    0    0    0  501  0.00000000000E+00  0.00000000000E+00 -0.12273869205E+04  0.12273869205E+04  0.25500000920E-02 0. -1.
    10030    2    1    2    0    0  0.00000000000E+00  0.00000000000E+00 -0.24024367968E+03  0.22145301614E+04  0.22014601541E+04 0.  0.
        4    1    3    3  502    0 -0.10897309743E+04  0.32834443550E+02  0.32480465076E+02  0.10907099938E+04  0.12699999809E+01 0.  1.
       -4    1    3    3    0  502  0.10897309743E+04 -0.32834443550E+02 -0.27272414476E+03  0.11238201676E+04  0.12699999809E+01 0. -1.
</event>
<event>
 5   0  0.8003875E-06  0.2195691E+04  0.7818609E-02  0.8520224E-01
       -4   -1    0    0    0  501  0.00000000000E+00  0.00000000000E+00  0.86994100220E+03  0.86994192921E+03  0.12699999809E+01 0. -1.
        4   -1    0    0  501    0  0.00000000000E+00  0.00000000000E+00 -0.13854533899E+04  0.13854539720E+04  0.12699999809E+01 0.  1.
    10030    2    1    2    0    0  0.00000000000E+00  0.00000000000E+00 -0.51551238772E+03  0.22553959012E+04  0.21956906998E+04 0.  0.
        4    1    3    3  502    0  0.23262069232E+03  0.96784607816E+03 -0.73340751563E+03  0.12364168449E+04  0.12699999809E+01 0.  1.
       -4    1    3    3    0  502 -0.23262069232E+03 -0.96784607816E+03  0.21789512791E+03  0.10189790563E+04  0.12699999809E+01 0. -1.
</event>
<event>
 5   0  0.1049198E-05  0.2192613E+04  0.7818609E-02  0.8521509E-01
       -1   -1    0    0    0  501  0.00000000000E+00  0.00000000000E+00  0.20593785165E+04  0.20593785165E+04  0.50400001928E-02 0. -1.
        1   -1    0    0  501    0  0.00000000000E+00  0.00000000000E+00 -0.58361672464E+03  0.58361672466E+03  0.50400001928E-02 0.  1.
    10030    2    1    2    0    0  0.00000000000E+00  0.00000000000E+00  0.14757617919E+04  0.26429952412E+04  0.21926128200E+04 0.  0.
        1    1    3    3  502    0  0.24338730366E+03 -0.15744631736E+03 -0.53658535308E+03  0.60987749884E+03  0.50400001928E-02 0.  1.
       -1    1    3    3    0  502 -0.24338730366E+03  0.15744631736E+03  0.20123471449E+04  0.20331177423E+04  0.50400001928E-02 0. -1.
</event>
<event>
 5   0  0.1049198E-05  0.2107944E+04  0.7818609E-02  0.8557752E-01
        1   -1    0    0  501    0  0.00000000000E+00  0.00000000000E+00  0.17225117747E+04  0.17225117747E+04  0.50400001928E-02 0. -1.
       -1   -1    0    0    0  501  0.00000000000E+00  0.00000000000E+00 -0.64490513247E+03  0.64490513249E+03  0.50400001928E-02 0.  1.
    10030    2    1    2    0    0  0.00000000000E+00  0.00000000000E+00  0.10776066422E+04  0.23674169072E+04  0.21079437225E+04 0.  0.
        1    1    3    3  502    0  0.40088261469E+03  0.82033246071E+03 -0.52507525386E+02  0.91455413022E+03  0.50400001928E-02 0.  1.
       -1    1    3    3    0  502 -0.40088261469E+03 -0.82033246071E+03  0.11301141676E+04  0.14528627770E+04  0.50400001928E-02 0. -1.
</event>
<event>
 5   0  0.1005538E-05  0.2227104E+04  0.7818609E-02  0.8507231E-01
       -1   -1    0    0    0  501  0.00000000000E+00  0.00000000000E+00  0.72016597463E+03  0.72016597465E+03  0.50400001928E-02 0. -1.
        1   -1    0    0  501    0  0.00000000000E+00  0.00000000000E+00 -0.17218227020E+04  0.17218227020E+04  0.50400001928E-02 0.  1.
    10030    2    1    2    0    0  0.00000000000E+00  0.00000000000E+00 -0.10016567274E+04  0.24419886767E+04  0.22271040608E+04 0.  0.
        3    1    3    3  502    0  0.74311636460E+03 -0.77736158005E+03 -0.18401188008E+03  0.10910423180E+04  0.10100000352E+00 0. -1.
       -3    1    3    3    0  502 -0.74311636460E+03  0.77736158005E+03 -0.81764484729E+03  0.13509463587E+04  0.10100000352E+00 0.  1.
</event>
<event>
 5   0  0.2298329E-05  0.2211334E+04  0.7818609E-02  0.8513725E-01
        2   -1    0    0  501    0  0.00000000000E+00  0.00000000000E+00  0.95062087596E+03  0.95062087596E+03  0.25500000920E-02 0. -1.
       -2   -1    0    0    0  501  0.00000000000E+00  0.00000000000E+00 -0.12860016020E+04  0.12860016020E+04  0.25500000920E-02 0.  1.
    10030    2    1    2    0    0  0.00000000000E+00  0.00000000000E+00 -0.33538072604E+03  0.22366224780E+04  0.22113344111E+04 0.  0.
        4    1    3    3  502    0 -0.29480927798E+03 -0.10573845824E+04 -0.30158126101E+03  0.11383881304E+04  0.12699999809E+01 0.  1.
       -4    1    3    3    0  502  0.29480927798E+03  0.10573845824E+04 -0.33799465033E+02  0.10982343476E+04  0.12699999809E+01 0. -1.
</event>
<event>
 5   0  0.2229552E-05  0.2205219E+04  0.7818609E-02  0.8516259E-01
       -2   -1    0    0    0  501  0.00000000000E+00  0.00000000000E+00  0.28679768060E+04  0.28679768060E+04  0.25500000920E-02 0. -1.
        2   -1    0    0  501    0  0.00000000000E+00  0.00000000000E+00 -0.42390431200E+03  0.42390431201E+03  0.25500000920E-02 0.  1.
    10030    2    1    2    0    0  0.00000000000E+00  0.00000000000E+00  0.24440724940E+04  0.32918811180E+04  0.22052190229E+04 0.  0.
        1    1    3    3  502    0  0.22661547789E+02 -0.10258063341E+04  0.18246332899E+04  0.20933415449E+04  0.50400001928E-02 0. -1.
       -1    1    3    3    0  502 -0.22661547789E+02  0.10258063341E+04  0.61943920402E+03  0.11985395731E+04  0.50400001928E-02 0.  1.
</event>
<event>
 5   0  0.8003875E-06  0.2199243E+04  0.7818609E-02  0.8518743E-01
        4   -1    0    0  501    0  0.00000000000E+00  0.00000000000E+00  0.88508989205E+03  0.88509080320E+03  0.12699999809E+01 0.  1.
       -4   -1    0    0    0  501  0.00000000000E+00  0.00000000000E+00 -0.13661499330E+04  0.13661505233E+04  0.12699999809E+01 0. -1.
    10030    2    1    2    0    0  0.00000000000E+00  0.00000000000E+00 -0.48106004093E+03  0.22512413265E+04  0.21992427667E+04 0.  0.
        1    1    3    3  502    0 -0.82035595019E+03  0.67383782267E+03 -0.53388193442E+03  0.11883060280E+04  0.50400001928E-02 0.  1.
       -1    1    3    3    0  502  0.82035595019E+03 -0.67383782267E+03  0.52821893490E+02  0.10629352985E+04  0.50400001928E-02 0. -1.
</event>
<event>
 5   0  0.1007682E-05  0.2184150E+04  0.7818609E-02  0.8525054E-01
        1   -1    0    0  501    0  0.00000000000E+00  0.00000000000E+00  0.15574350302E+04  0.15574350302E+04  0.50400001928E-02 0.  1.
       -1   -1    0    0    0  501  0.00000000000E+00  0.00000000000E+00 -0.76576426368E+03  0.76576426370E+03  0.50400001928E-02 0. -1.
    10030    2    1    2    0    0  0.00000000000E+00  0.00000000000E+00  0.79167076655E+03  0.23231992939E+04  0.21841502597E+04 0.  0.
        2    1    3    3  502    0 -0.20286257187E+03 -0.65502260885E+03 -0.50822806200E+03  0.85352422589E+03  0.25500000920E-02 0. -1.
       -2    1    3    3    0  502  0.20286257187E+03  0.65502260885E+03  0.12998988286E+04  0.14696750681E+04  0.25500000920E-02 0.  1.
</event>
<event>
 5   0  0.8003875E-06  0.2205005E+04  0.7818609E-02  0.8516348E-01
        3   -1    0    0  501    0  0.00000000000E+00  0.00000000000E+00  0.18772258040E+04  0.18772258067E+04  0.10100000352E+00 0.  1.
       -3   -1    0    0    0  501  0.00000000000E+00  0.00000000000E+00 -0.64750436779E+03  0.64750437567E+03  0.10100000352E+00 0. -1.
    10030    2    1    2    0    0  0.00000000000E+00  0.00000000000E+00  0.12297214362E+04  0.25247301824E+04  0.22050051436E+04 0.  0.
        2    1    3    3  502    0 -0.54397045113E+03  0.44737418792E+03 -0.35634229537E+03  0.78932081386E+03  0.25500000920E-02 0. -1.
       -2    1    3    3    0  502  0.54397045113E+03 -0.44737418792E+03  0.15860637315E+04  0.17354093685E+04  0.25500000920E-02 0.  1.
</event>
<event>
 5   0  0.2298329E-05  0.2212289E+04  0.7818609E-02  0.8513331E-01
        2   -1    0    0  501    0  0.00000000000E+00  0.00000000000E+00  0.48970667115E+03  0.48970667116E+03  0.25500000920E-02 0. -1.
       -2   -1    0    0    0  501  0.00000000000E+00  0.00000000000E+00 -0.24985478568E+04  0.24985478568E+04  0.25500000920E-02 0.  1.
    10030    2    1    2    0    0  0.00000000000E+00  0.00000000000E+00 -0.20088411856E+04  0.29882545280E+04  0.22122889085E+04 0.  0.
        4    1    3    3  502    0  0.38501972681E+03 -0.29815232458E+03 -0.23459693027E+04  0.23959775835E+04  0.12699999809E+01 0.  1.
       -4    1    3    3    0  502 -0.38501972681E+03  0.29815232458E+03  0.33712811705E+03  0.59227694442E+03  0.12699999809E+01 0. -1.
</event>
<event>
 5   0  0.1005538E-05  0.2197708E+04  0.7818609E-02  0.8519383E-01
       -1   -1    0    0    0  501  0.00000000000E+00  0.00000000000E+00  0.10745672756E+04  0.10745672756E+04  0.50400001928E-02 0.  1.
        1   -1    0    0  501    0  0.00000000000E+00  0.00000000000E+00 -0.11236893359E+04  0.11236893359E+04  0.50400001928E-02 0. -1.
    10030    2    1    2    0    0  0.00000000000E+00  0.00000000000E+00 -0.49122060295E+02  0.21982566114E+04  0.21977077042E+04 0.  0.
        3    1    3    3  502    0 -0.44681621490E+03  0.28056691610E+03 -0.98870906387E+03  0.11206730779E+04  0.10100000352E+00 0. -1.
       -3    1    3    3    0  502  0.44681621490E+03 -0.28056691610E+03  0.93958700358E+03  0.10775835336E+04  0.10100000352E+00 0.  1.
</event>
<event>
 5   0  0.2298329E-05  0.2237552E+04  0.7818609E-02  0.8502959E-01
        2   -1    0    0  501    0  0.00000000000E+00  0.00000000000E+00  0.79697996431E+03  0.79697996431E+03  0.25500000920E-02 0. -1.
       -2   -1    0    0    0  501  0.00000000000E+00  0.00000000000E+00 -0.15705040670E+04  0.15705040670E+04  0.25500000920E-02 0.  1.
    10030    2    1    2    0    0  0.00000000000E+00  0.00000000000E+00 -0.77352410269E+03  0.23674840313E+04  0.22375524801E+04 0.  0.
        4    1    3    3  502    0  0.45192102668E+03 -0.98289868585E+03 -0.85006113663E+02  0.10851498022E+04  0.12699999809E+01 0. -1.
       -4    1    3    3    0  502 -0.45192102668E+03  0.98289868585E+03 -0.68851798902E+03  0.12823342291E+04  0.12699999809E+01 0.  1.
</event>
<event>
 5   0  0.1005538E-05  0.2227278E+04  0.7818609E-02  0.8507160E-01
        1   -1    0    0  501    0  0.00000000000E+00  0.00000000000E+00  0.16202323039E+04  0.16202323039E+04  0.50400001928E-02 0. -1.
       -1   -1    0    0    0  501  0.00000000000E+00  0.00000000000E+00 -0.76544057899E+03  0.76544057900E+03  0.50400001928E-02 0.  1.
    10030    2    1    2    0    0  0.00000000000E+00  0.00000000000E+00  0.85479172488E+03  0.23856728829E+04  0.22272777580E+04 0.  0.
        3    1    3    3  502    0 -0.49462360472E+03 -0.62898910550E+03  0.12570177351E+04  0.14900917427E+04  0.10100000352E+00 0. -1.
       -3    1    3    3    0  502  0.49462360472E+03  0.62898910550E+03 -0.40222601018E+03  0.89558114019E+03  0.10100000352E+00 0.  1.
</event>
<event>
 5   0  0.1005538E-05  0.2206999E+04  0.7818609E-02  0.8515521E-01
        1   -1    0    0  501    0  0.00000000000E+00  0.00000000000E+00  0.13335766922E+04  0.13335766922E+04  0.50400001928E-02 0.  1.
       -1   -1    0    0    0  501  0.00000000000E+00  0.00000000000E+00 -0.91311678006E+03  0.91311678008E+03  0.50400001928E-02 0. -1.
    10030    2    1    2    0    0  0.00000000000E+00  0.00000000000E+00  0.42045991211E+03  0.22466934723E+04  0.22069990985E+04 0.  0.
        3    1    3    3  502    0 -0.28561049178E+03 -0.64249689207E+03 -0.65555811636E+03  0.96131787847E+03  0.10100000352E+00 0. -1.
       -3    1    3    3    0  502  0.28561049178E+03  0.64249689207E+03  0.10760180285E+04  0.12853755938E+04  0.10100000352E+00 0.  1.
</event>
<event>
 5   0  0.2298329E-05  0.2201074E+04  0.7818609E-02  0.8517981E-01
       -2   -1    0    0    0  501  0.00000000000E+00  0.00000000000E+00  0.65273586278E+03  0.65273586278E+03  0.25500000920E-02 0.  1.
        2   -1    0    0  501    0  0.00000000000E+00  0.00000000000E+00 -0.18555471567E+04  0.18555471567E+04  0.25500000920E-02 0. -1.
    10030    2    1    2    0    0  0.00000000000E+00  0.00000000000E+00 -0.12028112939E+04  0.25082830195E+04  0.22010744415E+04 0.  0.
        4    1    3    3  502    0  0.87412184417E+03 -0.55376916734E+02 -0.13607617698E+04  0.16182798919E+04  0.12699999809E+01 0. -1.
       -4    1    3    3    0  502 -0.87412184417E+03  0.55376916734E+02  0.15795047592E+03  0.89000312758E+03  0.12699999809E+01 0.  1.
</event>
<event>
 5   0  0.2229552E-05  0.2201524E+04  0.7818609E-02  0.8517794E-01
        2   -1    0    0  501    0  0.00000000000E+00  0.00000000000E+00  0.91644270536E+03  0.91644270536E+03  0.25500000920E-02 0. -1.
       -2   -1    0    0    0  501  0.00000000000E+00  0.00000000000E+00 -0.13221529591E+04  0.13221529591E+04  0.25500000920E-02 0.  1.
    10030    2    1    2    0    0  0.00000000000E+00  0.00000000000E+00 -0.40571025376E+03  0.22385956645E+04  0.22015244125E+04 0.  0.
        1    1    3    3  502    0 -0.84235120861E+03 -0.68937689719E+03 -0.36957134486E+03  0.11495125245E+04  0.50400001928E-02 0.  1.
       -1    1    3    3    0  502  0.84235120861E+03  0.68937689719E+03 -0.36138908898E+02  0.10890831400E+04  0.50400001928E-02 0. -1.
</event>
<event>
 5   0  0.2284329E-05  0.2208166E+04  0.7818609E-02  0.8515037E-01
        2   -1    0    0  501    0  0.00000000000E+00  0.00000000000E+00  0.19242755050E+04  0.19242755050E+04  0.25500000920E-02 0. -1.
       -2   -1    0    0    0  501  0.00000000000E+00  0.00000000000E+00 -0.63348499150E+03  0.63348499150E+03  0.25500000920E-02 0.  1.
    10030    2    1    2    0    0  0.00000000000E+00  0.00000000000E+00  0.12907905135E+04  0.25577604965E+04  0.22081663451E+04 0.  0.
        2    1    3    3  502    0 -0.31386512506E+03 -0.10541356585E+04  0.75701745841E+03  0.13352111202E+04  0.25500000920E-02 0. -1.
       -2    1    3    3    0  502  0.31386512506E+03  0.10541356585E+04  0.53377305513E+03  0.12225493763E+04  0.25500000920E-02 0.  1.
</event>
<event>
 5   0  0.2298329E-05  0.2196275E+04  0.7818609E-02  0.8519980E-01
        2   -1    0    0  501    0  0.00000000000E+00  0.00000000000E+00  0.16632146472E+04  0.16632146472E+04  0.25500000920E-02 0.  1.
       -2   -1    0    0    0  501  0.00000000000E+00  0.00000000000E+00 -0.72504515231E+03  0.72504515231E+03  0.25500000920E-02 0. -1.
    10030    2    1    2    0    0  0.00000000000E+00  0.00000000000E+00  0.93816949489E+03  0.23882597995E+04  0.21962747708E+04 0.  0.
        4    1    3    3  502    0 -0.28197695877E+03  0.16052718904E+03 -0.67172811424E+03  0.74598944769E+03  0.12699999809E+01 0. -1.
       -4    1    3    3    0  502  0.28197695877E+03 -0.16052718904E+03  0.16098976091E+04  0.16422703518E+04  0.12699999809E+01 0.  1.
</event>
<event>
 5   0  0.1049198E-05  0.2198410E+04  0.7818609E-02  0.8519090E-01
        1   -1    0    0  501    0  0.00000000000E+00  0.00000000000E+00  0.86954710839E+03  0.86954710840E+03  0.50400001928E-02 0.  1.
       -1   -1    0    0    0  501  0.00000000000E+00  0.00000000000E+00 -0.13895182003E+04  0.13895182003E+04  0.50400001928E-02 0. -1.
    10030    2    1    2    0    0  0.00000000000E+00  0.00000000000E+00 -0.51997109190E+03  0.22590653087E+04  0.21984099100E+04 0.  0.
        1    1    3    3  502    0 -0.74338548763E+03 -0.46806859393E+03  0.41895665282E+03  0.97325991842E+03  0.50400001928E-02 0.  1.
       -1    1    3    3    0  502  0.74338548763E+03  0.46806859393E+03 -0.93892774472E+03  0.12858053903E+04  0.50400001928E-02 0. -1.
</event>
<event>
 5   0  0.1005538E-05  0.2192800E+04  0.7818609E-02  0.8521431E-01
        1   -1    0    0  501    0  0.00000000000E+00  0.00000000000E+00  0.10199795525E+04  0.10199795525E+04  0.50400001928E-02 0. -1.
       -1   -1    0    0    0  501  0.00000000000E+00  0.00000000000E+00 -0.11785458112E+04  0.11785458112E+04  0.50400001928E-02 0.  1.
    10030    2    1    2    0    0  0.00000000000E+00  0.00000000000E+00 -0.15856625868E+03  0.21985253637E+04  0.21927996982E+04 0.  0.
        3    1    3    3  502    0  0.18844211992E+03 -0.22659776570E+03  0.97952151416E+03  0.10228975447E+04  0.10100000352E+00 0. -1.
       -3    1    3    3    0  502 -0.18844211992E+03  0.22659776570E+03 -0.11380877728E+04  0.11756278190E+04  0.10100000352E+00 0.  1.
</event>
<event>
 5   0  0.2284329E-05  0.2227315E+04  0.7818609E-02  0.8507144E-01
       -2   -1    0    0    0  501  0.00000000000E+00  0.00000000000E+00  0.51617260531E+03  0.51617260532E+03  0.25500000920E-02 0. -1.
        2   -1    0    0  501    0  0.00000000000E+00  0.00000000000E+00 -0.24027481304E+04  0.24027481304E+04  0.25500000920E-02 0.  1.
    10030    2    1    2    0    0  0.00000000000E+00  0.00000000000E+00 -0.18865755251E+04  0.29189207357E+04  0.22273147621E+04 0.  0.
        2    1    3    3  502    0 -0.62269306826E+03  0.36588032494E+03  0.16764982021E+03  0.74143208162E+03  0.25500000920E-02 0. -1.
       -2    1    3    3    0  502  0.62269306826E+03 -0.36588032494E+03 -0.20542253453E+04  0.21774886541E+04  0.25500000920E-02 0.  1.
</event>
<event>
 5   0  0.1007682E-05  0.2193457E+04  0.7818609E-02  0.8521156E-01
        1   -1    0    0  501    0  0.00000000000E+00  0.00000000000E+00  0.15879083389E+04  0.15879083389E+04  0.50400001928E-02 0.  1.
       -1   -1    0    0    0  501  0.00000000000E+00  0.00000000000E+00 -0.75748275928E+03  0.75748275930E+03  0.50400001928E-02 0. -1.
    10030    2    1    2    0    0  0.00000000000E+00  0.00000000000E+00  0.83042557957E+03  0.23453910982E+04  0.21934568061E+04 0.  0.
        2    1    3    3  502    0 -0.94991302926E+03  0.45392276287E+03  0.86628307531E+02  0.10563546287E+04  0.25500000920E-02 0. -1.
       -2    1    3    3    0  502  0.94991302926E+03 -0.45392276287E+03  0.74379727204E+03  0.12890364695E+04  0.25500000920E-02 0.  1.
</event>
<event>
 5   0  0.1071208E-05  0.2195692E+04  0.7818609E-02  0.8520223E-01
       -1   -1    0    0    0  501  0.00000000000E+00  0.00000000000E+00  0.82042688034E+03  0.82042688035E+03  0.50400001928E-02 0.  1.
        1   -1    0    0  501    0  0.00000000000E+00  0.00000000000E+00 -0.14690712683E+04  0.14690712684E+04  0.50400001928E-02 0. -1.
    10030    2    1    2    0    0  0.00000000000E+00  0.00000000000E+00 -0.64864438801E+03  0.22894981487E+04  0.21956917431E+04 0.  0.
        4    1    3    3  502    0  0.24488347359E+03  0.10674032503E+04 -0.40472911846E+03  0.11675293943E+04  0.12699999809E+01 0.  1.
       -4    1    3    3    0  502 -0.24488347359E+03 -0.10674032503E+04 -0.24391526955E+03  0.11219687544E+04  0.12699999809E+01 0. -1.
</event>
<event>
 5   0  0.1071208E-05  0.2196507E+04  0.7818609E-02  0.8519884E-01
        1   -1    0    0  501    0  0.00000000000E+00  0.00000000000E+00  0.11905867815E+04  0.11905867815E+04  0.50400001928E-02 0.  1.
       -1   -1    0    0    0  501  0.00000000000E+00  0.00000000000E+00 -0.10130805845E+04  0.10130805845E+04  0.50400001928E-02 0. -1.
    10030    2    1    2    0    0  0.00000000000E+00  0.00000000000E+00  0.17750619693E+03  0.22036673660E+04  0.21965066378E+04 0.  0.
        4    1    3    3  502    0 -0.53982416892E+03  0.95443444338E+03  0.15062667280E+03  0.11068176216E+04  0.12699999809E+01 0.  1.
       -4    1    3    3    0  502  0.53982416892E+03 -0.95443444338E+03  0.26879524130E+02  0.10968497444E+04  0.12699999809E+01 0. -1.
</event>
<event>
 5   0  0.2284329E-05  0.2190739E+04  0.7818609E-02  0.8522293E-01
       -2   -1    0    0    0  501  0.00000000000E+00  0.00000000000E+00  0.54233910116E+03  0.54233910116E+03  0.25500000920E-02 0. -1.
        2   -1    0    0  501    0  0.00000000000E+00  0.00000000000E+00 -0.22123321451E+04  0.22123321451E+04  0.25500000920E-02 0.  1.
    10030    2    1    2    0    0  0.00000000000E+00  0.00000000000E+00 -0.16699930439E+04  0.27546712462E+04  0.21907388955E+04 0.  0.
        2    1    3    3  502    0  0.32370585324E+03 -0.76303230666E+03  0.65466861684E+02  0.83143832628E+03  0.25500000920E-02 0. -1.
       -2    1    3    3    0  502 -0.32370585324E+03  0.76303230666E+03 -0.17354599056E+04  0.19232329199E+04  0.25500000920E-02 0.  1.
</event>
<event>
 5   0  0.1049198E-05  0.2195642E+04  0.7818609E-02  0.8520244E-01
        1   -1    0    0  501    0  0.00000000000E+00  0.00000000000E+00  0.15905841610E+04  0.15905841610E+04  0.50400001928E-02 0. -1.
       -1   -1    0    0    0  501  0.00000000000E+00  0.00000000000E+00 -0.75771615191E+03  0.75771615193E+03  0.50400001928E-02 0.  1.
    10030    2    1    2    0    0  0.00000000000E+00  0.00000000000E+00  0.83286800913E+03  0.23483003130E+04  0.21956423296E+04 0.  0.
        1    1    3    3  502    0 -0.18053999334E+03 -0.10696869813E+04  0.23623720746E+03  0.11102400395E+04  0.50400001928E-02 0.  1.
       -1    1    3    3    0  502  0.18053999334E+03  0.10696869813E+04  0.59663080167E+03  0.12380602734E+04  0.50400001928E-02 0. -1.
</event>
<event>
 5   0  0.2284329E-05  0.2170979E+04  0.7818609E-02  0.8530605E-01
       -2   -1    0    0    0  501  0.00000000000E+00  0.00000000000E+00  0.91491988408E+03  0.91491988408E+03  0.25500000920E-02 0. -1.
        2   -1    0    0  501    0  0.00000000000E+00  0.00000000000E+00 -0.12878586376E+04  0.12878586376E+04  0.25500000920E-02 0.  1.
    10030    2    1    2    0    0  0.00000000000E+00  0.00000000000E+00 -0.37293875352E+03  0.22027785217E+04  0.21709790192E+04 0.  0.
        2    1    3    3  502    0 -0.27707952538E+03 -0.10095604286E+04 -0.47755503285E+03  0.11506711658E+04  0.25500000920E-02 0.  1.
       -2    1    3    3    0  502  0.27707952538E+03  0.10095604286E+04  0.10461627934E+03  0.10521073559E+04  0.25500000920E-02 0. -1.
</event>
<event>
 5   0  0.2284329E-05  0.2250022E+04  0.7818609E-02  0.8497892E-01
       -2   -1    0    0    0  501  0.00000000000E+00  0.00000000000E+00  0.96353791728E+03  0.96353791728E+03  0.25500000920E-02 0. -1.
        2   -1    0    0  501    0  0.00000000000E+00  0.00000000000E+00 -0.13135439326E+04  0.13135439326E+04  0.25500000920E-02 0.  1.
    10030    2    1    2    0    0  0.00000000000E+00  0.00000000000E+00 -0.35000601536E+03  0.22770818499E+04  0.22500216756E+04 0.  0.
        2    1    3    3  502    0 -0.45425384519E+03 -0.63088539820E+03 -0.99797821048E+03  0.12650389125E+04  0.25500000920E-02 0. -1.
       -2    1    3    3    0  502  0.45425384519E+03  0.63088539820E+03  0.64797219512E+03  0.10120429374E+04  0.25500000920E-02 0.  1.
</event>
<event>
 5   0  0.2284329E-05  0.2203133E+04  0.7818609E-02  0.8517125E-01
       -2   -1    0    0    0  501  0.00000000000E+00  0.00000000000E+00  0.53972917614E+03  0.53972917615E+03  0.25500000920E-02 0. -1.
        2   -1    0    0  501    0  0.00000000000E+00  0.00000000000E+00 -0.22482556146E+04  0.22482556146E+04  0.25500000920E-02 0.  1.
    10030    2    1    2    0    0  0.00000000000E+00  0.00000000000E+00 -0.17085264384E+04  0.27879847907E+04  0.22031333601E+04 0.  0.
        2    1    3    3  502    0  0.10134764628E+04 -0.42256688495E+03 -0.74284609403E+03  0.13257140085E+04  0.25500000920E-02 0.  1.
       -2    1    3    3    0  502 -0.10134764628E+04  0.42256688495E+03 -0.96568034440E+03  0.14622707822E+04  0.25500000920E-02 0. -1.
</event>
<event>
 5   0  0.2229552E-05  0.2198102E+04  0.7818609E-02  0.8519219E-01
        2   -1    0    0  501    0  0.00000000000E+00  0.00000000000E+00  0.12744417409E+04  0.12744417409E+04  0.25500000920E-02 0.  1.
       -2   -1    0    0    0  501  0.00000000000E+00  0.00000000000E+00 -0.94779770081E+03  0.94779770081E+03  0.25500000920E-02 0. -1.
    10030    2    1    2    0    0  0.00000000000E+00  0.00000000000E+00  0.32664404006E+03  0.22222394417E+04  0.21981018646E+04 0.  0.
        1    1    3    3  502    0 -0.84067075290E+03 -0.25553628672E+03 -0.50414516171E+03  0.10130096015E+04  0.50400001928E-02 0. -1.
       -1    1    3    3    0  502  0.84067075290E+03  0.25553628672E+03  0.83078920177E+03  0.12092298402E+04  0.50400001928E-02 0.  1.
</event>
<event>
 5   0  0.1007682E-05  0.2201727E+04  0.7818609E-02  0.8517709E-01
       -1   -1    0    0    0  501  0.00000000000E+00  0.00000000000E+00  0.89993748599E+03  0.89993748600E+03  0.50400001928E-02 0.  1.
        1   -1    0    0  501    0  0.00000000000E+00  0.00000000000E+00 -0.13466501862E+04  0.13466501862E+04  0.50400001928E-02 0. -1.
    10030    2    1    2    0    0  0.00000000000E+00  0.00000000000E+00 -0.44671270021E+03  0.22465876722E+04  0.22017274882E+04 0.  0.
        2    1    3    3  502    0  0.42570443903E+03  0.10105899457E+04 -0.12450799819E+03  0.11036387767E+04  0.25500000920E-02 0.  1.
       -2    1    3    3    0  502 -0.42570443903E+03 -0.10105899457E+04 -0.32220470202E+03  0.11429488955E+04  0.25500000920E-02 0. -1.
</event>
<event>
 5   0  0.2298329E-05  0.2190094E+04  0.7818609E-02  0.8522562E-01
       -2   -1    0    0    0  501  0.00000000000E+00  0.00000000000E+00  0.69841831246E+03  0.69841831246E+03  0.25500000920E-02 0.  1.
        2   -1    0    0  501    0  0.00000000000E+00  0.00000000000E+00 -0.17169200645E+04  0.17169200645E+04  0.25500000920E-02 0. -1.
    10030    2    1    2    0    0  0.00000000000E+00  0.00000000000E+00 -0.10185017521E+04  0.24153383770E+04  0.21900944401E+04 0.  0.
        4    1    3    3  502    0  0.29896148174E+03  0.10533615287E+04 -0.52397805322E+03  0.12138793560E+04  0.12699999809E+01 0. -1.
       -4    1    3    3    0  502 -0.29896148174E+03 -0.10533615287E+04 -0.49452369886E+03  0.12014590211E+04  0.12699999809E+01 0.  1.
</event>
<event>
 5   0  0.2289708E-05  0.2202055E+04  0.7818609E-02  0.8517573E-01
       -2   -1    0    0    0  501  0.00000000000E+00  0.00000000000E+00  0.63773943404E+03  0.63773943405E+03  0.25500000920E-02 0.  1.
        2   -1    0    0  501    0  0.00000000000E+00  0.00000000000E+00 -0.19008724952E+04  0.19008724952E+04  0.25500000920E-02 0. -1.
    10030    2    1    2    0    0  0.00000000000E+00  0.00000000000E+00 -0.12631330611E+04  0.25386119292E+04  0.22020548125E+04 0.  0.
        5    1    3    3  502    0 -0.10918609146E+03  0.31267124922E+02 -0.18940896944E+04  0.18974975879E+04  0.46999998093E+01 0. -1.
       -5    1    3    3    0  502  0.10918609146E+03 -0.31267124922E+02  0.63095663323E+03  0.64111434135E+03  0.46999998093E+01 0.  1.
</event>
<event>
 5   0  0.1005538E-05  0.2163075E+04  0.7818609E-02  0.8533956E-01
        1   -1    0    0  501    0  0.00000000000E+00  0.00000000000E+00  0.60553158439E+03  0.60553158441E+03  0.50400001928E-02 0. -1.
       -1   -1    0    0    0  501  0.00000000000E+00  0.00000000000E+00 -0.19317302211E+04  0.19317302211E+04  0.50400001928E-02 0.  1.
    10030    2    1    2    0    0  0.00000000000E+00  0.00000000000E+00 -0.13261986367E+04  0.25372618055E+04  0.21630752751E+04 0.  0.
        3    1    3    3  502    0 -0.39345675981E+03  0.42833630501E+02  0.51753573028E+03  0.65152604250E+03  0.10100000352E+00 0. -1.
       -3    1    3    3    0  502  0.39345675981E+03 -0.42833630501E+02 -0.18437343669E+04  0.18857357630E+04  0.10100000352E+00 0.  1.
</event>
<event>
 5   0  0.2289708E-05  0.2196259E+04  0.7818609E-02  0.8519987E-01
        2   -1    0    0  501    0  0.00000000000E+00  0.00000000000E+00  0.18558710014E+04  0.18558710014E+04  0.25500000920E-02 0. -1.
       -2   -1    0    0    0  501  0.00000000000E+00  0.00000000000E+00 -0.64976959621E+03  0.64976959621E+03  0.25500000920E-02 0.  1.
    10030    2    1    2    0    0  0.00000000000E+00  0.00000000000E+00  0.12061014052E+04  0.25056405976E+04  0.21962591388E+04 0.  0.
        5    1    3    3  502    0 -0.53416842264E+03  0.94522118731E+03  0.41528365691E+03  0.11624377843E+04  0.46999998093E+01 0.  1.
       -5    1    3    3    0  502  0.53416842264E+03 -0.94522118731E+03  0.79081774827E+03  0.13432028133E+04  0.46999998093E+01 0. -1.
</event>
<event>
 5   0  0.1033733E-05  0.2198979E+04  0.7818609E-02  0.8518853E-01
       -1   -1    0    0    0  501  0.00000000000E+00  0.00000000000E+00  0.11779832664E+04  0.11779832664E+04  0.50400001928E-02 0. -1.
        1   -1    0    0  501    0  0.00000000000E+00  0.00000000000E+00 -0.10262261287E+04  0.10262261287E+04  0.50400001928E-02 0.  1.
    10030    2    1    2    0    0  0.00000000000E+00  0.00000000000E+00  0.15175713770E+03  0.22042093951E+04  0.21989790423E+04 0.  0.
        5    1    3    3  502    0  0.39680972173E+03 -0.52394495599E+03 -0.80762520029E+03  0.10412765369E+04  0.46999998093E+01 0.  1.
       -5    1    3    3    0  502 -0.39680972173E+03  0.52394495599E+03  0.95938233799E+03  0.11629328582E+04  0.46999998093E+01 0. -1.
</event>
<event>
 5   0  0.2289708E-05  0.2218701E+04  0.7818609E-02  0.8510684E-01
       -2   -1    0    0    0  501  0.00000000000E+00  0.00000000000E+00  0.63870609621E+03  0.63870609621E+03  0.25500000920E-02 0.  1.
        2   -1    0    0  501    0  0.00000000000E+00  0.00000000000E+00 -0.19267995758E+04  0.19267995758E+04  0.25500000920E-02 0. -1.
    10030    2    1    2    0    0  0.00000000000E+00  0.00000000000E+00 -0.12880934796E+04  0.25655056721E+04  0.22187010932E+04 0.  0.
        5    1    3    3  502    0 -0.31389470116E+03  0.44058490690E+03  0.47583885102E+03  0.72047876148E+03  0.46999998093E+01 0.  1.
       -5    1    3    3    0  502  0.31389470116E+03 -0.44058490690E+03 -0.17639323307E+04  0.18450269106E+04  0.46999998093E+01 0. -1.
</event>
<event>
 5   0  0.2284329E-05  0.2214054E+04  0.7818609E-02  0.8512601E-01
       -2   -1    0    0    0  501  0.00000000000E+00  0.00000000000E+00  0.94542943521E+03  0.94542943521E+03  0.25500000920E-02 0. -1.
        2   -1    0    0  501    0  0.00000000000E+00  0.00000000000E+00 -0.12962458896E+04  0.12962458896E+04  0.25500000920E-02 0.  1.
    10030    2    1    2    0    0  0.00000000000E+00  0.00000000000E+00 -0.35081645442E+03  0.22416753248E+04  0.22140542173E+04 0.  0.
        2    1    3    3  502    0 -0.68181235591E+03 -0.37812611056E+03  0.62031081662E+03  0.99630966741E+03  0.25500000920E-02 0. -1.
       -2    1    3    3    0  502  0.68181235591E+03  0.37812611056E+03 -0.97112727104E+03  0.12453656574E+04  0.25500000920E-02 0.  1.
</event>
<event>
 5   0  0.1049198E-05  0.2217486E+04  0.7818609E-02  0.8511185E-01
       -1   -1    0    0    0  501  0.00000000000E+00  0.00000000000E+00  0.10974155681E+04  0.10974155681E+04  0.50400001928E-02 0. -1.
        1   -1    0    0  501    0  0.00000000000E+00  0.00000000000E+00 -0.11201870849E+04  0.11201870850E+04  0.50400001928E-02 0.  1.
    10030    2    1    2    0    0  0.00000000000E+00  0.00000000000E+00 -0.22771516847E+02  0.22176026531E+04  0.22174857350E+04 0.  0.
        1    1    3    3  502    0  0.23073432775E+03 -0.21861973833E+03 -0.10736459937E+04  0.11197091764E+04  0.50400001928E-02 0.  1.
       -1    1    3    3    0  502 -0.23073432775E+03  0.21861973833E+03  0.10508744768E+04  0.10978934767E+04  0.50400001928E-02 0. -1.
</event>
<event>
 5   0  0.1005538E-05  0.2198223E+04  0.7818609E-02  0.8519168E-01
        1   -1    0    0  501    0  0.00000000000E+00  0.00000000000E+00  0.79580224167E+03  0.79580224169E+03  0.50400001928E-02 0.  1.
       -1   -1    0    0    0  501  0.00000000000E+00  0.00000000000E+00 -0.15180232992E+04  0.15180232992E+04  0.50400001928E-02 0. -1.
    10030    2    1    2    0    0  0.00000000000E+00  0.00000000000E+00 -0.72222105752E+03  0.23138255409E+04  0.21982232320E+04 0.  0.
        3    1    3    3  502    0 -0.55428175417E+03 -0.93365101701E+03 -0.18150957660E+03  0.11008534059E+04  0.10100000352E+00 0.  1.
       -3    1    3    3    0  502  0.55428175417E+03  0.93365101701E+03 -0.54071148093E+03  0.12129721350E+04  0.10100000352E+00 0. -1.
</event>
<event>
 5   0  0.2298329E-05  0.2197404E+04  0.7818609E-02  0.8519509E-01
        2   -1    0    0  501    0  0.00000000000E+00  0.00000000000E+00  0.15382332139E+04  0.15382332139E+04  0.25500000920E-02 0. -1.
       -2   -1    0    0    0  501  0.00000000000E+00  0.00000000000E+00 -0.78476160363E+03  0.78476160364E+03  0.25500000920E-02 0.  1.
    10030    2    1    2    0    0  0.00000000000E+00  0.00000000000E+00  0.75347161030E+03  0.23229948176E+04  0.21974042539E+04 0.  0.
        4    1    3    3  502    0  0.96447485182E+02  0.10572713495E+04  0.77690247387E+02  0.10645009212E+04  0.12699999809E+01 0.  1.
       -4    1    3    3    0  502 -0.96447485182E+02 -0.10572713495E+04  0.67578136291E+03  0.12584938964E+04  0.12699999809E+01 0. -1.
</event>
<event>
 5   0  0.2298329E-05  0.2190957E+04  0.7818609E-02  0.8522201E-01
        2   -1    0    0  501    0  0.00000000000E+00  0.00000000000E+00  0.13595538338E+04  0.13595538338E+04  0.25500000920E-02 0.  1.
       -2   -1    0    0    0  501  0.00000000000E+00  0.00000000000E+00 -0.88269635318E+03  0.88269635319E+03  0.25500000920E-02 0. -1.
    10030    2    1    2    0    0  0.00000000000E+00  0.00000000000E+00  0.47685748063E+03  0.22422501870E+04  0.21909570613E+04 0.  0.
        4    1    3    3  502    0 -0.44925688481E+03  0.96937639921E+03  0.48606307338E+03  0.11737892810E+04  0.12699999809E+01 0.  1.
       -4    1    3    3    0  502  0.44925688481E+03 -0.96937639921E+03 -0.92055927506E+01  0.10684609060E+04  0.12699999809E+01 0. -1.
</event>
<event>
 5   0  0.2229552E-05  0.2205310E+04  0.7818609E-02  0.8516221E-01
        2   -1    0    0  501    0  0.00000000000E+00  0.00000000000E+00  0.11105850268E+04  0.11105850268E+04  0.25500000920E-02 0.  1.
       -2   -1    0    0    0  501  0.00000000000E+00  0.00000000000E+00 -0.10947812382E+04  0.10947812382E+04  0.25500000920E-02 0. -1.
    10030    2    1    2    0    0  0.00000000000E+00  0.00000000000E+00  0.15803788683E+02  0.22053662650E+04  0.22053096388E+04 0.  0.
        1    1    3    3  502    0 -0.76972149593E+03 -0.33275905312E+03  0.72391461006E+03  0.11078141231E+04  0.50400001928E-02 0.  1.
       -1    1    3    3    0  502  0.76972149593E+03  0.33275905312E+03 -0.70811082137E+03  0.10975521419E+04  0.50400001928E-02 0. -1.
</event>
<event>
 5   0  0.2289708E-05  0.2208579E+04  0.7818609E-02  0.8514866E-01
       -2   -1    0    0    0  501  0.00000000000E+00  0.00000000000E+00  0.62017105472E+03  0.62017105473E+03  0.25500000920E-02 0.  1.
        2   -1    0    0  501    0  0.00000000000E+00  0.00000000000E+00 -0.19663201662E+04  0.19663201662E+04  0.25500000920E-02 0. -1.
    10030    2    1    2    0    0  0.00000000000E+00  0.00000000000E+00 -0.13461491114E+04  0.25864912209E+04  0.22085785939E+04 0.  0.
        5    1    3    3  502    0 -0.21715828767E+03 -0.84547300360E+03  0.11900750022E+03  0.88100351692E+03  0.46999998093E+01 0.  1.
       -5    1    3    3    0  502  0.21715828767E+03  0.84547300360E+03 -0.14651566117E+04  0.17054877040E+04  0.46999998093E+01 0. -1.
</event>
<event>
 5   0  0.1005538E-05  0.2193790E+04  0.7818609E-02  0.8521017E-01
       -1   -1    0    0    0  501  0.00000000000E+00  0.00000000000E+00  0.94610883420E+03  0.94610883422E+03  0.50400001928E-02 0.  1.
        1   -1    0    0  501    0  0.00000000000E+00  0.00000000000E+00 -0.12717124915E+04  0.12717124915E+04  0.50400001928E-02 0. -1.
    10030    2    1    2    0    0  0.00000000000E+00  0.00000000000E+00 -0.32560365725E+03  0.22178213257E+04  0.21937898010E+04 0.  0.
        3    1    3    3  502    0 -0.73160414778E+01  0.10860047814E+04 -0.31849701225E+03  0.11317686454E+04  0.10100000352E+00 0.  1.
       -3    1    3    3    0  502  0.73160414778E+01 -0.10860047814E+04 -0.71066449954E+01  0.10860526803E+04  0.10100000352E+00 0. -1.
</event>
<event>
 5   0  0.1049198E-05  0.2201091E+04  0.7818609E-02  0.8517974E-01
        1   -1    0    0  501    0  0.00000000000E+00  0.00000000000E+00  0.93971790179E+03  0.93971790181E+03  0.50400001928E-02 0.  1.
       -1   -1    0    0    0  501  0.00000000000E+00  0.00000000000E+00 -0.12888978627E+04  0.12888978627E+04  0.50400001928E-02 0. -1.
    10030    2    1    2    0    0  0.00000000000E+00  0.00000000000E+00 -0.34917996092E+03  0.22286157645E+04  0.22010909978E+04 0.  0.
        1    1    3    3  502    0 -0.91146741228E+02 -0.68759654311E+03 -0.10397360989E+04  0.12498591481E+04  0.50400001928E-02 0. -1.
       -1    1    3    3    0  502  0.91146741228E+02  0.68759654311E+03  0.69055613801E+03  0.97875661648E+03  0.50400001928E-02 0.  1.
</event>
<event>
 5   0  0.2284329E-05  0.2201908E+04  0.7818609E-02  0.8517634E-01
        2   -1    0    0  501    0  0.00000000000E+00  0.00000000000E+00  0.10048974230E+04  0.10048974230E+04  0.25500000920E-02 0.  1.
       -2   -1    0    0    0  501  0.00000000000E+00  0.00000000000E+00 -0.12061928021E+04  0.12061928021E+04  0.25500000920E-02 0. -1.
    10030    2    1    2    0    0  0.00000000000E+00  0.00000000000E+00 -0.20129537910E+03  0.22110902251E+04  0.22019082983E+04 0.  0.
        2    1    3    3  502    0 -0.71383454504E+02  0.85549957918E+03 -0.79281508351E+03  0.11685593199E+04  0.25500000920E-02 0. -1.
       -2    1    3    3    0  502  0.71383454504E+02 -0.85549957918E+03  0.59151970441E+03  0.10425309052E+04  0.25500000920E-02 0.  1.
</event>
<event>
 5   0  0.1033733E-05  0.2193985E+04  0.7818609E-02  0.8520936E-01
        1   -1    0    0  501    0  0.00000000000E+00  0.00000000000E+00  0.26427888442E+04  0.26427888442E+04  0.50400001928E-02 0.  1.
       -1   -1    0    0    0  501  0.00000000000E+00  0.00000000000E+00 -0.45534934871E+03  0.45534934874E+03  0.50400001928E-02 0. -1.
    10030    2    1    2    0    0  0.00000000000E+00  0.00000000000E+00  0.21874394955E+04  0.30981381930E+04  0.21939846664E+04 0.  0.
        5    1    3    3  502    0  0.14084335462E+03  0.83292141081E+03  0.20819669103E+04  0.22468206944E+04  0.46999998093E+01 0.  1.
       -5    1    3    3    0  502 -0.14084335462E+03 -0.83292141081E+03  0.10547258517E+03  0.85131749855E+03  0.46999998093E+01 0. -1.
</event>
<event>
 5   0  0.1005538E-05  0.2194033E+04  0.7818609E-02  0.8520916E-01
       -1   -1    0    0    0  501  0.00000000000E+00  0.00000000000E+00  0.86655846123E+03  0.86655846125E+03  0.50400001928E-02 0.  1.
        1   -1    0    0  501    0  0.00000000000E+00  0.00000000000E+00 -0.13887637436E+04  0.13887637436E+04  0.50400001928E-02 0. -1.
    10030    2    1    2    0    0  0.00000000000E+00  0.00000000000E+00 -0.52220528237E+03  0.22553222049E+04  0.21940327916E+04 0.  0.
        3    1    3    3  502    0  0.45012191570E+03  0.39932909183E+03  0.68178377719E+03  0.90934184530E+03  0.10100000352E+00 0.  1.
       -3    1    3    3    0  502 -0.45012191570E+03 -0.39932909183E+03 -0.12039890596E+04  0.13459803596E+04  0.10100000352E+00 0. -1.
</event>
<event>
 5   0  0.1007682E-05  0.2212426E+04  0.7818609E-02  0.8513274E-01
       -1   -1    0    0    0  501  0.00000000000E+00  0.00000000000E+00  0.96252454307E+03  0.96252454309E+03  0.50400001928E-02 0.  1.
        1   -1    0    0  501    0  0.00000000000E+00  0.00000000000E+00 -0.12713519392E+04  0.12713519392E+04  0.50400001928E-02 0. -1.
    10030    2    1    2    0    0  0.00000000000E+00  0.00000000000E+00 -0.30882739615E+03  0.22338764823E+04  0.22124262197E+04 0.  0.
        2    1    3    3  502    0 -0.10346910292E+04  0.36054098629E+03 -0.30798074661E+03  0.11381684713E+04  0.25500000920E-02 0. -1.
       -2    1    3    3    0  502  0.10346910292E+04 -0.36054098629E+03 -0.84664953774E+00  0.10957080111E+04  0.25500000920E-02 0.  1.
</event>
<event>
 5   0  0.2284329E-05  0.2196873E+04  0.7818609E-02  0.8519731E-01
        2   -1    0    0  501    0  0.00000000000E+00  0.00000000000E+00  0.92325472171E+03  0.92325472171E+03  0.25500000920E-02 0.  1.
       -2   -1    0    0    0  501  0.00000000000E+00  0.00000000000E+00 -0.13068574916E+04  0.13068574916E+04  0.25500000920E-02 0. -1.
    10030    2    1    2    0    0  0.00000000000E+00  0.00000000000E+00 -0.38360276992E+03  0.22301122133E+04  0.21968726406E+04 0.  0.
        2    1    3    3  502    0 -0.83798014401E+03 -0.13400476965E+03  0.51617063887E+03  0.99327746802E+03  0.25500000920E-02 0.  1.
       -2    1    3    3    0  502  0.83798014401E+03  0.13400476965E+03 -0.89977340879E+03  0.12368347453E+04  0.25500000920E-02 0. -1.
</event>
<event>
 5   0  0.2319707E-05  0.2194826E+04  0.7818609E-02  0.8520585E-01
       -2   -1    0    0    0  501  0.00000000000E+00  0.00000000000E+00  0.47074868404E+03  0.47074868405E+03  0.25500000920E-02 0.  1.
        2   -1    0    0  501    0  0.00000000000E+00  0.00000000000E+00 -0.25582975814E+04  0.25582975814E+04  0.25500000920E-02 0. -1.
    10030    2    1    2    0    0  0.00000000000E+00  0.00000000000E+00 -0.20875488974E+04  0.30290462654E+04  0.21948259337E+04 0.  0.
        3    1    3    3  502    0 -0.19316221130E+03 -0.57520957800E+03 -0.23057317984E+04  0.23842350628E+04  0.10100000352E+00 0. -1.
       -3    1    3    3    0  502  0.19316221130E+03  0.57520957800E+03  0.21818290105E+03  0.64481120261E+03  0.10100000352E+00 0.  1.
</event>
<event>
 5   0  0.1033733E-05  0.2213004E+04  0.7818609E-02  0.8513035E-01
       -1   -1    0    0    0  501  0.00000000000E+00  0.00000000000E+00  0.12876197698E+04  0.12876197698E+04  0.50400001928E-02 0. -1.
        1   -1    0    0  501    0  0.00000000000E+00  0.00000000000E+00 -0.95086024729E+03  0.95086024731E+03  0.50400001928E-02 0.  1.
    10030    2    1    2    0    0  0.00000000000E+00  0.00000000000E+00  0.33675952253E+03  0.22384800171E+04  0.22130037983E+04 0.  0.
        5    1    3    3  502    0 -0.49847924250E+03 -0.41431755680E+03 -0.73870676150E+03  0.98277686306E+03  0.46999998093E+01 0.  1.
       -5    1    3    3    0  502  0.49847924250E+03  0.41431755680E+03  0.10754662840E+04  0.12557031541E+04  0.46999998093E+01 0. -1.
</event>
<event>
 5   0  0.1049198E-05  0.2210140E+04  0.7818609E-02  0.8514220E-01
       -1   -1    0    0    0  501  0.00000000000E+00  0.00000000000E+00  0.73348286874E+03  0.73348286875E+03  0.50400001928E-02 0.  1.
        1   -1    0    0  501    0  0.00000000000E+00  0.00000000000E+00 -0.16649049046E+04  0.16649049046E+04  0.50400001928E-02 0. -1.
    10030    2    1    2    0    0  0.00000000000E+00  0.00000000000E+00 -0.93142203589E+03  0.23983877734E+04  0.22101395663E+04 0.  0.
        1    1    3    3  502    0 -0.29226391163E+03  0.10651643578E+04 -0.42834060835E+03  0.11846809612E+04  0.50400001928E-02 0. -1.
       -1    1    3    3    0  502  0.29226391163E+03 -0.10651643578E+04 -0.50308142755E+03  0.12137068122E+04  0.50400001928E-02 0.  1.
</event>
<event>
 5   0  0.1005538E-05  0.2199908E+04  0.7818609E-02  0.8518466E-01
       -1   -1    0    0    0  501  0.00000000000E+00  0.00000000000E+00  0.10624325881E+04  0.10624325881E+04  0.50400001928E-02 0. -1.
        1   -1    0    0  501    0  0.00000000000E+00  0.00000000000E+00 -0.11388006177E+04  0.11388006177E+04  0.50400001928E-02 0.  1.
    10030    2    1    2    0    0  0.00000000000E+00  0.00000000000E+00 -0.76368029603E+02  0.22012332058E+04  0.21999080778E+04 0.  0.
        3    1    3    3  502    0 -0.19035556657E+03 -0.99278285233E+03 -0.47208775205E+03  0.11156701526E+04  0.10100000352E+00 0.  1.
       -3    1    3    3    0  502  0.19035556657E+03  0.99278285233E+03  0.39571972244E+03  0.10855630532E+04  0.10100000352E+00 0. -1.
</event>
<event>
 5   0  0.2289708E-05  0.2184372E+04  0.7818609E-02  0.8524961E-01
        2   -1    0    0  501    0  0.00000000000E+00  0.00000000000E+00  0.19194145957E+04  0.19194145957E+04  0.25500000920E-02 0. -1.
       -2   -1    0    0    0  501  0.00000000000E+00  0.00000000000E+00 -0.62147613236E+03  0.62147613236E+03  0.25500000920E-02 0.  1.
    10030    2    1    2    0    0  0.00000000000E+00  0.00000000000E+00  0.12979384633E+04  0.25408907280E+04  0.21843720922E+04 0.  0.
        5    1    3    3  502    0  0.22121035214E+03 -0.58834724902E+03  0.16879224141E+04  0.18011636992E+04  0.46999998093E+01 0. -1.
       -5    1    3    3    0  502 -0.22121035214E+03  0.58834724902E+03 -0.38998395078E+03  0.73972702883E+03  0.46999998093E+01 0.  1.
</event>
<event>
 5   0  0.8003875E-06  0.2166793E+04  0.7818609E-02  0.8532378E-01
        3   -1    0    0  501    0  0.00000000000E+00  0.00000000000E+00  0.11060483867E+04  0.11060483913E+04  0.10100000352E+00 0. -1.
       -3   -1    0    0    0  501  0.00000000000E+00  0.00000000000E+00 -0.10612082871E+04  0.10612082919E+04  0.10100000352E+00 0.  1.
    10030    2    1    2    0    0  0.00000000000E+00  0.00000000000E+00  0.44840099564E+02  0.21672566832E+04  0.21667927673E+04 0.  0.
        3    1    3    3  502    0  0.99690834896E+02 -0.13711147258E+03 -0.10478604027E+04  0.10614844569E+04  0.10100000352E+00 0.  1.
       -3    1    3    3    0  502 -0.99690834896E+02  0.13711147258E+03  0.10927005023E+04  0.11057722263E+04  0.10100000352E+00 0. -1.
</event>
<event>
 5   0  0.2284329E-05  0.2191186E+04  0.7818609E-02  0.8522106E-01
        2   -1    0    0  501    0  0.00000000000E+00  0.00000000000E+00  0.17174803153E+04  0.17174803153E+04  0.25500000920E-02 0.  1.
       -2   -1    0    0    0  501  0.00000000000E+00  0.00000000000E+00 -0.69888683354E+03  0.69888683354E+03  0.25500000920E-02 0. -1.
    10030    2    1    2    0    0  0.00000000000E+00  0.00000000000E+00  0.10185934818E+04  0.24163671488E+04  0.21911863264E+04 0.  0.
        2    1    3    3  502    0 -0.21087066113E+03 -0.79679372038E+01  0.16948577753E+04  0.17079440278E+04  0.25500000920E-02 0.  1.
       -2    1    3    3    0  502  0.21087066113E+03  0.79679372038E+01 -0.67626429350E+03  0.70842312103E+03  0.25500000920E-02 0. -1.
</event>
<event>
 5   0  0.2284329E-05  0.2197682E+04  0.7818609E-02  0.8519394E-01
       -2   -1    0    0    0  501  0.00000000000E+00  0.00000000000E+00  0.72650176366E+03  0.72650176366E+03  0.25500000920E-02 0. -1.
        2   -1    0    0  501    0  0.00000000000E+00  0.00000000000E+00 -0.16620078116E+04  0.16620078116E+04  0.25500000920E-02 0.  1.
    10030    2    1    2    0    0  0.00000000000E+00  0.00000000000E+00 -0.93550604794E+03  0.23885095753E+04  0.21976820574E+04 0.  0.
        2    1    3    3  502    0  0.85129866707E+03 -0.41039422235E+03 -0.10770756162E+04  0.14329077853E+04  0.25500000920E-02 0.  1.
       -2    1    3    3    0  502 -0.85129866707E+03  0.41039422235E+03  0.14156956823E+03  0.95560178994E+03  0.25500000920E-02 0. -1.
</event>
<event>
 5   0  0.2289708E-05  0.2204927E+04  0.7818609E-02  0.8516380E-01
        2   -1    0    0  501    0  0.00000000000E+00  0.00000000000E+00  0.18181168097E+04  0.18181168097E+04  0.25500000920E-02 0. -1.
       -2   -1    0    0    0  501  0.00000000000E+00  0.00000000000E+00 -0.66850822822E+03  0.66850822823E+03  0.25500000920E-02 0.  1.
    10030    2    1    2    0    0  0.00000000000E+00  0.00000000000E+00  0.11496085814E+04  0.24866250379E+04  0.22049272524E+04 0.  0.
        5    1    3    3  502    0  0.30887208609E+03 -0.97303459331E+03  0.10441545819E+04  0.14603010533E+04  0.46999998093E+01 0.  1.
       -5    1    3    3    0  502 -0.30887208609E+03  0.97303459331E+03  0.10545399954E+03  0.10263239846E+04  0.46999998093E+01 0. -1.
</event>
<event>
 5   0  0.2229552E-05  0.2194864E+04  0.7818609E-02  0.8520569E-01
        2   -1    0    0  501    0  0.00000000000E+00  0.00000000000E+00  0.10709820998E+04  0.10709820998E+04  0.25500000920E-02 0. -1.
       -2   -1    0    0    0  501  0.00000000000E+00  0.00000000000E+00 -0.11245346822E+04  0.11245346822E+04  0.25500000920E-02 0.  1.
    10030    2    1    2    0    0  0.00000000000E+00  0.00000000000E+00 -0.53552582364E+02  0.21955167821E+04  0.21948635632E+04 0.  0.
        1    1    3    3  502    0  0.15272404483E+03 -0.10867360317E+04 -0.32834393313E+02  0.10979061590E+04  0.50400001928E-02 0. -1.
       -1    1    3    3    0  502 -0.15272404483E+03  0.10867360317E+04 -0.20718189051E+02  0.10976106231E+04  0.50400001928E-02 0.  1.
</event>
<event>
 5   0  0.2284329E-05  0.2197187E+04  0.7818609E-02  0.8519600E-01
        2   -1    0    0  501    0  0.00000000000E+00  0.00000000000E+00  0.13066242146E+04  0.13066242146E+04  0.25500000920E-02 0. -1.
       -2   -1    0    0    0  501  0.00000000000E+00  0.00000000000E+00 -0.92368402046E+03  0.92368402047E+03  0.25500000920E-02 0.  1.
    10030    2    1    2    0    0  0.00000000000E+00  0.00000000000E+00  0.38294019417E+03  0.22303082351E+04  0.21971872090E+04 0.  0.
        2    1    3    3  502    0  0.33764030673E+03  0.10135769642E+04  0.45139387401E+03  0.11597825954E+04  0.25500000920E-02 0.  1.
       -2    1    3    3    0  502 -0.33764030673E+03 -0.10135769642E+04 -0.68453679837E+02  0.10705256397E+04  0.25500000920E-02 0. -1.
</event>
<event>
 5   0  0.2229552E-05  0.2195039E+04  0.7818609E-02  0.8520496E-01
       -2   -1    0    0    0  501  0.00000000000E+00  0.00000000000E+00  0.96605945764E+03  0.96605945765E+03  0.25500000920E-02 0.  1.
        2   -1    0    0  501    0  0.00000000000E+00  0.00000000000E+00 -0.12468688679E+04  0.12468688679E+04  0.25500000920E-02 0. -1.
    10030    2    1    2    0    0  0.00000000000E+00  0.00000000000E+00 -0.28080941022E+03  0.22129283255E+04  0.21950393730E+04 0.  0.
        1    1    3    3  502    0 -0.85914473784E+03 -0.41845744527E+03 -0.68453771896E+03  0.11755118897E+04  0.50400001928E-02 0. -1.
       -1    1    3    3    0  502  0.85914473784E+03  0.41845744527E+03  0.40372830873E+03  0.10374164358E+04  0.50400001928E-02 0.  1.
</event>
<event>
 5   0  0.1071208E-05  0.2186413E+04  0.7818609E-02  0.8524104E-01
        1   -1    0    0  501    0  0.00000000000E+00  0.00000000000E+00  0.11318075776E+04  0.11318075777E+04  0.50400001928E-02 0. -1.
       -1   -1    0    0    0  501  0.00000000000E+00  0.00000000000E+00 -0.10559223811E+04  0.10559223811E+04  0.50400001928E-02 0.  1.
    10030    2    1    2    0    0  0.00000000000E+00  0.00000000000E+00  0.75885196514E+02  0.21877299588E+04  0.21864134581E+04 0.  0.
        4    1    3    3  502    0  0.42217056131E+03  0.82201654665E+03 -0.54649826405E+03  0.10735926375E+04  0.12699999809E+01 0.  1.
       -4    1    3    3    0  502 -0.42217056131E+03 -0.82201654665E+03  0.62238346057E+03  0.11141373213E+04  0.12699999809E+01 0. -1.
</event>
<event>
 5   0  0.1071208E-05  0.2199303E+04  0.7818609E-02  0.8518718E-01
       -1   -1    0    0    0  501  0.00000000000E+00  0.00000000000E+00  0.11992938384E+04  0.11992938384E+04  0.50400001928E-02 0. -1.
        1   -1    0    0  501    0  0.00000000000E+00  0.00000000000E+00 -0.10082880625E+04  0.10082880625E+04  0.50400001928E-02 0.  1.
    10030    2    1    2    0    0  0.00000000000E+00  0.00000000000E+00  0.19100577592E+03  0.22075819008E+04  0.21993032175E+04 0.  0.
        4    1    3    3  502    0 -0.10451351037E+03 -0.10447118554E+04 -0.23266218536E+03  0.10753972476E+04  0.12699999809E+01 0.  1.
       -4    1    3    3    0  502  0.10451351037E+03  0.10447118554E+04  0.42366796128E+03  0.11321846533E+04  0.12699999809E+01 0. -1.
</event>
<event>
 5   0  0.1071208E-05  0.2174375E+04  0.7818609E-02  0.8529170E-01
       -1   -1    0    0    0  501  0.00000000000E+00  0.00000000000E+00  0.12073432515E+04  0.12073432515E+04  0.50400001928E-02 0. -1.
        1   -1    0    0  501    0  0.00000000000E+00  0.00000000000E+00 -0.97899010840E+03  0.97899010841E+03  0.50400001928E-02 0.  1.
    10030    2    1    2    0    0  0.00000000000E+00  0.00000000000E+00  0.22835314313E+03  0.21863333599E+04  0.21743754052E+04 0.  0.
        4    1    3    3  502    0 -0.17150430931E+03 -0.54530462186E+02  0.11922615651E+04  0.12057680341E+04  0.12699999809E+01 0. -1.
       -4    1    3    3    0  502  0.17150430931E+03  0.54530462186E+02 -0.96390842200E+03  0.98056532588E+03  0.12699999809E+01 0.  1.
</event>
<event>
 5   0  0.2298329E-05  0.2200417E+04  0.7818609E-02  0.8518254E-01
        2   -1    0    0  501    0  0.00000000000E+00  0.00000000000E+00  0.16944087257E+04  0.16944087257E+04  0.25500000920E-02 0. -1.
       -2   -1    0    0    0  501  0.00000000000E+00  0.00000000000E+00 -0.71438426307E+03  0.71438426308E+03  0.25500000920E-02 0.  1.
    10030    2    1    2    0    0  0.00000000000E+00  0.00000000000E+00  0.98002446265E+03  0.24087929888E+04  0.22004171685E+04 0.  0.
        4    1    3    3  502    0 -0.55074533301E+02  0.36555608979E+03  0.16243821698E+04  0.16659182169E+04  0.12699999809E+01 0. -1.
       -4    1    3    3    0  502  0.55074533301E+02 -0.36555608979E+03 -0.64435770716E+03  0.74287477187E+03  0.12699999809E+01 0.  1.
</event>
<event>
 5   0  0.1033733E-05  0.2182049E+04  0.7818609E-02  0.8525937E-01
        1   -1    0    0  501    0  0.00000000000E+00  0.00000000000E+00  0.20286648601E+04  0.20286648601E+04  0.50400001928E-02 0. -1.
       -1   -1    0    0    0  501  0.00000000000E+00  0.00000000000E+00 -0.58675782490E+03  0.58675782493E+03  0.50400001928E-02 0.  1.
    10030    2    1    2    0    0  0.00000000000E+00  0.00000000000E+00  0.14419070352E+04  0.26154226850E+04  0.21820494777E+04 0.  0.
        5    1    3    3  502    0 -0.33738211475E+03  0.42565310618E+03 -0.41317677541E+03  0.68245468413E+03  0.46999998093E+01 0.  1.
       -5    1    3    3    0  502  0.33738211475E+03 -0.42565310618E+03  0.18550838106E+04  0.19329680009E+04  0.46999998093E+01 0. -1.
</event>
<event>
 5   0  0.1007682E-05  0.2204478E+04  0.7818609E-02  0.8516567E-01
        1   -1    0    0  501    0  0.00000000000E+00  0.00000000000E+00  0.77381102159E+03  0.77381102160E+03  0.50400001928E-02 0. -1.
       -1   -1    0    0    0  501  0.00000000000E+00  0.00000000000E+00 -0.15700615749E+04  0.15700615749E+04  0.50400001928E-02 0.  1.
    10030    2    1    2    0    0  0.00000000000E+00  0.00000000000E+00 -0.79625055328E+03  0.23438725965E+04  0.22044781253E+04 0.  0.
        2    1    3    3  502    0 -0.10060064978E+04  0.33236159833E+03 -0.72135080771E+03  0.12817411180E+04  0.25500000920E-02 0.  1.
       -2    1    3    3    0  502  0.10060064978E+04 -0.33236159833E+03 -0.74899745572E+02  0.10621314785E+04  0.25500000920E-02 0. -1.
</event>
<event>
 5   0  0.1071208E-05  0.2215703E+04  0.7818609E-02  0.8511921E-01
       -1   -1    0    0    0  501  0.00000000000E+00  0.00000000000E+00  0.15091024254E+04  0.15091024254E+04  0.50400001928E-02 0.  1.
        1   -1    0    0  501    0  0.00000000000E+00  0.00000000000E+00 -0.81328789173E+03  0.81328789175E+03  0.50400001928E-02 0. -1.
    10030    2    1    2    0    0  0.00000000000E+00  0.00000000000E+00  0.69581453362E+03  0.23223903171E+04  0.22157028049E+04 0.  0.
        4    1    3    3  502    0  0.10422918065E+04 -0.11283995091E+03  0.72323895137E+03  0.12736487970E+04  0.12699999809E+01 0.  1.
       -4    1    3    3    0  502 -0.10422918065E+04  0.11283995091E+03 -0.27424417751E+02  0.10487415201E+04  0.12699999809E+01 0. -1.
</event>
<event>
 5   0  0.1071208E-05  0.2223068E+04  0.7818609E-02  0.8508888E-01
        1   -1    0    0  501    0  0.00000000000E+00  0.00000000000E+00  0.17763853587E+04  0.17763853587E+04  0.50400001928E-02 0. -1.
       -1   -1    0    0    0  501  0.00000000000E+00  0.00000000000E+00 -0.69551777194E+03  0.69551777195E+03  0.50400001928E-02 0.  1.
    10030    2    1    2    0    0  0.00000000000E+00  0.00000000000E+00  0.10808675867E+04  0.24719031306E+04  0.22230677784E+04 0.  0.
        4    1    3    3  502    0  0.54006070013E+03 -0.77173694154E+03 -0.11575997943E+03  0.94902342042E+03  0.12699999809E+01 0.  1.
       -4    1    3    3    0  502 -0.54006070013E+03  0.77173694154E+03  0.11966275662E+04  0.15228797102E+04  0.12699999809E+01 0. -1.
</event>
<event>
 5   0  0.2319707E-05  0.2197406E+04  0.7818609E-02  0.8519508E-01
        2   -1    0    0  501    0  0.00000000000E+00  0.00000000000E+00  0.21084497984E+04  0.21084497984E+04  0.25500000920E-02 0. -1.
       -2   -1    0    0    0  501  0.00000000000E+00  0.00000000000E+00 -0.57252904993E+03  0.57252904994E+03  0.25500000920E-02 0.  1.
    10030    2    1    2    0    0  0.00000000000E+00  0.00000000000E+00  0.15359207485E+04  0.26809788484E+04  0.21974064348E+04 0.  0.
        3    1    3    3  502    0  0.55459642345E+03  0.92202421091E+03  0.49666960735E+03  0.11850681615E+04  0.10100000352E+00 0. -1.
       -3    1    3    3    0  502 -0.55459642345E+03 -0.92202421091E+03  0.10392511412E+04  0.14959106869E+04  0.10100000352E+00 0.  1.
</event>
<event>
 5   0  0.1007682E-05  0.2201617E+04  0.7818609E-02  0.8517755E-01
        1   -1    0    0  501    0  0.00000000000E+00  0.00000000000E+00  0.10626377986E+04  0.10626377986E+04  0.50400001928E-02 0.  1.
       -1   -1    0    0    0  501  0.00000000000E+00  0.00000000000E+00 -0.11403504459E+04  0.11403504459E+04  0.50400001928E-02 0. -1.
    10030    2    1    2    0    0  0.00000000000E+00  0.00000000000E+00 -0.77712647372E+02  0.22029882445E+04  0.22016171216E+04 0.  0.
        2    1    3    3  502    0  0.68259902572E+03  0.42037504771E+03  0.71601583381E+03  0.10748652404E+04  0.25500000920E-02 0.  1.
       -2    1    3    3    0  502 -0.68259902572E+03 -0.42037504771E+03 -0.79372848118E+03  0.11281230042E+04  0.25500000920E-02 0. -1.
</event>
<event>
 5   0  0.2319707E-05  0.2207061E+04  0.7818609E-02  0.8515495E-01
        2   -1    0    0  501    0  0.00000000000E+00  0.00000000000E+00  0.72402040367E+03  0.72402040368E+03  0.25500000920E-02 0. -1.
       -2   -1    0    0    0  501  0.00000000000E+00  0.00000000000E+00 -0.16819678279E+04  0.16819678279E+04  0.25500000920E-02 0.  1.
    10030    2    1    2    0    0  0.00000000000E+00  0.00000000000E+00 -0.95794742426E+03  0.24059882316E+04  0.22070605119E+04 0.  0.
        3    1    3    3  502    0 -0.76597486408E+02 -0.38665347956E+03 -0.16026093955E+04  0.16503711622E+04  0.10100000352E+00 0.  1.
       -3    1    3    3    0  502  0.76597486408E+02  0.38665347956E+03  0.64466197127E+03  0.75561706941E+03  0.10100000352E+00 0. -1.
</event>
<event>
 5   0  0.1033733E-05  0.2191035E+04  0.7818609E-02  0.8522169E-01
        1   -1    0    0  501    0  0.00000000000E+00  0.00000000000E+00  0.16280945644E+04  0.16280945644E+04  0.50400001928E-02 0.  1.
       -1   -1    0    0    0  501  0.00000000000E+00  0.00000000000E+00 -0.73715565246E+03  0.73715565248E+03  0.50400001928E-02 0. -1.
    10030    2    1    2    0    0  0.00000000000E+00  0.00000000000E+00  0.89093891196E+03  0.23652502169E+04  0.21910354729E+04 0.  0.
        5    1    3    3  502    0  0.69775621007E+03 -0.73468124455E+02  0.13537210995E+04  0.15247439783E+04  0.46999998093E+01 0.  1.
       -5    1    3    3    0  502 -0.69775621007E+03  0.73468124455E+02 -0.46278218758E+03  0.84050623861E+03  0.46999998093E+01 0. -1.
</event>
<event>
 5   0  0.2319707E-05  0.2184781E+04  0.7818609E-02  0.8524790E-01
        2   -1    0    0  501    0  0.00000000000E+00  0.00000000000E+00  0.18713535565E+04  0.18713535565E+04  0.25500000920E-02 0. -1.
       -2   -1    0    0    0  501  0.00000000000E+00  0.00000000000E+00 -0.63767564144E+03  0.63767564145E+03  0.25500000920E-02 0.  1.
    10030    2    1    2    0    0  0.00000000000E+00  0.00000000000E+00  0.12336779150E+04  0.25090291979E+04  0.21847806110E+04 0.  0.
        3    1    3    3  502    0 -0.75250978152E+03  0.76497452908E+03  0.38187824382E+03  0.11389855156E+04  0.10100000352E+00 0.  1.
       -3    1    3    3    0  502  0.75250978152E+03 -0.76497452908E+03  0.85179967123E+03  0.13700436823E+04  0.10100000352E+00 0. -1.
</event>
<event>
 5   0  0.1005538E-05  0.2223695E+04  0.7818609E-02  0.8508630E-01
       -1   -1    0    0    0  501  0.00000000000E+00  0.00000000000E+00  0.10137327139E+04  0.10137327139E+04  0.50400001928E-02 0. -1.
        1   -1    0    0  501    0  0.00000000000E+00  0.00000000000E+00 -0.12194581572E+04  0.12194581573E+04  0.50400001928E-02 0.  1.
    10030    2    1    2    0    0  0.00000000000E+00  0.00000000000E+00 -0.20572544331E+03  0.22331908712E+04  0.22236947878E+04 0.  0.
        3    1    3    3  502    0 -0.51641180044E+03  0.96258240652E+03  0.10528689963E+03  0.10974203290E+04  0.10100000352E+00 0. -1.
       -3    1    3    3    0  502  0.51641180044E+03 -0.96258240652E+03 -0.31101234295E+03  0.11357705422E+04  0.10100000352E+00 0.  1.
</event>
<event>
 5   0  0.1033733E-05  0.2197387E+04  0.7818609E-02  0.8519517E-01
       -1   -1    0    0    0  501  0.00000000000E+00  0.00000000000E+00  0.16467879508E+04  0.16467879508E+04  0.50400001928E-02 0.  1.
        1   -1    0    0  501    0  0.00000000000E+00  0.00000000000E+00 -0.73301927007E+03  0.73301927009E+03  0.50400001928E-02 0. -1.
    10030    2    1    2    0    0  0.00000000000E+00  0.00000000000E+00  0.91376868071E+03  0.23798072209E+04  0.21973869042E+04 0.  0.
        5    1    3    3  502    0  0.83180207073E+03 -0.70214621495E+03  0.61825466125E+03  0.12518645726E+04  0.46999998093E+01 0. -1.
       -5    1    3    3    0  502 -0.83180207073E+03  0.70214621495E+03  0.29551401945E+03  0.11279426482E+04  0.46999998093E+01 0.  1.
</event>
<event>
 5   0  0.2289708E-05  0.2204931E+04  0.7818609E-02  0.8516379E-01
       -2   -1    0    0    0  501  0.00000000000E+00  0.00000000000E+00  0.79825309145E+03  0.79825309145E+03  0.25500000920E-02 0.  1.
        2   -1    0    0  501    0  0.00000000000E+00  0.00000000000E+00 -0.15226120864E+04  0.15226120864E+04  0.25500000920E-02 0. -1.
    10030    2    1    2    0    0  0.00000000000E+00  0.00000000000E+00 -0.72435899496E+03  0.23208651779E+04  0.22049306611E+04 0.  0.
        5    1    3    3  502    0  0.96744927629E+01  0.59133141997E+03  0.61713898918E+03  0.85478012729E+03  0.46999998093E+01 0.  1.
       -5    1    3    3    0  502 -0.96744927629E+01 -0.59133141997E+03 -0.13414979841E+04  0.14660850506E+04  0.46999998093E+01 0. -1.
</event>
<event>
 5   0  0.1005538E-05  0.2187378E+04  0.7818609E-02  0.8523700E-01
       -1   -1    0    0    0  501  0.00000000000E+00  0.00000000000E+00  0.60247543727E+03  0.60247543729E+03  0.50400001928E-02 0.  1.
        1   -1    0    0  501    0  0.00000000000E+00  0.00000000000E+00 -0.19854009428E+04  0.19854009428E+04  0.50400001928E-02 0. -1.
    10030    2    1    2    0    0  0.00000000000E+00  0.00000000000E+00 -0.13829255055E+04  0.25878763801E+04  0.21873777005E+04 0.  0.
        3    1    3    3  502    0  0.30701710920E+03 -0.10001085015E+04 -0.10687176534E+04  0.14955380146E+04  0.10100000352E+00 0. -1.
       -3    1    3    3    0  502 -0.30701710920E+03  0.10001085015E+04 -0.31420785211E+03  0.10923383655E+04  0.10100000352E+00 0.  1.
</event>
<event>
 5   0  0.1007682E-05  0.2200987E+04  0.7818609E-02  0.8518017E-01
       -1   -1    0    0    0  501  0.00000000000E+00  0.00000000000E+00  0.84319424754E+03  0.84319424755E+03  0.50400001928E-02 0.  1.
        1   -1    0    0  501    0  0.00000000000E+00  0.00000000000E+00 -0.14363077696E+04  0.14363077696E+04  0.50400001928E-02 0. -1.
    10030    2    1    2    0    0  0.00000000000E+00  0.00000000000E+00 -0.59311352204E+03  0.22795020171E+04  0.22009874593E+04 0.  0.
        2    1    3    3  502    0  0.64565606939E+03  0.71971536231E+03  0.24776224654E+03  0.99812228385E+03  0.25500000920E-02 0. -1.
       -2    1    3    3    0  502 -0.64565606939E+03 -0.71971536231E+03 -0.84087576858E+03  0.12813797333E+04  0.25500000920E-02 0.  1.
</event>
<event>
 5   0  0.2284329E-05  0.2212446E+04  0.7818609E-02  0.8513266E-01
       -2   -1    0    0    0  501  0.00000000000E+00  0.00000000000E+00  0.76083185461E+03  0.76083185462E+03  0.25500000920E-02 0.  1.
        2   -1    0    0  501    0  0.00000000000E+00  0.00000000000E+00 -0.16084096035E+04  0.16084096035E+04  0.25500000920E-02 0. -1.
    10030    2    1    2    0    0  0.00000000000E+00  0.00000000000E+00 -0.84757774888E+03  0.23692414581E+04  0.22124459420E+04 0.  0.
        2    1    3    3  502    0 -0.51360514287E+03 -0.38179950622E+03 -0.13900482289E+04  0.15302925160E+04  0.25500000920E-02 0. -1.
       -2    1    3    3    0  502  0.51360514287E+03  0.38179950622E+03  0.54247048006E+03  0.83894894211E+03  0.25500000920E-02 0.  1.
</event>
<event>
 5   0  0.2284329E-05  0.2202789E+04  0.7818609E-02  0.8517268E-01
       -2   -1    0    0    0  501  0.00000000000E+00  0.00000000000E+00  0.87732987530E+03  0.87732987530E+03  0.25500000920E-02 0.  1.
        2   -1    0    0  501    0  0.00000000000E+00  0.00000000000E+00 -0.13826834136E+04  0.13826834136E+04  0.25500000920E-02 0. -1.
    10030    2    1    2    0    0  0.00000000000E+00  0.00000000000E+00 -0.50535353833E+03  0.22600132889E+04  0.22027886570E+04 0.  0.
        2    1    3    3  502    0  0.10663449822E+04 -0.20132519033E+03 -0.59514694898E+02  0.10868143596E+04  0.25500000920E-02 0.  1.
       -2    1    3    3    0  502 -0.10663449822E+04  0.20132519033E+03 -0.44583884343E+03  0.11731989293E+04  0.25500000920E-02 0. -1.
</event>
<event>
 5   0  0.2298329E-05  0.2205816E+04  0.7818609E-02  0.8516011E-01
        2   -1    0    0  501    0  0.00000000000E+00  0.00000000000E+00  0.10935989351E+04  0.10935989351E+04  0.25500000920E-02 0.  1.
       -2   -1    0    0    0  501  0.00000000000E+00  0.00000000000E+00 -0.11122964963E+04  0.11122964963E+04  0.25500000920E-02 0. -1.
    10030    2    1    2    0    0  0.00000000000E+00  0.00000000000E+00 -0.18697561210E+02  0.22058954313E+04  0.22058161880E+04 0.  0.
        4    1    3    3  502    0 -0.93873323761E+03 -0.43249618447E+03 -0.39424130234E+03  0.11062101330E+04  0.12699999809E+01 0. -1.
       -4    1    3    3    0  502  0.93873323761E+03  0.43249618447E+03  0.37554374113E+03  0.10996852983E+04  0.12699999809E+01 0.  1.
</event>
<event>
 5   0  0.2229552E-05  0.2212498E+04  0.7818609E-02  0.8513244E-01
        2   -1    0    0  501    0  0.00000000000E+00  0.00000000000E+00  0.11188379482E+04  0.11188379482E+04  0.25500000920E-02 0. -1.
       -2   -1    0    0    0  501  0.00000000000E+00  0.00000000000E+00 -0.10938021107E+04  0.10938021107E+04  0.25500000920E-02 0.  1.
    10030    2    1    2    0    0  0.00000000000E+00  0.00000000000E+00  0.25035837461E+02  0.22126400589E+04  0.22124984152E+04 0.  0.
        1    1    3    3  502    0  0.54878172091E+03 -0.92238370695E+03  0.28055416090E+03  0.11093528371E+04  0.50400001928E-02 0.  1.
       -1    1    3    3    0  502 -0.54878172091E+03  0.92238370695E+03 -0.25551832344E+03  0.11032872218E+04  0.50400001928E-02 0. -1.
</event>
<event>
 5   0  0.8003875E-06  0.2201671E+04  0.7818609E-02  0.8517733E-01
        4   -1    0    0  501    0  0.00000000000E+00  0.00000000000E+00  0.14155112050E+04  0.14155117748E+04  0.12699999809E+01 0.  1.
       -4   -1    0    0    0  501  0.00000000000E+00  0.00000000000E+00 -0.85611297796E+03  0.85611391995E+03  0.12699999809E+01 0. -1.
    10030    2    1    2    0    0  0.00000000000E+00  0.00000000000E+00  0.55939822707E+03  0.22716256947E+04  0.22016713925E+04 0.  0.
        1    1    3    3  502    0 -0.27145950527E+03  0.61871988002E+03  0.11764131847E+04  0.13566327926E+04  0.50400001928E-02 0.  1.
       -1    1    3    3    0  502  0.27145950527E+03 -0.61871988002E+03 -0.61701495760E+03  0.91499290208E+03  0.50400001928E-02 0. -1.
</event>
<event>
 5   0  0.2298329E-05  0.2204791E+04  0.7818609E-02  0.8516437E-01
       -2   -1    0    0    0  501  0.00000000000E+00  0.00000000000E+00  0.10748844480E+04  0.10748844480E+04  0.25500000920E-02 0. -1.
        2   -1    0    0  501    0  0.00000000000E+00  0.00000000000E+00 -0.11306109292E+04  0.11306109292E+04  0.25500000920E-02 0.  1.
    10030    2    1    2    0    0  0.00000000000E+00  0.00000000000E+00 -0.55726481191E+02  0.22054953772E+04  0.22047912414E+04 0.  0.
        4    1    3    3  502    0 -0.81369294493E+03  0.30626380013E+03 -0.70585603993E+03  0.11198786032E+04  0.12699999809E+01 0.  1.
       -4    1    3    3    0  502  0.81369294493E+03 -0.30626380013E+03  0.65012955874E+03  0.10856167740E+04  0.12699999809E+01 0. -1.
</event>
<event>
 5   0  0.2319707E-05  0.2194424E+04  0.7818609E-02  0.8520752E-01
        2   -1    0    0  501    0  0.00000000000E+00  0.00000000000E+00  0.10955931948E+04  0.10955931948E+04  0.25500000920E-02 0.  1.
       -2   -1    0    0    0  501  0.00000000000E+00  0.00000000000E+00 -0.10988335163E+04  0.10988335163E+04  0.25500000920E-02 0. -1.
    10030    2    1    2    0    0  0.00000000000E+00  0.00000000000E+00 -0.32403214663E+01  0.21944267111E+04  0.21944243187E+04 0.  0.
        3    1    3    3  502    0 -0.39965984215E+02 -0.99291251980E+03  0.46357058769E+03  0.10965264483E+04  0.10100000352E+00 0.  1.
       -3    1    3    3    0  502  0.39965984215E+02  0.99291251980E+03 -0.46681090915E+03  0.10979002628E+04  0.10100000352E+00 0. -1.
</event>
<event>
 5   0  0.8003875E-06  0.2206576E+04  0.7818609E-02  0.8515696E-01
        3   -1    0    0  501    0  0.00000000000E+00  0.00000000000E+00  0.10783415012E+04  0.10783415060E+04  0.10100000352E+00 0. -1.
       -3   -1    0    0    0  501  0.00000000000E+00  0.00000000000E+00 -0.11288115291E+04  0.11288115336E+04  0.10100000352E+00 0.  1.
    10030    2    1    2    0    0  0.00000000000E+00  0.00000000000E+00 -0.50470027803E+02  0.22071530396E+04  0.22065759258E+04 0.  0.
        5    1    3    3  502    0 -0.35281254451E+03  0.10220145637E+04 -0.24490980015E+03  0.11085997295E+04  0.46999998093E+01 0.  1.
       -5    1    3    3    0  502  0.35281254451E+03 -0.10220145637E+04  0.19443977235E+03  0.10985533101E+04  0.46999998093E+01 0. -1.
</event>
<event>
 5   0  0.8003875E-06  0.2199535E+04  0.7818609E-02  0.8518622E-01
       -3   -1    0    0    0  501  0.00000000000E+00  0.00000000000E+00  0.16132792726E+04  0.16132792757E+04  0.10100000352E+00 0.  1.
        3   -1    0    0  501    0  0.00000000000E+00  0.00000000000E+00 -0.74970818332E+03  0.74970819012E+03  0.10100000352E+00 0. -1.
    10030    2    1    2    0    0  0.00000000000E+00  0.00000000000E+00  0.86357108925E+03  0.23629874659E+04  0.21995351185E+04 0.  0.
        5    1    3    3  502    0 -0.58180867421E+03 -0.92640344736E+03  0.31051708876E+03  0.11371752869E+04  0.46999998093E+01 0. -1.
       -5    1    3    3    0  502  0.58180867421E+03  0.92640344736E+03  0.55305400049E+03  0.12258121790E+04  0.46999998093E+01 0.  1.
</event>
<event>
 5   0  0.1005538E-05  0.2185116E+04  0.7818609E-02  0.8524649E-01
       -1   -1    0    0    0  501  0.00000000000E+00  0.00000000000E+00  0.15051630678E+04  0.15051630678E+04  0.50400001928E-02 0. -1.
        1   -1    0    0  501    0  0.00000000000E+00  0.00000000000E+00 -0.79305894903E+03  0.79305894904E+03  0.50400001928E-02 0.  1.
    10030    2    1    2    0    0  0.00000000000E+00  0.00000000000E+00  0.71210411880E+03  0.22982220169E+04  0.21851160525E+04 0.  0.
        3    1    3    3  502    0  0.49703386096E+03  0.41568778627E+03 -0.56916619612E+03  0.86243212115E+03  0.10100000352E+00 0.  1.
       -3    1    3    3    0  502 -0.49703386096E+03 -0.41568778627E+03  0.12812703149E+04  0.14357898957E+04  0.10100000352E+00 0. -1.
</event>
<event>
 5   0  0.2289708E-05  0.2211319E+04  0.7818609E-02  0.8513732E-01
       -2   -1    0    0    0  501  0.00000000000E+00  0.00000000000E+00  0.10031075177E+04  0.10031075177E+04  0.25500000920E-02 0.  1.
        2   -1    0    0  501    0  0.00000000000E+00  0.00000000000E+00 -0.12186954772E+04  0.12186954772E+04  0.25500000920E-02 0. -1.
    10030    2    1    2    0    0  0.00000000000E+00  0.00000000000E+00 -0.21558795947E+03  0.22218029949E+04  0.22113186971E+04 0.  0.
        5    1    3    3  502    0 -0.84772482404E+03 -0.60889740647E+03  0.25871913296E+03  0.10753376719E+04  0.46999998093E+01 0. -1.
       -5    1    3    3    0  502  0.84772482404E+03  0.60889740647E+03 -0.47430709244E+03  0.11464653230E+04  0.46999998093E+01 0.  1.
</event>
<event>
 5   0  0.1071208E-05  0.2204254E+04  0.7818609E-02  0.8516660E-01
        1   -1    0    0  501    0  0.00000000000E+00  0.00000000000E+00  0.18989992216E+04  0.18989992216E+04  0.50400001928E-02 0.  1.
       -1   -1    0    0    0  501  0.00000000000E+00  0.00000000000E+00 -0.63964422298E+03  0.63964422300E+03  0.50400001928E-02 0. -1.
    10030    2    1    2    0    0  0.00000000000E+00  0.00000000000E+00  0.12593549986E+04  0.25386434446E+04  0.22042539614E+04 0.  0.
        4    1    3    3  502    0 -0.44408962569E+03 -0.18470943330E+03  0.17717506980E+04  0.18358745380E+04  0.12699999809E+01 0.  1.
       -4    1    3    3    0  502  0.44408962569E+03  0.18470943330E+03 -0.51239569942E+03  0.70276890660E+03  0.12699999809E+01 0. -1.
</event>
<event>
 5   0  0.2229552E-05  0.2195831E+04  0.7818609E-02  0.8520165E-01
       -2   -1    0    0    0  501  0.00000000000E+00  0.00000000000E+00  0.88120480653E+03  0.88120480653E+03  0.25500000920E-02 0.  1.
        2   -1    0    0  501    0  0.00000000000E+00  0.00000000000E+00 -0.13679209210E+04  0.13679209210E+04  0.25500000920E-02 0. -1.
    10030    2    1    2    0    0  0.00000000000E+00  0.00000000000E+00 -0.48671611449E+03  0.22491257276E+04  0.21958310414E+04 0.  0.
        1    1    3    3  502    0  0.62636668212E+03  0.35850457148E+03 -0.10908193215E+04  0.13079554810E+04  0.50400001928E-02 0. -1.
       -1    1    3    3    0  502 -0.62636668212E+03 -0.35850457148E+03  0.60410320698E+03  0.94117024652E+03  0.50400001928E-02 0.  1.
</event>
<event>
 5   0  0.2284329E-05  0.2208405E+04  0.7818609E-02  0.8514938E-01
        2   -1    0    0  501    0  0.00000000000E+00  0.00000000000E+00  0.11369938524E+04  0.11369938524E+04  0.25500000920E-02 0. -1.
       -2   -1    0    0    0  501  0.00000000000E+00  0.00000000000E+00 -0.10723570769E+04  0.10723570769E+04  0.25500000920E-02 0.  1.
    10030    2    1    2    0    0  0.00000000000E+00  0.00000000000E+00  0.64636775435E+02  0.22093509293E+04  0.22084052201E+04 0.  0.
        2    1    3    3  502    0 -0.29457124322E+03  0.41497508073E+03 -0.94804353312E+03  0.10759939942E+04  0.25500000920E-02 0.  1.
       -2    1    3    3    0  502  0.29457124322E+03 -0.41497508073E+03  0.10126803086E+04  0.11333569351E+04  0.25500000920E-02 0. -1.
</event>
<event>
 5   0  0.1033733E-05  0.2195473E+04  0.7818609E-02  0.8520314E-01
        1   -1    0    0  501    0  0.00000000000E+00  0.00000000000E+00  0.24231195443E+04  0.24231195444E+04  0.50400001928E-02 0. -1.
       -1   -1    0    0    0  501  0.00000000000E+00  0.00000000000E+00 -0.49730355777E+03  0.49730355779E+03  0.50400001928E-02 0.  1.
    10030    2    1    2    0    0  0.00000000000E+00  0.00000000000E+00  0.19258159866E+04  0.29204231021E+04  0.21954734982E+04 0.  0.
        5    1    3    3  502    0 -0.66584082668E+03 -0.22367533779E+03  0.20850413216E+04  0.22001804621E+04  0.46999998093E+01 0. -1.
       -5    1    3    3    0  502  0.66584082668E+03  0.22367533779E+03 -0.15922533500E+03  0.72024264002E+03  0.46999998093E+01 0.  1.
</event>
<event>
 5   0  0.2298329E-05  0.2193396E+04  0.7818609E-02  0.8521182E-01
        2   -1    0    0  501    0  0.00000000000E+00  0.00000000000E+00  0.19086162199E+04  0.19086162199E+04  0.25500000920E-02 0.  1.
       -2   -1    0    0    0  501  0.00000000000E+00  0.00000000000E+00 -0.63016656876E+03  0.63016656877E+03  0.25500000920E-02 0. -1.
    10030    2    1    2    0    0  0.00000000000E+00  0.00000000000E+00  0.12784496511E+04  0.25387827887E+04  0.21933956637E+04 0.  0.
        4    1    3    3  502    0 -0.18228910433E+03 -0.44711666514E+03  0.17789635174E+04  0.18433272739E+04  0.12699999809E+01 0.  1.
       -4    1    3    3    0  502  0.18228910433E+03  0.44711666514E+03 -0.50051386622E+03  0.69545551474E+03  0.12699999809E+01 0. -1.
</event>
<event>
 5   0  0.2289708E-05  0.2097251E+04  0.7818609E-02  0.8562455E-01
        2   -1    0    0  501    0  0.00000000000E+00  0.00000000000E+00  0.12246546266E+04  0.12246546266E+04  0.25500000920E-02 0. -1.
       -2   -1    0    0    0  501  0.00000000000E+00  0.00000000000E+00 -0.89789809707E+03  0.89789809707E+03  0.25500000920E-02 0.  1.
    10030    2    1    2    0    0  0.00000000000E+00  0.00000000000E+00  0.32675652956E+03  0.21225527237E+04  0.20972506372E+04 0.  0.
        5    1    3    3  502    0 -0.81317288588E+03  0.12870032526E+03  0.82065862467E+03  0.11624614335E+04  0.46999998093E+01 0. -1.
       -5    1    3    3    0  502  0.81317288588E+03 -0.12870032526E+03 -0.49390209511E+03  0.96009129024E+03  0.46999998093E+01 0.  1.
</event>
<event>
 5   0  0.1071208E-05  0.2197556E+04  0.7818609E-02  0.8519446E-01
       -1   -1    0    0    0  501  0.00000000000E+00  0.00000000000E+00  0.14330005184E+04  0.14330005184E+04  0.50400001928E-02 0.  1.
        1   -1    0    0  501    0  0.00000000000E+00  0.00000000000E+00 -0.84250722860E+03  0.84250722862E+03  0.50400001928E-02 0. -1.
    10030    2    1    2    0    0  0.00000000000E+00  0.00000000000E+00  0.59049328976E+03  0.22755077470E+04  0.21975561839E+04 0.  0.
        4    1    3    3  502    0 -0.97364664168E+03 -0.41830949726E+03  0.59596356800E+03  0.12157897868E+04  0.12699999809E+01 0.  1.
       -4    1    3    3    0  502  0.97364664168E+03  0.41830949726E+03 -0.54702782364E+01  0.10597179602E+04  0.12699999809E+01 0. -1.
</event>
<event>
 5   0  0.2229552E-05  0.2205507E+04  0.7818609E-02  0.8516140E-01
       -2   -1    0    0    0  501  0.00000000000E+00  0.00000000000E+00  0.79578747278E+03  0.79578747279E+03  0.25500000920E-02 0.  1.
        2   -1    0    0  501    0  0.00000000000E+00  0.00000000000E+00 -0.15281275193E+04  0.15281275193E+04  0.25500000920E-02 0. -1.
    10030    2    1    2    0    0  0.00000000000E+00  0.00000000000E+00 -0.73234004649E+03  0.23239149921E+04  0.22055065057E+04 0.  0.
        1    1    3    3  502    0 -0.48296750304E+03  0.78403164436E+03  0.27311671166E+03  0.96049777020E+03  0.50400001928E-02 0.  1.
       -1    1    3    3    0  502  0.48296750304E+03 -0.78403164436E+03 -0.10054567581E+04  0.13634172219E+04  0.50400001928E-02 0. -1.
</event>
<event>
 5   0  0.1033733E-05  0.2205979E+04  0.7818609E-02  0.8515944E-01
        1   -1    0    0  501    0  0.00000000000E+00  0.00000000000E+00  0.18061240805E+04  0.18061240805E+04  0.50400001928E-02 0.  1.
       -1   -1    0    0    0  501  0.00000000000E+00  0.00000000000E+00 -0.67358900927E+03  0.67358900929E+03  0.50400001928E-02 0. -1.
    10030    2    1    2    0    0  0.00000000000E+00  0.00000000000E+00  0.11325350713E+04  0.24797130898E+04  0.22059785403E+04 0.  0.
        5    1    3    3  502    0 -0.16252529926E+03 -0.32587537286E+03 -0.60405503040E+03  0.70534658239E+03  0.46999998093E+01 0. -1.
       -5    1    3    3    0  502  0.16252529926E+03  0.32587537286E+03  0.17365901017E+04  0.17743665074E+04  0.46999998093E+01 0.  1.
</event>
<event>
 5   0  0.1005538E-05  0.2175280E+04  0.7818609E-02  0.8528788E-01
        1   -1    0    0  501    0  0.00000000000E+00  0.00000000000E+00  0.13610787612E+04  0.13610787612E+04  0.50400001928E-02 0. -1.
       -1   -1    0    0    0  501  0.00000000000E+00  0.00000000000E+00 -0.86913499232E+03  0.86913499234E+03  0.50400001928E-02 0.  1.
    10030    2    1    2    0    0  0.00000000000E+00  0.00000000000E+00  0.49194376886E+03  0.22302137535E+04  0.21752803761E+04 0.  0.
        3    1    3    3  502    0  0.64341074126E+03  0.79079403679E+03 -0.14258237842E+03  0.10293990166E+04  0.10100000352E+00 0.  1.
       -3    1    3    3    0  502 -0.64341074126E+03 -0.79079403679E+03  0.63452614728E+03  0.12008147369E+04  0.10100000352E+00 0. -1.
</event>
<event>
 5   0  0.1005538E-05  0.2201357E+04  0.7818609E-02  0.8517864E-01
        1   -1    0    0  501    0  0.00000000000E+00  0.00000000000E+00  0.14002481297E+04  0.14002481297E+04  0.50400001928E-02 0.  1.
       -1   -1    0    0    0  501  0.00000000000E+00  0.00000000000E+00 -0.86519877020E+03  0.86519877021E+03  0.50400001928E-02 0. -1.
    10030    2    1    2    0    0  0.00000000000E+00  0.00000000000E+00  0.53504935945E+03  0.22654468999E+04  0.22013568178E+04 0.  0.
        3    1    3    3  502    0  0.18470294412E+03 -0.27887844994E+03  0.13466744301E+04  0.13875951853E+04  0.10100000352E+00 0.  1.
       -3    1    3    3    0  502 -0.18470294412E+03  0.27887844994E+03 -0.81162507060E+03  0.87785171461E+03  0.10100000352E+00 0. -1.
</event>
<event>
 5   0  0.1049198E-05  0.2201958E+04  0.7818609E-02  0.8517613E-01
        1   -1    0    0  501    0  0.00000000000E+00  0.00000000000E+00  0.10289602902E+04  0.10289602902E+04  0.50400001928E-02 0.  1.
       -1   -1    0    0    0  501  0.00000000000E+00  0.00000000000E+00 -0.11780386846E+04  0.11780386846E+04  0.50400001928E-02 0. -1.
    10030    2    1    2    0    0  0.00000000000E+00  0.00000000000E+00 -0.14907839439E+03  0.22069989748E+04  0.22019582437E+04 0.  0.
        1    1    3    3  502    0 -0.53104508837E+03  0.38719401772E+03 -0.95986581436E+03  0.11633015408E+04  0.50400001928E-02 0. -1.
       -1    1    3    3    0  502  0.53104508837E+03 -0.38719401772E+03  0.81078741997E+03  0.10436974340E+04  0.50400001928E-02 0.  1.
</event>
<event>
 5   0  0.2319707E-05  0.2255382E+04  0.7818609E-02  0.8495724E-01
        2   -1    0    0  501    0  0.00000000000E+00  0.00000000000E+00  0.15081101550E+04  0.15081101550E+04  0.25500000920E-02 0. -1.
       -2   -1    0    0    0  501  0.00000000000E+00  0.00000000000E+00 -0.84323211673E+03  0.84323211673E+03  0.25500000920E-02 0.  1.
    10030    2    1    2    0    0  0.00000000000E+00  0.00000000000E+00  0.66487803826E+03  0.23513422717E+04  0.22553819351E+04 0.  0.
        3    1    3    3  502    0 -0.13946404230E+03  0.10809559763E+04  0.30692508129E+02  0.10903476886E+04  0.10100000352E+00 0.  1.
       -3    1    3    3    0  502  0.13946404230E+03 -0.10809559763E+04  0.63418553013E+03  0.12609945831E+04  0.10100000352E+00 0. -1.
</event>
<event>
 5   0  0.8003875E-06  0.2201815E+04  0.7818609E-02  0.8517673E-01
       -3   -1    0    0    0  501  0.00000000000E+00  0.00000000000E+00  0.17352477109E+04  0.17352477138E+04  0.10100000352E+00 0. -1.
        3   -1    0    0  501    0  0.00000000000E+00  0.00000000000E+00 -0.69845801151E+03  0.69845801881E+03  0.10100000352E+00 0.  1.
    10030    2    1    2    0    0  0.00000000000E+00  0.00000000000E+00  0.10367896994E+04  0.24337057326E+04  0.22018153220E+04 0.  0.
        1    1    3    3  502    0  0.94682618437E+03  0.13677430516E+03 -0.83785959890E+02  0.96031615682E+03  0.50400001928E-02 0.  1.
       -1    1    3    3    0  502 -0.94682618437E+03 -0.13677430516E+03  0.11205756593E+04  0.14733895758E+04  0.50400001928E-02 0. -1.
</event>
<event>
 5   0  0.2319707E-05  0.2202003E+04  0.7818609E-02  0.8517595E-01
       -2   -1    0    0    0  501  0.00000000000E+00  0.00000000000E+00  0.65949961619E+03  0.65949961620E+03  0.25500000920E-02 0.  1.
        2   -1    0    0  501    0  0.00000000000E+00  0.00000000000E+00 -0.18380669585E+04  0.18380669585E+04  0.25500000920E-02 0. -1.
    10030    2    1    2    0    0  0.00000000000E+00  0.00000000000E+00 -0.11785673423E+04  0.24975665747E+04  0.22020031369E+04 0.  0.
        3    1    3    3  502    0 -0.98695775596E+03  0.20135180829E+03 -0.85125810285E+02  0.10108781215E+04  0.10100000352E+00 0.  1.
       -3    1    3    3    0  502  0.98695775596E+03 -0.20135180829E+03 -0.10934415320E+04  0.14866884532E+04  0.10100000352E+00 0. -1.
</event>
<event>
 5   0  0.2289708E-05  0.2199130E+04  0.7818609E-02  0.8518790E-01
       -2   -1    0    0    0  501  0.00000000000E+00  0.00000000000E+00  0.49325455420E+03  0.49325455420E+03  0.25500000920E-02 0. -1.
        2   -1    0    0  501    0  0.00000000000E+00  0.00000000000E+00 -0.24511540641E+04  0.24511540641E+04  0.25500000920E-02 0.  1.
    10030    2    1    2    0    0  0.00000000000E+00  0.00000000000E+00 -0.19578995099E+04  0.29444086183E+04  0.21991297417E+04 0.  0.
        5    1    3    3  502    0 -0.46643723120E+02 -0.31604636412E+03 -0.23876324106E+04  0.24089150170E+04  0.46999998093E+01 0.  1.
       -5    1    3    3    0  502  0.46643723120E+02  0.31604636412E+03  0.42973290063E+03  0.53549360133E+03  0.46999998093E+01 0. -1.
</event>
<event>
 5   0  0.1007682E-05  0.2206772E+04  0.7818609E-02  0.8515615E-01
       -1   -1    0    0    0  501  0.00000000000E+00  0.00000000000E+00  0.57238604637E+03  0.57238604640E+03  0.50400001928E-02 0.  1.
        1   -1    0    0  501    0  0.00000000000E+00  0.00000000000E+00 -0.21269916307E+04  0.21269916307E+04  0.50400001928E-02 0. -1.
    10030    2    1    2    0    0  0.00000000000E+00  0.00000000000E+00 -0.15546055843E+04  0.26993776771E+04  0.22067716966E+04 0.  0.
        2    1    3    3  502    0 -0.52503054626E+02  0.10860282152E+04 -0.10069515462E+04  0.14819464469E+04  0.25500000920E-02 0. -1.
       -2    1    3    3    0  502  0.52503054626E+02 -0.10860282152E+04 -0.54765403805E+03  0.12174312302E+04  0.25500000920E-02 0.  1.
</event>
<event>
 5   0  0.1071208E-05  0.2210944E+04  0.7818609E-02  0.8513887E-01
       -1   -1    0    0    0  501  0.00000000000E+00  0.00000000000E+00  0.18098776295E+04  0.18098776295E+04  0.50400001928E-02 0.  1.
        1   -1    0    0  501    0  0.00000000000E+00  0.00000000000E+00 -0.67522173161E+03  0.67522173163E+03  0.50400001928E-02 0. -1.
    10030    2    1    2    0    0  0.00000000000E+00  0.00000000000E+00  0.11346558979E+04  0.24850993611E+04  0.22109443295E+04 0.  0.
        4    1    3    3  502    0 -0.52373560824E+03  0.43983464877E+03 -0.40887904769E+03  0.79682946365E+03  0.12699999809E+01 0. -1.
       -4    1    3    3    0  502  0.52373560824E+03 -0.43983464877E+03  0.15435349456E+04  0.16882698975E+04  0.12699999809E+01 0.  1.
</event>
<event>
 5   0  0.2284329E-05  0.2200620E+04  0.7818609E-02  0.8518170E-01
       -2   -1    0    0    0  501  0.00000000000E+00  0.00000000000E+00  0.12040113774E+04  0.12040113774E+04  0.25500000920E-02 0.  1.
        2   -1    0    0  501    0  0.00000000000E+00  0.00000000000E+00 -0.10055402888E+04  0.10055402888E+04  0.25500000920E-02 0. -1.
    10030    2    1    2    0    0  0.00000000000E+00  0.00000000000E+00  0.19847108863E+03  0.22095516662E+04  0.22006198655E+04 0.  0.
        2    1    3    3  502    0 -0.88289280328E+03 -0.40166921079E+03  0.62080912911E+03  0.11516257342E+04  0.25500000920E-02 0.  1.
       -2    1    3    3    0  502  0.88289280328E+03  0.40166921079E+03 -0.42233804048E+03  0.10579259319E+04  0.25500000920E-02 0. -1.
</event>
<event>
 5   0  0.2319707E-05  0.2215265E+04  0.7818609E-02  0.8512101E-01
       -2   -1    0    0    0  501  0.00000000000E+00  0.00000000000E+00  0.83391993618E+03  0.83391993619E+03  0.25500000920E-02 0.  1.
        2   -1    0    0  501    0  0.00000000000E+00  0.00000000000E+00 -0.14711840903E+04  0.14711840903E+04  0.25500000920E-02 0. -1.
    10030    2    1    2    0    0  0.00000000000E+00  0.00000000000E+00 -0.63726415413E+03  0.23051040265E+04  0.22152649889E+04 0.  0.
        3    1    3    3  502    0 -0.75515547739E+03  0.41856472638E+03 -0.10405951086E+04  0.13521443767E+04  0.10100000352E+00 0. -1.
       -3    1    3    3    0  502  0.75515547739E+03 -0.41856472638E+03  0.40333095443E+03  0.95295964983E+03  0.10100000352E+00 0.  1.
</event>
<event>
 5   0  0.1049198E-05  0.2211221E+04  0.7818609E-02  0.8513772E-01
        1   -1    0    0  501    0  0.00000000000E+00  0.00000000000E+00  0.98676766302E+03  0.98676766304E+03  0.50400001928E-02 0. -1.
       -1   -1    0    0    0  501  0.00000000000E+00  0.00000000000E+00 -0.12387668285E+04  0.12387668285E+04  0.50400001928E-02 0.  1.
    10030    2    1    2    0    0  0.00000000000E+00  0.00000000000E+00 -0.25199916552E+03  0.22255344916E+04  0.22112214258E+04 0.  0.
        1    1    3    3  502    0  0.47805539373E+02  0.46447042268E+03  0.88266351075E+03  0.99855546484E+03  0.50400001928E-02 0. -1.
       -1    1    3    3    0  502 -0.47805539373E+02 -0.46447042268E+03 -0.11346626763E+04  0.12269790267E+04  0.50400001928E-02 0.  1.
</event>
<event>
 5   0  0.2289708E-05  0.2230224E+04  0.7818609E-02  0.8505953E-01
        2   -1    0    0  501    0  0.00000000000E+00  0.00000000000E+00  0.77362521742E+03  0.77362521743E+03  0.25500000920E-02 0.  1.
       -2   -1    0    0    0  501  0.00000000000E+00  0.00000000000E+00 -0.16073343245E+04  0.16073343245E+04  0.25500000920E-02 0. -1.
    10030    2    1    2    0    0  0.00000000000E+00  0.00000000000E+00 -0.83370910707E+03  0.23809595419E+04  0.22302236357E+04 0.  0.
        5    1    3    3  502    0 -0.95031333900E+03 -0.13971713129E+03  0.18785261819E+03  0.97873745980E+03  0.46999998093E+01 0.  1.
       -5    1    3    3    0  502  0.95031333900E+03  0.13971713129E+03 -0.10215617253E+04  0.14022220821E+04  0.46999998093E+01 0. -1.
</event>
<event>
 5   0  0.1071208E-05  0.2241014E+04  0.7818609E-02  0.8501548E-01
       -1   -1    0    0    0  501  0.00000000000E+00  0.00000000000E+00  0.71970677630E+03  0.71970677632E+03  0.50400001928E-02 0. -1.
        1   -1    0    0  501    0  0.00000000000E+00  0.00000000000E+00 -0.17445107387E+04  0.17445107387E+04  0.50400001928E-02 0.  1.
    10030    2    1    2    0    0  0.00000000000E+00  0.00000000000E+00 -0.10248039624E+04  0.24642175150E+04  0.22410142347E+04 0.  0.
        4    1    3    3  502    0  0.41051819680E+03 -0.95892474503E+03 -0.96239572472E+03  0.14192494497E+04  0.12699999809E+01 0.  1.
       -4    1    3    3    0  502 -0.41051819680E+03  0.95892474503E+03 -0.62408237645E+02  0.10449680653E+04  0.12699999809E+01 0. -1.
</event>
<event>
 5   0  0.1033733E-05  0.2202061E+04  0.7818609E-02  0.8517571E-01
        1   -1    0    0  501    0  0.00000000000E+00  0.00000000000E+00  0.13085995583E+04  0.13085995583E+04  0.50400001928E-02 0.  1.
       -1   -1    0    0    0  501  0.00000000000E+00  0.00000000000E+00 -0.92638625896E+03  0.92638625897E+03  0.50400001928E-02 0. -1.
    10030    2    1    2    0    0  0.00000000000E+00  0.00000000000E+00  0.38221329937E+03  0.22349858173E+04  0.22020614427E+04 0.  0.
        5    1    3    3  502    0 -0.19788876576E+03  0.10819596769E+04  0.24134268794E+03  0.11260839618E+04  0.46999998093E+01 0. -1.
       -5    1    3    3    0  502  0.19788876576E+03 -0.10819596769E+04  0.14087061143E+03  0.11089018555E+04  0.46999998093E+01 0.  1.
</event>
<event>
 5   0  0.2284329E-05  0.2179374E+04  0.7818609E-02  0.8527062E-01
       -2   -1    0    0    0  501  0.00000000000E+00  0.00000000000E+00  0.93592107462E+03  0.93592107462E+03  0.25500000920E-02 0. -1.
        2   -1    0    0  501    0  0.00000000000E+00  0.00000000000E+00 -0.12687160613E+04  0.12687160613E+04  0.25500000920E-02 0.  1.
    10030    2    1    2    0    0  0.00000000000E+00  0.00000000000E+00 -0.33279498663E+03  0.22046371359E+04  0.21793743134E+04 0.  0.
        2    1    3    3  502    0  0.46193755569E+03  0.72899007824E+03  0.50660020059E+03  0.10007280364E+04  0.25500000920E-02 0. -1.
       -2    1    3    3    0  502 -0.46193755569E+03 -0.72899007824E+03 -0.83939518723E+03  0.12039090995E+04  0.25500000920E-02 0.  1.
</event>
<event>
 5   0  0.1049198E-05  0.2189184E+04  0.7818609E-02  0.8522944E-01
       -1   -1    0    0    0  501  0.00000000000E+00  0.00000000000E+00  0.14007292103E+04  0.14007292103E+04  0.50400001928E-02 0.  1.
        1   -1    0    0  501    0  0.00000000000E+00  0.00000000000E+00 -0.85536261687E+03  0.85536261688E+03  0.50400001928E-02 0. -1.
    10030    2    1    2    0    0  0.00000000000E+00  0.00000000000E+00  0.54536659339E+03  0.22560918272E+04  0.21891837774E+04 0.  0.
        1    1    3    3  502    0  0.51230007298E+02 -0.68712763939E+03 -0.60381796439E+03  0.91616867476E+03  0.50400001928E-02 0. -1.
       -1    1    3    3    0  502 -0.51230007298E+02  0.68712763939E+03  0.11491845578E+04  0.13399231524E+04  0.50400001928E-02 0.  1.
</event>
<event>
 5   0  0.1007682E-05  0.2202360E+04  0.7818609E-02  0.8517447E-01
        1   -1    0    0  501    0  0.00000000000E+00  0.00000000000E+00  0.20744912550E+04  0.20744912550E+04  0.50400001928E-02 0. -1.
       -1   -1    0    0    0  501  0.00000000000E+00  0.00000000000E+00 -0.58452755691E+03  0.58452755693E+03  0.50400001928E-02 0.  1.
    10030    2    1    2    0    0  0.00000000000E+00  0.00000000000E+00  0.14899636981E+04  0.26590188120E+04  0.22023599208E+04 0.  0.
        2    1    3    3  502    0 -0.29128969319E+03 -0.10563377745E+04  0.61328590659E+03  0.12557144510E+04  0.25500000920E-02 0. -1.
       -2    1    3    3    0  502  0.29128969319E+03  0.10563377745E+04  0.87667779151E+03  0.14033043609E+04  0.25500000920E-02 0.  1.
</event>
<event>
 5   0  0.2289708E-05  0.2197390E+04  0.7818609E-02  0.8519515E-01
        2   -1    0    0  501    0  0.00000000000E+00  0.00000000000E+00  0.10551203804E+04  0.10551203804E+04  0.25500000920E-02 0. -1.
       -2   -1    0    0    0  501  0.00000000000E+00  0.00000000000E+00 -0.11440690192E+04  0.11440690192E+04  0.25500000920E-02 0.  1.
    10030    2    1    2    0    0  0.00000000000E+00  0.00000000000E+00 -0.88948638862E+02  0.21991893996E+04  0.21973898505E+04 0.  0.
        5    1    3    3  502    0  0.58354406262E+03  0.13880999866E+03 -0.96572615553E+03  0.11368557456E+04  0.46999998093E+01 0.  1.
       -5    1    3    3    0  502 -0.58354406262E+03 -0.13880999866E+03  0.87677751667E+03  0.10623336540E+04  0.46999998093E+01 0. -1.
</event>
<event>
 5   0  0.2298329E-05  0.2200610E+04  0.7818609E-02  0.8518174E-01
       -2   -1    0    0    0  501  0.00000000000E+00  0.00000000000E+00  0.12051159390E+04  0.12051159390E+04  0.25500000920E-02 0.  1.
        2   -1    0    0  501    0  0.00000000000E+00  0.00000000000E+00 -0.10046092436E+04  0.10046092436E+04  0.25500000920E-02 0. -1.
    10030    2    1    2    0    0  0.00000000000E+00  0.00000000000E+00  0.20050669537E+03  0.22097251826E+04  0.22006095628E+04 0.  0.
        4    1    3    3  502    0 -0.50553902285E+02 -0.83029704865E+03  0.82345900216E+03  0.11704850393E+04  0.12699999809E+01 0.  1.
       -4    1    3    3    0  502  0.50553902285E+02  0.83029704865E+03 -0.62295230680E+03  0.10392401433E+04  0.12699999809E+01 0. -1.
</event>
<event>
 5   0  0.1007682E-05  0.2199227E+04  0.7818609E-02  0.8518750E-01
        1   -1    0    0  501    0  0.00000000000E+00  0.00000000000E+00  0.23715261874E+04  0.23715261874E+04  0.50400001928E-02 0.  1.
       -1   -1    0    0    0  501  0.00000000000E+00  0.00000000000E+00 -0.50986149801E+03  0.50986149803E+03  0.50400001928E-02 0. -1.
    10030    2    1    2    0    0  0.00000000000E+00  0.00000000000E+00  0.18616646894E+04  0.28813876854E+04  0.21992270410E+04 0.  0.
        2    1    3    3  502    0  0.73401753436E+03  0.46128547895E+03  0.18171042409E+04  0.20133141474E+04  0.25500000920E-02 0.  1.
       -2    1    3    3    0  502 -0.73401753436E+03 -0.46128547895E+03  0.44560448475E+02  0.86807353802E+03  0.25500000920E-02 0. -1.
</event>
<event>
 5   0  0.1005538E-05  0.2199834E+04  0.7818609E-02  0.8518497E-01
        1   -1    0    0  501    0  0.00000000000E+00  0.00000000000E+00  0.13992180380E+04  0.13992180380E+04  0.50400001928E-02 0.  1.
       -1   -1    0    0    0  501  0.00000000000E+00  0.00000000000E+00 -0.86463787658E+03  0.86463787659E+03  0.50400001928E-02 0. -1.
    10030    2    1    2    0    0  0.00000000000E+00  0.00000000000E+00  0.53458016137E+03  0.22638559146E+04  0.21998335512E+04 0.  0.
        3    1    3    3  502    0  0.45693156664E+03 -0.58512579874E+03  0.11024872764E+04  0.13291489239E+04  0.10100000352E+00 0.  1.
       -3    1    3    3    0  502 -0.45693156664E+03  0.58512579874E+03 -0.56790711504E+03  0.93470699070E+03  0.10100000352E+00 0. -1.
</event>
<event>
 5   0  0.1007682E-05  0.2197210E+04  0.7818609E-02  0.8519590E-01
        1   -1    0    0  501    0  0.00000000000E+00  0.00000000000E+00  0.66227472528E+03  0.66227472530E+03  0.50400001928E-02 0.  1.
       -1   -1    0    0    0  501  0.00000000000E+00  0.00000000000E+00 -0.18224049958E+04  0.18224049958E+04  0.50400001928E-02 0. -1.
    10030    2    1    2    0    0  0.00000000000E+00  0.00000000000E+00 -0.11601302705E+04  0.24846797211E+04  0.21972098379E+04 0.  0.
        2    1    3    3  502    0 -0.45966039293E+03  0.40841238010E+03  0.44945629050E+03  0.76164250547E+03  0.25500000920E-02 0.  1.
       -2    1    3    3    0  502  0.45966039293E+03 -0.40841238010E+03 -0.16095865610E+04  0.17230372156E+04  0.25500000920E-02 0. -1.
</event>
<event>
 5   0  0.2319707E-05  0.2211888E+04  0.7818609E-02  0.8513496E-01
        2   -1    0    0  501    0  0.00000000000E+00  0.00000000000E+00  0.81169361426E+03  0.81169361426E+03  0.25500000920E-02 0.  1.
       -2   -1    0    0    0  501  0.00000000000E+00  0.00000000000E+00 -0.15068641402E+04  0.15068641402E+04  0.25500000920E-02 0. -1.
    10030    2    1    2    0    0  0.00000000000E+00  0.00000000000E+00 -0.69517052595E+03  0.23185577545E+04  0.22118878816E+04 0.  0.
        3    1    3    3  502    0  0.68027053047E+02 -0.57261941689E+03  0.64163735271E+03  0.86268138912E+03  0.10100000352E+00 0.  1.
       -3    1    3    3    0  502 -0.68027053047E+02  0.57261941689E+03 -0.13368078787E+04  0.14558763654E+04  0.10100000352E+00 0. -1.
</event>
<event>
 5   0  0.8003875E-06  0.2201334E+04  0.7818609E-02  0.8517873E-01
        3   -1    0    0  501    0  0.00000000000E+00  0.00000000000E+00  0.13370027025E+04  0.13370027063E+04  0.10100000352E+00 0. -1.
       -3   -1    0    0    0  501  0.00000000000E+00  0.00000000000E+00 -0.90610702576E+03  0.90610703139E+03  0.10100000352E+00 0.  1.
    10030    2    1    2    0    0  0.00000000000E+00  0.00000000000E+00  0.43089567677E+03  0.22431097377E+04  0.22013337346E+04 0.  0.
        2    1    3    3  502    0  0.78741797502E+02  0.81800479738E+03  0.96155616572E+03  0.12648803813E+04  0.25500000920E-02 0. -1.
       -2    1    3    3    0  502 -0.78741797502E+02 -0.81800479738E+03 -0.53066048896E+03  0.97822935642E+03  0.25500000920E-02 0.  1.
</event>
<event>
 5   0  0.1071208E-05  0.2195735E+04  0.7818609E-02  0.8520205E-01
        1   -1    0    0  501    0  0.00000000000E+00  0.00000000000E+00  0.17753740034E+04  0.17753740034E+04  0.50400001928E-02 0.  1.
       -1   -1    0    0    0  501  0.00000000000E+00  0.00000000000E+00 -0.67890682147E+03  0.67890682149E+03  0.50400001928E-02 0. -1.
    10030    2    1    2    0    0  0.00000000000E+00  0.00000000000E+00  0.10964671819E+04  0.24542808249E+04  0.21957354318E+04 0.  0.
        4    1    3    3  502    0  0.80952816015E+03 -0.19324281780E+03  0.13485240564E+04  0.15846757941E+04  0.12699999809E+01 0.  1.
       -4    1    3    3    0  502 -0.80952816015E+03  0.19324281780E+03 -0.25205687451E+03  0.86960503080E+03  0.12699999809E+01 0. -1.
</event>
<event>
 5   0  0.1005538E-05  0.2208540E+04  0.7818609E-02  0.8514882E-01
        1   -1    0    0  501    0  0.00000000000E+00  0.00000000000E+00  0.17143486448E+04  0.17143486448E+04  0.50400001928E-02 0.  1.
       -1   -1    0    0    0  501  0.00000000000E+00  0.00000000000E+00 -0.71129757980E+03  0.71129757981E+03  0.50400001928E-02 0. -1.
    10030    2    1    2    0    0  0.00000000000E+00  0.00000000000E+00  0.10030510650E+04  0.24256462246E+04  0.22085398271E+04 0.  0.
        3    1    3    3  502    0  0.10935847093E+04  0.11020820460E+03  0.61847634057E+03  0.12611845062E+04  0.10100000352E+00 0. -1.
       -3    1    3    3    0  502 -0.10935847093E+04 -0.11020820460E+03  0.38457472439E+03  0.11644617184E+04  0.10100000352E+00 0.  1.
</event>
<event>
 5   0  0.2229552E-05  0.2192058E+04  0.7818609E-02  0.8521741E-01
       -2   -1    0    0    0  501  0.00000000000E+00  0.00000000000E+00  0.13590954564E+04  0.13590954564E+04  0.25500000920E-02 0. -1.
        2   -1    0    0  501    0  0.00000000000E+00  0.00000000000E+00 -0.88388128087E+03  0.88388128087E+03  0.25500000920E-02 0.  1.
    10030    2    1    2    0    0  0.00000000000E+00  0.00000000000E+00  0.47521417550E+03  0.22429767372E+04  0.21920575109E+04 0.  0.
        1    1    3    3  502    0  0.35489272027E+03 -0.50258884589E+03 -0.69050989017E+03  0.92485041999E+03  0.50400001928E-02 0.  1.
       -1    1    3    3    0  502 -0.35489272027E+03  0.50258884589E+03  0.11657240657E+04  0.13181263172E+04  0.50400001928E-02 0. -1.
</event>
<event>
 5   0  0.1049198E-05  0.2198973E+04  0.7818609E-02  0.8518856E-01
       -1   -1    0    0    0  501  0.00000000000E+00  0.00000000000E+00  0.10222652546E+04  0.10222652546E+04  0.50400001928E-02 0.  1.
        1   -1    0    0  501    0  0.00000000000E+00  0.00000000000E+00 -0.11825408690E+04  0.11825408690E+04  0.50400001928E-02 0. -1.
    10030    2    1    2    0    0  0.00000000000E+00  0.00000000000E+00 -0.16027561440E+03  0.22048061237E+04  0.21989728899E+04 0.  0.
        1    1    3    3  502    0  0.25445958904E+03 -0.79902307379E+03  0.63286240639E+03  0.10505724060E+04  0.50400001928E-02 0.  1.
       -1    1    3    3    0  502 -0.25445958904E+03  0.79902307379E+03 -0.79313802079E+03  0.11542337176E+04  0.50400001928E-02 0. -1.
</event>
<event>
 5   0  0.2319707E-05  0.2189385E+04  0.7818609E-02  0.8522859E-01
        2   -1    0    0  501    0  0.00000000000E+00  0.00000000000E+00  0.23308914336E+04  0.23308914336E+04  0.25500000920E-02 0. -1.
       -2   -1    0    0    0  501  0.00000000000E+00  0.00000000000E+00 -0.51411750650E+03  0.51411750651E+03  0.25500000920E-02 0.  1.
    10030    2    1    2    0    0  0.00000000000E+00  0.00000000000E+00  0.18167739271E+04  0.28450089401E+04  0.21893853857E+04 0.  0.
        3    1    3    3  502    0 -0.68863382980E+03 -0.45924923178E+03 -0.22539995000E+02  0.82803047650E+03  0.10100000352E+00 0.  1.
       -3    1    3    3    0  502  0.68863382980E+03  0.45924923178E+03  0.18393139221E+04  0.20169784636E+04  0.10100000352E+00 0. -1.
</event>
<event>
 5   0  0.2319707E-05  0.2200159E+04  0.7818609E-02  0.8518362E-01
       -2   -1    0    0    0  501  0.00000000000E+00  0.00000000000E+00  0.94106758448E+03  0.94106758449E+03  0.25500000920E-02 0. -1.
        2   -1    0    0  501    0  0.00000000000E+00  0.00000000000E+00 -0.12859600773E+04  0.12859600773E+04  0.25500000920E-02 0.  1.
    10030    2    1    2    0    0  0.00000000000E+00  0.00000000000E+00 -0.34489249279E+03  0.22270276618E+04  0.22001593976E+04 0.  0.
        3    1    3    3  502    0 -0.19635508218E+03 -0.40068022143E+03 -0.11902480878E+04  0.12711374744E+04  0.10100000352E+00 0.  1.
       -3    1    3    3    0  502  0.19635508218E+03  0.40068022143E+03  0.84535559498E+03  0.95589018737E+03  0.10100000352E+00 0. -1.
</event>
<event>
 5   0  0.2298329E-05  0.2213422E+04  0.7818609E-02  0.8512862E-01
        2   -1    0    0  501    0  0.00000000000E+00  0.00000000000E+00  0.23092483093E+04  0.23092483093E+04  0.25500000920E-02 0. -1.
       -2   -1    0    0    0  501  0.00000000000E+00  0.00000000000E+00 -0.53039314115E+03  0.53039314115E+03  0.25500000920E-02 0.  1.
    10030    2    1    2    0    0  0.00000000000E+00  0.00000000000E+00  0.17788551682E+04  0.28396414505E+04  0.22134222051E+04 0.  0.
        4    1    3    3  502    0 -0.47702714604E+02  0.62796768872E+03 -0.27809137894E+03  0.68844418438E+03  0.12699999809E+01 0.  1.
       -4    1    3    3    0  502  0.47702714604E+02 -0.62796768872E+03  0.20569465471E+04  0.21511972661E+04  0.12699999809E+01 0. -1.
</event>
<event>
 5   0  0.1005538E-05  0.2260773E+04  0.7818609E-02  0.8493550E-01
       -1   -1    0    0    0  501  0.00000000000E+00  0.00000000000E+00  0.72766026737E+03  0.72766026739E+03  0.50400001928E-02 0.  1.
        1   -1    0    0  501    0  0.00000000000E+00  0.00000000000E+00 -0.17560029118E+04  0.17560029118E+04  0.50400001928E-02 0. -1.
    10030    2    1    2    0    0  0.00000000000E+00  0.00000000000E+00 -0.10283426444E+04  0.24836631792E+04  0.22607729195E+04 0.  0.
        3    1    3    3  502    0 -0.47659399310E+03  0.97276675355E+03 -0.86906282976E+03  0.13887718327E+04  0.10100000352E+00 0. -1.
       -3    1    3    3    0  502  0.47659399310E+03 -0.97276675355E+03 -0.15927981469E+03  0.10948913465E+04  0.10100000352E+00 0.  1.
</event>
<event>
 5   0  0.2298329E-05  0.2190814E+04  0.7818609E-02  0.8522261E-01
        2   -1    0    0  501    0  0.00000000000E+00  0.00000000000E+00  0.13294815913E+04  0.13294815913E+04  0.25500000920E-02 0.  1.
       -2   -1    0    0    0  501  0.00000000000E+00  0.00000000000E+00 -0.90254477283E+03  0.90254477284E+03  0.25500000920E-02 0. -1.
    10030    2    1    2    0    0  0.00000000000E+00  0.00000000000E+00  0.42693681842E+03  0.22320263641E+04  0.21908141507E+04 0.  0.
        4    1    3    3  502    0 -0.38418425000E+03  0.10246007856E+04  0.26451828059E+03  0.11257778829E+04  0.12699999809E+01 0.  1.
       -4    1    3    3    0  502  0.38418425000E+03 -0.10246007856E+04  0.16241853783E+03  0.11062484812E+04  0.12699999809E+01 0. -1.
</event>
<event>
 5   0  0.1033733E-05  0.2199359E+04  0.7818609E-02  0.8518695E-01
        1   -1    0    0  501    0  0.00000000000E+00  0.00000000000E+00  0.20201821428E+04  0.20201821428E+04  0.50400001928E-02 0.  1.
       -1   -1    0    0    0  501  0.00000000000E+00  0.00000000000E+00 -0.59860715979E+03  0.59860715981E+03  0.50400001928E-02 0. -1.
    10030    2    1    2    0    0  0.00000000000E+00  0.00000000000E+00  0.14215749830E+04  0.26187893026E+04  0.21993594474E+04 0.  0.
        5    1    3    3  502    0  0.44020839823E+03 -0.21146509065E+03  0.18839632341E+04  0.19462375178E+04  0.46999998093E+01 0.  1.
       -5    1    3    3    0  502 -0.44020839823E+03  0.21146509065E+03 -0.46238825110E+03  0.67255178476E+03  0.46999998093E+01 0. -1.
</event>
<event>
 5   0  0.2229552E-05  0.2100991E+04  0.7818609E-02  0.8560807E-01
       -2   -1    0    0    0  501  0.00000000000E+00  0.00000000000E+00  0.12920899245E+04  0.12920899245E+04  0.25500000920E-02 0. -1.
        2   -1    0    0  501    0  0.00000000000E+00  0.00000000000E+00 -0.85407470051E+03  0.85407470052E+03  0.25500000920E-02 0.  1.
    10030    2    1    2    0    0  0.00000000000E+00  0.00000000000E+00  0.43801522397E+03  0.21461646250E+04  0.21009914948E+04 0.  0.
        1    1    3    3  502    0  0.48331691222E+03  0.47697197249E+03 -0.59975181632E+03  0.90597998951E+03  0.50400001928E-02 0.  1.
       -1    1    3    3    0  502 -0.48331691222E+03 -0.47697197249E+03  0.10377670403E+04  0.12401846355E+04  0.50400001928E-02 0. -1.
</event>
<event>
 5   0  0.1007682E-05  0.2136751E+04  0.7818609E-02  0.8545225E-01
        1   -1    0    0  501    0  0.00000000000E+00  0.00000000000E+00  0.56432593361E+03  0.56432593363E+03  0.50400001928E-02 0.  1.
       -1   -1    0    0    0  501  0.00000000000E+00  0.00000000000E+00 -0.20226362084E+04  0.20226362084E+04  0.50400001928E-02 0. -1.
    10030    2    1    2    0    0  0.00000000000E+00  0.00000000000E+00 -0.14583102748E+04  0.25869621420E+04  0.21367508668E+04 0.  0.
        2    1    3    3  502    0 -0.86410220278E+03 -0.58503299525E+03 -0.45177597864E+03  0.11371181809E+04  0.25500000920E-02 0.  1.
       -2    1    3    3    0  502  0.86410220278E+03  0.58503299525E+03 -0.10065342961E+04  0.14498439611E+04  0.25500000920E-02 0. -1.
</event>
<event>
 5   0  0.2289708E-05  0.2205260E+04  0.7818609E-02  0.8516242E-01
        2   -1    0    0  501    0  0.00000000000E+00  0.00000000000E+00  0.27460684954E+04  0.27460684954E+04  0.25500000920E-02 0. -1.
       -2   -1    0    0    0  501  0.00000000000E+00  0.00000000000E+00 -0.44273945366E+03  0.44273945367E+03  0.25500000920E-02 0.  1.
    10030    2    1    2    0    0  0.00000000000E+00  0.00000000000E+00  0.23033290417E+04  0.31888079490E+04  0.22052599533E+04 0.  0.
        5    1    3    3  502    0 -0.97120731407E+02 -0.84377584015E+03  0.21683797156E+04  0.23287942773E+04  0.46999998093E+01 0.  1.
       -5    1    3    3    0  502  0.97120731407E+02  0.84377584015E+03  0.13494932605E+03  0.86001367169E+03  0.46999998093E+01 0. -1.
</event>
<event>
 5   0  0.1005538E-05  0.2166283E+04  0.7818609E-02  0.8532594E-01
       -1   -1    0    0    0  501  0.00000000000E+00  0.00000000000E+00  0.78683776623E+03  0.78683776625E+03  0.50400001928E-02 0.  1.
        1   -1    0    0  501    0  0.00000000000E+00  0.00000000000E+00 -0.14910257676E+04  0.14910257676E+04  0.50400001928E-02 0. -1.
    10030    2    1    2    0    0  0.00000000000E+00  0.00000000000E+00 -0.70418800137E+03  0.22778635339E+04  0.21662828849E+04 0.  0.
        3    1    3    3  502    0 -0.12824829720E+03 -0.27944681122E+03  0.73998551885E+03  0.80132186064E+03  0.10100000352E+00 0.  1.
       -3    1    3    3    0  502  0.12824829720E+03  0.27944681122E+03 -0.14441735202E+04  0.14765416732E+04  0.10100000352E+00 0. -1.
</event>
<event>
 5   0  0.1005538E-05  0.2198167E+04  0.7818609E-02  0.8519191E-01
        1   -1    0    0  501    0  0.00000000000E+00  0.00000000000E+00  0.22647718313E+04  0.22647718313E+04  0.50400001928E-02 0.  1.
       -1   -1    0    0    0  501  0.00000000000E+00  0.00000000000E+00 -0.53338047029E+03  0.53338047031E+03  0.50400001928E-02 0. -1.
    10030    2    1    2    0    0  0.00000000000E+00  0.00000000000E+00  0.17313913610E+04  0.27981523016E+04  0.21981674773E+04 0.  0.
        3    1    3    3  502    0  0.10756695058E+04 -0.22392727207E+03  0.90117292921E+03  0.14210281374E+04  0.10100000352E+00 0. -1.
       -3    1    3    3    0  502 -0.10756695058E+04  0.22392727207E+03  0.83021843179E+03  0.13771241642E+04  0.10100000352E+00 0.  1.
</event>
<event>
 5   0  0.8003875E-06  0.2219335E+04  0.7818609E-02  0.8510423E-01
       -3   -1    0    0    0  501  0.00000000000E+00  0.00000000000E+00  0.63834303395E+03  0.63834304194E+03  0.10100000352E+00 0. -1.
        3   -1    0    0  501    0  0.00000000000E+00  0.00000000000E+00 -0.19289968396E+04  0.19289968423E+04  0.10100000352E+00 0.  1.
    10030    2    1    2    0    0  0.00000000000E+00  0.00000000000E+00 -0.12906538057E+04  0.25673398842E+04  0.22193347731E+04 0.  0.
        3    1    3    3  502    0 -0.26126552715E+02 -0.27262686233E+03  0.59863160937E+03  0.65830678012E+03  0.10100000352E+00 0. -1.
       -3    1    3    3    0  502  0.26126552715E+02  0.27262686233E+03 -0.18892854150E+04  0.19090331041E+04  0.10100000352E+00 0.  1.
</event>
<event>
 5   0  0.1005538E-05  0.2187387E+04  0.7818609E-02  0.8523696E-01
       -1   -1    0    0    0  501  0.00000000000E+00  0.00000000000E+00  0.10876262982E+04  0.10876262982E+04  0.50400001928E-02 0. -1.
        1   -1    0    0  501    0  0.00000000000E+00  0.00000000000E+00 -0.10997946369E+04  0.10997946369E+04  0.50400001928E-02 0.  1.
    10030    2    1    2    0    0  0.00000000000E+00  0.00000000000E+00 -0.12168338644E+02  0.21874209351E+04  0.21873870894E+04 0.  0.
        3    1    3    3  502    0  0.39262435534E+03  0.93230842392E+03  0.40962970552E+03  0.10913979052E+04  0.10100000352E+00 0. -1.
       -3    1    3    3    0  502 -0.39262435534E+03 -0.93230842392E+03 -0.42179804417E+03  0.10960230299E+04  0.10100000352E+00 0.  1.
</event>
<event>
 5   0  0.1007682E-05  0.2194451E+04  0.7818609E-02  0.8520741E-01
       -1   -1    0    0    0  501  0.00000000000E+00  0.00000000000E+00  0.70815777183E+03  0.70815777185E+03  0.50400001928E-02 0. -1.
        1   -1    0    0  501    0  0.00000000000E+00  0.00000000000E+00 -0.17000496240E+04  0.17000496241E+04  0.50400001928E-02 0.  1.
    10030    2    1    2    0    0  0.00000000000E+00  0.00000000000E+00 -0.99189185222E+03  0.24082073959E+04  0.21944505953E+04 0.  0.
        2    1    3    3  502    0 -0.60681808859E+03 -0.53757393025E+03 -0.13073523035E+04  0.15383055512E+04  0.25500000920E-02 0.  1.
       -2    1    3    3    0  502  0.60681808859E+03  0.53757393025E+03  0.31546045133E+03  0.86990184474E+03  0.25500000920E-02 0. -1.
</event>
<event>
 5   0  0.1033733E-05  0.2203762E+04  0.7818609E-02  0.8516864E-01
       -1   -1    0    0    0  501  0.00000000000E+00  0.00000000000E+00  0.89775224417E+03  0.89775224418E+03  0.50400001928E-02 0. -1.
        1   -1    0    0  501    0  0.00000000000E+00  0.00000000000E+00 -0.13524237367E+04  0.13524237367E+04  0.50400001928E-02 0.  1.
    10030    2    1    2    0    0  0.00000000000E+00  0.00000000000E+00 -0.45467149248E+03  0.22501759808E+04  0.22037617336E+04 0.  0.
        5    1    3    3  502    0 -0.19465178842E+03 -0.94822334228E+03  0.31015636151E+03  0.10164821121E+04  0.46999998093E+01 0. -1.
       -5    1    3    3    0  502  0.19465178842E+03  0.94822334228E+03 -0.76482785400E+03  0.12336938688E+04  0.46999998093E+01 0.  1.
</event>
<event>
 5   0  0.2289708E-05  0.2197972E+04  0.7818609E-02  0.8519273E-01
       -2   -1    0    0    0  501  0.00000000000E+00  0.00000000000E+00  0.10053127003E+04  0.10053127003E+04  0.25500000920E-02 0.  1.
        2   -1    0    0  501    0  0.00000000000E+00  0.00000000000E+00 -0.12013872306E+04  0.12013872306E+04  0.25500000920E-02 0. -1.
    10030    2    1    2    0    0  0.00000000000E+00  0.00000000000E+00 -0.19607453033E+03  0.22066999309E+04  0.21979716475E+04 0.  0.
        5    1    3    3  502    0  0.44101024617E+03 -0.89433767787E+02 -0.11046449657E+04  0.11927912752E+04  0.46999998093E+01 0. -1.
       -5    1    3    3    0  502 -0.44101024617E+03  0.89433767787E+02  0.90857043533E+03  0.10139086557E+04  0.46999998093E+01 0.  1.
</event>
<event>
 5   0  0.8003875E-06  0.2195203E+04  0.7818609E-02  0.8520427E-01
       -3   -1    0    0    0  501  0.00000000000E+00  0.00000000000E+00  0.92945051469E+03  0.92945052018E+03  0.10100000352E+00 0.  1.
        3   -1    0    0  501    0  0.00000000000E+00  0.00000000000E+00 -0.12961734953E+04  0.12961734992E+04  0.10100000352E+00 0. -1.
    10030    2    1    2    0    0  0.00000000000E+00  0.00000000000E+00 -0.36672298059E+03  0.22256240194E+04  0.21952030729E+04 0.  0.
        2    1    3    3  502    0  0.80623790794E+03  0.62671090828E+02 -0.93579292123E+03  0.12367924730E+04  0.25500000920E-02 0. -1.
       -2    1    3    3    0  502 -0.80623790794E+03 -0.62671090828E+02  0.56906994064E+03  0.98883154641E+03  0.25500000920E-02 0.  1.
</event>
<event>
 5   0  0.2229552E-05  0.2183607E+04  0.7818609E-02  0.8525283E-01
       -2   -1    0    0    0  501  0.00000000000E+00  0.00000000000E+00  0.29047690112E+04  0.29047690112E+04  0.25500000920E-02 0.  1.
        2   -1    0    0  501    0  0.00000000000E+00  0.00000000000E+00 -0.41037149658E+03  0.41037149658E+03  0.25500000920E-02 0. -1.
    10030    2    1    2    0    0  0.00000000000E+00  0.00000000000E+00  0.24943975146E+04  0.33151405078E+04  0.21836065638E+04 0.  0.
        1    1    3    3  502    0  0.79554762788E+03 -0.73357363981E+03  0.10271490144E+04  0.14919991324E+04  0.50400001928E-02 0. -1.
       -1    1    3    3    0  502 -0.79554762788E+03  0.73357363981E+03  0.14672485003E+04  0.18231413754E+04  0.50400001928E-02 0.  1.
</event>
<event>
 5   0  0.1049198E-05  0.2167268E+04  0.7818609E-02  0.8532177E-01
       -1   -1    0    0    0  501  0.00000000000E+00  0.00000000000E+00  0.15176896612E+04  0.15176896612E+04  0.50400001928E-02 0. -1.
        1   -1    0    0  501    0  0.00000000000E+00  0.00000000000E+00 -0.77371692086E+03  0.77371692087E+03  0.50400001928E-02 0.  1.
    10030    2    1    2    0    0  0.00000000000E+00  0.00000000000E+00  0.74397274035E+03  0.22914065821E+04  0.21672675622E+04 0.  0.
        1    1    3    3  502    0  0.37077153349E+03 -0.98241455796E+03  0.65499822375E+03  0.12375914378E+04  0.50400001928E-02 0. -1.
       -1    1    3    3    0  502 -0.37077153349E+03  0.98241455796E+03  0.88974516607E+02  0.10538151443E+04  0.50400001928E-02 0.  1.
</event>
<event>
 5   0  0.2298329E-05  0.2199791E+04  0.7818609E-02  0.8518515E-01
        2   -1    0    0  501    0  0.00000000000E+00  0.00000000000E+00  0.10414856646E+04  0.10414856646E+04  0.25500000920E-02 0.  1.
       -2   -1    0    0    0  501  0.00000000000E+00  0.00000000000E+00 -0.11615814747E+04  0.11615814747E+04  0.25500000920E-02 0. -1.
    10030    2    1    2    0    0  0.00000000000E+00  0.00000000000E+00 -0.12009581003E+03  0.22030671393E+04  0.21997913121E+04 0.  0.
        4    1    3    3  502    0 -0.19622926354E+02 -0.93227132631E+03 -0.64422946201E+03  0.11333790618E+04  0.12699999809E+01 0. -1.
       -4    1    3    3    0  502  0.19622926354E+02  0.93227132631E+03  0.52413365198E+03  0.10696880775E+04  0.12699999809E+01 0.  1.
</event>
<event>
 5   0  0.2319707E-05  0.2091838E+04  0.7818609E-02  0.8564847E-01
        2   -1    0    0  501    0  0.00000000000E+00  0.00000000000E+00  0.15803916317E+04  0.15803916317E+04  0.25500000920E-02 0.  1.
       -2   -1    0    0    0  501  0.00000000000E+00  0.00000000000E+00 -0.69219977174E+03  0.69219977175E+03  0.25500000920E-02 0. -1.
    10030    2    1    2    0    0  0.00000000000E+00  0.00000000000E+00  0.88819186000E+03  0.22725914035E+04  0.20918381646E+04 0.  0.
        3    1    3    3  502    0 -0.72914450542E+03  0.16563576130E+03 -0.35043947910E+03  0.82576918925E+03  0.10100000352E+00 0. -1.
       -3    1    3    3    0  502  0.72914450542E+03 -0.16563576130E+03  0.12386313391E+04  0.14468222142E+04  0.10100000352E+00 0.  1.
</event>
<event>
 5   0  0.1005538E-05  0.2203115E+04  0.7818609E-02  0.8517133E-01
        1   -1    0    0  501    0  0.00000000000E+00  0.00000000000E+00  0.21078923283E+04  0.21078923283E+04  0.50400001928E-02 0.  1.
       -1   -1    0    0    0  501  0.00000000000E+00  0.00000000000E+00 -0.57565995791E+03  0.57565995793E+03  0.50400001928E-02 0. -1.
    10030    2    1    2    0    0  0.00000000000E+00  0.00000000000E+00  0.15322323704E+04  0.26835522863E+04  0.22031152571E+04 0.  0.
        3    1    3    3  502    0 -0.18735488146E+03  0.92962868216E+03  0.14487992960E+04  0.17315688692E+04  0.10100000352E+00 0.  1.
       -3    1    3    3    0  502  0.18735488146E+03 -0.92962868216E+03  0.83433074376E+02  0.95198341709E+03  0.10100000352E+00 0. -1.
</event>
<event>
 5   0  0.1033733E-05  0.2201140E+04  0.7818609E-02  0.8517954E-01
        1   -1    0    0  501    0  0.00000000000E+00  0.00000000000E+00  0.83053552658E+03  0.83053552660E+03  0.50400001928E-02 0.  1.
       -1   -1    0    0    0  501  0.00000000000E+00  0.00000000000E+00 -0.14584021638E+04  0.14584021639E+04  0.50400001928E-02 0. -1.
    10030    2    1    2    0    0  0.00000000000E+00  0.00000000000E+00 -0.62786663726E+03  0.22889376905E+04  0.22011404400E+04 0.  0.
        5    1    3    3  502    0 -0.60260062351E+02 -0.76142467644E+03 -0.11378980080E+04  0.13704863296E+04  0.46999998093E+01 0. -1.
       -5    1    3    3    0  502  0.60260062351E+02  0.76142467644E+03  0.51003137078E+03  0.91845136082E+03  0.46999998093E+01 0.  1.
</event>
<event>
 5   0  0.1071208E-05  0.2207857E+04  0.7818609E-02  0.8515165E-01
        1   -1    0    0  501    0  0.00000000000E+00  0.00000000000E+00  0.12501679511E+04  0.12501679511E+04  0.50400001928E-02 0. -1.
       -1   -1    0    0    0  501  0.00000000000E+00  0.00000000000E+00 -0.97479514797E+03  0.97479514798E+03  0.50400001928E-02 0.  1.
    10030    2    1    2    0    0  0.00000000000E+00  0.00000000000E+00  0.27537280313E+03  0.22249630991E+04  0.22078565650E+04 0.  0.
        4    1    3    3  502    0  0.10935253070E+04 -0.12634098486E+03  0.22137439029E+03  0.11228392027E+04  0.12699999809E+01 0.  1.
       -4    1    3    3    0  502 -0.10935253070E+04  0.12634098486E+03  0.53998412841E+02  0.11021238964E+04  0.12699999809E+01 0. -1.
</event>
<event>
 5   0  0.2319707E-05  0.2200526E+04  0.7818609E-02  0.8518209E-01
       -2   -1    0    0    0  501  0.00000000000E+00  0.00000000000E+00  0.11542767787E+04  0.11542767787E+04  0.25500000920E-02 0. -1.
        2   -1    0    0  501    0  0.00000000000E+00  0.00000000000E+00 -0.10487764074E+04  0.10487764074E+04  0.25500000920E-02 0.  1.
    10030    2    1    2    0    0  0.00000000000E+00  0.00000000000E+00  0.10550037126E+03  0.22030531861E+04  0.22005256219E+04 0.  0.
        3    1    3    3  502    0 -0.68864656600E+03  0.65780559064E+03 -0.49891445822E+03  0.10751083363E+04  0.10100000352E+00 0.  1.
       -3    1    3    3    0  502  0.68864656600E+03 -0.65780559064E+03  0.60441482948E+03  0.11279448498E+04  0.10100000352E+00 0. -1.
</event>
<event>
 5   0  0.2284329E-05  0.2189827E+04  0.7818609E-02  0.8522674E-01
       -2   -1    0    0    0  501  0.00000000000E+00  0.00000000000E+00  0.90384525730E+03  0.90384525730E+03  0.25500000920E-02 0. -1.
        2   -1    0    0  501    0  0.00000000000E+00  0.00000000000E+00 -0.13263720348E+04  0.13263720348E+04  0.25500000920E-02 0.  1.
    10030    2    1    2    0    0  0.00000000000E+00  0.00000000000E+00 -0.42252677747E+03  0.22302172921E+04  0.21898265439E+04 0.  0.
        2    1    3    3  502    0  0.27979596497E+03  0.22799080207E+03 -0.12640463490E+04  0.13145640951E+04  0.25500000920E-02 0.  1.
       -2    1    3    3    0  502 -0.27979596497E+03 -0.22799080207E+03  0.84151957151E+03  0.91565319694E+03  0.25500000920E-02 0. -1.
</event>
<event>
 5   0  0.2319707E-05  0.2192654E+04  0.7818609E-02  0.8521492E-01
       -2   -1    0    0    0  501  0.00000000000E+00  0.00000000000E+00  0.10632326363E+04  0.10632326363E+04  0.25500000920E-02 0. -1.
        2   -1    0    0  501    0  0.00000000000E+00  0.00000000000E+00 -0.11304514142E+04  0.11304514142E+04  0.25500000920E-02 0.  1.
    10030    2    1    2    0    0  0.00000000000E+00  0.00000000000E+00 -0.67218777863E+02  0.21936840505E+04  0.21926539511E+04 0.  0.
        3    1    3    3  502    0 -0.80717972331E+03 -0.70945377120E+03 -0.25066538163E+03  0.11034930462E+04  0.10100000352E+00 0. -1.
       -3    1    3    3    0  502  0.80717972331E+03  0.70945377120E+03  0.18344660377E+03  0.10901910043E+04  0.10100000352E+00 0.  1.
</event>
<event>
 5   0  0.2284329E-05  0.2200880E+04  0.7818609E-02  0.8518062E-01
        2   -1    0    0  501    0  0.00000000000E+00  0.00000000000E+00  0.19926097187E+04  0.19926097187E+04  0.25500000920E-02 0.  1.
       -2   -1    0    0    0  501  0.00000000000E+00  0.00000000000E+00 -0.60772994959E+03  0.60772994959E+03  0.25500000920E-02 0. -1.
    10030    2    1    2    0    0  0.00000000000E+00  0.00000000000E+00  0.13848797691E+04  0.26003396683E+04  0.22008803729E+04 0.  0.
        2    1    3    3  502    0  0.10201775185E+03 -0.94006102681E+03  0.13574954439E+04  0.16543627885E+04  0.25500000920E-02 0. -1.
       -2    1    3    3    0  502 -0.10201775185E+03  0.94006102681E+03  0.27384325229E+02  0.94597687979E+03  0.25500000920E-02 0.  1.
</event>
<event>
 5   0  0.2319707E-05  0.2204111E+04  0.7818609E-02  0.8516719E-01
       -2   -1    0    0    0  501  0.00000000000E+00  0.00000000000E+00  0.10208254170E+04  0.10208254170E+04  0.25500000920E-02 0. -1.
        2   -1    0    0  501    0  0.00000000000E+00  0.00000000000E+00 -0.11897489652E+04  0.11897489652E+04  0.25500000920E-02 0.  1.
    10030    2    1    2    0    0  0.00000000000E+00  0.00000000000E+00 -0.16892354819E+03  0.22105743821E+04  0.22041106900E+04 0.  0.
        3    1    3    3  502    0  0.38417757900E+03 -0.10108475178E+04 -0.29750140504E+03  0.11215668561E+04  0.10100000352E+00 0. -1.
       -3    1    3    3    0  502 -0.38417757900E+03  0.10108475178E+04  0.12857785685E+03  0.10890075261E+04  0.10100000352E+00 0.  1.
</event>
<event>
 5   0  0.2289708E-05  0.2203355E+04  0.7818609E-02  0.8517033E-01
        2   -1    0    0  501    0  0.00000000000E+00  0.00000000000E+00  0.14749722636E+04  0.14749722636E+04  0.25500000920E-02 0.  1.
       -2   -1    0    0    0  501  0.00000000000E+00  0.00000000000E+00 -0.82285853991E+03  0.82285853991E+03  0.25500000920E-02 0. -1.
    10030    2    1    2    0    0  0.00000000000E+00  0.00000000000E+00  0.65211372366E+03  0.22978308035E+04  0.22033551899E+04 0.  0.
        5    1    3    3  502    0  0.49148307526E+03  0.72683947726E+03  0.10208204729E+04  0.13460860919E+04  0.46999998093E+01 0. -1.
       -5    1    3    3    0  502 -0.49148307526E+03 -0.72683947726E+03 -0.36870674928E+03  0.95174471153E+03  0.46999998093E+01 0.  1.
</event>
<event>
 5   0  0.2298329E-05  0.2191922E+04  0.7818609E-02  0.8521798E-01
       -2   -1    0    0    0  501  0.00000000000E+00  0.00000000000E+00  0.75349412689E+03  0.75349412690E+03  0.25500000920E-02 0. -1.
        2   -1    0    0  501    0  0.00000000000E+00  0.00000000000E+00 -0.15940813427E+04  0.15940813427E+04  0.25500000920E-02 0.  1.
    10030    2    1    2    0    0  0.00000000000E+00  0.00000000000E+00 -0.84058721585E+03  0.23475754696E+04  0.21919223796E+04 0.  0.
        4    1    3    3  502    0  0.28896891978E+03 -0.10221547133E+04 -0.70932012292E+03  0.12772783347E+04  0.12699999809E+01 0.  1.
       -4    1    3    3    0  502 -0.28896891978E+03  0.10221547133E+04 -0.13126709293E+03  0.10702971350E+04  0.12699999809E+01 0. -1.
</event>
<event>
 5   0  0.2298329E-05  0.2187390E+04  0.7818609E-02  0.8523695E-01
       -2   -1    0    0    0  501  0.00000000000E+00  0.00000000000E+00  0.13358473564E+04  0.13358473564E+04  0.25500000920E-02 0. -1.
        2   -1    0    0  501    0  0.00000000000E+00  0.00000000000E+00 -0.89543815236E+03  0.89543815236E+03  0.25500000920E-02 0.  1.
    10030    2    1    2    0    0  0.00000000000E+00  0.00000000000E+00  0.44040920402E+03  0.22312855087E+04  0.21873899411E+04 0.  0.
        4    1    3    3  502    0 -0.45832220501E+03 -0.93163065283E+03 -0.13045563259E+03  0.10464297405E+04  0.12699999809E+01 0.  1.
       -4    1    3    3    0  502  0.45832220501E+03  0.93163065283E+03  0.57086483661E+03  0.11848557682E+04  0.12699999809E+01 0. -1.
</event>
<event>
 5   0  0.1049198E-05  0.2192118E+04  0.7818609E-02  0.8521716E-01
        1   -1    0    0  501    0  0.00000000000E+00  0.00000000000E+00  0.10344212690E+04  0.10344212690E+04  0.50400001928E-02 0.  1.
       -1   -1    0    0    0  501  0.00000000000E+00  0.00000000000E+00 -0.11613691312E+04  0.11613691312E+04  0.50400001928E-02 0. -1.
    10030    2    1    2    0    0  0.00000000000E+00  0.00000000000E+00 -0.12694786217E+03  0.21957904002E+04  0.21921176341E+04 0.  0.
        1    1    3    3  502    0 -0.75631935252E+03 -0.87813921291E+02  0.72627247529E+03  0.10522366446E+04  0.50400001928E-02 0.  1.
       -1    1    3    3    0  502  0.75631935252E+03  0.87813921291E+02 -0.85322033746E+03  0.11435537556E+04  0.50400001928E-02 0. -1.
</event>
<event>
 5   0  0.2284329E-05  0.2200466E+04  0.7818609E-02  0.8518234E-01
       -2   -1    0    0    0  501  0.00000000000E+00  0.00000000000E+00  0.55349758420E+03  0.55349758421E+03  0.25500000920E-02 0.  1.
        2   -1    0    0  501    0  0.00000000000E+00  0.00000000000E+00 -0.21870244164E+04  0.21870244164E+04  0.25500000920E-02 0. -1.
    10030    2    1    2    0    0  0.00000000000E+00  0.00000000000E+00 -0.16335268322E+04  0.27405220006E+04  0.22004660698E+04 0.  0.
        2    1    3    3  502    0 -0.10710176135E+03  0.47256150800E+03  0.41345692530E+03  0.63697079620E+03  0.25500000920E-02 0.  1.
       -2    1    3    3    0  502  0.10710176135E+03 -0.47256150800E+03 -0.20469837575E+04  0.21035512044E+04  0.25500000920E-02 0. -1.
</event>
<event>
 5   0  0.1033733E-05  0.2202545E+04  0.7818609E-02  0.8517370E-01
       -1   -1    0    0    0  501  0.00000000000E+00  0.00000000000E+00  0.12321474849E+04  0.12321474850E+04  0.50400001928E-02 0. -1.
        1   -1    0    0  501    0  0.00000000000E+00  0.00000000000E+00 -0.98429828918E+03  0.98429828919E+03  0.50400001928E-02 0.  1.
    10030    2    1    2    0    0  0.00000000000E+00  0.00000000000E+00  0.24784919576E+03  0.22164457741E+04  0.22025445843E+04 0.  0.
        5    1    3    3  502    0 -0.82328842312E+02  0.10046046619E+04  0.57031192063E+03  0.11581391721E+04  0.46999998093E+01 0. -1.
       -5    1    3    3    0  502  0.82328842312E+02 -0.10046046619E+04 -0.32246272486E+03  0.10583066021E+04  0.46999998093E+01 0.  1.
</event>
<event>
 5   0  0.1049198E-05  0.2204007E+04  0.7818609E-02  0.8516762E-01
       -1   -1    0    0    0  501  0.00000000000E+00  0.00000000000E+00  0.76813596396E+03  0.76813596398E+03  0.50400001928E-02 0.  1.
        1   -1    0    0  501    0  0.00000000000E+00  0.00000000000E+00 -0.15809856386E+04  0.15809856386E+04  0.50400001928E-02 0. -1.
    10030    2    1    2    0    0  0.00000000000E+00  0.00000000000E+00 -0.81284967462E+03  0.23491216026E+04  0.22040071938E+04 0.  0.
        1    1    3    3  502    0 -0.43112281280E+03  0.10141161147E+04 -0.39506706541E+03  0.11706307531E+04  0.50400001928E-02 0. -1.
       -1    1    3    3    0  502  0.43112281280E+03 -0.10141161147E+04 -0.41778260921E+03  0.11784908495E+04  0.50400001928E-02 0.  1.
</event>
<event>
 5   0  0.1033733E-05  0.2197582E+04  0.7818609E-02  0.8519435E-01
       -1   -1    0    0    0  501  0.00000000000E+00  0.00000000000E+00  0.85649844916E+03  0.85649844917E+03  0.50400001928E-02 0.  1.
        1   -1    0    0  501    0  0.00000000000E+00  0.00000000000E+00 -0.14096247885E+04  0.14096247885E+04  0.50400001928E-02 0. -1.
    10030    2    1    2    0    0  0.00000000000E+00  0.00000000000E+00 -0.55312633937E+03  0.22661232377E+04  0.21975818031E+04 0.  0.
        5    1    3    3  502    0 -0.10309980878E+04 -0.25791038341E+03 -0.56427156243E+03  0.12032868773E+04  0.46999998093E+01 0.  1.
       -5    1    3    3    0  502  0.10309980878E+04  0.25791038341E+03  0.11145223060E+02  0.10628363604E+04  0.46999998093E+01 0. -1.
</event>
<event>
 5   0  0.2229552E-05  0.2201084E+04  0.7818609E-02  0.8517977E-01
        2   -1    0    0  501    0  0.00000000000E+00  0.00000000000E+00  0.17500227121E+04  0.17500227121E+04  0.25500000920E-02 0.  1.
       -2   -1    0    0    0  501  0.00000000000E+00  0.00000000000E+00 -0.69210097649E+03  0.69210097649E+03  0.25500000920E-02 0. -1.
    10030    2    1    2    0    0  0.00000000000E+00  0.00000000000E+00  0.10579217356E+04  0.24421236886E+04  0.22010837585E+04 0.  0.
        1    1    3    3  502    0  0.94608842223E+03 -0.35701656108E+03  0.10108615437E+04  0.14298199845E+04  0.50400001928E-02 0.  1.
       -1    1    3    3    0  502 -0.94608842223E+03  0.35701656108E+03  0.47060191888E+02  0.10123037041E+04  0.50400001928E-02 0. -1.
</event>
<event>
 5   0  0.2319707E-05  0.2179501E+04  0.7818609E-02  0.8527009E-01
       -2   -1    0    0    0  501  0.00000000000E+00  0.00000000000E+00  0.11196925764E+04  0.11196925764E+04  0.25500000920E-02 0.  1.
        2   -1    0    0  501    0  0.00000000000E+00  0.00000000000E+00 -0.10606095859E+04  0.10606095859E+04  0.25500000920E-02 0. -1.
    10030    2    1    2    0    0  0.00000000000E+00  0.00000000000E+00  0.59082990483E+02  0.21803021622E+04  0.21795014840E+04 0.  0.
        3    1    3    3  502    0  0.19543312550E+03 -0.86722576921E+03 -0.60099318175E+03  0.10730645162E+04  0.10100000352E+00 0. -1.
       -3    1    3    3    0  502 -0.19543312550E+03  0.86722576921E+03  0.66007617224E+03  0.11072376460E+04  0.10100000352E+00 0.  1.
</event>
<event>
 5   0  0.2289708E-05  0.2190391E+04  0.7818609E-02  0.8522438E-01
        2   -1    0    0  501    0  0.00000000000E+00  0.00000000000E+00  0.12101733770E+04  0.12101733770E+04  0.25500000920E-02 0.  1.
       -2   -1    0    0    0  501  0.00000000000E+00  0.00000000000E+00 -0.99114202170E+03  0.99114202171E+03  0.25500000920E-02 0. -1.
    10030    2    1    2    0    0  0.00000000000E+00  0.00000000000E+00  0.21903135528E+03  0.22013153987E+04  0.21903914604E+04 0.  0.
        5    1    3    3  502    0  0.20805895351E+03 -0.64623631470E+03 -0.75414304345E+03  0.10147234710E+04  0.46999998093E+01 0. -1.
       -5    1    3    3    0  502 -0.20805895351E+03  0.64623631470E+03  0.97317439873E+03  0.11865919277E+04  0.46999998093E+01 0.  1.
</event>
<event>
 5   0  0.1033733E-05  0.2198032E+04  0.7818609E-02  0.8519248E-01
       -1   -1    0    0    0  501  0.00000000000E+00  0.00000000000E+00  0.61456792673E+03  0.61456792675E+03  0.50400001928E-02 0. -1.
        1   -1    0    0  501    0  0.00000000000E+00  0.00000000000E+00 -0.19653421369E+04  0.19653421369E+04  0.50400001928E-02 0.  1.
    10030    2    1    2    0    0  0.00000000000E+00  0.00000000000E+00 -0.13507742102E+04  0.25799100637E+04  0.21980320675E+04 0.  0.
        5    1    3    3  502    0  0.78645262185E+03 -0.92956908964E+02 -0.15697906903E+04  0.17582416258E+04  0.46999998093E+01 0.  1.
       -5    1    3    3    0  502 -0.78645262185E+03  0.92956908964E+02  0.21901648006E+03  0.82166843792E+03  0.46999998093E+01 0. -1.
</event>
<event>
 5   0  0.2319707E-05  0.2194052E+04  0.7818609E-02  0.8520908E-01
        2   -1    0    0  501    0  0.00000000000E+00  0.00000000000E+00  0.69789259926E+03  0.69789259926E+03  0.25500000920E-02 0.  1.
       -2   -1    0    0    0  501  0.00000000000E+00  0.00000000000E+00 -0.17244279649E+04  0.17244279649E+04  0.25500000920E-02 0. -1.
    10030    2    1    2    0    0  0.00000000000E+00  0.00000000000E+00 -0.10265353656E+04  0.24223205641E+04  0.21940515169E+04 0.  0.
        3    1    3    3  502    0  0.21273640017E+03 -0.60462682220E+02  0.67302467065E+03  0.70843117478E+03  0.10100000352E+00 0.  1.
       -3    1    3    3    0  502 -0.21273640017E+03  0.60462682220E+02 -0.16995600363E+04  0.17138893894E+04  0.10100000352E+00 0. -1.
</event>
<event>
 5   0  0.2298329E-05  0.2205143E+04  0.7818609E-02  0.8516291E-01
       -2   -1    0    0    0  501  0.00000000000E+00  0.00000000000E+00  0.55561117907E+03  0.55561117907E+03  0.25500000920E-02 0.  1.
        2   -1    0    0  501    0  0.00000000000E+00  0.00000000000E+00 -0.21879761329E+04  0.21879761329E+04  0.25500000920E-02 0. -1.
    10030    2    1    2    0    0  0.00000000000E+00  0.00000000000E+00 -0.16323649538E+04  0.27435873120E+04  0.22051430783E+04 0.  0.
        4    1    3    3  502    0  0.80707423777E+03  0.60900401590E+03 -0.13633481682E+04  0.16973433822E+04  0.12699999809E+01 0. -1.
       -4    1    3    3    0  502 -0.80707423777E+03 -0.60900401590E+03 -0.26901678568E+03  0.10462439298E+04  0.12699999809E+01 0.  1.
</event>
<event>
 5   0  0.2289708E-05  0.2192609E+04  0.7818609E-02  0.8521511E-01
       -2   -1    0    0    0  501  0.00000000000E+00  0.00000000000E+00  0.65632708955E+03  0.65632708956E+03  0.25500000920E-02 0. -1.
        2   -1    0    0  501    0  0.00000000000E+00  0.00000000000E+00 -0.18312265243E+04  0.18312265243E+04  0.25500000920E-02 0.  1.
    10030    2    1    2    0    0  0.00000000000E+00  0.00000000000E+00 -0.11748994347E+04  0.24875536139E+04  0.21926090167E+04 0.  0.
        5    1    3    3  502    0  0.72169410955E+03 -0.53346036733E+03 -0.13017807430E+04  0.15811633515E+04  0.46999998093E+01 0. -1.
       -5    1    3    3    0  502 -0.72169410955E+03  0.53346036733E+03  0.12688130828E+03  0.90639026234E+03  0.46999998093E+01 0.  1.
</event>
<event>
 5   0  0.1033733E-05  0.2198243E+04  0.7818609E-02  0.8519160E-01
        1   -1    0    0  501    0  0.00000000000E+00  0.00000000000E+00  0.10457711579E+04  0.10457711580E+04  0.50400001928E-02 0.  1.
       -1   -1    0    0    0  501  0.00000000000E+00  0.00000000000E+00 -0.11551931624E+04  0.11551931624E+04  0.50400001928E-02 0. -1.
    10030    2    1    2    0    0  0.00000000000E+00  0.00000000000E+00 -0.10942200449E+03  0.22009643204E+04  0.21982426537E+04 0.  0.
        5    1    3    3  502    0  0.87900617995E+03  0.33154193083E+03 -0.62592035825E+03  0.11288801093E+04  0.46999998093E+01 0. -1.
       -5    1    3    3    0  502 -0.87900617995E+03 -0.33154193083E+03  0.51649835376E+03  0.10720842111E+04  0.46999998093E+01 0.  1.
</event>
<event>
 5   0  0.2319707E-05  0.2194388E+04  0.7818609E-02  0.8520768E-01
        2   -1    0    0  501    0  0.00000000000E+00  0.00000000000E+00  0.11679471203E+04  0.11679471203E+04  0.25500000920E-02 0. -1.
       -2   -1    0    0    0  501  0.00000000000E+00  0.00000000000E+00 -0.10307268021E+04  0.10307268021E+04  0.25500000920E-02 0.  1.
    10030    2    1    2    0    0  0.00000000000E+00  0.00000000000E+00  0.13722031821E+03  0.21986739223E+04  0.21943877509E+04 0.  0.
        3    1    3    3  502    0 -0.51976536015E+03 -0.78396538046E+03  0.63458217977E+03  0.11346595527E+04  0.10100000352E+00 0. -1.
       -3    1    3    3    0  502  0.51976536015E+03  0.78396538046E+03 -0.49736186155E+03  0.10640143697E+04  0.10100000352E+00 0.  1.
</event>
<event>
 5   0  0.2229552E-05  0.2199199E+04  0.7818609E-02  0.8518761E-01
        2   -1    0    0  501    0  0.00000000000E+00  0.00000000000E+00  0.21558548806E+04  0.21558548806E+04  0.25500000920E-02 0.  1.
       -2   -1    0    0    0  501  0.00000000000E+00  0.00000000000E+00 -0.56085374204E+03  0.56085374205E+03  0.25500000920E-02 0. -1.
    10030    2    1    2    0    0  0.00000000000E+00  0.00000000000E+00  0.15950011386E+04  0.27167086227E+04  0.21991991971E+04 0.  0.
        1    1    3    3  502    0  0.79863509913E+03  0.52427764840E+01  0.17311861125E+04  0.19065284851E+04  0.50400001928E-02 0.  1.
       -1    1    3    3    0  502 -0.79863509913E+03 -0.52427764840E+01 -0.13618497389E+03  0.81018013762E+03  0.50400001928E-02 0. -1.
</event>
<event>
 5   0  0.2298329E-05  0.2175325E+04  0.7818609E-02  0.8528769E-01
        2   -1    0    0  501    0  0.00000000000E+00  0.00000000000E+00  0.16445764072E+04  0.16445764072E+04  0.25500000920E-02 0.  1.
       -2   -1    0    0    0  501  0.00000000000E+00  0.00000000000E+00 -0.71933999477E+03  0.71933999478E+03  0.25500000920E-02 0. -1.
    10030    2    1    2    0    0  0.00000000000E+00  0.00000000000E+00  0.92523641247E+03  0.23639164020E+04  0.21753248807E+04 0.  0.
        4    1    3    3  502    0  0.55102267812E+03 -0.54933036796E+03  0.12885199699E+04  0.15052159880E+04  0.12699999809E+01 0. -1.
       -4    1    3    3    0  502 -0.55102267812E+03  0.54933036796E+03 -0.36328355742E+03  0.85870041397E+03  0.12699999809E+01 0.  1.
</event>
<event>
 5   0  0.2229552E-05  0.2187756E+04  0.7818609E-02  0.8523542E-01
        2   -1    0    0  501    0  0.00000000000E+00  0.00000000000E+00  0.14920261089E+04  0.14920261089E+04  0.25500000920E-02 0.  1.
       -2   -1    0    0    0  501  0.00000000000E+00  0.00000000000E+00 -0.80197579568E+03  0.80197579569E+03  0.25500000920E-02 0. -1.
    10030    2    1    2    0    0  0.00000000000E+00  0.00000000000E+00  0.69005031324E+03  0.22940019046E+04  0.21877557687E+04 0.  0.
        1    1    3    3  502    0 -0.69906259463E+03  0.59262346829E+02  0.12250498007E+04  0.14117179432E+04  0.50400001928E-02 0.  1.
       -1    1    3    3    0  502  0.69906259463E+03 -0.59262346829E+02 -0.53499948745E+03  0.88228396141E+03  0.50400001928E-02 0. -1.
</event>
<event>
 5   0  0.2319707E-05  0.2196803E+04  0.7818609E-02  0.8519760E-01
        2   -1    0    0  501    0  0.00000000000E+00  0.00000000000E+00  0.12574745337E+04  0.12574745337E+04  0.25500000920E-02 0. -1.
       -2   -1    0    0    0  501  0.00000000000E+00  0.00000000000E+00 -0.95945181610E+03  0.95945181610E+03  0.25500000920E-02 0.  1.
    10030    2    1    2    0    0  0.00000000000E+00  0.00000000000E+00  0.29802271756E+03  0.22169263498E+04  0.21968033367E+04 0.  0.
        3    1    3    3  502    0 -0.10786846339E+04  0.38369004318E+02 -0.56454970356E+02  0.10808422150E+04  0.10100000352E+00 0. -1.
       -3    1    3    3    0  502  0.10786846339E+04 -0.38369004318E+02  0.35447768792E+03  0.11360841348E+04  0.10100000352E+00 0.  1.
</event>
<event>
 5   0  0.2284329E-05  0.2203773E+04  0.7818609E-02  0.8516859E-01
       -2   -1    0    0    0  501  0.00000000000E+00  0.00000000000E+00  0.11248037449E+04  0.11248037449E+04  0.25500000920E-02 0.  1.
        2   -1    0    0  501    0  0.00000000000E+00  0.00000000000E+00 -0.10794365325E+04  0.10794365325E+04  0.25500000920E-02 0. -1.
    10030    2    1    2    0    0  0.00000000000E+00  0.00000000000E+00  0.45367212394E+02  0.22042402775E+04  0.22037733588E+04 0.  0.
        2    1    3    3  502    0 -0.43758774717E+03 -0.77776707673E+03 -0.62378884491E+03  0.10888145780E+04  0.25500000920E-02 0. -1.
       -2    1    3    3    0  502  0.43758774717E+03  0.77776707673E+03  0.66915605731E+03  0.11154256995E+04  0.25500000920E-02 0.  1.
</event>
<event>
 5   0  0.2229552E-05  0.2197701E+04  0.7818609E-02  0.8519386E-01
        2   -1    0    0  501    0  0.00000000000E+00  0.00000000000E+00  0.52989929443E+03  0.52989929443E+03  0.25500000920E-02 0. -1.
       -2   -1    0    0    0  501  0.00000000000E+00  0.00000000000E+00 -0.22786821469E+04  0.22786821469E+04  0.25500000920E-02 0.  1.
    10030    2    1    2    0    0  0.00000000000E+00  0.00000000000E+00 -0.17487828524E+04  0.28085814413E+04  0.21977006728E+04 0.  0.
        1    1    3    3  502    0 -0.24997026161E+02  0.87151448163E+03 -0.19673824429E+02  0.87209483567E+03  0.50400001928E-02 0. -1.
       -1    1    3    3    0  502  0.24997026161E+02 -0.87151448163E+03 -0.17291090280E+04  0.19364866056E+04  0.50400001928E-02 0.  1.
</event>
<event>
 5   0  0.2284329E-05  0.2204803E+04  0.7818609E-02  0.8516432E-01
        2   -1    0    0  501    0  0.00000000000E+00  0.00000000000E+00  0.14224166525E+04  0.14224166525E+04  0.25500000920E-02 0. -1.
       -2   -1    0    0    0  501  0.00000000000E+00  0.00000000000E+00 -0.85438353506E+03  0.85438353507E+03  0.25500000920E-02 0.  1.
    10030    2    1    2    0    0  0.00000000000E+00  0.00000000000E+00  0.56803311748E+03  0.22768001876E+04  0.22048032728E+04 0.  0.
        2    1    3    3  502    0  0.27456808528E+03 -0.53910763718E+03 -0.66763202915E+03  0.90097569571E+03  0.25500000920E-02 0.  1.
       -2    1    3    3    0  502 -0.27456808528E+03  0.53910763718E+03  0.12356651466E+04  0.13758244919E+04  0.25500000920E-02 0. -1.
</event>
<event>
 5   0  0.1049198E-05  0.2213330E+04  0.7818609E-02  0.8512900E-01
        1   -1    0    0  501    0  0.00000000000E+00  0.00000000000E+00  0.12768155747E+04  0.12768155748E+04  0.50400001928E-02 0. -1.
       -1   -1    0    0    0  501  0.00000000000E+00  0.00000000000E+00 -0.95918913887E+03  0.95918913888E+03  0.50400001928E-02 0.  1.
    10030    2    1    2    0    0  0.00000000000E+00  0.00000000000E+00  0.31762643587E+03  0.22360047136E+04  0.22133301893E+04 0.  0.
        1    1    3    3  502    0 -0.90123645079E+03 -0.47330237842E+03 -0.27976015884E+03  0.10557026230E+04  0.50400001928E-02 0.  1.
       -1    1    3    3    0  502  0.90123645079E+03  0.47330237842E+03  0.59738659471E+03  0.11803020907E+04  0.50400001928E-02 0. -1.
</event>
<event>
 5   0  0.1007682E-05  0.2272164E+04  0.7818609E-02  0.8488978E-01
       -1   -1    0    0    0  501  0.00000000000E+00  0.00000000000E+00  0.75680810082E+03  0.75680810083E+03  0.50400001928E-02 0.  1.
        1   -1    0    0  501    0  0.00000000000E+00  0.00000000000E+00 -0.17054289448E+04  0.17054289448E+04  0.50400001928E-02 0. -1.
    10030    2    1    2    0    0  0.00000000000E+00  0.00000000000E+00 -0.94862084396E+03  0.24622370456E+04  0.22721641145E+04 0.  0.
        2    1    3    3  502    0 -0.61244818815E+03  0.93520050110E+03 -0.25491506594E+03  0.11465925393E+04  0.25500000920E-02 0.  1.
       -2    1    3    3    0  502  0.61244818815E+03 -0.93520050110E+03 -0.69370577802E+03  0.13156445063E+04  0.25500000920E-02 0. -1.
</event>
<event>
 5   0  0.1071208E-05  0.2212547E+04  0.7818609E-02  0.8513224E-01
       -1   -1    0    0    0  501  0.00000000000E+00  0.00000000000E+00  0.14592669871E+04  0.14592669871E+04  0.50400001928E-02 0.  1.
        1   -1    0    0  501    0  0.00000000000E+00  0.00000000000E+00 -0.83866800455E+03  0.83866800457E+03  0.50400001928E-02 0. -1.
    10030    2    1    2    0    0  0.00000000000E+00  0.00000000000E+00  0.62059898255E+03  0.22979349917E+04  0.22125465258E+04 0.  0.
        4    1    3    3  502    0  0.52017666055E+03 -0.27860683747E+03 -0.66156672095E+03  0.88649741524E+03  0.12699999809E+01 0. -1.
       -4    1    3    3    0  502 -0.52017666055E+03  0.27860683747E+03  0.12821657035E+04  0.14114375764E+04  0.12699999809E+01 0.  1.
</event>
<event>
 5   0  0.1033733E-05  0.2193217E+04  0.7818609E-02  0.8521257E-01
        1   -1    0    0  501    0  0.00000000000E+00  0.00000000000E+00  0.17297009741E+04  0.17297009742E+04  0.50400001928E-02 0. -1.
       -1   -1    0    0    0  501  0.00000000000E+00  0.00000000000E+00 -0.69523570075E+03  0.69523570076E+03  0.50400001928E-02 0.  1.
    10030    2    1    2    0    0  0.00000000000E+00  0.00000000000E+00  0.10344652734E+04  0.24249366749E+04  0.21932166960E+04 0.  0.
        5    1    3    3  502    0  0.94149721505E+03  0.20157019696E+03 -0.63082736857E+02  0.96490884126E+03  0.46999998093E+01 0.  1.
       -5    1    3    3    0  502 -0.94149721505E+03 -0.20157019696E+03  0.10975480103E+04  0.14600278337E+04  0.46999998093E+01 0. -1.
</event>
<event>
 5   0  0.2319707E-05  0.2194225E+04  0.7818609E-02  0.8520836E-01
       -2   -1    0    0    0  501  0.00000000000E+00  0.00000000000E+00  0.12377775787E+04  0.12377775787E+04  0.25500000920E-02 0.  1.
        2   -1    0    0  501    0  0.00000000000E+00  0.00000000000E+00 -0.97243282230E+03  0.97243282230E+03  0.25500000920E-02 0. -1.
    10030    2    1    2    0    0  0.00000000000E+00  0.00000000000E+00  0.26534475641E+03  0.22102104010E+04  0.21942247326E+04 0.  0.
        3    1    3    3  502    0 -0.70074320015E+03  0.56611963782E+03  0.76343173598E+03  0.11808304292E+04  0.10100000352E+00 0.  1.
       -3    1    3    3    0  502  0.70074320015E+03 -0.56611963782E+03 -0.49808697957E+03  0.10293799718E+04  0.10100000352E+00 0. -1.
</event>
<event>
 5   0  0.2319707E-05  0.2196529E+04  0.7818609E-02  0.8519874E-01
        2   -1    0    0  501    0  0.00000000000E+00  0.00000000000E+00  0.13031505488E+04  0.13031505488E+04  0.25500000920E-02 0.  1.
       -2   -1    0    0    0  501  0.00000000000E+00  0.00000000000E+00 -0.92559128509E+03  0.92559128509E+03  0.25500000920E-02 0. -1.
    10030    2    1    2    0    0  0.00000000000E+00  0.00000000000E+00  0.37755926370E+03  0.22287418339E+04  0.21965288900E+04 0.  0.
        3    1    3    3  502    0 -0.87328940380E+02 -0.88108984314E+03 -0.47054922187E+03  0.10026775334E+04  0.10100000352E+00 0. -1.
       -3    1    3    3    0  502  0.87328940380E+02  0.88108984314E+03  0.84810848557E+03  0.12260643005E+04  0.10100000352E+00 0.  1.
</event>
<event>
 5   0  0.1005538E-05  0.2202977E+04  0.7818609E-02  0.8517190E-01
       -1   -1    0    0    0  501  0.00000000000E+00  0.00000000000E+00  0.11093458036E+04  0.11093458036E+04  0.50400001928E-02 0.  1.
        1   -1    0    0  501    0  0.00000000000E+00  0.00000000000E+00 -0.10936873272E+04  0.10936873272E+04  0.50400001928E-02 0. -1.
    10030    2    1    2    0    0  0.00000000000E+00  0.00000000000E+00  0.15658476382E+02  0.22030331308E+04  0.22029774823E+04 0.  0.
        3    1    3    3  502    0 -0.15959419885E+02 -0.83828953024E+03  0.72219551542E+03  0.11065940594E+04  0.10100000352E+00 0.  1.
       -3    1    3    3    0  502  0.15959419885E+02  0.83828953024E+03 -0.70653703904E+03  0.10964390714E+04  0.10100000352E+00 0. -1.
</event>
<event>
 5   0  0.1071208E-05  0.2195852E+04  0.7818609E-02  0.8520156E-01
        1   -1    0    0  501    0  0.00000000000E+00  0.00000000000E+00  0.16117763939E+04  0.16117763939E+04  0.50400001928E-02 0.  1.
       -1   -1    0    0    0  501  0.00000000000E+00  0.00000000000E+00 -0.74789636763E+03  0.74789636765E+03  0.50400001928E-02 0. -1.
    10030    2    1    2    0    0  0.00000000000E+00  0.00000000000E+00  0.86388002628E+03  0.23596727616E+04  0.21958521904E+04 0.  0.
        4    1    3    3  502    0 -0.69394504544E+03 -0.72528588874E+03 -0.46036495188E+02  0.10048484056E+04  0.12699999809E+01 0. -1.
       -4    1    3    3    0  502  0.69394504544E+03  0.72528588874E+03  0.90991652147E+03  0.13548243559E+04  0.12699999809E+01 0.  1.
</event>
<event>
 5   0  0.1033733E-05  0.2200962E+04  0.7818609E-02  0.8518028E-01
       -1   -1    0    0    0  501  0.00000000000E+00  0.00000000000E+00  0.98504402771E+03  0.98504402772E+03  0.50400001928E-02 0. -1.
        1   -1    0    0  501    0  0.00000000000E+00  0.00000000000E+00 -0.12294462795E+04  0.12294462795E+04  0.50400001928E-02 0.  1.
    10030    2    1    2    0    0  0.00000000000E+00  0.00000000000E+00 -0.24440225179E+03  0.22144903072E+04  0.22009622578E+04 0.  0.
        5    1    3    3  502    0 -0.27205636627E+03  0.66135708993E+03  0.71937811609E+03  0.10143642495E+04  0.46999998093E+01 0. -1.
       -5    1    3    3    0  502  0.27205636627E+03 -0.66135708993E+03 -0.96378036789E+03  0.12001260577E+04  0.46999998093E+01 0.  1.
</event>
<event>
 5   0  0.2298329E-05  0.2199196E+04  0.7818609E-02  0.8518763E-01
        2   -1    0    0  501    0  0.00000000000E+00  0.00000000000E+00  0.14652801321E+04  0.14652801321E+04  0.25500000920E-02 0. -1.
       -2   -1    0    0    0  501  0.00000000000E+00  0.00000000000E+00 -0.82517727132E+03  0.82517727132E+03  0.25500000920E-02 0.  1.
    10030    2    1    2    0    0  0.00000000000E+00  0.00000000000E+00  0.64010286083E+03  0.22904574035E+04  0.21991960905E+04 0.  0.
        4    1    3    3  502    0 -0.52355789981E+03 -0.92377632332E+03  0.22469712150E+02  0.10620650031E+04  0.12699999809E+01 0.  1.
       -4    1    3    3    0  502  0.52355789981E+03  0.92377632332E+03  0.61763314868E+03  0.12283924003E+04  0.12699999809E+01 0. -1.
</event>
<event>
 5   0  0.2298329E-05  0.2202242E+04  0.7818609E-02  0.8517496E-01
        2   -1    0    0  501    0  0.00000000000E+00  0.00000000000E+00  0.58742066396E+03  0.58742066397E+03  0.25500000920E-02 0.  1.
       -2   -1    0    0    0  501  0.00000000000E+00  0.00000000000E+00 -0.20640525952E+04  0.20640525952E+04  0.25500000920E-02 0. -1.
    10030    2    1    2    0    0  0.00000000000E+00  0.00000000000E+00 -0.14766319313E+04  0.26514732592E+04  0.22022417178E+04 0.  0.
        4    1    3    3  502    0 -0.83071428439E+03 -0.70992845614E+03 -0.57508384317E+03  0.12348310308E+04  0.12699999809E+01 0. -1.
       -4    1    3    3    0  502  0.83071428439E+03  0.70992845614E+03 -0.90154808808E+03  0.14166422284E+04  0.12699999809E+01 0.  1.
</event>
<event>
 5   0  0.2319707E-05  0.2179099E+04  0.7818609E-02  0.8527178E-01
        2   -1    0    0  501    0  0.00000000000E+00  0.00000000000E+00  0.25317412612E+04  0.25317412612E+04  0.25500000920E-02 0.  1.
       -2   -1    0    0    0  501  0.00000000000E+00  0.00000000000E+00 -0.46889386735E+03  0.46889386735E+03  0.25500000920E-02 0. -1.
    10030    2    1    2    0    0  0.00000000000E+00  0.00000000000E+00  0.20628473938E+04  0.30006351285E+04  0.21790988514E+04 0.  0.
        3    1    3    3  502    0  0.15745118579E+03 -0.67847431320E+03 -0.12230770121E+03  0.70716154700E+03  0.10100000352E+00 0.  1.
       -3    1    3    3    0  502 -0.15745118579E+03  0.67847431320E+03  0.21851550950E+04  0.22934735815E+04  0.10100000352E+00 0. -1.
</event>
<event>
 5   0  0.1049198E-05  0.2196647E+04  0.7818609E-02  0.8519825E-01
       -1   -1    0    0    0  501  0.00000000000E+00  0.00000000000E+00  0.10882439649E+04  0.10882439649E+04  0.50400001928E-02 0.  1.
        1   -1    0    0  501    0  0.00000000000E+00  0.00000000000E+00 -0.11084966276E+04  0.11084966276E+04  0.50400001928E-02 0. -1.
    10030    2    1    2    0    0  0.00000000000E+00  0.00000000000E+00 -0.20252662716E+02  0.21967405925E+04  0.21966472317E+04 0.  0.
        1    1    3    3  502    0 -0.35967326220E+03 -0.10356267070E+04  0.56413955065E+02  0.10977568337E+04  0.50400001928E-02 0.  1.
       -1    1    3    3    0  502  0.35967326220E+03  0.10356267070E+04 -0.76666617781E+02  0.10989837588E+04  0.50400001928E-02 0. -1.
</event>
<event>
 5   0  0.2298329E-05  0.2221754E+04  0.7818609E-02  0.8509428E-01
        2   -1    0    0  501    0  0.00000000000E+00  0.00000000000E+00  0.82801231267E+03  0.82801231268E+03  0.25500000920E-02 0.  1.
       -2   -1    0    0    0  501  0.00000000000E+00  0.00000000000E+00 -0.14903741257E+04  0.14903741257E+04  0.25500000920E-02 0. -1.
    10030    2    1    2    0    0  0.00000000000E+00  0.00000000000E+00 -0.66236181300E+03  0.23183864384E+04  0.22217543758E+04 0.  0.
        4    1    3    3  502    0  0.66831597247E+03  0.85555017254E+03 -0.85495938684E+02  0.10890011502E+04  0.12699999809E+01 0.  1.
       -4    1    3    3    0  502 -0.66831597247E+03 -0.85555017254E+03 -0.57686587431E+03  0.12293852881E+04  0.12699999809E+01 0. -1.
</event>
<event>
 5   0  0.1071208E-05  0.2221220E+04  0.7818609E-02  0.8509648E-01
        1   -1    0    0  501    0  0.00000000000E+00  0.00000000000E+00  0.93548047019E+03  0.93548047020E+03  0.50400001928E-02 0.  1.
       -1   -1    0    0    0  501  0.00000000000E+00  0.00000000000E+00 -0.13185250284E+04  0.13185250284E+04  0.50400001928E-02 0. -1.
    10030    2    1    2    0    0  0.00000000000E+00  0.00000000000E+00 -0.38304455818E+03  0.22540054986E+04  0.22212198572E+04 0.  0.
        4    1    3    3  502    0  0.72035488480E+03  0.56894687408E+03 -0.82592280530E+03  0.12348124549E+04  0.12699999809E+01 0. -1.
       -4    1    3    3    0  502 -0.72035488480E+03 -0.56894687408E+03  0.44287824712E+03  0.10191930437E+04  0.12699999809E+01 0.  1.
</event>
<event>
 5   0  0.2229552E-05  0.2206666E+04  0.7818609E-02  0.8515659E-01
       -2   -1    0    0    0  501  0.00000000000E+00  0.00000000000E+00  0.16510928321E+04  0.16510928321E+04  0.25500000920E-02 0. -1.
        2   -1    0    0  501    0  0.00000000000E+00  0.00000000000E+00 -0.73729598278E+03  0.73729598278E+03  0.25500000920E-02 0.  1.
    10030    2    1    2    0    0  0.00000000000E+00  0.00000000000E+00  0.91379684935E+03  0.23883888149E+04  0.22066663657E+04 0.  0.
        1    1    3    3  502    0  0.45455605620E+03 -0.10022379289E+04  0.37138554090E+03  0.11614772036E+04  0.50400001928E-02 0. -1.
       -1    1    3    3    0  502 -0.45455605620E+03  0.10022379289E+04  0.54241130846E+03  0.12269116113E+04  0.50400001928E-02 0.  1.
</event>
<event>
 5   0  0.2289708E-05  0.2196217E+04  0.7818609E-02  0.8520004E-01
       -2   -1    0    0    0  501  0.00000000000E+00  0.00000000000E+00  0.38996227381E+03  0.38996227382E+03  0.25500000920E-02 0. -1.
        2   -1    0    0  501    0  0.00000000000E+00  0.00000000000E+00 -0.30922018323E+04  0.30922018323E+04  0.25500000920E-02 0.  1.
    10030    2    1    2    0    0  0.00000000000E+00  0.00000000000E+00 -0.27022395585E+04  0.34821641062E+04  0.21962167995E+04 0.  0.
        5    1    3    3  502    0 -0.67795585853E+03 -0.39834999472E+03 -0.25664178369E+04  0.26841813404E+04  0.46999998093E+01 0.  1.
       -5    1    3    3    0  502  0.67795585853E+03  0.39834999472E+03 -0.13582172159E+03  0.79798276576E+03  0.46999998093E+01 0. -1.
</event>
<event>
 5   0  0.1049198E-05  0.2212762E+04  0.7818609E-02  0.8513135E-01
        1   -1    0    0  501    0  0.00000000000E+00  0.00000000000E+00  0.13774804616E+04  0.13774804616E+04  0.50400001928E-02 0. -1.
       -1   -1    0    0    0  501  0.00000000000E+00  0.00000000000E+00 -0.88863586763E+03  0.88863586764E+03  0.50400001928E-02 0.  1.
    10030    2    1    2    0    0  0.00000000000E+00  0.00000000000E+00  0.48884459398E+03  0.22661163293E+04  0.22127616638E+04 0.  0.
        1    1    3    3  502    0 -0.12956013081E+03  0.85606091628E+02  0.13662643791E+04  0.13750609383E+04  0.50400001928E-02 0. -1.
       -1    1    3    3    0  502  0.12956013081E+03 -0.85606091628E+02 -0.87741978511E+03  0.89105539096E+03  0.50400001928E-02 0.  1.
</event>
<event>
 5   0  0.1049198E-05  0.2194967E+04  0.7818609E-02  0.8520526E-01
        1   -1    0    0  501    0  0.00000000000E+00  0.00000000000E+00  0.13911599708E+04  0.13911599708E+04  0.50400001928E-02 0.  1.
       -1   -1    0    0    0  501  0.00000000000E+00  0.00000000000E+00 -0.86580237017E+03  0.86580237019E+03  0.50400001928E-02 0. -1.
    10030    2    1    2    0    0  0.00000000000E+00  0.00000000000E+00  0.52535760063E+03  0.22569623410E+04  0.21949666057E+04 0.  0.
        1    1    3    3  502    0  0.81345393040E+03  0.59822463766E+02 -0.49235209451E+03  0.95273113157E+03  0.50400001928E-02 0. -1.
       -1    1    3    3    0  502 -0.81345393040E+03 -0.59822463766E+02  0.10177096951E+04  0.13042312094E+04  0.50400001928E-02 0.  1.
</event>
<event>
 5   0  0.1071208E-05  0.2193852E+04  0.7818609E-02  0.8520991E-01
       -1   -1    0    0    0  501  0.00000000000E+00  0.00000000000E+00  0.72578718532E+03  0.72578718533E+03  0.50400001928E-02 0.  1.
        1   -1    0    0  501    0  0.00000000000E+00  0.00000000000E+00 -0.16578502371E+04  0.16578502371E+04  0.50400001928E-02 0. -1.
    10030    2    1    2    0    0  0.00000000000E+00  0.00000000000E+00 -0.93206305177E+03  0.23836374224E+04  0.21938518248E+04 0.  0.
        4    1    3    3  502    0  0.48534008397E+03 -0.85925962542E+03  0.54317014757E+02  0.98834915489E+03  0.12699999809E+01 0.  1.
       -4    1    3    3    0  502 -0.48534008397E+03  0.85925962542E+03 -0.98638006652E+03  0.13952882675E+04  0.12699999809E+01 0. -1.
</event>
<event>
 5   0  0.2298329E-05  0.2202656E+04  0.7818609E-02  0.8517324E-01
       -2   -1    0    0    0  501  0.00000000000E+00  0.00000000000E+00  0.14887903522E+04  0.14887903522E+04  0.25500000920E-02 0. -1.
        2   -1    0    0  501    0  0.00000000000E+00  0.00000000000E+00 -0.81470363514E+03  0.81470363514E+03  0.25500000920E-02 0.  1.
    10030    2    1    2    0    0  0.00000000000E+00  0.00000000000E+00  0.67408671705E+03  0.23034939873E+04  0.22026555899E+04 0.  0.
        4    1    3    3  502    0  0.40755284573E+03  0.92586427159E+03 -0.11831843935E+03  0.10184914518E+04  0.12699999809E+01 0.  1.
       -4    1    3    3    0  502 -0.40755284573E+03 -0.92586427159E+03  0.79240515640E+03  0.12850025355E+04  0.12699999809E+01 0. -1.
</event>
<event>
 5   0  0.1049198E-05  0.2192157E+04  0.7818609E-02  0.8521700E-01
        1   -1    0    0  501    0  0.00000000000E+00  0.00000000000E+00  0.13075559231E+04  0.13075559232E+04  0.50400001928E-02 0.  1.
       -1   -1    0    0    0  501  0.00000000000E+00  0.00000000000E+00 -0.91880454299E+03  0.91880454301E+03  0.50400001928E-02 0. -1.
    10030    2    1    2    0    0  0.00000000000E+00  0.00000000000E+00  0.38875138015E+03  0.22263604662E+04  0.21921572229E+04 0.  0.
        1    1    3    3  502    0 -0.12023108066E+03 -0.46680839923E+03  0.11941241976E+04  0.12877492743E+04  0.50400001928E-02 0.  1.
       -1    1    3    3    0  502  0.12023108066E+03  0.46680839923E+03 -0.80537281741E+03  0.93861119181E+03  0.50400001928E-02 0. -1.
</event>
<event>
 5   0  0.2229552E-05  0.2196834E+04  0.7818609E-02  0.8519747E-01
       -2   -1    0    0    0  501  0.00000000000E+00  0.00000000000E+00  0.13535654143E+04  0.13535654143E+04  0.25500000920E-02 0.  1.
        2   -1    0    0  501    0  0.00000000000E+00  0.00000000000E+00 -0.89136456574E+03  0.89136456574E+03  0.25500000920E-02 0. -1.
    10030    2    1    2    0    0  0.00000000000E+00  0.00000000000E+00  0.46220084859E+03  0.22449299801E+04  0.21968343112E+04 0.  0.
        1    1    3    3  502    0 -0.64798163704E+03  0.24912555355E+03 -0.63875609040E+03  0.94337324873E+03  0.50400001928E-02 0. -1.
       -1    1    3    3    0  502  0.64798163704E+03 -0.24912555355E+03  0.11009569390E+04  0.13015567313E+04  0.50400001928E-02 0.  1.
</event>
<event>
 5   0  0.8003875E-06  0.2245084E+04  0.7818609E-02  0.8499894E-01
       -3   -1    0    0    0  501  0.00000000000E+00  0.00000000000E+00  0.11343255721E+04  0.11343255766E+04  0.10100000352E+00 0. -1.
        3   -1    0    0  501    0  0.00000000000E+00  0.00000000000E+00 -0.11108804790E+04  0.11108804836E+04  0.10100000352E+00 0.  1.
    10030    2    1    2    0    0  0.00000000000E+00  0.00000000000E+00  0.23445093141E+02  0.22452060602E+04  0.22450836466E+04 0.  0.
        5    1    3    3  502    0 -0.14255824953E+03 -0.45588877579E+02 -0.11008473737E+04  0.11109852522E+04  0.46999998093E+01 0.  1.
       -5    1    3    3    0  502  0.14255824953E+03  0.45588877579E+02  0.11242924669E+04  0.11342208080E+04  0.46999998093E+01 0. -1.
</event>
<event>
 5   0  0.1033733E-05  0.2201083E+04  0.7818609E-02  0.8517977E-01
        1   -1    0    0  501    0  0.00000000000E+00  0.00000000000E+00  0.17359658670E+04  0.17359658670E+04  0.50400001928E-02 0. -1.
       -1   -1    0    0    0  501  0.00000000000E+00  0.00000000000E+00 -0.69770481366E+03  0.69770481368E+03  0.50400001928E-02 0.  1.
    10030    2    1    2    0    0  0.00000000000E+00  0.00000000000E+00  0.10382610534E+04  0.24336706807E+04  0.22010831350E+04 0.  0.
        5    1    3    3  502    0 -0.38915750928E+03  0.10247901336E+04  0.62707506657E+03  0.12628870155E+04  0.46999998093E+01 0.  1.
       -5    1    3    3    0  502  0.38915750928E+03 -0.10247901336E+04  0.41118598680E+03  0.11707836652E+04  0.46999998093E+01 0. -1.
</event>
<event>
 5   0  0.2319707E-05  0.2198940E+04  0.7818609E-02  0.8518869E-01
       -2   -1    0    0    0  501  0.00000000000E+00  0.00000000000E+00  0.78669090152E+03  0.78669090153E+03  0.25500000920E-02 0.  1.
        2   -1    0    0  501    0  0.00000000000E+00  0.00000000000E+00 -0.15366065457E+04  0.15366065457E+04  0.25500000920E-02 0. -1.
    10030    2    1    2    0    0  0.00000000000E+00  0.00000000000E+00 -0.74991564422E+03  0.23232974473E+04  0.21989400981E+04 0.  0.
        3    1    3    3  502    0 -0.86351543879E+03 -0.60085660643E+03 -0.71263663155E+03  0.12706449360E+04  0.10100000352E+00 0. -1.
       -3    1    3    3    0  502  0.86351543879E+03  0.60085660643E+03 -0.37279012671E+02  0.10526525113E+04  0.10100000352E+00 0.  1.
</event>
<event>
 5   0  0.1049198E-05  0.2206236E+04  0.7818609E-02  0.8515837E-01
       -1   -1    0    0    0  501  0.00000000000E+00  0.00000000000E+00  0.10646044481E+04  0.10646044481E+04  0.50400001928E-02 0.  1.
        1   -1    0    0  501    0  0.00000000000E+00  0.00000000000E+00 -0.11430251507E+04  0.11430251507E+04  0.50400001928E-02 0. -1.
    10030    2    1    2    0    0  0.00000000000E+00  0.00000000000E+00 -0.78420702627E+02  0.22076295988E+04  0.22062363062E+04 0.  0.
        1    1    3    3  502    0 -0.35620519162E+03  0.10120181492E+04  0.21747998825E+03  0.10946964959E+04  0.50400001928E-02 0.  1.
       -1    1    3    3    0  502  0.35620519162E+03 -0.10120181492E+04 -0.29590069088E+03  0.11129331030E+04  0.50400001928E-02 0. -1.
</event>
<event>
 5   0  0.1033733E-05  0.2197110E+04  0.7818609E-02  0.8519632E-01
       -1   -1    0    0    0  501  0.00000000000E+00  0.00000000000E+00  0.66967727514E+03  0.66967727515E+03  0.50400001928E-02 0. -1.
        1   -1    0    0  501    0  0.00000000000E+00  0.00000000000E+00 -0.18020960722E+04  0.18020960722E+04  0.50400001928E-02 0.  1.
    10030    2    1    2    0    0  0.00000000000E+00  0.00000000000E+00 -0.11324187971E+04  0.24717733474E+04  0.21971097262E+04 0.  0.
        5    1    3    3  502    0  0.11267092812E+03 -0.10844802245E+04 -0.71718156800E+03  0.13050530973E+04  0.46999998093E+01 0.  1.
       -5    1    3    3    0  502 -0.11267092812E+03  0.10844802245E+04 -0.41523722906E+03  0.11667202500E+04  0.46999998093E+01 0. -1.
</event>
<event>
 5   0  0.2289708E-05  0.2198284E+04  0.7818609E-02  0.8519143E-01
        2   -1    0    0  501    0  0.00000000000E+00  0.00000000000E+00  0.76719759229E+03  0.76719759230E+03  0.25500000920E-02 0.  1.
       -2   -1    0    0    0  501  0.00000000000E+00  0.00000000000E+00 -0.15747090043E+04  0.15747090043E+04  0.25500000920E-02 0. -1.
    10030    2    1    2    0    0  0.00000000000E+00  0.00000000000E+00 -0.80751141203E+03  0.23419065966E+04  0.21982838367E+04 0.  0.
        5    1    3    3  502    0 -0.63798988625E+03 -0.82862497844E+03 -0.76414801869E+03  0.12952199560E+04  0.46999998093E+01 0. -1.
       -5    1    3    3    0  502  0.63798988625E+03  0.82862497844E+03 -0.43363393338E+02  0.10466866407E+04  0.46999998093E+01 0.  1.
</event>
<event>
 5   0  0.1049198E-05  0.2184796E+04  0.7818609E-02  0.8524783E-01
       -1   -1    0    0    0  501  0.00000000000E+00  0.00000000000E+00  0.61685715135E+03  0.61685715137E+03  0.50400001928E-02 0. -1.
        1   -1    0    0  501    0  0.00000000000E+00  0.00000000000E+00 -0.19345377449E+04  0.19345377449E+04  0.50400001928E-02 0.  1.
    10030    2    1    2    0    0  0.00000000000E+00  0.00000000000E+00 -0.13176805936E+04  0.25513948963E+04  0.21847960477E+04 0.  0.
        1    1    3    3  502    0 -0.10231268356E+04 -0.17361082563E+03 -0.26041114234E+03  0.10699267282E+04  0.50400001928E-02 0. -1.
       -1    1    3    3    0  502  0.10231268356E+04  0.17361082563E+03 -0.10572694512E+04  0.14814681681E+04  0.50400001928E-02 0.  1.
</event>
<event>
 5   0  0.1033733E-05  0.2193758E+04  0.7818609E-02  0.8521031E-01
       -1   -1    0    0    0  501  0.00000000000E+00  0.00000000000E+00  0.12091304469E+04  0.12091304469E+04  0.50400001928E-02 0.  1.
        1   -1    0    0  501    0  0.00000000000E+00  0.00000000000E+00 -0.99504877589E+03  0.99504877590E+03  0.50400001928E-02 0. -1.
    10030    2    1    2    0    0  0.00000000000E+00  0.00000000000E+00  0.21408167097E+03  0.22041792228E+04  0.21937582101E+04 0.  0.
        5    1    3    3  502    0 -0.34813661824E+03 -0.18335586702E+03 -0.92168962961E+03  0.10021738084E+04  0.46999998093E+01 0. -1.
       -5    1    3    3    0  502  0.34813661824E+03  0.18335586702E+03  0.11357713006E+04  0.12020054144E+04  0.46999998093E+01 0.  1.
</event>
<event>
 5   0  0.1005538E-05  0.2198738E+04  0.7818609E-02  0.8518954E-01
        1   -1    0    0  501    0  0.00000000000E+00  0.00000000000E+00  0.12769280441E+04  0.12769280441E+04  0.50400001928E-02 0.  1.
       -1   -1    0    0    0  501  0.00000000000E+00  0.00000000000E+00 -0.94649986370E+03  0.94649986372E+03  0.50400001928E-02 0. -1.
    10030    2    1    2    0    0  0.00000000000E+00  0.00000000000E+00  0.33042818044E+03  0.22234279079E+04  0.21987380196E+04 0.  0.
        3    1    3    3  502    0 -0.30811313164E+03  0.55021685860E+02  0.12309225080E+04  0.12700910671E+04  0.10100000352E+00 0.  1.
       -3    1    3    3    0  502  0.30811313164E+03 -0.55021685860E+02 -0.90049432756E+03  0.95333684077E+03  0.10100000352E+00 0. -1.
</event>
<event>
 5   0  0.2298329E-05  0.2190636E+04  0.7818609E-02  0.8522336E-01
       -2   -1    0    0    0  501  0.00000000000E+00  0.00000000000E+00  0.55605787480E+03  0.55605787481E+03  0.25500000920E-02 0.  1.
        2   -1    0    0  501    0  0.00000000000E+00  0.00000000000E+00 -0.21575475178E+04  0.21575475178E+04  0.25500000920E-02 0. -1.
    10030    2    1    2    0    0  0.00000000000E+00  0.00000000000E+00 -0.16014896430E+04  0.27136053926E+04  0.21906357867E+04 0.  0.
        4    1    3    3  502    0 -0.44491594974E+03  0.99185696450E+03 -0.96688812996E+03  0.14548555630E+04  0.12699999809E+01 0.  1.
       -4    1    3    3    0  502  0.44491594974E+03 -0.99185696450E+03 -0.63460151302E+03  0.12587498296E+04  0.12699999809E+01 0. -1.
</event>
<event>
 5   0  0.1007682E-05  0.2189063E+04  0.7818609E-02  0.8522994E-01
        1   -1    0    0  501    0  0.00000000000E+00  0.00000000000E+00  0.13546121839E+04  0.13546121839E+04  0.50400001928E-02 0. -1.
       -1   -1    0    0    0  501  0.00000000000E+00  0.00000000000E+00 -0.88438562445E+03  0.88438562447E+03  0.50400001928E-02 0.  1.
    10030    2    1    2    0    0  0.00000000000E+00  0.00000000000E+00  0.47022655947E+03  0.22389978084E+04  0.21890633085E+04 0.  0.
        2    1    3    3  502    0  0.51004146781E+03  0.37871760386E+03 -0.67652641047E+03  0.92803949616E+03  0.25500000920E-02 0.  1.
       -2    1    3    3    0  502 -0.51004146781E+03 -0.37871760386E+03  0.11467529699E+04  0.13109583122E+04  0.25500000920E-02 0. -1.
</event>
<event>
 5   0  0.8003875E-06  0.2082247E+04  0.7818609E-02  0.8569104E-01
        3   -1    0    0  501    0  0.00000000000E+00  0.00000000000E+00  0.10072614840E+04  0.10072614890E+04  0.10100000352E+00 0.  1.
       -3   -1    0    0    0  501  0.00000000000E+00  0.00000000000E+00 -0.10761239987E+04  0.10761240035E+04  0.10100000352E+00 0. -1.
    10030    2    1    2    0    0  0.00000000000E+00  0.00000000000E+00 -0.68862514749E+02  0.20833854925E+04  0.20822471190E+04 0.  0.
        3    1    3    3  502    0 -0.10285256381E+04 -0.65046667447E+02  0.11344060482E+03  0.10368051111E+04  0.10100000352E+00 0.  1.
       -3    1    3    3    0  502  0.10285256381E+04  0.65046667447E+02 -0.18230311957E+03  0.10465803815E+04  0.10100000352E+00 0. -1.
</event>
<event>
 5   0  0.2229552E-05  0.2208010E+04  0.7818609E-02  0.8515102E-01
       -2   -1    0    0    0  501  0.00000000000E+00  0.00000000000E+00  0.94415563963E+03  0.94415563964E+03  0.25500000920E-02 0. -1.
        2   -1    0    0  501    0  0.00000000000E+00  0.00000000000E+00 -0.12909176870E+04  0.12909176870E+04  0.25500000920E-02 0.  1.
    10030    2    1    2    0    0  0.00000000000E+00  0.00000000000E+00 -0.34676204741E+03  0.22350733267E+04  0.22080101581E+04 0.  0.
        1    1    3    3  502    0 -0.31076373311E+02  0.71609695549E+03 -0.10233553091E+04  0.12494065308E+04  0.50400001928E-02 0.  1.
       -1    1    3    3    0  502  0.31076373311E+02 -0.71609695549E+03  0.67659326168E+03  0.98566679584E+03  0.50400001928E-02 0. -1.
</event>
<event>
 5   0  0.2298329E-05  0.2197744E+04  0.7818609E-02  0.8519368E-01
        2   -1    0    0  501    0  0.00000000000E+00  0.00000000000E+00  0.14537551767E+04  0.14537551767E+04  0.25500000920E-02 0. -1.
       -2   -1    0    0    0  501  0.00000000000E+00  0.00000000000E+00 -0.83062089895E+03  0.83062089895E+03  0.25500000920E-02 0.  1.
    10030    2    1    2    0    0  0.00000000000E+00  0.00000000000E+00  0.62313427771E+03  0.22843760756E+04  0.21977437810E+04 0.  0.
        4    1    3    3  502    0 -0.22087351408E+03 -0.88628390212E+03 -0.32344332785E+03  0.96896927898E+03  0.12699999809E+01 0.  1.
       -4    1    3    3    0  502  0.22087351408E+03  0.88628390212E+03  0.94657760556E+03  0.13154067966E+04  0.12699999809E+01 0. -1.
</event>
<event>
 5   0  0.2298329E-05  0.2187668E+04  0.7818609E-02  0.8523578E-01
        2   -1    0    0  501    0  0.00000000000E+00  0.00000000000E+00  0.12291274150E+04  0.12291274150E+04  0.25500000920E-02 0. -1.
       -2   -1    0    0    0  501  0.00000000000E+00  0.00000000000E+00 -0.97343282861E+03  0.97343282862E+03  0.25500000920E-02 0.  1.
    10030    2    1    2    0    0  0.00000000000E+00  0.00000000000E+00  0.25569458635E+03  0.22025602436E+04  0.21876681433E+04 0.  0.
        4    1    3    3  502    0  0.24654947155E+03  0.87991570254E+03 -0.47743825010E+03  0.10310126968E+04  0.12699999809E+01 0.  1.
       -4    1    3    3    0  502 -0.24654947155E+03 -0.87991570254E+03  0.73313283645E+03  0.11715475467E+04  0.12699999809E+01 0. -1.
</event>
<event>
 5   0  0.2284329E-05  0.2192529E+04  0.7818609E-02  0.8521544E-01
        2   -1    0    0  501    0  0.00000000000E+00  0.00000000000E+00  0.91661562816E+03  0.91661562816E+03  0.25500000920E-02 0.  1.
       -2   -1    0    0    0  501  0.00000000000E+00  0.00000000000E+00 -0.13111227101E+04  0.13111227101E+04  0.25500000920E-02 0. -1.
    10030    2    1    2    0    0  0.00000000000E+00  0.00000000000E+00 -0.39450708190E+03  0.22277383382E+04  0.21925287378E+04 0.  0.
        2    1    3    3  502    0  0.67541671925E+01 -0.43834091411E+03 -0.12181815105E+04  0.12946638824E+04  0.25500000920E-02 0. -1.
       -2    1    3    3    0  502 -0.67541671925E+01  0.43834091411E+03  0.82367442862E+03  0.93307445584E+03  0.25500000920E-02 0.  1.
</event>
<event>
 5   0  0.2319707E-05  0.2203491E+04  0.7818609E-02  0.8516977E-01
       -2   -1    0    0    0  501  0.00000000000E+00  0.00000000000E+00  0.14801671532E+04  0.14801671532E+04  0.25500000920E-02 0. -1.
        2   -1    0    0  501    0  0.00000000000E+00  0.00000000000E+00 -0.82007134658E+03  0.82007134658E+03  0.25500000920E-02 0.  1.
    10030    2    1    2    0    0  0.00000000000E+00  0.00000000000E+00  0.66009580663E+03  0.23002384998E+04  0.22034905677E+04 0.  0.
        3    1    3    3  502    0 -0.44033095674E+03 -0.72205804439E+03 -0.40705923775E+03  0.93859277867E+03  0.10100000352E+00 0.  1.
       -3    1    3    3    0  502  0.44033095674E+03  0.72205804439E+03  0.10671550444E+04  0.13616457211E+04  0.10100000352E+00 0. -1.
</event>
<event>
 5   0  0.1005538E-05  0.2200332E+04  0.7818609E-02  0.8518290E-01
        1   -1    0    0  501    0  0.00000000000E+00  0.00000000000E+00  0.86160174127E+03  0.86160174128E+03  0.50400001928E-02 0. -1.
       -1   -1    0    0    0  501  0.00000000000E+00  0.00000000000E+00 -0.14047849408E+04  0.14047849408E+04  0.50400001928E-02 0.  1.
    10030    2    1    2    0    0  0.00000000000E+00  0.00000000000E+00 -0.54318319952E+03  0.22663866821E+04  0.22003319305E+04 0.  0.
        3    1    3    3  502    0  0.26137684173E+03  0.59773641573E+03 -0.11840515528E+04  0.13518819349E+04  0.10100000352E+00 0.  1.
       -3    1    3    3    0  502 -0.26137684173E+03 -0.59773641573E+03  0.64086835330E+03  0.91450474714E+03  0.10100000352E+00 0. -1.
</event>
<event>
 5   0  0.1071208E-05  0.2222200E+04  0.7818609E-02  0.8509245E-01
        1   -1    0    0  501    0  0.00000000000E+00  0.00000000000E+00  0.12505120557E+04  0.12505120557E+04  0.50400001928E-02 0.  1.
       -1   -1    0    0    0  501  0.00000000000E+00  0.00000000000E+00 -0.98722980938E+03  0.98722980940E+03  0.50400001928E-02 0. -1.
    10030    2    1    2    0    0  0.00000000000E+00  0.00000000000E+00  0.26328224628E+03  0.22377418651E+04  0.22221996115E+04 0.  0.
        4    1    3    3  502    0 -0.41159732878E+03 -0.10319428495E+04  0.14667064964E+03  0.11206392364E+04  0.12699999809E+01 0.  1.
       -4    1    3    3    0  502  0.41159732878E+03  0.10319428495E+04  0.11661159664E+03  0.11171026287E+04  0.12699999809E+01 0. -1.
</event>
<event>
 5   0  0.2319707E-05  0.2212374E+04  0.7818609E-02  0.8513295E-01
        2   -1    0    0  501    0  0.00000000000E+00  0.00000000000E+00  0.26833500355E+04  0.26833500355E+04  0.25500000920E-02 0. -1.
       -2   -1    0    0    0  501  0.00000000000E+00  0.00000000000E+00 -0.45601575388E+03  0.45601575389E+03  0.25500000920E-02 0.  1.
    10030    2    1    2    0    0  0.00000000000E+00  0.00000000000E+00  0.22273342816E+04  0.31393657894E+04  0.22123741902E+04 0.  0.
        3    1    3    3  502    0  0.15624875119E+02  0.97234448252E+03  0.18617818614E+04  0.21004593877E+04  0.10100000352E+00 0. -1.
       -3    1    3    3    0  502 -0.15624875119E+02 -0.97234448252E+03  0.36555242015E+03  0.10389064017E+04  0.10100000352E+00 0.  1.
</event>
<event>
 5   0  0.2284329E-05  0.2181304E+04  0.7818609E-02  0.8526250E-01
       -2   -1    0    0    0  501  0.00000000000E+00  0.00000000000E+00  0.12510353931E+04  0.12510353931E+04  0.25500000920E-02 0. -1.
        2   -1    0    0  501    0  0.00000000000E+00  0.00000000000E+00 -0.95082975686E+03  0.95082975686E+03  0.25500000920E-02 0.  1.
    10030    2    1    2    0    0  0.00000000000E+00  0.00000000000E+00  0.30020563624E+03  0.22018651500E+04  0.21813039024E+04 0.  0.
        2    1    3    3  502    0  0.54010169750E+03  0.86807254476E+03  0.53350126855E+03  0.11532057016E+04  0.25500000920E-02 0.  1.
       -2    1    3    3    0  502 -0.54010169750E+03 -0.86807254476E+03 -0.23329563231E+03  0.10486594484E+04  0.25500000920E-02 0. -1.
</event>
<event>
 5   0  0.1049198E-05  0.2205248E+04  0.7818609E-02  0.8516247E-01
       -1   -1    0    0    0  501  0.00000000000E+00  0.00000000000E+00  0.58437312788E+03  0.58437312790E+03  0.50400001928E-02 0.  1.
        1   -1    0    0  501    0  0.00000000000E+00  0.00000000000E+00 -0.20804856445E+04  0.20804856445E+04  0.50400001928E-02 0. -1.
    10030    2    1    2    0    0  0.00000000000E+00  0.00000000000E+00 -0.14961125166E+04  0.26648587724E+04  0.22052481979E+04 0.  0.
        1    1    3    3  502    0 -0.99608886285E+03 -0.16817044242E+02 -0.13190942976E+04  0.16530231704E+04  0.50400001928E-02 0. -1.
       -1    1    3    3    0  502  0.99608886285E+03  0.16817044242E+02 -0.17701821898E+03  0.10118356020E+04  0.50400001928E-02 0.  1.
</event>
<event>
 5   0  0.2229552E-05  0.2197542E+04  0.7818609E-02  0.8519452E-01
       -2   -1    0    0    0  501  0.00000000000E+00  0.00000000000E+00  0.18204920486E+04  0.18204920486E+04  0.25500000920E-02 0. -1.
        2   -1    0    0  501    0  0.00000000000E+00  0.00000000000E+00 -0.66317109013E+03  0.66317109014E+03  0.25500000920E-02 0.  1.
    10030    2    1    2    0    0  0.00000000000E+00  0.00000000000E+00  0.11573209584E+04  0.24836631387E+04  0.21975419872E+04 0.  0.
        1    1    3    3  502    0  0.33430737488E+03  0.15162262384E+03 -0.59181857690E+03  0.69641946336E+03  0.50400001928E-02 0.  1.
       -1    1    3    3    0  502 -0.33430737488E+03 -0.15162262384E+03  0.17491395353E+04  0.17872436753E+04  0.50400001928E-02 0. -1.
</event>
<event>
 5   0  0.1007682E-05  0.2196166E+04  0.7818609E-02  0.8520026E-01
       -1   -1    0    0    0  501  0.00000000000E+00  0.00000000000E+00  0.11312604673E+04  0.11312604673E+04  0.50400001928E-02 0. -1.
        1   -1    0    0  501    0  0.00000000000E+00  0.00000000000E+00 -0.10658782072E+04  0.10658782072E+04  0.50400001928E-02 0.  1.
    10030    2    1    2    0    0  0.00000000000E+00  0.00000000000E+00  0.65382260073E+02  0.21971386745E+04  0.21961656393E+04 0.  0.
        2    1    3    3  502    0 -0.10131650907E+04 -0.39066817890E+03 -0.13066241783E+03  0.10937082767E+04  0.25500000920E-02 0.  1.
       -2    1    3    3    0  502  0.10131650907E+04  0.39066817890E+03  0.19604467790E+03  0.11034303978E+04  0.25500000920E-02 0. -1.
</event>
<event>
 5   0  0.2289708E-05  0.2194974E+04  0.7818609E-02  0.8520523E-01
       -2   -1    0    0    0  501  0.00000000000E+00  0.00000000000E+00  0.76746019407E+03  0.76746019407E+03  0.25500000920E-02 0. -1.
        2   -1    0    0  501    0  0.00000000000E+00  0.00000000000E+00 -0.15694327806E+04  0.15694327806E+04  0.25500000920E-02 0.  1.
    10030    2    1    2    0    0  0.00000000000E+00  0.00000000000E+00 -0.80197258649E+03  0.23368929746E+04  0.21949735181E+04 0.  0.
        5    1    3    3  502    0  0.76905316796E+03 -0.58648266737E+02  0.43024578166E+03  0.88318509780E+03  0.46999998093E+01 0. -1.
       -5    1    3    3    0  502 -0.76905316796E+03  0.58648266737E+02 -0.12322183681E+04  0.14537078768E+04  0.46999998093E+01 0.  1.
</event>
<event>
 5   0  0.1007682E-05  0.2200051E+04  0.7818609E-02  0.8518407E-01
       -1   -1    0    0    0  501  0.00000000000E+00  0.00000000000E+00  0.70744440155E+03  0.70744440156E+03  0.50400001928E-02 0.  1.
        1   -1    0    0  501    0  0.00000000000E+00  0.00000000000E+00 -0.17104615073E+04  0.17104615073E+04  0.50400001928E-02 0. -1.
    10030    2    1    2    0    0  0.00000000000E+00  0.00000000000E+00 -0.10030171057E+04  0.24179059089E+04  0.22000512880E+04 0.  0.
        2    1    3    3  502    0  0.44912362837E+02 -0.77534910569E+03 -0.13576697113E+04  0.15641132955E+04  0.25500000920E-02 0. -1.
       -2    1    3    3    0  502 -0.44912362837E+02  0.77534910569E+03  0.35465260558E+03  0.85379261339E+03  0.25500000920E-02 0.  1.
</event>
<event>
 5   0  0.1005538E-05  0.2205483E+04  0.7818609E-02  0.8516149E-01
        1   -1    0    0  501    0  0.00000000000E+00  0.00000000000E+00  0.22204017232E+04  0.22204017232E+04  0.50400001928E-02 0. -1.
       -1   -1    0    0    0  501  0.00000000000E+00  0.00000000000E+00 -0.54766631135E+03  0.54766631137E+03  0.50400001928E-02 0.  1.
    10030    2    1    2    0    0  0.00000000000E+00  0.00000000000E+00  0.16727354119E+04  0.27680680346E+04  0.22054833679E+04 0.  0.
        3    1    3    3  502    0  0.82331774155E+02 -0.60187347102E+02 -0.54173462837E+03  0.55125081004E+03  0.10100000352E+00 0.  1.
       -3    1    3    3    0  502 -0.82331774155E+02  0.60187347102E+02  0.22144700402E+04  0.22168172246E+04  0.10100000352E+00 0. -1.
</event>
<event>
 5   0  0.1033733E-05  0.2201553E+04  0.7818609E-02  0.8517782E-01
        1   -1    0    0  501    0  0.00000000000E+00  0.00000000000E+00  0.12030056977E+04  0.12030056977E+04  0.50400001928E-02 0. -1.
       -1   -1    0    0    0  501  0.00000000000E+00  0.00000000000E+00 -0.10072345291E+04  0.10072345291E+04  0.50400001928E-02 0.  1.
    10030    2    1    2    0    0  0.00000000000E+00  0.00000000000E+00  0.19577116867E+03  0.22102402268E+04  0.22015529768E+04 0.  0.
        5    1    3    3  502    0 -0.75414025859E+02 -0.67321775426E+03 -0.77316547865E+03  0.10279671042E+04  0.46999998093E+01 0.  1.
       -5    1    3    3    0  502  0.75414025859E+02  0.67321775426E+03  0.96893664732E+03  0.11822731226E+04  0.46999998093E+01 0. -1.
</event>
<event>
 5   0  0.2229552E-05  0.2205037E+04  0.7818609E-02  0.8516335E-01
       -2   -1    0    0    0  501  0.00000000000E+00  0.00000000000E+00  0.17862771195E+04  0.17862771195E+04  0.25500000920E-02 0.  1.
        2   -1    0    0  501    0  0.00000000000E+00  0.00000000000E+00 -0.68049160327E+03  0.68049160328E+03  0.25500000920E-02 0. -1.
    10030    2    1    2    0    0  0.00000000000E+00  0.00000000000E+00  0.11057855162E+04  0.24667687228E+04  0.22050365811E+04 0.  0.
        1    1    3    3  502    0  0.32960769321E+03  0.10158116230E+04  0.24645930578E+03  0.10960185556E+04  0.50400001928E-02 0. -1.
       -1    1    3    3    0  502 -0.32960769321E+03 -0.10158116230E+04  0.85932621046E+03  0.13707501672E+04  0.50400001928E-02 0.  1.
</event>
<event>
 5   0  0.1005538E-05  0.2177165E+04  0.7818609E-02  0.8527993E-01
        1   -1    0    0  501    0  0.00000000000E+00  0.00000000000E+00  0.19139377348E+04  0.19139377348E+04  0.50400001928E-02 0.  1.
       -1   -1    0    0    0  501  0.00000000000E+00  0.00000000000E+00 -0.61914853166E+03  0.61914853168E+03  0.50400001928E-02 0. -1.
    10030    2    1    2    0    0  0.00000000000E+00  0.00000000000E+00  0.12947892032E+04  0.25330862665E+04  0.21771648888E+04 0.  0.
        3    1    3    3  502    0  0.36376253296E+03  0.10170453858E+04  0.48997094799E+03  0.11860758986E+04  0.10100000352E+00 0. -1.
       -3    1    3    3    0  502 -0.36376253296E+03 -0.10170453858E+04  0.80481825517E+03  0.13470103679E+04  0.10100000352E+00 0.  1.
</event>
<event>
 5   0  0.2284329E-05  0.2199378E+04  0.7818609E-02  0.8518687E-01
       -2   -1    0    0    0  501  0.00000000000E+00  0.00000000000E+00  0.80366729752E+03  0.80366729753E+03  0.25500000920E-02 0. -1.
        2   -1    0    0  501    0  0.00000000000E+00  0.00000000000E+00 -0.15047475695E+04  0.15047475695E+04  0.25500000920E-02 0.  1.
    10030    2    1    2    0    0  0.00000000000E+00  0.00000000000E+00 -0.70108027193E+03  0.23084148670E+04  0.21993784691E+04 0.  0.
        2    1    3    3  502    0  0.66329951063E+03 -0.58972601638E+03 -0.10320160210E+04  0.13611759926E+04  0.25500000920E-02 0.  1.
       -2    1    3    3    0  502 -0.66329951063E+03  0.58972601638E+03  0.33093574905E+03  0.94723887441E+03  0.25500000920E-02 0. -1.
</event>
<event>
 5   0  0.1071208E-05  0.2195919E+04  0.7818609E-02  0.8520129E-01
        1   -1    0    0  501    0  0.00000000000E+00  0.00000000000E+00  0.11237498627E+04  0.11237498627E+04  0.50400001928E-02 0. -1.
       -1   -1    0    0    0  501  0.00000000000E+00  0.00000000000E+00 -0.10727613212E+04  0.10727613213E+04  0.50400001928E-02 0.  1.
    10030    2    1    2    0    0  0.00000000000E+00  0.00000000000E+00  0.50988541440E+02  0.21965111840E+04  0.21959192949E+04 0.  0.
        4    1    3    3  502    0  0.58268444968E+03  0.61495884215E+03 -0.67313384068E+03  0.10820380427E+04  0.12699999809E+01 0.  1.
       -4    1    3    3    0  502 -0.58268444968E+03 -0.61495884215E+03  0.72412238212E+03  0.11144731413E+04  0.12699999809E+01 0. -1.
</event>
<event>
 5   0  0.1033733E-05  0.2197620E+04  0.7818609E-02  0.8519419E-01
        1   -1    0    0  501    0  0.00000000000E+00  0.00000000000E+00  0.14145378225E+04  0.14145378225E+04  0.50400001928E-02 0. -1.
       -1   -1    0    0    0  501  0.00000000000E+00  0.00000000000E+00 -0.85355318293E+03  0.85355318295E+03  0.50400001928E-02 0.  1.
    10030    2    1    2    0    0  0.00000000000E+00  0.00000000000E+00  0.56098463960E+03  0.22680910055E+04  0.21976198587E+04 0.  0.
        5    1    3    3  502    0 -0.34063606544E+03  0.67863497280E+03 -0.53919427378E+03  0.93130602396E+03  0.46999998093E+01 0.  1.
       -5    1    3    3    0  502  0.34063606544E+03 -0.67863497280E+03  0.11001789134E+04  0.13367849815E+04  0.46999998093E+01 0. -1.
</event>
<event>
 5   0  0.2289708E-05  0.2207690E+04  0.7818609E-02  0.8515234E-01
       -2   -1    0    0    0  501  0.00000000000E+00  0.00000000000E+00  0.76121273291E+03  0.76121273292E+03  0.25500000920E-02 0.  1.
        2   -1    0    0  501    0  0.00000000000E+00  0.00000000000E+00 -0.16007003551E+04  0.16007003551E+04  0.25500000920E-02 0. -1.
    10030    2    1    2    0    0  0.00000000000E+00  0.00000000000E+00 -0.83948762223E+03  0.23619130881E+04  0.22076897354E+04 0.  0.
        5    1    3    3  502    0  0.60578571435E+03  0.56126747467E+03 -0.12033395661E+04  0.14594676122E+04  0.46999998093E+01 0. -1.
       -5    1    3    3    0  502 -0.60578571435E+03 -0.56126747467E+03  0.36385194384E+03  0.90244547584E+03  0.46999998093E+01 0.  1.
</event>
<event>
 5   0  0.1033733E-05  0.2214053E+04  0.7818609E-02  0.8512601E-01
        1   -1    0    0  501    0  0.00000000000E+00  0.00000000000E+00  0.82177387621E+03  0.82177387623E+03  0.50400001928E-02 0.  1.
       -1   -1    0    0    0  501  0.00000000000E+00  0.00000000000E+00 -0.14912960772E+04  0.14912960772E+04  0.50400001928E-02 0. -1.
    10030    2    1    2    0    0  0.00000000000E+00  0.00000000000E+00 -0.66952220100E+03  0.23130699534E+04  0.22140534393E+04 0.  0.
        5    1    3    3  502    0  0.12587717790E+03 -0.78942641059E+02  0.81129877361E+03  0.82480591326E+03  0.46999998093E+01 0.  1.
       -5    1    3    3    0  502 -0.12587717790E+03  0.78942641059E+02 -0.14808209746E+04  0.14882640402E+04  0.46999998093E+01 0. -1.
</event>
<event>
 5   0  0.1007682E-05  0.2176342E+04  0.7818609E-02  0.8528340E-01
       -1   -1    0    0    0  501  0.00000000000E+00  0.00000000000E+00  0.91528197255E+03  0.91528197257E+03  0.50400001928E-02 0. -1.
        1   -1    0    0  501    0  0.00000000000E+00  0.00000000000E+00 -0.12937172520E+04  0.12937172520E+04  0.50400001928E-02 0.  1.
    10030    2    1    2    0    0  0.00000000000E+00  0.00000000000E+00 -0.37843527945E+03  0.22089992246E+04  0.21763419569E+04 0.  0.
        2    1    3    3  502    0  0.55725493466E+03 -0.40506450056E+03  0.66574353568E+03  0.95803171509E+03  0.25500000920E-02 0. -1.
       -2    1    3    3    0  502 -0.55725493466E+03  0.40506450056E+03 -0.10441788151E+04  0.12509675095E+04  0.25500000920E-02 0.  1.
</event>
<event>
 5   0  0.2229552E-05  0.2174810E+04  0.7818609E-02  0.8528986E-01
        2   -1    0    0  501    0  0.00000000000E+00  0.00000000000E+00  0.22543320638E+04  0.22543320638E+04  0.25500000920E-02 0. -1.
       -2   -1    0    0    0  501  0.00000000000E+00  0.00000000000E+00 -0.52452325158E+03  0.52452325158E+03  0.25500000920E-02 0.  1.
    10030    2    1    2    0    0  0.00000000000E+00  0.00000000000E+00  0.17298088122E+04  0.27788553154E+04  0.21748099542E+04 0.  0.
        1    1    3    3  502    0  0.73721349014E+03 -0.45044121862E+03  0.17086703888E+04  0.19146632913E+04  0.50400001928E-02 0. -1.
       -1    1    3    3    0  502 -0.73721349014E+03  0.45044121862E+03  0.21138423400E+02  0.86419202406E+03  0.50400001928E-02 0.  1.
</event>
<event>
 5   0  0.1071208E-05  0.2334847E+04  0.7818609E-02  0.8464307E-01
        1   -1    0    0  501    0  0.00000000000E+00  0.00000000000E+00  0.14482319226E+04  0.14482319226E+04  0.50400001928E-02 0. -1.
       -1   -1    0    0    0  501  0.00000000000E+00  0.00000000000E+00 -0.94106293963E+03  0.94106293964E+03  0.50400001928E-02 0.  1.
    10030    2    1    2    0    0  0.00000000000E+00  0.00000000000E+00  0.50716898294E+03  0.23892948622E+04  0.23348467961E+04 0.  0.
        4    1    3    3  502    0 -0.92242853207E+03  0.47099655983E+03  0.80481448641E+03  0.13116554908E+04  0.12699999809E+01 0. -1.
       -4    1    3    3    0  502  0.92242853207E+03 -0.47099655983E+03 -0.29764550347E+03  0.10776393714E+04  0.12699999809E+01 0.  1.
</event>
<event>
 5   0  0.2229552E-05  0.2198160E+04  0.7818609E-02  0.8519195E-01
        2   -1    0    0  501    0  0.00000000000E+00  0.00000000000E+00  0.80459363632E+03  0.80459363632E+03  0.25500000920E-02 0.  1.
       -2   -1    0    0    0  501  0.00000000000E+00  0.00000000000E+00 -0.15013496593E+04  0.15013496593E+04  0.25500000920E-02 0. -1.
    10030    2    1    2    0    0  0.00000000000E+00  0.00000000000E+00 -0.69675602295E+03  0.23059432956E+04  0.21981595772E+04 0.  0.
        1    1    3    3  502    0 -0.75339786300E+03  0.71538683494E+03 -0.72455526257E+03  0.12666360930E+04  0.50400001928E-02 0. -1.
       -1    1    3    3    0  502  0.75339786300E+03 -0.71538683494E+03  0.27799239622E+02  0.10393072026E+04  0.50400001928E-02 0.  1.
</event>
<event>
 5   0  0.2229552E-05  0.2202686E+04  0.7818609E-02  0.8517311E-01
       -2   -1    0    0    0  501  0.00000000000E+00  0.00000000000E+00  0.86672965822E+03  0.86672965822E+03  0.25500000920E-02 0.  1.
        2   -1    0    0  501    0  0.00000000000E+00  0.00000000000E+00 -0.13994637315E+04  0.13994637315E+04  0.25500000920E-02 0. -1.
    10030    2    1    2    0    0  0.00000000000E+00  0.00000000000E+00 -0.53273407329E+03  0.22661933897E+04  0.22026862888E+04 0.  0.
        1    1    3    3  502    0 -0.33663673585E+03  0.31104858999E+03 -0.12966797672E+04  0.13753013982E+04  0.50400001928E-02 0. -1.
       -1    1    3    3    0  502  0.33663673585E+03 -0.31104858999E+03  0.76394569391E+03  0.89089199151E+03  0.50400001928E-02 0.  1.
</event>
<event>
 5   0  0.1071208E-05  0.2210249E+04  0.7818609E-02  0.8514174E-01
       -1   -1    0    0    0  501  0.00000000000E+00  0.00000000000E+00  0.15195563522E+04  0.15195563522E+04  0.50400001928E-02 0. -1.
        1   -1    0    0  501    0  0.00000000000E+00  0.00000000000E+00 -0.80372168989E+03  0.80372168991E+03  0.50400001928E-02 0.  1.
    10030    2    1    2    0    0  0.00000000000E+00  0.00000000000E+00  0.71583466233E+03  0.23232780421E+04  0.22102492161E+04 0.  0.
        4    1    3    3  502    0 -0.33903394500E+03 -0.78282110296E+03 -0.38053712069E+03  0.93411081153E+03  0.12699999809E+01 0.  1.
       -4    1    3    3    0  502  0.33903394500E+03  0.78282110296E+03  0.10963717830E+04  0.13891672306E+04  0.12699999809E+01 0. -1.
</event>
<event>
 5   0  0.1005538E-05  0.2200609E+04  0.7818609E-02  0.8518175E-01
       -1   -1    0    0    0  501  0.00000000000E+00  0.00000000000E+00  0.48214920834E+03  0.48214920837E+03  0.50400001928E-02 0. -1.
        1   -1    0    0  501    0  0.00000000000E+00  0.00000000000E+00 -0.25109855278E+04  0.25109855278E+04  0.50400001928E-02 0.  1.
    10030    2    1    2    0    0  0.00000000000E+00  0.00000000000E+00 -0.20288363195E+04  0.29931347362E+04  0.22006087198E+04 0.  0.
        3    1    3    3  502    0  0.64934115201E+03 -0.30532686252E+03 -0.21489744285E+04  0.22656035684E+04  0.10100000352E+00 0.  1.
       -3    1    3    3    0  502 -0.64934115201E+03  0.30532686252E+03  0.12013810900E+03  0.72753116779E+03  0.10100000352E+00 0. -1.
</event>
<event>
 5   0  0.2298329E-05  0.2230775E+04  0.7818609E-02  0.8505727E-01
       -2   -1    0    0    0  501  0.00000000000E+00  0.00000000000E+00  0.77174468725E+03  0.77174468725E+03  0.25500000920E-02 0. -1.
        2   -1    0    0  501    0  0.00000000000E+00  0.00000000000E+00 -0.16120474720E+04  0.16120474720E+04  0.25500000920E-02 0.  1.
    10030    2    1    2    0    0  0.00000000000E+00  0.00000000000E+00 -0.84030278472E+03  0.23837921592E+04  0.22307748179E+04 0.  0.
        4    1    3    3  502    0  0.54767354462E+03 -0.50877075619E+02 -0.14570468297E+04  0.15574087021E+04  0.12699999809E+01 0.  1.
       -4    1    3    3    0  502 -0.54767354462E+03  0.50877075619E+02  0.61674404502E+03  0.82638345716E+03  0.12699999809E+01 0. -1.
</event>
<event>
 5   0  0.1071208E-05  0.2192093E+04  0.7818609E-02  0.8521726E-01
       -1   -1    0    0    0  501  0.00000000000E+00  0.00000000000E+00  0.88074753292E+03  0.88074753294E+03  0.50400001928E-02 0. -1.
        1   -1    0    0  501    0  0.00000000000E+00  0.00000000000E+00 -0.13639755131E+04  0.13639755131E+04  0.50400001928E-02 0.  1.
    10030    2    1    2    0    0  0.00000000000E+00  0.00000000000E+00 -0.48322798021E+03  0.22447230461E+04  0.21920931259E+04 0.  0.
        4    1    3    3  502    0  0.62162906590E+03  0.86832123181E+03  0.11115073447E+02  0.10679558113E+04  0.12699999809E+01 0. -1.
       -4    1    3    3    0  502 -0.62162906590E+03 -0.86832123181E+03 -0.49434305366E+03  0.11767672348E+04  0.12699999809E+01 0.  1.
</event>
<event>
 5   0  0.1049198E-05  0.2219036E+04  0.7818609E-02  0.8510546E-01
       -1   -1    0    0    0  501  0.00000000000E+00  0.00000000000E+00  0.89107903426E+03  0.89107903427E+03  0.50400001928E-02 0.  1.
        1   -1    0    0  501    0  0.00000000000E+00  0.00000000000E+00 -0.13815054983E+04  0.13815054983E+04  0.50400001928E-02 0. -1.
    10030    2    1    2    0    0  0.00000000000E+00  0.00000000000E+00 -0.49042646407E+03  0.22725845326E+04  0.22190363542E+04 0.  0.
        1    1    3    3  502    0  0.29581927279E+03  0.58179960344E+03  0.67367326137E+03  0.93799546045E+03  0.50400001928E-02 0.  1.
       -1    1    3    3    0  502 -0.29581927279E+03 -0.58179960344E+03 -0.11640997254E+04  0.13345890722E+04  0.50400001928E-02 0. -1.
</event>
<event>
 5   0  0.1033733E-05  0.2208832E+04  0.7818609E-02  0.8514761E-01
        1   -1    0    0  501    0  0.00000000000E+00  0.00000000000E+00  0.24378068847E+04  0.24378068847E+04  0.50400001928E-02 0. -1.
       -1   -1    0    0    0  501  0.00000000000E+00  0.00000000000E+00 -0.50034111579E+03  0.50034111582E+03  0.50400001928E-02 0.  1.
    10030    2    1    2    0    0  0.00000000000E+00  0.00000000000E+00  0.19374657689E+04  0.29381480005E+04  0.22088322859E+04 0.  0.
        5    1    3    3  502    0  0.47453177971E+03 -0.45744996684E+03 -0.21001518699E+03  0.69178707048E+03  0.46999998093E+01 0.  1.
       -5    1    3    3    0  502 -0.47453177971E+03  0.45744996684E+03  0.21474809559E+04  0.22463609300E+04  0.46999998093E+01 0. -1.
</event>
<event>
 5   0  0.2298329E-05  0.2198414E+04  0.7818609E-02  0.8519089E-01
       -2   -1    0    0    0  501  0.00000000000E+00  0.00000000000E+00  0.98474462201E+03  0.98474462202E+03  0.25500000920E-02 0.  1.
        2   -1    0    0  501    0  0.00000000000E+00  0.00000000000E+00 -0.12269735404E+04  0.12269735404E+04  0.25500000920E-02 0. -1.
    10030    2    1    2    0    0  0.00000000000E+00  0.00000000000E+00 -0.24222891835E+03  0.22117181624E+04  0.21984136055E+04 0.  0.
        4    1    3    3  502    0  0.57572722216E+03  0.85299577399E+03 -0.50970368818E+03  0.11484176450E+04  0.12699999809E+01 0. -1.
       -4    1    3    3    0  502 -0.57572722216E+03 -0.85299577399E+03  0.26747476984E+03  0.10633005173E+04  0.12699999809E+01 0.  1.
</event>
<event>
 5   0  0.2284329E-05  0.2193401E+04  0.7818609E-02  0.8521180E-01
        2   -1    0    0  501    0  0.00000000000E+00  0.00000000000E+00  0.13422149515E+04  0.13422149515E+04  0.25500000920E-02 0. -1.
       -2   -1    0    0    0  501  0.00000000000E+00  0.00000000000E+00 -0.89609510361E+03  0.89609510361E+03  0.25500000920E-02 0.  1.
    10030    2    1    2    0    0  0.00000000000E+00  0.00000000000E+00  0.44611984793E+03  0.22383100551E+04  0.21934012365E+04 0.  0.
        2    1    3    3  502    0 -0.26640689800E+03  0.57337571838E+03 -0.69140134194E+03  0.93689282491E+03  0.25500000920E-02 0.  1.
       -2    1    3    3    0  502  0.26640689800E+03 -0.57337571838E+03  0.11375211899E+04  0.13014172302E+04  0.25500000920E-02 0. -1.
</event>
<event>
 5   0  0.1033733E-05  0.2195411E+04  0.7818609E-02  0.8520341E-01
        1   -1    0    0  501    0  0.00000000000E+00  0.00000000000E+00  0.18839989214E+04  0.18839989214E+04  0.50400001928E-02 0.  1.
       -1   -1    0    0    0  501  0.00000000000E+00  0.00000000000E+00 -0.63957408905E+03  0.63957408907E+03  0.50400001928E-02 0. -1.
    10030    2    1    2    0    0  0.00000000000E+00  0.00000000000E+00  0.12444248323E+04  0.25235730105E+04  0.21954105711E+04 0.  0.
        5    1    3    3  502    0 -0.71652380626E+03 -0.60728501176E+03  0.12752257487E+04  0.15838005716E+04  0.46999998093E+01 0.  1.
       -5    1    3    3    0  502  0.71652380626E+03  0.60728501176E+03 -0.30800916320E+02  0.93977243889E+03  0.46999998093E+01 0. -1.
</event>
<event>
 5   0  0.1049198E-05  0.2194638E+04  0.7818609E-02  0.8520663E-01
       -1   -1    0    0    0  501  0.00000000000E+00  0.00000000000E+00  0.20437137297E+04  0.20437137297E+04  0.50400001928E-02 0.  1.
        1   -1    0    0  501    0  0.00000000000E+00  0.00000000000E+00 -0.58917685857E+03  0.58917685859E+03  0.50400001928E-02 0. -1.
    10030    2    1    2    0    0  0.00000000000E+00  0.00000000000E+00  0.14545368711E+04  0.26328905883E+04  0.21946378609E+04 0.  0.
        1    1    3    3  502    0 -0.24045496124E+03 -0.34991029204E+03 -0.48664789998E+03  0.64581884413E+03  0.50400001928E-02 0. -1.
       -1    1    3    3    0  502  0.24045496124E+03  0.34991029204E+03  0.19411847711E+04  0.19870717442E+04  0.50400001928E-02 0.  1.
</event>
<event>
 5   0  0.2319707E-05  0.2191037E+04  0.7818609E-02  0.8522168E-01
        2   -1    0    0  501    0  0.00000000000E+00  0.00000000000E+00  0.21231760759E+04  0.21231760759E+04  0.25500000920E-02 0. -1.
       -2   -1    0    0    0  501  0.00000000000E+00  0.00000000000E+00 -0.56526655637E+03  0.56526655638E+03  0.25500000920E-02 0.  1.
    10030    2    1    2    0    0  0.00000000000E+00  0.00000000000E+00  0.15579095195E+04  0.26884426323E+04  0.21910366761E+04 0.  0.
        3    1    3    3  502    0  0.63983769642E+03  0.71029551058E+03  0.14354365470E+04  0.17246420153E+04  0.10100000352E+00 0.  1.
       -3    1    3    3    0  502 -0.63983769642E+03 -0.71029551058E+03  0.12247297248E+03  0.96380061698E+03  0.10100000352E+00 0. -1.
</event>
<event>
 5   0  0.2298329E-05  0.2199714E+04  0.7818609E-02  0.8518547E-01
       -2   -1    0    0    0  501  0.00000000000E+00  0.00000000000E+00  0.51165807433E+03  0.51165807434E+03  0.25500000920E-02 0. -1.
        2   -1    0    0  501    0  0.00000000000E+00  0.00000000000E+00 -0.23642449120E+04  0.23642449120E+04  0.25500000920E-02 0.  1.
    10030    2    1    2    0    0  0.00000000000E+00  0.00000000000E+00 -0.18525868376E+04  0.28759029863E+04  0.21997136167E+04 0.  0.
        4    1    3    3  502    0 -0.31492196825E+03  0.76966467290E+03  0.14782959988E+02  0.83173295210E+03  0.12699999809E+01 0. -1.
       -4    1    3    3    0  502  0.31492196825E+03 -0.76966467290E+03 -0.18673697976E+04  0.20441700342E+04  0.12699999809E+01 0.  1.
</event>
<event>
 5   0  0.2298329E-05  0.2198595E+04  0.7818609E-02  0.8519013E-01
        2   -1    0    0  501    0  0.00000000000E+00  0.00000000000E+00  0.13624701849E+04  0.13624701850E+04  0.25500000920E-02 0.  1.
       -2   -1    0    0    0  501  0.00000000000E+00  0.00000000000E+00 -0.88695919099E+03  0.88695919099E+03  0.25500000920E-02 0. -1.
    10030    2    1    2    0    0  0.00000000000E+00  0.00000000000E+00  0.47551099396E+03  0.22494293759E+04  0.21985954180E+04 0.  0.
        4    1    3    3  502    0 -0.42797563493E+03  0.43442569388E+03 -0.69803125486E+03  0.92689701329E+03  0.12699999809E+01 0. -1.
       -4    1    3    3    0  502  0.42797563493E+03 -0.43442569388E+03  0.11735422488E+04  0.13225323626E+04  0.12699999809E+01 0.  1.
</event>
<event>
 5   0  0.1005538E-05  0.2163940E+04  0.7818609E-02  0.8533589E-01
        1   -1    0    0  501    0  0.00000000000E+00  0.00000000000E+00  0.13277015670E+04  0.13277015670E+04  0.50400001928E-02 0.  1.
       -1   -1    0    0    0  501  0.00000000000E+00  0.00000000000E+00 -0.88171853826E+03  0.88171853828E+03  0.50400001928E-02 0. -1.
    10030    2    1    2    0    0  0.00000000000E+00  0.00000000000E+00  0.44598302872E+03  0.22094201053E+04  0.21639400037E+04 0.  0.
        3    1    3    3  502    0  0.77851532707E+03  0.54320436476E+03  0.75303812881E+03  0.12117027400E+04  0.10100000352E+00 0.  1.
       -3    1    3    3    0  502 -0.77851532707E+03 -0.54320436476E+03 -0.30705510009E+03  0.99771736532E+03  0.10100000352E+00 0. -1.
</event>
<event>
 5   0  0.1005538E-05  0.2213457E+04  0.7818609E-02  0.8512848E-01
       -1   -1    0    0    0  501  0.00000000000E+00  0.00000000000E+00  0.85796974739E+03  0.85796974740E+03  0.50400001928E-02 0.  1.
        1   -1    0    0  501    0  0.00000000000E+00  0.00000000000E+00 -0.14276125494E+04  0.14276125494E+04  0.50400001928E-02 0. -1.
    10030    2    1    2    0    0  0.00000000000E+00  0.00000000000E+00 -0.56964280199E+03  0.22855822968E+04  0.22134573665E+04 0.  0.
        3    1    3    3  502    0  0.31127548744E+03  0.62665306766E+03  0.60059329254E+03  0.92211648371E+03  0.10100000352E+00 0.  1.
       -3    1    3    3    0  502 -0.31127548744E+03 -0.62665306766E+03 -0.11702360945E+04  0.13634658131E+04  0.10100000352E+00 0. -1.
</event>
<event>
 5   0  0.1005538E-05  0.2139946E+04  0.7818609E-02  0.8543848E-01
        1   -1    0    0  501    0  0.00000000000E+00  0.00000000000E+00  0.80731251972E+03  0.80731251973E+03  0.50400001928E-02 0. -1.
       -1   -1    0    0    0  501  0.00000000000E+00  0.00000000000E+00 -0.14180910194E+04  0.14180910194E+04  0.50400001928E-02 0.  1.
    10030    2    1    2    0    0  0.00000000000E+00  0.00000000000E+00 -0.61077849965E+03  0.22254035391E+04  0.21399463863E+04 0.  0.
        3    1    3    3  502    0 -0.59614779017E+03  0.19091773750E+03  0.59702016131E+03  0.86502881653E+03  0.10100000352E+00 0. -1.
       -3    1    3    3    0  502  0.59614779017E+03 -0.19091773750E+03 -0.12077986610E+04  0.13603747226E+04  0.10100000352E+00 0.  1.
</event>
<event>
 5   0  0.1007682E-05  0.2193442E+04  0.7818609E-02  0.8521163E-01
        1   -1    0    0  501    0  0.00000000000E+00  0.00000000000E+00  0.85423478147E+03  0.85423478149E+03  0.50400001928E-02 0.  1.
       -1   -1    0    0    0  501  0.00000000000E+00  0.00000000000E+00 -0.14080403870E+04  0.14080403871E+04  0.50400001928E-02 0. -1.
    10030    2    1    2    0    0  0.00000000000E+00  0.00000000000E+00 -0.55380560557E+03  0.22622751685E+04  0.21934421099E+04 0.  0.
        2    1    3    3  502    0 -0.53334272152E+03  0.63869390521E+03 -0.10137543361E+04  0.13115190495E+04  0.25500000920E-02 0. -1.
       -2    1    3    3    0  502  0.53334272152E+03 -0.63869390521E+03  0.45994873056E+03  0.95075611905E+03  0.25500000920E-02 0.  1.
</event>
<event>
 5   0  0.2319707E-05  0.2182794E+04  0.7818609E-02  0.8525624E-01
        2   -1    0    0  501    0  0.00000000000E+00  0.00000000000E+00  0.12218750181E+04  0.12218750181E+04  0.25500000920E-02 0. -1.
       -2   -1    0    0    0  501  0.00000000000E+00  0.00000000000E+00 -0.97485216795E+03  0.97485216796E+03  0.25500000920E-02 0.  1.
    10030    2    1    2    0    0  0.00000000000E+00  0.00000000000E+00  0.24702285015E+03  0.21967271861E+04  0.21827940905E+04 0.  0.
        3    1    3    3  502    0  0.12515793818E+03  0.88202058489E+03  0.75802995655E+03  0.11697154555E+04  0.10100000352E+00 0.  1.
       -3    1    3    3    0  502 -0.12515793818E+03 -0.88202058489E+03 -0.51100710640E+03  0.10270117305E+04  0.10100000352E+00 0. -1.
</event>
<event>
 5   0  0.2319707E-05  0.2229906E+04  0.7818609E-02  0.8506083E-01
       -2   -1    0    0    0  501  0.00000000000E+00  0.00000000000E+00  0.15008667480E+04  0.15008667480E+04  0.25500000920E-02 0. -1.
        2   -1    0    0  501    0  0.00000000000E+00  0.00000000000E+00 -0.82826789129E+03  0.82826789130E+03  0.25500000920E-02 0.  1.
    10030    2    1    2    0    0  0.00000000000E+00  0.00000000000E+00  0.67259885675E+03  0.23291346393E+04  0.22299055913E+04 0.  0.
        3    1    3    3  502    0 -0.10833349235E+04  0.25857707498E+03  0.38999792523E+03  0.11800741723E+04  0.10100000352E+00 0. -1.
       -3    1    3    3    0  502  0.10833349235E+04 -0.25857707498E+03  0.28260093151E+03  0.11490604670E+04  0.10100000352E+00 0.  1.
</event>
<event>
 5   0  0.1005538E-05  0.2201063E+04  0.7818609E-02  0.8517986E-01
       -1   -1    0    0    0  501  0.00000000000E+00  0.00000000000E+00  0.70105795145E+03  0.70105795147E+03  0.50400001928E-02 0.  1.
        1   -1    0    0  501    0  0.00000000000E+00  0.00000000000E+00 -0.17276308224E+04  0.17276308224E+04  0.50400001928E-02 0. -1.
    10030    2    1    2    0    0  0.00000000000E+00  0.00000000000E+00 -0.10265728709E+04  0.24286887739E+04  0.22010627662E+04 0.  0.
        3    1    3    3  502    0 -0.18319007348E+03 -0.78734856921E+03  0.31073216009E+03  0.86604321946E+03  0.10100000352E+00 0.  1.
       -3    1    3    3    0  502  0.18319007348E+03  0.78734856921E+03 -0.13373050310E+04  0.15626455544E+04  0.10100000352E+00 0. -1.
</event>
<event>
 5   0  0.2284329E-05  0.2197505E+04  0.7818609E-02  0.8519467E-01
        2   -1    0    0  501    0  0.00000000000E+00  0.00000000000E+00  0.21681304579E+04  0.21681304579E+04  0.25500000920E-02 0. -1.
       -2   -1    0    0    0  501  0.00000000000E+00  0.00000000000E+00 -0.55681960814E+03  0.55681960815E+03  0.25500000920E-02 0.  1.
    10030    2    1    2    0    0  0.00000000000E+00  0.00000000000E+00  0.16113108498E+04  0.27249500661E+04  0.21975054512E+04 0.  0.
        2    1    3    3  502    0  0.51044728435E+03 -0.19256459866E+03  0.19883118267E+04  0.20618005420E+04  0.25500000920E-02 0. -1.
       -2    1    3    3    0  502 -0.51044728435E+03  0.19256459866E+03 -0.37700097689E+03  0.66314952411E+03  0.25500000920E-02 0.  1.
</event>
<event>
 5   0  0.2229552E-05  0.2170040E+04  0.7818609E-02  0.8531003E-01
        2   -1    0    0  501    0  0.00000000000E+00  0.00000000000E+00  0.96313277911E+03  0.96313277912E+03  0.25500000920E-02 0.  1.
       -2   -1    0    0    0  501  0.00000000000E+00  0.00000000000E+00 -0.12223326157E+04  0.12223326157E+04  0.25500000920E-02 0. -1.
    10030    2    1    2    0    0  0.00000000000E+00  0.00000000000E+00 -0.25919983655E+03  0.21854653948E+04  0.21700401924E+04 0.  0.
        1    1    3    3  502    0  0.31193907631E+03  0.64534310942E+03 -0.94994192094E+03  0.11900266255E+04  0.50400001928E-02 0. -1.
       -1    1    3    3    0  502 -0.31193907631E+03 -0.64534310942E+03  0.69074208440E+03  0.99543876928E+03  0.50400001928E-02 0.  1.
</event>
<event>
 5   0  0.2298329E-05  0.2198046E+04  0.7818609E-02  0.8519242E-01
        2   -1    0    0  501    0  0.00000000000E+00  0.00000000000E+00  0.14815974270E+04  0.14815974270E+04  0.25500000920E-02 0.  1.
       -2   -1    0    0    0  501  0.00000000000E+00  0.00000000000E+00 -0.81523606754E+03  0.81523606754E+03  0.25500000920E-02 0. -1.
    10030    2    1    2    0    0  0.00000000000E+00  0.00000000000E+00  0.66636135945E+03  0.22968334945E+04  0.21980460960E+04 0.  0.
        4    1    3    3  502    0 -0.64193452079E+03  0.84182805344E+03  0.24797316331E+02  0.10589480253E+04  0.12699999809E+01 0. -1.
       -4    1    3    3    0  502  0.64193452079E+03 -0.84182805344E+03  0.64156404311E+03  0.12378854692E+04  0.12699999809E+01 0.  1.
</event>
<event>
 5   0  0.1033733E-05  0.2200935E+04  0.7818609E-02  0.8518039E-01
        1   -1    0    0  501    0  0.00000000000E+00  0.00000000000E+00  0.74785238259E+03  0.74785238261E+03  0.50400001928E-02 0. -1.
       -1   -1    0    0    0  501  0.00000000000E+00  0.00000000000E+00 -0.16193415393E+04  0.16193415393E+04  0.50400001928E-02 0.  1.
    10030    2    1    2    0    0  0.00000000000E+00  0.00000000000E+00 -0.87148915672E+03  0.23671939219E+04  0.22009347364E+04 0.  0.
        5    1    3    3  502    0  0.10173945565E+04 -0.64628585200E+02 -0.88146201177E+03  0.13476890983E+04  0.46999998093E+01 0.  1.
       -5    1    3    3    0  502 -0.10173945565E+04  0.64628585200E+02  0.99728550570E+01  0.10195048236E+04  0.46999998093E+01 0. -1.
</event>
<event>
 5   0  0.2229552E-05  0.2199747E+04  0.7818609E-02  0.8518534E-01
        2   -1    0    0  501    0  0.00000000000E+00  0.00000000000E+00  0.10920249415E+04  0.10920249415E+04  0.25500000920E-02 0.  1.
       -2   -1    0    0    0  501  0.00000000000E+00  0.00000000000E+00 -0.11077782545E+04  0.11077782545E+04  0.25500000920E-02 0. -1.
    10030    2    1    2    0    0  0.00000000000E+00  0.00000000000E+00 -0.15753312927E+02  0.21998031960E+04  0.21997467887E+04 0.  0.
        1    1    3    3  502    0 -0.35587425067E+03 -0.87317455802E+03 -0.57414305744E+03  0.11039567661E+04  0.50400001928E-02 0. -1.
       -1    1    3    3    0  502  0.35587425067E+03  0.87317455802E+03  0.55838974451E+03  0.10958464299E+04  0.50400001928E-02 0.  1.
</event>
<event>
 5   0  0.2319707E-05  0.2112310E+04  0.7818609E-02  0.8555840E-01
        2   -1    0    0  501    0  0.00000000000E+00  0.00000000000E+00  0.17039547797E+04  0.17039547797E+04  0.25500000920E-02 0. -1.
       -2   -1    0    0    0  501  0.00000000000E+00  0.00000000000E+00 -0.65463231262E+03  0.65463231263E+03  0.25500000920E-02 0.  1.
    10030    2    1    2    0    0  0.00000000000E+00  0.00000000000E+00  0.10493224671E+04  0.23585870924E+04  0.21123104488E+04 0.  0.
        3    1    3    3  502    0  0.49546837113E+03 -0.81556807013E+03  0.10300018847E+04  0.14041168315E+04  0.10100000352E+00 0. -1.
       -3    1    3    3    0  502 -0.49546837113E+03  0.81556807013E+03  0.19320582441E+02  0.95447026089E+03  0.10100000352E+00 0.  1.
</event>
<event>
 5   0  0.1071208E-05  0.2193151E+04  0.7818609E-02  0.8521284E-01
        1   -1    0    0  501    0  0.00000000000E+00  0.00000000000E+00  0.12357883338E+04  0.12357883338E+04  0.50400001928E-02 0. -1.
       -1   -1    0    0    0  501  0.00000000000E+00  0.00000000000E+00 -0.97304540318E+03  0.97304540319E+03  0.50400001928E-02 0.  1.
    10030    2    1    2    0    0  0.00000000000E+00  0.00000000000E+00  0.26274293061E+03  0.22088337370E+04  0.21931513012E+04 0.  0.
        4    1    3    3  502    0  0.76017485397E+03 -0.71681663552E+03 -0.20385185421E+03  0.10645417272E+04  0.12699999809E+01 0. -1.
       -4    1    3    3    0  502 -0.76017485397E+03  0.71681663552E+03  0.46659478483E+03  0.11442920098E+04  0.12699999809E+01 0.  1.
</event>
<event>
 5   0  0.2289708E-05  0.2224822E+04  0.7818609E-02  0.8508167E-01
       -2   -1    0    0    0  501  0.00000000000E+00  0.00000000000E+00  0.58480879104E+03  0.58480879104E+03  0.25500000920E-02 0. -1.
        2   -1    0    0  501    0  0.00000000000E+00  0.00000000000E+00 -0.21160050144E+04  0.21160050144E+04  0.25500000920E-02 0.  1.
    10030    2    1    2    0    0  0.00000000000E+00  0.00000000000E+00 -0.15311962233E+04  0.27008138054E+04  0.22248220911E+04 0.  0.
        5    1    3    3  502    0  0.67044590307E+03  0.19888236570E+03 -0.18157731767E+04  0.19457919271E+04  0.46999998093E+01 0.  1.
       -5    1    3    3    0  502 -0.67044590307E+03 -0.19888236570E+03  0.28457695338E+03  0.75502187831E+03  0.46999998093E+01 0. -1.
</event>
<event>
 5   0  0.2284329E-05  0.2197428E+04  0.7818609E-02  0.8519499E-01
        2   -1    0    0  501    0  0.00000000000E+00  0.00000000000E+00  0.15395715453E+04  0.15395715453E+04  0.25500000920E-02 0. -1.
       -2   -1    0    0    0  501  0.00000000000E+00  0.00000000000E+00 -0.78409650987E+03  0.78409650987E+03  0.25500000920E-02 0.  1.
    10030    2    1    2    0    0  0.00000000000E+00  0.00000000000E+00  0.75547503545E+03  0.23236680552E+04  0.21974282017E+04 0.  0.
        2    1    3    3  502    0  0.67617155409E+03  0.86101944416E+03  0.27961548012E+03  0.11299324186E+04  0.25500000920E-02 0.  1.
       -2    1    3    3    0  502 -0.67617155409E+03 -0.86101944416E+03  0.47585955533E+03  0.11937356366E+04  0.25500000920E-02 0. -1.
</event>
<event>
 5   0  0.2284329E-05  0.2191815E+04  0.7818609E-02  0.8521843E-01
       -2   -1    0    0    0  501  0.00000000000E+00  0.00000000000E+00  0.13693696976E+04  0.13693696976E+04  0.25500000920E-02 0.  1.
        2   -1    0    0  501    0  0.00000000000E+00  0.00000000000E+00 -0.87705516746E+03  0.87705516747E+03  0.25500000920E-02 0. -1.
    10030    2    1    2    0    0  0.00000000000E+00  0.00000000000E+00  0.49231453016E+03  0.22464248651E+04  0.21918145628E+04 0.  0.
        2    1    3    3  502    0 -0.94757262099E+03 -0.49996826412E+03  0.48244561370E+03  0.11749961308E+04  0.25500000920E-02 0. -1.
       -2    1    3    3    0  502  0.94757262099E+03  0.49996826412E+03  0.98689164574E+01  0.10714287343E+04  0.25500000920E-02 0.  1.
</event>
<event>
 5   0  0.1005538E-05  0.2194507E+04  0.7818609E-02  0.8520718E-01
       -1   -1    0    0    0  501  0.00000000000E+00  0.00000000000E+00  0.15163177785E+04  0.15163177785E+04  0.50400001928E-02 0.  1.
        1   -1    0    0  501    0  0.00000000000E+00  0.00000000000E+00 -0.79400587900E+03  0.79400587901E+03  0.50400001928E-02 0. -1.
    10030    2    1    2    0    0  0.00000000000E+00  0.00000000000E+00  0.72231189947E+03  0.23103236575E+04  0.21945069884E+04 0.  0.
        3    1    3    3  502    0 -0.38723931464E+03 -0.44181900379E+03  0.13367825213E+04  0.14601869190E+04  0.10100000352E+00 0.  1.
       -3    1    3    3    0  502  0.38723931464E+03  0.44181900379E+03 -0.61447062182E+03  0.85013673852E+03  0.10100000352E+00 0. -1.
</event>
<event>
 5   0  0.1007682E-05  0.2197609E+04  0.7818609E-02  0.8519424E-01
        1   -1    0    0  501    0  0.00000000000E+00  0.00000000000E+00  0.10021593471E+04  0.10021593471E+04  0.50400001928E-02 0. -1.
       -1   -1    0    0    0  501  0.00000000000E+00  0.00000000000E+00 -0.12047702329E+04  0.12047702329E+04  0.50400001928E-02 0.  1.
    10030    2    1    2    0    0  0.00000000000E+00  0.00000000000E+00 -0.20261088581E+03  0.22069295800E+04  0.21976093829E+04 0.  0.
        2    1    3    3  502    0 -0.33737975312E+03  0.10421682398E+04 -0.14730705898E+02  0.10955166505E+04  0.25500000920E-02 0.  1.
       -2    1    3    3    0  502  0.33737975312E+03 -0.10421682398E+04 -0.18788017991E+03  0.11114129295E+04  0.25500000920E-02 0. -1.
</event>
<event>
 5   0  0.2229552E-05  0.2199959E+04  0.7818609E-02  0.8518445E-01
        2   -1    0    0  501    0  0.00000000000E+00  0.00000000000E+00  0.21575577221E+04  0.21575577221E+04  0.25500000920E-02 0.  1.
       -2   -1    0    0    0  501  0.00000000000E+00  0.00000000000E+00 -0.56079845691E+03  0.56079845692E+03  0.25500000920E-02 0. -1.
    10030    2    1    2    0    0  0.00000000000E+00  0.00000000000E+00  0.15967592652E+04  0.27183561791E+04  0.21999591281E+04 0.  0.
        1    1    3    3  502    0  0.12949237958E+03  0.56061463053E+03  0.19567861348E+04  0.20396247247E+04  0.50400001928E-02 0.  1.
       -1    1    3    3    0  502 -0.12949237958E+03 -0.56061463053E+03 -0.36002686954E+03  0.67873145437E+03  0.50400001928E-02 0. -1.
</event>
<event>
 5   0  0.1007682E-05  0.2200944E+04  0.7818609E-02  0.8518035E-01
       -1   -1    0    0    0  501  0.00000000000E+00  0.00000000000E+00  0.92242435972E+03  0.92242435974E+03  0.50400001928E-02 0.  1.
        1   -1    0    0  501    0  0.00000000000E+00  0.00000000000E+00 -0.13128871831E+04  0.13128871831E+04  0.50400001928E-02 0. -1.
    10030    2    1    2    0    0  0.00000000000E+00  0.00000000000E+00 -0.39046282341E+03  0.22353115429E+04  0.22009444512E+04 0.  0.
        2    1    3    3  502    0 -0.16957960148E+03  0.67626575533E+03  0.66950144254E+03  0.96660477685E+03  0.25500000920E-02 0.  1.
       -2    1    3    3    0  502  0.16957960148E+03 -0.67626575533E+03 -0.10599642659E+04  0.12687067660E+04  0.25500000920E-02 0. -1.
</event>
<event>
 5   0  0.1033733E-05  0.2205003E+04  0.7818609E-02  0.8516349E-01
       -1   -1    0    0    0  501  0.00000000000E+00  0.00000000000E+00  0.76672148742E+03  0.76672148744E+03  0.50400001928E-02 0.  1.
        1   -1    0    0  501    0  0.00000000000E+00  0.00000000000E+00 -0.15853332574E+04  0.15853332574E+04  0.50400001928E-02 0. -1.
    10030    2    1    2    0    0  0.00000000000E+00  0.00000000000E+00 -0.81861176997E+03  0.23520547448E+04  0.22050025607E+04 0.  0.
        5    1    3    3  502    0  0.85167002290E+03  0.30044561080E+03 -0.10838368029E+04  0.14107918692E+04  0.46999998093E+01 0. -1.
       -5    1    3    3    0  502 -0.85167002290E+03 -0.30044561080E+03  0.26522503292E+03  0.94126287562E+03  0.46999998093E+01 0.  1.
</event>
<event>
 5   0  0.2289708E-05  0.2203284E+04  0.7818609E-02  0.8517062E-01
       -2   -1    0    0    0  501  0.00000000000E+00  0.00000000000E+00  0.55833027782E+03  0.55833027783E+03  0.25500000920E-02 0.  1.
        2   -1    0    0  501    0  0.00000000000E+00  0.00000000000E+00 -0.21736508685E+04  0.21736508685E+04  0.25500000920E-02 0. -1.
    10030    2    1    2    0    0  0.00000000000E+00  0.00000000000E+00 -0.16153205907E+04  0.27319811464E+04  0.22032839974E+04 0.  0.
        5    1    3    3  502    0  0.91012972244E+03  0.53987348155E+03 -0.11874066600E+04  0.15905207178E+04  0.46999998093E+01 0.  1.
       -5    1    3    3    0  502 -0.91012972244E+03 -0.53987348155E+03 -0.42791393074E+03  0.11414604285E+04  0.46999998093E+01 0. -1.
</event>
<event>
 5   0  0.1007682E-05  0.2194621E+04  0.7818609E-02  0.8520670E-01
       -1   -1    0    0    0  501  0.00000000000E+00  0.00000000000E+00  0.76356959612E+03  0.76356959614E+03  0.50400001928E-02 0. -1.
        1   -1    0    0  501    0  0.00000000000E+00  0.00000000000E+00 -0.15769234224E+04  0.15769234224E+04  0.50400001928E-02 0.  1.
    10030    2    1    2    0    0  0.00000000000E+00  0.00000000000E+00 -0.81335382628E+03  0.23404930185E+04  0.21946214077E+04 0.  0.
        2    1    3    3  502    0  0.66551928779E+03  0.82612451258E+03 -0.10750818274E+03  0.10662812209E+04  0.25500000920E-02 0. -1.
       -2    1    3    3    0  502 -0.66551928779E+03 -0.82612451258E+03 -0.70584564354E+03  0.12742117976E+04  0.25500000920E-02 0.  1.
</event>
<event>
 5   0  0.1005538E-05  0.2214300E+04  0.7818609E-02  0.8512500E-01
        1   -1    0    0  501    0  0.00000000000E+00  0.00000000000E+00  0.22033603579E+04  0.22033603579E+04  0.50400001928E-02 0. -1.
       -1   -1    0    0    0  501  0.00000000000E+00  0.00000000000E+00 -0.55632336171E+03  0.55632336174E+03  0.50400001928E-02 0.  1.
    10030    2    1    2    0    0  0.00000000000E+00  0.00000000000E+00  0.16470369962E+04  0.27596837196E+04  0.22142997461E+04 0.  0.
        3    1    3    3  502    0  0.66863916897E+00  0.56404598766E+03 -0.36382922129E+03  0.67120789309E+03  0.10100000352E+00 0.  1.
       -3    1    3    3    0  502 -0.66863916897E+00 -0.56404598766E+03  0.20108662175E+04  0.20884758265E+04  0.10100000352E+00 0. -1.
</event>
<event>
 5   0  0.1033733E-05  0.2196633E+04  0.7818609E-02  0.8519831E-01
       -1   -1    0    0    0  501  0.00000000000E+00  0.00000000000E+00  0.96911439962E+03  0.96911439963E+03  0.50400001928E-02 0. -1.
        1   -1    0    0  501    0  0.00000000000E+00  0.00000000000E+00 -0.12447439077E+04  0.12447439077E+04  0.50400001928E-02 0.  1.
    10030    2    1    2    0    0  0.00000000000E+00  0.00000000000E+00 -0.27562950811E+03  0.22138583074E+04  0.21966331008E+04 0.  0.
        5    1    3    3  502    0 -0.20174418179E+03 -0.37109710497E+03 -0.11596008633E+04  0.12341434392E+04  0.46999998093E+01 0.  1.
       -5    1    3    3    0  502  0.20174418179E+03  0.37109710497E+03  0.88397135520E+03  0.97971486822E+03  0.46999998093E+01 0. -1.
</event>
<event>
 5   0  0.2284329E-05  0.2202251E+04  0.7818609E-02  0.8517492E-01
        2   -1    0    0  501    0  0.00000000000E+00  0.00000000000E+00  0.14554720174E+04  0.14554720174E+04  0.25500000920E-02 0.  1.
       -2   -1    0    0    0  501  0.00000000000E+00  0.00000000000E+00 -0.83304777503E+03  0.83304777503E+03  0.25500000920E-02 0. -1.
    10030    2    1    2    0    0  0.00000000000E+00  0.00000000000E+00  0.62242424236E+03  0.22885197924E+04  0.22022513260E+04 0.  0.
        2    1    3    3  502    0 -0.85091075948E+03  0.93176268817E+02 -0.40855802669E+03  0.94849912960E+03  0.25500000920E-02 0. -1.
       -2    1    3    3    0  502  0.85091075948E+03 -0.93176268817E+02  0.10309822690E+04  0.13400206628E+04  0.25500000920E-02 0.  1.
</event>
<event>
 5   0  0.2229552E-05  0.2161777E+04  0.7818609E-02  0.8534508E-01
       -2   -1    0    0    0  501  0.00000000000E+00  0.00000000000E+00  0.81832817997E+03  0.81832817997E+03  0.25500000920E-02 0.  1.
        2   -1    0    0  501    0  0.00000000000E+00  0.00000000000E+00 -0.14276910747E+04  0.14276910747E+04  0.25500000920E-02 0. -1.
    10030    2    1    2    0    0  0.00000000000E+00  0.00000000000E+00 -0.60936289474E+03  0.22460192547E+04  0.21617768976E+04 0.  0.
        1    1    3    3  502    0 -0.79051602323E+03  0.66864653989E+03 -0.62712370923E+03  0.12104907786E+04  0.50400001928E-02 0.  1.
       -1    1    3    3    0  502  0.79051602323E+03 -0.66864653989E+03  0.17760814498E+02  0.10355284761E+04  0.50400001928E-02 0. -1.
</event>
<event>
 5   0  0.1005538E-05  0.2210593E+04  0.7818609E-02  0.8514032E-01
       -1   -1    0    0    0  501  0.00000000000E+00  0.00000000000E+00  0.73359368780E+03  0.73359368781E+03  0.50400001928E-02 0. -1.
        1   -1    0    0  501    0  0.00000000000E+00  0.00000000000E+00 -0.16653361982E+04  0.16653361982E+04  0.50400001928E-02 0.  1.
    10030    2    1    2    0    0  0.00000000000E+00  0.00000000000E+00 -0.93174251039E+03  0.23989298860E+04  0.22105927921E+04 0.  0.
        3    1    3    3  502    0 -0.57583667366E+03  0.94165940500E+03 -0.40287553154E+03  0.11749974527E+04  0.10100000352E+00 0.  1.
       -3    1    3    3    0  502  0.57583667366E+03 -0.94165940500E+03 -0.52886697885E+03  0.12239324333E+04  0.10100000352E+00 0. -1.
</event>
<event>
 5   0  0.2229552E-05  0.2202005E+04  0.7818609E-02  0.8517594E-01
       -2   -1    0    0    0  501  0.00000000000E+00  0.00000000000E+00  0.54209857398E+03  0.54209857399E+03  0.25500000920E-02 0. -1.
        2   -1    0    0  501    0  0.00000000000E+00  0.00000000000E+00 -0.22361364038E+04  0.22361364038E+04  0.25500000920E-02 0.  1.
    10030    2    1    2    0    0  0.00000000000E+00  0.00000000000E+00 -0.16940378298E+04  0.27782349778E+04  0.22020048644E+04 0.  0.
        1    1    3    3  502    0  0.92936521514E+03 -0.38908815028E+03 -0.28688640706E+03  0.10475748672E+04  0.50400001928E-02 0. -1.
       -1    1    3    3    0  502 -0.92936521514E+03  0.38908815028E+03 -0.14071514227E+04  0.17306601106E+04  0.50400001928E-02 0.  1.
</event>
<event>
 5   0  0.2229552E-05  0.2198248E+04  0.7818609E-02  0.8519158E-01
        2   -1    0    0  501    0  0.00000000000E+00  0.00000000000E+00  0.15434812405E+04  0.15434812405E+04  0.25500000920E-02 0.  1.
       -2   -1    0    0    0  501  0.00000000000E+00  0.00000000000E+00 -0.78269402450E+03  0.78269402450E+03  0.25500000920E-02 0. -1.
    10030    2    1    2    0    0  0.00000000000E+00  0.00000000000E+00  0.76078721600E+03  0.23261752650E+04  0.21982479786E+04 0.  0.
        1    1    3    3  502    0  0.59916263753E+03 -0.75644650803E+03  0.93719568288E+03  0.13451925267E+04  0.50400001928E-02 0.  1.
       -1    1    3    3    0  502 -0.59916263753E+03  0.75644650803E+03 -0.17640846688E+03  0.98098273835E+03  0.50400001928E-02 0. -1.
</event>
<event>
 5   0  0.2289708E-05  0.2204924E+04  0.7818609E-02  0.8516381E-01
        2   -1    0    0  501    0  0.00000000000E+00  0.00000000000E+00  0.13599670369E+04  0.13599670369E+04  0.25500000920E-02 0. -1.
       -2   -1    0    0    0  501  0.00000000000E+00  0.00000000000E+00 -0.89371492899E+03  0.89371492900E+03  0.25500000920E-02 0.  1.
    10030    2    1    2    0    0  0.00000000000E+00  0.00000000000E+00  0.46625210788E+03  0.22536819659E+04  0.22049243468E+04 0.  0.
        5    1    3    3  502    0  0.28171347391E+03 -0.10526451071E+04  0.40408664955E+03  0.11622100986E+04  0.46999998093E+01 0.  1.
       -5    1    3    3    0  502 -0.28171347391E+03  0.10526451071E+04  0.62165458335E+02  0.10914718673E+04  0.46999998093E+01 0. -1.
</event>
<event>
 5   0  0.2319707E-05  0.2202925E+04  0.7818609E-02  0.8517212E-01
       -2   -1    0    0    0  501  0.00000000000E+00  0.00000000000E+00  0.59724370006E+03  0.59724370006E+03  0.25500000920E-02 0.  1.
        2   -1    0    0  501    0  0.00000000000E+00  0.00000000000E+00 -0.20313641019E+04  0.20313641019E+04  0.25500000920E-02 0. -1.
    10030    2    1    2    0    0  0.00000000000E+00  0.00000000000E+00 -0.14341204019E+04  0.26286078020E+04  0.22029247944E+04 0.  0.
        3    1    3    3  502    0  0.47774094708E+03 -0.29036561724E+03 -0.18494844554E+04  0.19321338891E+04  0.10100000352E+00 0. -1.
       -3    1    3    3    0  502 -0.47774094708E+03  0.29036561724E+03  0.41536405356E+03  0.69647391293E+03  0.10100000352E+00 0.  1.
</event>
<event>
 5   0  0.1049198E-05  0.2092199E+04  0.7818609E-02  0.8564687E-01
       -1   -1    0    0    0  501  0.00000000000E+00  0.00000000000E+00  0.13320834600E+04  0.13320834600E+04  0.50400001928E-02 0. -1.
        1   -1    0    0  501    0  0.00000000000E+00  0.00000000000E+00 -0.82151336807E+03  0.82151336808E+03  0.50400001928E-02 0.  1.
    10030    2    1    2    0    0  0.00000000000E+00  0.00000000000E+00  0.51057009191E+03  0.21535968281E+04  0.20921991968E+04 0.  0.
        1    1    3    3  502    0 -0.13719160704E+03 -0.33089084525E+03 -0.75641809978E+03  0.83694601391E+03  0.50400001928E-02 0.  1.
       -1    1    3    3    0  502  0.13719160704E+03  0.33089084525E+03  0.12669881917E+04  0.13166508142E+04  0.50400001928E-02 0. -1.
</event>
<event>
 5   0  0.1049198E-05  0.2196462E+04  0.7818609E-02  0.8519902E-01
        1   -1    0    0  501    0  0.00000000000E+00  0.00000000000E+00  0.18243577159E+04  0.18243577160E+04  0.50400001928E-02 0.  1.
       -1   -1    0    0    0  501  0.00000000000E+00  0.00000000000E+00 -0.66111555335E+03  0.66111555337E+03  0.50400001928E-02 0. -1.
    10030    2    1    2    0    0  0.00000000000E+00  0.00000000000E+00  0.11632421626E+04  0.24854732693E+04  0.21964619377E+04 0.  0.
        1    1    3    3  502    0 -0.37307546121E+03 -0.22952655607E+03  0.17212318280E+04  0.17760931128E+04  0.50400001928E-02 0.  1.
       -1    1    3    3    0  502  0.37307546121E+03  0.22952655607E+03 -0.55798966540E+03  0.70938015649E+03  0.50400001928E-02 0. -1.
</event>
<event>
 5   0  0.1049198E-05  0.2212175E+04  0.7818609E-02  0.8513377E-01
        1   -1    0    0  501    0  0.00000000000E+00  0.00000000000E+00  0.84658790967E+03  0.84658790969E+03  0.50400001928E-02 0.  1.
       -1   -1    0    0    0  501  0.00000000000E+00  0.00000000000E+00 -0.14451305010E+04  0.14451305010E+04  0.50400001928E-02 0. -1.
    10030    2    1    2    0    0  0.00000000000E+00  0.00000000000E+00 -0.59854259128E+03  0.22917184107E+04  0.22121754090E+04 0.  0.
        1    1    3    3  502    0  0.29350339451E+03 -0.50691143768E+03 -0.12712653230E+04  0.13997210328E+04  0.50400001928E-02 0. -1.
       -1    1    3    3    0  502 -0.29350339451E+03  0.50691143768E+03  0.67272273172E+03  0.89199737782E+03  0.50400001928E-02 0.  1.
</event>
<event>
 5   0  0.2289708E-05  0.2206362E+04  0.7818609E-02  0.8515785E-01
       -2   -1    0    0    0  501  0.00000000000E+00  0.00000000000E+00  0.11121849152E+04  0.11121849152E+04  0.25500000920E-02 0. -1.
        2   -1    0    0  501    0  0.00000000000E+00  0.00000000000E+00 -0.10942503136E+04  0.10942503136E+04  0.25500000920E-02 0.  1.
    10030    2    1    2    0    0  0.00000000000E+00  0.00000000000E+00  0.17934601562E+02  0.22064352288E+04  0.22063623386E+04 0.  0.
        5    1    3    3  502    0 -0.32374765107E+03  0.89954350147E+03  0.55943580100E+03  0.11076919960E+04  0.46999998093E+01 0. -1.
       -5    1    3    3    0  502  0.32374765107E+03 -0.89954350147E+03 -0.54150119944E+03  0.10987432328E+04  0.46999998093E+01 0.  1.
</event>
<event>
 5   0  0.2229552E-05  0.2199711E+04  0.7818609E-02  0.8518549E-01
        2   -1    0    0  501    0  0.00000000000E+00  0.00000000000E+00  0.91485347641E+03  0.91485347641E+03  0.25500000920E-02 0. -1.
       -2   -1    0    0    0  501  0.00000000000E+00  0.00000000000E+00 -0.13222681708E+04  0.13222681708E+04  0.25500000920E-02 0.  1.
    10030    2    1    2    0    0  0.00000000000E+00  0.00000000000E+00 -0.40741469435E+03  0.22371216472E+04  0.21997105562E+04 0.  0.
        1    1    3    3  502    0  0.50220384564E+03  0.91178313653E+03 -0.56488734445E+03  0.11843373263E+04  0.50400001928E-02 0.  1.
       -1    1    3    3    0  502 -0.50220384564E+03 -0.91178313653E+03  0.15747265010E+03  0.10527843208E+04  0.50400001928E-02 0. -1.
</event>
<event>
 5   0  0.1033733E-05  0.2208473E+04  0.7818609E-02  0.8514910E-01
        1   -1    0    0  501    0  0.00000000000E+00  0.00000000000E+00  0.16825011230E+04  0.16825011230E+04  0.50400001928E-02 0.  1.
       -1   -1    0    0    0  501  0.00000000000E+00  0.00000000000E+00 -0.72471796295E+03  0.72471796297E+03  0.50400001928E-02 0. -1.
    10030    2    1    2    0    0  0.00000000000E+00  0.00000000000E+00  0.95778316004E+03  0.24072190860E+04  0.22084734878E+04 0.  0.
        5    1    3    3  502    0  0.42116284037E+03 -0.46855997044E+03  0.14673590199E+04  0.15969004876E+04  0.46999998093E+01 0.  1.
       -5    1    3    3    0  502 -0.42116284037E+03  0.46855997044E+03 -0.50957585982E+03  0.81031859840E+03  0.46999998093E+01 0. -1.
</event>
<event>
 5   0  0.1033733E-05  0.2205780E+04  0.7818609E-02  0.8516026E-01
       -1   -1    0    0    0  501  0.00000000000E+00  0.00000000000E+00  0.21362515639E+04  0.21362515639E+04  0.50400001928E-02 0.  1.
        1   -1    0    0  501    0  0.00000000000E+00  0.00000000000E+00 -0.56939296047E+03  0.56939296050E+03  0.50400001928E-02 0. -1.
    10030    2    1    2    0    0  0.00000000000E+00  0.00000000000E+00  0.15668586034E+04  0.27056445244E+04  0.22057802269E+04 0.  0.
        5    1    3    3  502    0  0.10022880639E+04 -0.35589555598E+02  0.13461993447E+04  0.16787265248E+04  0.46999998093E+01 0.  1.
       -5    1    3    3    0  502 -0.10022880639E+04  0.35589555598E+02  0.22065925877E+03  0.10269179996E+04  0.46999998093E+01 0. -1.
</event>
<event>
 5   0  0.2229552E-05  0.2195660E+04  0.7818609E-02  0.8520237E-01
        2   -1    0    0  501    0  0.00000000000E+00  0.00000000000E+00  0.78313060048E+03  0.78313060048E+03  0.25500000920E-02 0. -1.
       -2   -1    0    0    0  501  0.00000000000E+00  0.00000000000E+00 -0.15389903882E+04  0.15389903882E+04  0.25500000920E-02 0.  1.
    10030    2    1    2    0    0  0.00000000000E+00  0.00000000000E+00 -0.75585978767E+03  0.23221209886E+04  0.21956597795E+04 0.  0.
        1    1    3    3  502    0  0.56909997403E+03  0.93482524483E+03 -0.46926019998E+03  0.11907888789E+04  0.50400001928E-02 0. -1.
       -1    1    3    3    0  502 -0.56909997403E+03 -0.93482524483E+03 -0.28659958769E+03  0.11313321097E+04  0.50400001928E-02 0.  1.
</event>
<event>
 5   0  0.1005538E-05  0.2201672E+04  0.7818609E-02  0.8517732E-01
        1   -1    0    0  501    0  0.00000000000E+00  0.00000000000E+00  0.16751526623E+04  0.16751526623E+04  0.50400001928E-02 0.  1.
       -1   -1    0    0    0  501  0.00000000000E+00  0.00000000000E+00 -0.72342085665E+03  0.72342085667E+03  0.50400001928E-02 0. -1.
    10030    2    1    2    0    0  0.00000000000E+00  0.00000000000E+00  0.95173180565E+03  0.23985735190E+04  0.22016724316E+04 0.  0.
        3    1    3    3  502    0 -0.77917007496E+03  0.73620652037E+03  0.74873409833E+03  0.13075583377E+04  0.10100000352E+00 0.  1.
       -3    1    3    3    0  502  0.77917007496E+03 -0.73620652037E+03  0.20299770733E+03  0.10910151813E+04  0.10100000352E+00 0. -1.
</event>
<event>
 5   0  0.1007682E-05  0.2204819E+04  0.7818609E-02  0.8516425E-01
        1   -1    0    0  501    0  0.00000000000E+00  0.00000000000E+00  0.19632249471E+04  0.19632249471E+04  0.50400001928E-02 0.  1.
       -1   -1    0    0    0  501  0.00000000000E+00  0.00000000000E+00 -0.61903576978E+03  0.61903576981E+03  0.50400001928E-02 0. -1.
    10030    2    1    2    0    0  0.00000000000E+00  0.00000000000E+00  0.13441891773E+04  0.25822607169E+04  0.22048187830E+04 0.  0.
        2    1    3    3  502    0  0.38933406798E+03  0.70080992107E+03 -0.21414145903E+03  0.82980246230E+03  0.25500000920E-02 0. -1.
       -2    1    3    3    0  502 -0.38933406798E+03 -0.70080992107E+03  0.15583306363E+04  0.17524582546E+04  0.25500000920E-02 0.  1.
</event>
<event>
 5   0  0.1071208E-05  0.2198116E+04  0.7818609E-02  0.8519213E-01
       -1   -1    0    0    0  501  0.00000000000E+00  0.00000000000E+00  0.14980804089E+04  0.14980804089E+04  0.50400001928E-02 0.  1.
        1   -1    0    0  501    0  0.00000000000E+00  0.00000000000E+00 -0.80631718483E+03  0.80631718485E+03  0.50400001928E-02 0. -1.
    10030    2    1    2    0    0  0.00000000000E+00  0.00000000000E+00  0.69176322407E+03  0.23043975938E+04  0.21981155365E+04 0.  0.
        4    1    3    3  502    0  0.20805993384E+03  0.12487807122E+03 -0.77788213689E+03  0.81485317729E+03  0.12699999809E+01 0. -1.
       -4    1    3    3    0  502 -0.20805993384E+03 -0.12487807122E+03  0.14696453610E+04  0.14895444165E+04  0.12699999809E+01 0.  1.
</event>
<event>
 5   0  0.1071208E-05  0.2177836E+04  0.7818609E-02  0.8527710E-01
        1   -1    0    0  501    0  0.00000000000E+00  0.00000000000E+00  0.10741741179E+04  0.10741741179E+04  0.50400001928E-02 0.  1.
       -1   -1    0    0    0  501  0.00000000000E+00  0.00000000000E+00 -0.11038641808E+04  0.11038641808E+04  0.50400001928E-02 0. -1.
    10030    2    1    2    0    0  0.00000000000E+00  0.00000000000E+00 -0.29690062859E+02  0.21780382987E+04  0.21778359283E+04 0.  0.
        4    1    3    3  502    0 -0.82943068771E+03 -0.70439536129E+03  0.25316252863E+02  0.10884716883E+04  0.12699999809E+01 0.  1.
       -4    1    3    3    0  502  0.82943068771E+03  0.70439536129E+03 -0.55006315722E+02  0.10895666103E+04  0.12699999809E+01 0. -1.
</event>
<event>
 5   0  0.1049198E-05  0.2227623E+04  0.7818609E-02  0.8507018E-01
       -1   -1    0    0    0  501  0.00000000000E+00  0.00000000000E+00  0.78196952931E+03  0.78196952933E+03  0.50400001928E-02 0.  1.
        1   -1    0    0  501    0  0.00000000000E+00  0.00000000000E+00 -0.15864763912E+04  0.15864763912E+04  0.50400001928E-02 0. -1.
    10030    2    1    2    0    0  0.00000000000E+00  0.00000000000E+00 -0.80450686187E+03  0.23684459205E+04  0.22276231251E+04 0.  0.
        1    1    3    3  502    0  0.91195321022E+03 -0.11975922963E+03  0.26560849293E+03  0.95736555310E+03  0.50400001928E-02 0.  1.
       -1    1    3    3    0  502 -0.91195321022E+03  0.11975922963E+03 -0.10701153548E+04  0.14110803674E+04  0.50400001928E-02 0. -1.
</event>
<event>
 5   0  0.1005538E-05  0.2199209E+04  0.7818609E-02  0.8518758E-01
       -1   -1    0    0    0  501  0.00000000000E+00  0.00000000000E+00  0.15125025692E+04  0.15125025692E+04  0.50400001928E-02 0. -1.
        1   -1    0    0  501    0  0.00000000000E+00  0.00000000000E+00 -0.79942328027E+03  0.79942328029E+03  0.50400001928E-02 0.  1.
    10030    2    1    2    0    0  0.00000000000E+00  0.00000000000E+00  0.71307928890E+03  0.23119258495E+04  0.21992087352E+04 0.  0.
        3    1    3    3  502    0 -0.66296720678E+03  0.86606059806E+03  0.50350201794E+03  0.12012912923E+04  0.10100000352E+00 0. -1.
       -3    1    3    3    0  502  0.66296720678E+03 -0.86606059806E+03  0.20957727095E+03  0.11106345571E+04  0.10100000352E+00 0.  1.
</event>
<event>
 5   0  0.1071208E-05  0.2202617E+04  0.7818609E-02  0.8517340E-01
        1   -1    0    0  501    0  0.00000000000E+00  0.00000000000E+00  0.10285356235E+04  0.10285356235E+04  0.50400001928E-02 0. -1.
       -1   -1    0    0    0  501  0.00000000000E+00  0.00000000000E+00 -0.11792303735E+04  0.11792303735E+04  0.50400001928E-02 0.  1.
    10030    2    1    2    0    0  0.00000000000E+00  0.00000000000E+00 -0.15069475002E+03  0.22077659971E+04  0.22026170321E+04 0.  0.
        4    1    3    3  502    0  0.20276018668E+03  0.40416974992E+03 -0.10818930117E+04  0.11725864496E+04  0.12699999809E+01 0.  1.
       -4    1    3    3    0  502 -0.20276018668E+03 -0.40416974992E+03  0.93119826169E+03  0.10351795475E+04  0.12699999809E+01 0. -1.
</event>
<event>
 5   0  0.2319707E-05  0.2203472E+04  0.7818609E-02  0.8516985E-01
        2   -1    0    0  501    0  0.00000000000E+00  0.00000000000E+00  0.13791492695E+04  0.13791492695E+04  0.25500000920E-02 0.  1.
       -2   -1    0    0    0  501  0.00000000000E+00  0.00000000000E+00 -0.88012349345E+03  0.88012349346E+03  0.25500000920E-02 0. -1.
    10030    2    1    2    0    0  0.00000000000E+00  0.00000000000E+00  0.49902577604E+03  0.22592727630E+04  0.22034715093E+04 0.  0.
        3    1    3    3  502    0 -0.80837905434E+03 -0.62718654474E+03  0.66849556137E+03  0.12221808308E+04  0.10100000352E+00 0. -1.
       -3    1    3    3    0  502  0.80837905434E+03  0.62718654474E+03 -0.16946978533E+03  0.10370919322E+04  0.10100000352E+00 0.  1.
</event>
<event>
 5   0  0.1007682E-05  0.2201653E+04  0.7818609E-02  0.8517740E-01
        1   -1    0    0  501    0  0.00000000000E+00  0.00000000000E+00  0.12288761861E+04  0.12288761861E+04  0.50400001928E-02 0.  1.
       -1   -1    0    0    0  501  0.00000000000E+00  0.00000000000E+00 -0.98611998382E+03  0.98611998384E+03  0.50400001928E-02 0. -1.
    10030    2    1    2    0    0  0.00000000000E+00  0.00000000000E+00  0.24275620225E+03  0.22149961699E+04  0.22016533467E+04 0.  0.
        2    1    3    3  502    0  0.44138556245E+02  0.30974624179E+03  0.11832024541E+04  0.12238704972E+04  0.25500000920E-02 0.  1.
       -2    1    3    3    0  502 -0.44138556245E+02 -0.30974624179E+03 -0.94044625188E+03  0.99112567272E+03  0.25500000920E-02 0. -1.
</event>
<event>
 5   0  0.1005538E-05  0.2200876E+04  0.7818609E-02  0.8518064E-01
        1   -1    0    0  501    0  0.00000000000E+00  0.00000000000E+00  0.15635698548E+04  0.15635698548E+04  0.50400001928E-02 0.  1.
       -1   -1    0    0    0  501  0.00000000000E+00  0.00000000000E+00 -0.77448625803E+03  0.77448625805E+03  0.50400001928E-02 0. -1.
    10030    2    1    2    0    0  0.00000000000E+00  0.00000000000E+00  0.78908359679E+03  0.23380561129E+04  0.22008756131E+04 0.  0.
        3    1    3    3  502    0 -0.52603556704E+03 -0.11258747604E+03  0.14143641780E+04  0.15132135988E+04  0.10100000352E+00 0.  1.
       -3    1    3    3    0  502  0.52603556704E+03  0.11258747604E+03 -0.62528058119E+03  0.82484251404E+03  0.10100000352E+00 0. -1.
</event>
<event>
 5   0  0.1007682E-05  0.2203543E+04  0.7818609E-02  0.8516955E-01
        1   -1    0    0  501    0  0.00000000000E+00  0.00000000000E+00  0.11888616627E+04  0.11888616627E+04  0.50400001928E-02 0. -1.
       -1   -1    0    0    0  501  0.00000000000E+00  0.00000000000E+00 -0.10210613046E+04  0.10210613047E+04  0.50400001928E-02 0.  1.
    10030    2    1    2    0    0  0.00000000000E+00  0.00000000000E+00  0.16780035803E+03  0.22099229674E+04  0.22035431835E+04 0.  0.
        2    1    3    3  502    0 -0.96689657215E+03  0.42110842535E+03 -0.23589503292E+03  0.10806793020E+04  0.25500000920E-02 0.  1.
       -2    1    3    3    0  502  0.96689657215E+03 -0.42110842535E+03  0.40369539095E+03  0.11292436654E+04  0.25500000920E-02 0. -1.
</event>
<event>
 5   0  0.2229552E-05  0.2191535E+04  0.7818609E-02  0.8521960E-01
        2   -1    0    0  501    0  0.00000000000E+00  0.00000000000E+00  0.24193162242E+04  0.24193162242E+04  0.25500000920E-02 0. -1.
       -2   -1    0    0    0  501  0.00000000000E+00  0.00000000000E+00 -0.49629991020E+03  0.49629991021E+03  0.25500000920E-02 0.  1.
    10030    2    1    2    0    0  0.00000000000E+00  0.00000000000E+00  0.19230163140E+04  0.29156161344E+04  0.21915350098E+04 0.  0.
        1    1    3    3  502    0  0.23948593807E+03 -0.57170902458E+03 -0.24064687594E+03  0.66491777104E+03  0.50400001928E-02 0.  1.
       -1    1    3    3    0  502 -0.23948593807E+03  0.57170902458E+03  0.21636631899E+04  0.22506983633E+04  0.50400001928E-02 0. -1.
</event>
<event>
 5   0  0.1049198E-05  0.2182821E+04  0.7818609E-02  0.8525613E-01
       -1   -1    0    0    0  501  0.00000000000E+00  0.00000000000E+00  0.11557440680E+04  0.11557440680E+04  0.50400001928E-02 0. -1.
        1   -1    0    0  501    0  0.00000000000E+00  0.00000000000E+00 -0.10306580870E+04  0.10306580870E+04  0.50400001928E-02 0.  1.
    10030    2    1    2    0    0  0.00000000000E+00  0.00000000000E+00  0.12508598101E+03  0.21864021550E+04  0.21828210831E+04 0.  0.
        1    1    3    3  502    0  0.68017759446E+03  0.82799756564E+03 -0.14505397455E+03  0.10813242734E+04  0.50400001928E-02 0.  1.
       -1    1    3    3    0  502 -0.68017759446E+03 -0.82799756564E+03  0.27013995556E+03  0.11050778816E+04  0.50400001928E-02 0. -1.
</event>
<event>
 5   0  0.2284329E-05  0.2189423E+04  0.7818609E-02  0.8522843E-01
        2   -1    0    0  501    0  0.00000000000E+00  0.00000000000E+00  0.26748208569E+04  0.26748208569E+04  0.25500000920E-02 0. -1.
       -2   -1    0    0    0  501  0.00000000000E+00  0.00000000000E+00 -0.44802743647E+03  0.44802743648E+03  0.25500000920E-02 0.  1.
    10030    2    1    2    0    0  0.00000000000E+00  0.00000000000E+00  0.22267934204E+04  0.31228482933E+04  0.21894228751E+04 0.  0.
        2    1    3    3  502    0  0.15615697104E+03  0.74607657761E+03  0.22341157894E+04  0.23605695541E+04  0.25500000920E-02 0. -1.
       -2    1    3    3    0  502 -0.15615697104E+03 -0.74607657761E+03 -0.73223689807E+01  0.76227873928E+03  0.25500000920E-02 0.  1.
</event>
<event>
 5   0  0.8003875E-06  0.2201051E+04  0.7818609E-02  0.8517991E-01
        3   -1    0    0  501    0  0.00000000000E+00  0.00000000000E+00  0.18824560880E+04  0.18824560907E+04  0.10100000352E+00 0. -1.
       -3   -1    0    0    0  501  0.00000000000E+00  0.00000000000E+00 -0.64339184676E+03  0.64339185469E+03  0.10100000352E+00 0.  1.
    10030    2    1    2    0    0  0.00000000000E+00  0.00000000000E+00  0.12390642412E+04  0.25258479454E+04  0.22010514872E+04 0.  0.
        2    1    3    3  502    0  0.49323994815E+03 -0.75763470282E+02  0.17451581870E+04  0.18151040872E+04  0.25500000920E-02 0. -1.
       -2    1    3    3    0  502 -0.49323994815E+03  0.75763470282E+02 -0.50609394579E+03  0.71074385812E+03  0.25500000920E-02 0.  1.
</event>
<event>
 5   0  0.1049198E-05  0.2201415E+04  0.7818609E-02  0.8517840E-01
        1   -1    0    0  501    0  0.00000000000E+00  0.00000000000E+00  0.73860950736E+03  0.73860950738E+03  0.50400001928E-02 0. -1.
       -1   -1    0    0    0  501  0.00000000000E+00  0.00000000000E+00 -0.16403207643E+04  0.16403207643E+04  0.50400001928E-02 0.  1.
    10030    2    1    2    0    0  0.00000000000E+00  0.00000000000E+00 -0.90171125695E+03  0.23789302717E+04  0.22014145558E+04 0.  0.
        1    1    3    3  502    0  0.72878128480E+02  0.38648003384E+03  0.66008897873E+03  0.76837197895E+03  0.50400001928E-02 0. -1.
       -1    1    3    3    0  502 -0.72878128480E+02 -0.38648003384E+03 -0.15618002357E+04  0.16105582928E+04  0.50400001928E-02 0.  1.
</event>
<event>
 5   0  0.1005538E-05  0.2188450E+04  0.7818609E-02  0.8523251E-01
       -1   -1    0    0    0  501  0.00000000000E+00  0.00000000000E+00  0.98786587927E+03  0.98786587928E+03  0.50400001928E-02 0. -1.
        1   -1    0    0  501    0  0.00000000000E+00  0.00000000000E+00 -0.12120350687E+04  0.12120350687E+04  0.50400001928E-02 0.  1.
    10030    2    1    2    0    0  0.00000000000E+00  0.00000000000E+00 -0.22416918943E+03  0.21999009480E+04  0.21884497608E+04 0.  0.
        3    1    3    3  502    0 -0.65034773530E+03  0.80150375142E+03 -0.47725894735E+03  0.11371616215E+04  0.10100000352E+00 0.  1.
       -3    1    3    3    0  502  0.65034773530E+03 -0.80150375142E+03  0.25308975792E+03  0.10627393265E+04  0.10100000352E+00 0. -1.
</event>
<event>
 5   0  0.2319707E-05  0.2209385E+04  0.7818609E-02  0.8514532E-01
       -2   -1    0    0    0  501  0.00000000000E+00  0.00000000000E+00  0.66187918078E+03  0.66187918078E+03  0.25500000920E-02 0.  1.
        2   -1    0    0  501    0  0.00000000000E+00  0.00000000000E+00 -0.18437582852E+04  0.18437582852E+04  0.25500000920E-02 0. -1.
    10030    2    1    2    0    0  0.00000000000E+00  0.00000000000E+00 -0.11818791044E+04  0.25056374660E+04  0.22093847319E+04 0.  0.
        3    1    3    3  502    0  0.39591730791E+02 -0.20679647134E+03  0.63891268003E+03  0.67271220340E+03  0.10100000352E+00 0.  1.
       -3    1    3    3    0  502 -0.39591730791E+02  0.20679647134E+03 -0.18207917845E+04  0.18329252626E+04  0.10100000352E+00 0. -1.
</event>
<event>
 5   0  0.2298329E-05  0.2201234E+04  0.7818609E-02  0.8517915E-01
       -2   -1    0    0    0  501  0.00000000000E+00  0.00000000000E+00  0.68415913214E+03  0.68415913214E+03  0.25500000920E-02 0.  1.
        2   -1    0    0  501    0  0.00000000000E+00  0.00000000000E+00 -0.17705783254E+04  0.17705783254E+04  0.25500000920E-02 0. -1.
    10030    2    1    2    0    0  0.00000000000E+00  0.00000000000E+00 -0.10864191932E+04  0.24547374575E+04  0.22012335909E+04 0.  0.
        4    1    3    3  502    0 -0.52181837552E+03 -0.96429804812E+03 -0.43630158349E+03  0.11800533154E+04  0.12699999809E+01 0.  1.
       -4    1    3    3    0  502  0.52181837552E+03  0.96429804812E+03 -0.65011760973E+03  0.12746841421E+04  0.12699999809E+01 0. -1.
</event>
<event>
 5   0  0.1049198E-05  0.2194240E+04  0.7818609E-02  0.8520829E-01
        1   -1    0    0  501    0  0.00000000000E+00  0.00000000000E+00  0.13757708640E+04  0.13757708640E+04  0.50400001928E-02 0. -1.
       -1   -1    0    0    0  501  0.00000000000E+00  0.00000000000E+00 -0.87490761869E+03  0.87490761871E+03  0.50400001928E-02 0.  1.
    10030    2    1    2    0    0  0.00000000000E+00  0.00000000000E+00  0.50086324533E+03  0.22506784827E+04  0.21942401059E+04 0.  0.
        1    1    3    3  502    0  0.17079675263E+03 -0.69800129460E+03 -0.59992466122E+03  0.93610199078E+03  0.50400001928E-02 0.  1.
       -1    1    3    3    0  502 -0.17079675263E+03  0.69800129460E+03  0.11007879065E+04  0.13145764920E+04  0.50400001928E-02 0. -1.
</event>
<event>
 5   0  0.1033733E-05  0.2216162E+04  0.7818609E-02  0.8511731E-01
       -1   -1    0    0    0  501  0.00000000000E+00  0.00000000000E+00  0.14657270341E+04  0.14657270342E+04  0.50400001928E-02 0.  1.
        1   -1    0    0  501    0  0.00000000000E+00  0.00000000000E+00 -0.83770255381E+03  0.83770255383E+03  0.50400001928E-02 0. -1.
    10030    2    1    2    0    0  0.00000000000E+00  0.00000000000E+00  0.62802448033E+03  0.23034295880E+04  0.22161617989E+04 0.  0.
        5    1    3    3  502    0 -0.73504432471E+03 -0.19654161330E+03 -0.52325321920E+03  0.92343640087E+03  0.46999998093E+01 0. -1.
       -5    1    3    3    0  502  0.73504432471E+03  0.19654161330E+03  0.11512776995E+04  0.13799931871E+04  0.46999998093E+01 0.  1.
</event>
<event>
 5   0  0.2319707E-05  0.2192460E+04  0.7818609E-02  0.8521573E-01
       -2   -1    0    0    0  501  0.00000000000E+00  0.00000000000E+00  0.60817095775E+03  0.60817095775E+03  0.25500000920E-02 0.  1.
        2   -1    0    0  501    0  0.00000000000E+00  0.00000000000E+00 -0.19759579834E+04  0.19759579834E+04  0.25500000920E-02 0. -1.
    10030    2    1    2    0    0  0.00000000000E+00  0.00000000000E+00 -0.13677870257E+04  0.25841289412E+04  0.21924600423E+04 0.  0.
        3    1    3    3  502    0  0.86514870763E+03  0.65727546881E+03 -0.51217149103E+03  0.12011715009E+04  0.10100000352E+00 0.  1.
       -3    1    3    3    0  502 -0.86514870763E+03 -0.65727546881E+03 -0.85561553463E+03  0.13829574402E+04  0.10100000352E+00 0. -1.
</event>
<event>
 5   0  0.1071208E-05  0.2213237E+04  0.7818609E-02  0.8512939E-01
        1   -1    0    0  501    0  0.00000000000E+00  0.00000000000E+00  0.11696565679E+04  0.11696565679E+04  0.50400001928E-02 0.  1.
       -1   -1    0    0    0  501  0.00000000000E+00  0.00000000000E+00 -0.10469781832E+04  0.10469781832E+04  0.50400001928E-02 0. -1.
    10030    2    1    2    0    0  0.00000000000E+00  0.00000000000E+00  0.12267838472E+03  0.22166347511E+04  0.22132373650E+04 0.  0.
        4    1    3    3  502    0  0.52020813353E+03 -0.87079612672E+03  0.50439920379E+03  0.11328382789E+04  0.12699999809E+01 0.  1.
       -4    1    3    3    0  502 -0.52020813353E+03  0.87079612672E+03 -0.38172081907E+03  0.10837964722E+04  0.12699999809E+01 0. -1.
</event>
<event>
 5   0  0.2319707E-05  0.2193512E+04  0.7818609E-02  0.8521134E-01
        2   -1    0    0  501    0  0.00000000000E+00  0.00000000000E+00  0.20985776505E+04  0.20985776505E+04  0.25500000920E-02 0. -1.
       -2   -1    0    0    0  501  0.00000000000E+00  0.00000000000E+00 -0.57318498677E+03  0.57318498678E+03  0.25500000920E-02 0.  1.
    10030    2    1    2    0    0  0.00000000000E+00  0.00000000000E+00  0.15253926637E+04  0.26717626372E+04  0.21935115252E+04 0.  0.
        3    1    3    3  502    0 -0.92648100295E+03  0.37083552998E+03  0.20854338420E+03  0.10194981081E+04  0.10100000352E+00 0.  1.
       -3    1    3    3    0  502  0.92648100295E+03 -0.37083552998E+03  0.13168492795E+04  0.16522645291E+04  0.10100000352E+00 0. -1.
</event>
<event>
 5   0  0.1033733E-05  0.2199296E+04  0.7818609E-02  0.8518721E-01
       -1   -1    0    0    0  501  0.00000000000E+00  0.00000000000E+00  0.75244156656E+03  0.75244156658E+03  0.50400001928E-02 0.  1.
        1   -1    0    0  501    0  0.00000000000E+00  0.00000000000E+00 -0.16070690658E+04  0.16070690658E+04  0.50400001928E-02 0. -1.
    10030    2    1    2    0    0  0.00000000000E+00  0.00000000000E+00 -0.85462749922E+03  0.23595106324E+04  0.21992958559E+04 0.  0.
        5    1    3    3  502    0 -0.20898270886E+03 -0.40795298563E+03  0.64505375582E+03  0.79133801183E+03  0.46999998093E+01 0.  1.
       -5    1    3    3    0  502  0.20898270886E+03  0.40795298563E+03 -0.14996812550E+04  0.15681726205E+04  0.46999998093E+01 0. -1.
</event>
<event>
 5   0  0.1007682E-05  0.2201391E+04  0.7818609E-02  0.8517849E-01
        1   -1    0    0  501    0  0.00000000000E+00  0.00000000000E+00  0.71165501510E+03  0.71165501512E+03  0.50400001928E-02 0. -1.
       -1   -1    0    0    0  501  0.00000000000E+00  0.00000000000E+00 -0.17024127303E+04  0.17024127303E+04  0.50400001928E-02 0.  1.
    10030    2    1    2    0    0  0.00000000000E+00  0.00000000000E+00 -0.99075771515E+03  0.24140677454E+04  0.22013909760E+04 0.  0.
        2    1    3    3  502    0  0.10187780564E+04  0.29766878874E+03 -0.17563636152E+03  0.10758083321E+04  0.25500000920E-02 0. -1.
       -2    1    3    3    0  502 -0.10187780564E+04 -0.29766878874E+03 -0.81512135364E+03  0.13382594132E+04  0.25500000920E-02 0.  1.
</event>
<event>
 5   0  0.2289708E-05  0.2194711E+04  0.7818609E-02  0.8520633E-01
        2   -1    0    0  501    0  0.00000000000E+00  0.00000000000E+00  0.12307300094E+04  0.12307300094E+04  0.25500000920E-02 0.  1.
       -2   -1    0    0    0  501  0.00000000000E+00  0.00000000000E+00 -0.97843481278E+03  0.97843481279E+03  0.25500000920E-02 0. -1.
    10030    2    1    2    0    0  0.00000000000E+00  0.00000000000E+00  0.25229519660E+03  0.22091648222E+04  0.21947109936E+04 0.  0.
        5    1    3    3  502    0  0.83051815891E+03  0.35757599339E+03 -0.49967518224E+03  0.10331110207E+04  0.46999998093E+01 0. -1.
       -5    1    3    3    0  502 -0.83051815891E+03 -0.35757599339E+03  0.75197037884E+03  0.11760538015E+04  0.46999998093E+01 0.  1.
</event>
<event>
 5   0  0.1049198E-05  0.2194245E+04  0.7818609E-02  0.8520827E-01
       -1   -1    0    0    0  501  0.00000000000E+00  0.00000000000E+00  0.76694848638E+03  0.76694848639E+03  0.50400001928E-02 0. -1.
        1   -1    0    0  501    0  0.00000000000E+00  0.00000000000E+00 -0.15694371728E+04  0.15694371728E+04  0.50400001928E-02 0.  1.
    10030    2    1    2    0    0  0.00000000000E+00  0.00000000000E+00 -0.80248868644E+03  0.23363856592E+04  0.21942447121E+04 0.  0.
        1    1    3    3  502    0  0.42615371676E+03 -0.52575309044E+03 -0.13206945070E+04  0.14840004324E+04  0.50400001928E-02 0.  1.
       -1    1    3    3    0  502 -0.42615371676E+03  0.52575309044E+03  0.51820582058E+03  0.85238522684E+03  0.50400001928E-02 0. -1.
</event>
<event>
 5   0  0.1049198E-05  0.2202385E+04  0.7818609E-02  0.8517436E-01
        1   -1    0    0  501    0  0.00000000000E+00  0.00000000000E+00  0.17165593710E+04  0.17165593710E+04  0.50400001928E-02 0.  1.
       -1   -1    0    0    0  501  0.00000000000E+00  0.00000000000E+00 -0.70642764811E+03  0.70642764813E+03  0.50400001928E-02 0. -1.
    10030    2    1    2    0    0  0.00000000000E+00  0.00000000000E+00  0.10101317229E+04  0.24229870191E+04  0.22023850702E+04 0.  0.
        1    1    3    3  502    0  0.29713849566E+03  0.46095757562E+03  0.15556237047E+04  0.16494660599E+04  0.50400001928E-02 0.  1.
       -1    1    3    3    0  502 -0.29713849566E+03 -0.46095757562E+03 -0.54549198181E+03  0.77352095923E+03  0.50400001928E-02 0. -1.
</event>
<event>
 5   0  0.2319707E-05  0.2186864E+04  0.7818609E-02  0.8523916E-01
        2   -1    0    0  501    0  0.00000000000E+00  0.00000000000E+00  0.16537696423E+04  0.16537696423E+04  0.25500000920E-02 0.  1.
       -2   -1    0    0    0  501  0.00000000000E+00  0.00000000000E+00 -0.72295038453E+03  0.72295038454E+03  0.25500000920E-02 0. -1.
    10030    2    1    2    0    0  0.00000000000E+00  0.00000000000E+00  0.93081925775E+03  0.23767200268E+04  0.21868638722E+04 0.  0.
        3    1    3    3  502    0  0.37727541265E+03  0.10100494886E+04  0.26781009912E+03  0.11109720815E+04  0.10100000352E+00 0. -1.
       -3    1    3    3    0  502 -0.37727541265E+03 -0.10100494886E+04  0.66300915863E+03  0.12657479453E+04  0.10100000352E+00 0.  1.
</event>
<event>
 5   0  0.1071208E-05  0.2177543E+04  0.7818609E-02  0.8527834E-01
       -1   -1    0    0    0  501  0.00000000000E+00  0.00000000000E+00  0.92992585551E+03  0.92992585553E+03  0.50400001928E-02 0.  1.
        1   -1    0    0  501    0  0.00000000000E+00  0.00000000000E+00 -0.12747503658E+04  0.12747503658E+04  0.50400001928E-02 0. -1.
    10030    2    1    2    0    0  0.00000000000E+00  0.00000000000E+00 -0.34482451027E+03  0.22046762213E+04  0.21775429497E+04 0.  0.
        4    1    3    3  502    0 -0.60028225547E+03  0.43243142269E+03 -0.98116858519E+03  0.12288324243E+04  0.12699999809E+01 0. -1.
       -4    1    3    3    0  502  0.60028225547E+03 -0.43243142269E+03  0.63634407492E+03  0.97584379701E+03  0.12699999809E+01 0.  1.
</event>
<event>
 5   0  0.1049198E-05  0.2196228E+04  0.7818609E-02  0.8520000E-01
        1   -1    0    0  501    0  0.00000000000E+00  0.00000000000E+00  0.17914244367E+04  0.17914244367E+04  0.50400001928E-02 0.  1.
       -1   -1    0    0    0  501  0.00000000000E+00  0.00000000000E+00 -0.67312601097E+03  0.67312601099E+03  0.50400001928E-02 0. -1.
    10030    2    1    2    0    0  0.00000000000E+00  0.00000000000E+00  0.11182984257E+04  0.24645504477E+04  0.21962280256E+04 0.  0.
        1    1    3    3  502    0  0.11686117754E+03 -0.10157459747E+04  0.10086608332E+04  0.14362427011E+04  0.50400001928E-02 0.  1.
       -1    1    3    3    0  502 -0.11686117754E+03  0.10157459747E+04  0.10963759254E+03  0.10283077466E+04  0.50400001928E-02 0. -1.
</event>
<event>
 5   0  0.2289708E-05  0.2198223E+04  0.7818609E-02  0.8519168E-01
        2   -1    0    0  501    0  0.00000000000E+00  0.00000000000E+00  0.12339630947E+04  0.12339630947E+04  0.25500000920E-02 0.  1.
       -2   -1    0    0    0  501  0.00000000000E+00  0.00000000000E+00 -0.97899720398E+03  0.97899720398E+03  0.25500000920E-02 0. -1.
    10030    2    1    2    0    0  0.00000000000E+00  0.00000000000E+00  0.25496589072E+03  0.22129602987E+04  0.21982233003E+04 0.  0.
        5    1    3    3  502    0  0.70834021130E+03  0.80890758731E+03  0.35692974731E+03  0.11329158284E+04  0.46999998093E+01 0.  1.
       -5    1    3    3    0  502 -0.70834021130E+03 -0.80890758731E+03 -0.10196385658E+03  0.10800444703E+04  0.46999998093E+01 0. -1.
</event>
<event>
 5   0  0.1033733E-05  0.2193487E+04  0.7818609E-02  0.8521144E-01
        1   -1    0    0  501    0  0.00000000000E+00  0.00000000000E+00  0.19960276952E+04  0.19960276952E+04  0.50400001928E-02 0. -1.
       -1   -1    0    0    0  501  0.00000000000E+00  0.00000000000E+00 -0.60261984507E+03  0.60261984509E+03  0.50400001928E-02 0.  1.
    10030    2    1    2    0    0  0.00000000000E+00  0.00000000000E+00  0.13934078501E+04  0.25986475403E+04  0.21934866313E+04 0.  0.
        5    1    3    3  502    0  0.33566061773E+03 -0.99525751361E+03  0.32278123144E+03  0.10988245456E+04  0.46999998093E+01 0.  1.
       -5    1    3    3    0  502 -0.33566061773E+03  0.99525751361E+03  0.10706266187E+04  0.14998229947E+04  0.46999998093E+01 0. -1.
</event>
<event>
 5   0  0.2319707E-05  0.2207610E+04  0.7818609E-02  0.8515267E-01
        2   -1    0    0  501    0  0.00000000000E+00  0.00000000000E+00  0.17227263390E+04  0.17227263390E+04  0.25500000920E-02 0.  1.
       -2   -1    0    0    0  501  0.00000000000E+00  0.00000000000E+00 -0.70724259829E+03  0.70724259829E+03  0.25500000920E-02 0. -1.
    10030    2    1    2    0    0  0.00000000000E+00  0.00000000000E+00  0.10154837407E+04  0.24299689373E+04  0.22076099766E+04 0.  0.
        3    1    3    3  502    0  0.70043717355E+03 -0.66653141345E+03  0.10938285653E+04  0.14599100314E+04  0.10100000352E+00 0.  1.
       -3    1    3    3    0  502 -0.70043717355E+03  0.66653141345E+03 -0.78344824614E+02  0.97005890591E+03  0.10100000352E+00 0. -1.
</event>
<event>
 5   0  0.1007682E-05  0.2178415E+04  0.7818609E-02  0.8527466E-01
       -1   -1    0    0    0  501  0.00000000000E+00  0.00000000000E+00  0.90892135829E+03  0.90892135831E+03  0.50400001928E-02 0.  1.
        1   -1    0    0  501    0  0.00000000000E+00  0.00000000000E+00 -0.13052538150E+04  0.13052538150E+04  0.50400001928E-02 0. -1.
    10030    2    1    2    0    0  0.00000000000E+00  0.00000000000E+00 -0.39633245667E+03  0.22141751733E+04  0.21784150848E+04 0.  0.
        2    1    3    3  502    0  0.86947790408E+03  0.34551063609E+03  0.36866540725E+03  0.10056259781E+04  0.25500000920E-02 0.  1.
       -2    1    3    3    0  502 -0.86947790408E+03 -0.34551063609E+03 -0.76499786392E+03  0.12085491952E+04  0.25500000920E-02 0. -1.
</event>
<event>
 5   0  0.1071208E-05  0.2203370E+04  0.7818609E-02  0.8517027E-01
        1   -1    0    0  501    0  0.00000000000E+00  0.00000000000E+00  0.13332704161E+04  0.13332704161E+04  0.50400001928E-02 0.  1.
       -1   -1    0    0    0  501  0.00000000000E+00  0.00000000000E+00 -0.91032534420E+03  0.91032534421E+03  0.50400001928E-02 0. -1.
    10030    2    1    2    0    0  0.00000000000E+00  0.00000000000E+00  0.42294507188E+03  0.22435957603E+04  0.22033700102E+04 0.  0.
        4    1    3    3  502    0  0.59041071684E+03  0.38407168775E+03  0.10740579940E+04  0.12844057238E+04  0.12699999809E+01 0.  1.
       -4    1    3    3    0  502 -0.59041071684E+03 -0.38407168775E+03 -0.65111292212E+03  0.95919003652E+03  0.12699999809E+01 0. -1.
</event>
<event>
 5   0  0.1049198E-05  0.2194913E+04  0.7818609E-02  0.8520549E-01
       -1   -1    0    0    0  501  0.00000000000E+00  0.00000000000E+00  0.69516333030E+03  0.69516333032E+03  0.50400001928E-02 0.  1.
        1   -1    0    0  501    0  0.00000000000E+00  0.00000000000E+00 -0.17325572874E+04  0.17325572874E+04  0.50400001928E-02 0. -1.
    10030    2    1    2    0    0  0.00000000000E+00  0.00000000000E+00 -0.10373939571E+04  0.24277206177E+04  0.21949125667E+04 0.  0.
        1    1    3    3  502    0  0.35808192656E+03 -0.10335759167E+04 -0.42033500666E+03  0.11718290659E+04  0.50400001928E-02 0. -1.
       -1    1    3    3    0  502 -0.35808192656E+03  0.10335759167E+04 -0.61705895043E+03  0.12558915519E+04  0.50400001928E-02 0.  1.
</event>
<event>
 5   0  0.1071208E-05  0.2196213E+04  0.7818609E-02  0.8520006E-01
        1   -1    0    0  501    0  0.00000000000E+00  0.00000000000E+00  0.69767052658E+03  0.69767052659E+03  0.50400001928E-02 0. -1.
       -1   -1    0    0    0  501  0.00000000000E+00  0.00000000000E+00 -0.17283776299E+04  0.17283776299E+04  0.50400001928E-02 0.  1.
    10030    2    1    2    0    0  0.00000000000E+00  0.00000000000E+00 -0.10307071033E+04  0.24260481565E+04  0.21962132239E+04 0.  0.
        4    1    3    3  502    0  0.10354581867E+04  0.47098760638E+02 -0.11485934520E+03  0.10428740248E+04  0.12699999809E+01 0. -1.
       -4    1    3    3    0  502 -0.10354581867E+04 -0.47098760638E+02 -0.91584775810E+03  0.13831741317E+04  0.12699999809E+01 0.  1.
</event>
<event>
 5   0  0.2284329E-05  0.2262239E+04  0.7818609E-02  0.8492960E-01
       -2   -1    0    0    0  501  0.00000000000E+00  0.00000000000E+00  0.65253025157E+03  0.65253025157E+03  0.25500000920E-02 0. -1.
        2   -1    0    0  501    0  0.00000000000E+00  0.00000000000E+00 -0.19607240282E+04  0.19607240282E+04  0.25500000920E-02 0.  1.
    10030    2    1    2    0    0  0.00000000000E+00  0.00000000000E+00 -0.13081937766E+04  0.26132542797E+04  0.22622393714E+04 0.  0.
        2    1    3    3  502    0 -0.56263446512E+03 -0.11178389863E+02  0.47934617091E+03  0.73922611515E+03  0.25500000920E-02 0. -1.
       -2    1    3    3    0  502  0.56263446512E+03  0.11178389863E+02 -0.17875399475E+04  0.18740281646E+04  0.25500000920E-02 0.  1.
</event>
<event>
 5   0  0.2229552E-05  0.2210050E+04  0.7818609E-02  0.8514257E-01
        2   -1    0    0  501    0  0.00000000000E+00  0.00000000000E+00  0.75468545381E+03  0.75468545381E+03  0.25500000920E-02 0.  1.
       -2   -1    0    0    0  501  0.00000000000E+00  0.00000000000E+00 -0.16179993655E+04  0.16179993655E+04  0.25500000920E-02 0. -1.
    10030    2    1    2    0    0  0.00000000000E+00  0.00000000000E+00 -0.86331391166E+03  0.23726848193E+04  0.22100503030E+04 0.  0.
        1    1    3    3  502    0  0.47205573394E+03  0.91926041617E+03 -0.85187365678E+03  0.13392404772E+04  0.50400001928E-02 0.  1.
       -1    1    3    3    0  502 -0.47205573394E+03 -0.91926041617E+03 -0.11440254877E+02  0.10334443421E+04  0.50400001928E-02 0. -1.
</event>
<event>
 5   0  0.2319707E-05  0.2094470E+04  0.7818609E-02  0.8563683E-01
       -2   -1    0    0    0  501  0.00000000000E+00  0.00000000000E+00  0.44139392606E+03  0.44139392607E+03  0.25500000920E-02 0. -1.
        2   -1    0    0  501    0  0.00000000000E+00  0.00000000000E+00 -0.24846313886E+04  0.24846313886E+04  0.25500000920E-02 0.  1.
    10030    2    1    2    0    0  0.00000000000E+00  0.00000000000E+00 -0.20432374626E+04  0.29260253147E+04  0.20944700556E+04 0.  0.
        3    1    3    3  502    0  0.33695582834E+03 -0.98965251933E+03 -0.11071669758E+04  0.15227508206E+04  0.10100000352E+00 0. -1.
       -3    1    3    3    0  502 -0.33695582834E+03  0.98965251933E+03 -0.93607048679E+03  0.14032744941E+04  0.10100000352E+00 0.  1.
</event>
<event>
 5   0  0.2229552E-05  0.2200368E+04  0.7818609E-02  0.8518275E-01
       -2   -1    0    0    0  501  0.00000000000E+00  0.00000000000E+00  0.12051329547E+04  0.12051329547E+04  0.25500000920E-02 0.  1.
        2   -1    0    0  501    0  0.00000000000E+00  0.00000000000E+00 -0.10043748321E+04  0.10043748321E+04  0.25500000920E-02 0. -1.
    10030    2    1    2    0    0  0.00000000000E+00  0.00000000000E+00  0.20075812261E+03  0.22095077869E+04  0.22003683411E+04 0.  0.
        1    1    3    3  502    0 -0.25789919010E+03 -0.38956680509E+03  0.11005739743E+04  0.11956326195E+04  0.50400001928E-02 0.  1.
       -1    1    3    3    0  502  0.25789919010E+03  0.38956680509E+03 -0.89981585172E+03  0.10138751673E+04  0.50400001928E-02 0. -1.
</event>
<event>
 5   0  0.2298329E-05  0.2197442E+04  0.7818609E-02  0.8519494E-01
        2   -1    0    0  501    0  0.00000000000E+00  0.00000000000E+00  0.75770381223E+03  0.75770381224E+03  0.25500000920E-02 0.  1.
       -2   -1    0    0    0  501  0.00000000000E+00  0.00000000000E+00 -0.15932185469E+04  0.15932185469E+04  0.25500000920E-02 0. -1.
    10030    2    1    2    0    0  0.00000000000E+00  0.00000000000E+00 -0.83551473466E+03  0.23509223591E+04  0.21974419371E+04 0.  0.
        4    1    3    3  502    0 -0.74051430157E+03  0.38270447514E+03 -0.11835467439E+04  0.14476217234E+04  0.12699999809E+01 0. -1.
       -4    1    3    3    0  502  0.74051430157E+03 -0.38270447514E+03  0.34803200927E+03  0.90330063573E+03  0.12699999809E+01 0.  1.
</event>
<event>
 5   0  0.1005538E-05  0.2196946E+04  0.7818609E-02  0.8519700E-01
        1   -1    0    0  501    0  0.00000000000E+00  0.00000000000E+00  0.18942510803E+04  0.18942510804E+04  0.50400001928E-02 0.  1.
       -1   -1    0    0    0  501  0.00000000000E+00  0.00000000000E+00 -0.63700252001E+03  0.63700252003E+03  0.50400001928E-02 0. -1.
    10030    2    1    2    0    0  0.00000000000E+00  0.00000000000E+00  0.12572485603E+04  0.25312536004E+04  0.21969457997E+04 0.  0.
        3    1    3    3  502    0  0.14071573631E+03 -0.34838627956E+03  0.18179113047E+04  0.18563338708E+04  0.10100000352E+00 0.  1.
       -3    1    3    3    0  502 -0.14071573631E+03  0.34838627956E+03 -0.56066274433E+03  0.67491972953E+03  0.10100000352E+00 0. -1.
</event>
<event>
 5   0  0.1049198E-05  0.2182022E+04  0.7818609E-02  0.8525948E-01
        1   -1    0    0  501    0  0.00000000000E+00  0.00000000000E+00  0.93156517440E+03  0.93156517442E+03  0.50400001928E-02 0.  1.
       -1   -1    0    0    0  501  0.00000000000E+00  0.00000000000E+00 -0.12777474912E+04  0.12777474912E+04  0.50400001928E-02 0. -1.
    10030    2    1    2    0    0  0.00000000000E+00  0.00000000000E+00 -0.34618231677E+03  0.22093126656E+04  0.21820220572E+04 0.  0.
        1    1    3    3  502    0  0.32750113967E+03  0.75674454664E+03  0.55025689984E+03  0.99131325080E+03  0.50400001928E-02 0.  1.
       -1    1    3    3    0  502 -0.32750113967E+03 -0.75674454664E+03 -0.89643921661E+03  0.12179994148E+04  0.50400001928E-02 0. -1.
</event>
<event>
 5   0  0.8003875E-06  0.2200557E+04  0.7818609E-02  0.8518196E-01
        3   -1    0    0  501    0  0.00000000000E+00  0.00000000000E+00  0.85209471955E+03  0.85209472553E+03  0.10100000352E+00 0.  1.
       -3   -1    0    0    0  501  0.00000000000E+00  0.00000000000E+00 -0.14207489888E+04  0.14207489924E+04  0.10100000352E+00 0. -1.
    10030    2    1    2    0    0  0.00000000000E+00  0.00000000000E+00 -0.56865426922E+03  0.22728437179E+04  0.22005569495E+04 0.  0.
        4    1    3    3  502    0  0.29060966448E+03 -0.35847987689E+03  0.74730750272E+03  0.87831196948E+03  0.12699999809E+01 0.  1.
       -4    1    3    3    0  502 -0.29060966448E+03  0.35847987689E+03 -0.13159617719E+04  0.13945317484E+04  0.12699999809E+01 0. -1.
</event>
<event>
 5   0  0.1049198E-05  0.2196846E+04  0.7818609E-02  0.8519742E-01
       -1   -1    0    0    0  501  0.00000000000E+00  0.00000000000E+00  0.47827871640E+03  0.47827871643E+03  0.50400001928E-02 0.  1.
        1   -1    0    0  501    0  0.00000000000E+00  0.00000000000E+00 -0.25226558849E+04  0.25226558849E+04  0.50400001928E-02 0. -1.
    10030    2    1    2    0    0  0.00000000000E+00  0.00000000000E+00 -0.20443771685E+04  0.30009346013E+04  0.21968455736E+04 0.  0.
        1    1    3    3  502    0 -0.24851564636E+03 -0.45426315979E+03 -0.23454786974E+04  0.24019544885E+04  0.50400001928E-02 0. -1.
       -1    1    3    3    0  502  0.24851564636E+03  0.45426315979E+03  0.30110152891E+03  0.59898011283E+03  0.50400001928E-02 0.  1.
</event>
<event>
 5   0  0.1071208E-05  0.2144617E+04  0.7818609E-02  0.8541840E-01
        1   -1    0    0  501    0  0.00000000000E+00  0.00000000000E+00  0.19452039547E+04  0.19452039548E+04  0.50400001928E-02 0.  1.
       -1   -1    0    0    0  501  0.00000000000E+00  0.00000000000E+00 -0.59111812464E+03  0.59111812467E+03  0.50400001928E-02 0. -1.
    10030    2    1    2    0    0  0.00000000000E+00  0.00000000000E+00  0.13540858301E+04  0.25363220794E+04  0.21446168085E+04 0.  0.
        4    1    3    3  502    0 -0.90725449028E+03  0.55625531149E+03  0.52143162525E+03  0.11850836403E+04  0.12699999809E+01 0. -1.
       -4    1    3    3    0  502  0.90725449028E+03 -0.55625531149E+03  0.83265420486E+03  0.13512384392E+04  0.12699999809E+01 0.  1.
</event>
<event>
 5   0  0.1005538E-05  0.2236752E+04  0.7818609E-02  0.8503285E-01
        1   -1    0    0  501    0  0.00000000000E+00  0.00000000000E+00  0.13953990073E+04  0.13953990073E+04  0.50400001928E-02 0. -1.
       -1   -1    0    0    0  501  0.00000000000E+00  0.00000000000E+00 -0.89634924960E+03  0.89634924961E+03  0.50400001928E-02 0.  1.
    10030    2    1    2    0    0  0.00000000000E+00  0.00000000000E+00  0.49904975768E+03  0.22917482569E+04  0.22367519783E+04 0.  0.
        3    1    3    3  502    0 -0.75774155861E+03  0.48154021098E+03  0.93278851488E+03  0.12946612175E+04  0.10100000352E+00 0. -1.
       -3    1    3    3    0  502  0.75774155861E+03 -0.48154021098E+03 -0.43373875720E+03  0.99708703939E+03  0.10100000352E+00 0.  1.
</event>
<event>
 5   0  0.2298329E-05  0.2192914E+04  0.7818609E-02  0.8521383E-01
       -2   -1    0    0    0  501  0.00000000000E+00  0.00000000000E+00  0.70480043438E+03  0.70480043438E+03  0.25500000920E-02 0. -1.
        2   -1    0    0  501    0  0.00000000000E+00  0.00000000000E+00 -0.17057558618E+04  0.17057558618E+04  0.25500000920E-02 0.  1.
    10030    2    1    2    0    0  0.00000000000E+00  0.00000000000E+00 -0.10009554274E+04  0.24105562962E+04  0.21929135617E+04 0.  0.
        4    1    3    3  502    0  0.10630783290E+04 -0.25499130353E+03 -0.40811625992E+03  0.11669261301E+04  0.12699999809E+01 0. -1.
       -4    1    3    3    0  502 -0.10630783290E+04  0.25499130353E+03 -0.59283916747E+03  0.12436301661E+04  0.12699999809E+01 0.  1.
</event>
<event>
 5   0  0.1007682E-05  0.2194308E+04  0.7818609E-02  0.8520801E-01
       -1   -1    0    0    0  501  0.00000000000E+00  0.00000000000E+00  0.19289051280E+04  0.19289051281E+04  0.50400001928E-02 0. -1.
        1   -1    0    0  501    0  0.00000000000E+00  0.00000000000E+00 -0.62405726839E+03  0.62405726841E+03  0.50400001928E-02 0.  1.
    10030    2    1    2    0    0  0.00000000000E+00  0.00000000000E+00  0.13048478597E+04  0.25529623965E+04  0.21943083331E+04 0.  0.
        2    1    3    3  502    0  0.13105391349E+03  0.20215620792E+03  0.18977502602E+04  0.19129815239E+04  0.25500000920E-02 0. -1.
       -2    1    3    3    0  502 -0.13105391349E+03 -0.20215620792E+03 -0.59290240056E+03  0.63998087256E+03  0.25500000920E-02 0.  1.
</event>
<event>
 5   0  0.1005538E-05  0.2193095E+04  0.7818609E-02  0.8521307E-01
        1   -1    0    0  501    0  0.00000000000E+00  0.00000000000E+00  0.16931168842E+04  0.16931168842E+04  0.50400001928E-02 0.  1.
       -1   -1    0    0    0  501  0.00000000000E+00  0.00000000000E+00 -0.71017948221E+03  0.71017948223E+03  0.50400001928E-02 0. -1.
    10030    2    1    2    0    0  0.00000000000E+00  0.00000000000E+00  0.98293740198E+03  0.24032963664E+04  0.21930954126E+04 0.  0.
        3    1    3    3  502    0  0.87210957216E+03 -0.12582330667E+03  0.12067219323E+04  0.14941835370E+04  0.10100000352E+00 0.  1.
       -3    1    3    3    0  502 -0.87210957216E+03  0.12582330667E+03 -0.22378453029E+03  0.90911282939E+03  0.10100000352E+00 0. -1.
</event>
<event>
 5   0  0.2289708E-05  0.2193090E+04  0.7818609E-02  0.8521310E-01
        2   -1    0    0  501    0  0.00000000000E+00  0.00000000000E+00  0.96396217004E+03  0.96396217004E+03  0.25500000920E-02 0. -1.
       -2   -1    0    0    0  501  0.00000000000E+00  0.00000000000E+00 -0.12473633893E+04  0.12473633893E+04  0.25500000920E-02 0.  1.
    10030    2    1    2    0    0  0.00000000000E+00  0.00000000000E+00 -0.28340121924E+03  0.22113255593E+04  0.21930901665E+04 0.  0.
        5    1    3    3  502    0  0.90907355089E+03 -0.54814362650E+03 -0.41878157758E+03  0.11411731928E+04  0.46999998093E+01 0. -1.
       -5    1    3    3    0  502 -0.90907355089E+03  0.54814362650E+03  0.13538035834E+03  0.10701523665E+04  0.46999998093E+01 0.  1.
</event>
<event>
 5   0  0.1007682E-05  0.2197980E+04  0.7818609E-02  0.8519270E-01
        1   -1    0    0  501    0  0.00000000000E+00  0.00000000000E+00  0.22318498555E+04  0.22318498555E+04  0.50400001928E-02 0.  1.
       -1   -1    0    0    0  501  0.00000000000E+00  0.00000000000E+00 -0.54115583375E+03  0.54115583377E+03  0.50400001928E-02 0. -1.
    10030    2    1    2    0    0  0.00000000000E+00  0.00000000000E+00  0.16906940217E+04  0.27730056893E+04  0.21979795899E+04 0.  0.
        2    1    3    3  502    0  0.78739928134E+03 -0.35932322593E+03  0.16997764682E+04  0.19074461594E+04  0.25500000920E-02 0.  1.
       -2    1    3    3    0  502 -0.78739928134E+03  0.35932322593E+03 -0.90824464966E+01  0.86555952989E+03  0.25500000920E-02 0. -1.
</event>
<event>
 5   0  0.1033733E-05  0.2132846E+04  0.7818609E-02  0.8546911E-01
        1   -1    0    0  501    0  0.00000000000E+00  0.00000000000E+00  0.14120566546E+04  0.14120566546E+04  0.50400001928E-02 0.  1.
       -1   -1    0    0    0  501  0.00000000000E+00  0.00000000000E+00 -0.80539153089E+03  0.80539153091E+03  0.50400001928E-02 0. -1.
    10030    2    1    2    0    0  0.00000000000E+00  0.00000000000E+00  0.60666512367E+03  0.22174481855E+04  0.21328464274E+04 0.  0.
        5    1    3    3  502    0 -0.60974145467E+03 -0.70192850258E+03  0.84630123668E+03  0.12572732947E+04  0.46999998093E+01 0. -1.
       -5    1    3    3    0  502  0.60974145467E+03  0.70192850258E+03 -0.23963611301E+03  0.96017489081E+03  0.46999998093E+01 0.  1.
</event>
<event>
 5   0  0.1033733E-05  0.2199482E+04  0.7818609E-02  0.8518644E-01
       -1   -1    0    0    0  501  0.00000000000E+00  0.00000000000E+00  0.10184244780E+04  0.10184244780E+04  0.50400001928E-02 0.  1.
        1   -1    0    0  501    0  0.00000000000E+00  0.00000000000E+00 -0.11875500965E+04  0.11875500965E+04  0.50400001928E-02 0. -1.
    10030    2    1    2    0    0  0.00000000000E+00  0.00000000000E+00 -0.16912561845E+03  0.22059745745E+04  0.21994818364E+04 0.  0.
        5    1    3    3  502    0  0.52927611666E+03  0.88541632945E+03  0.29776151388E+03  0.10736755996E+04  0.46999998093E+01 0. -1.
       -5    1    3    3    0  502 -0.52927611666E+03 -0.88541632945E+03 -0.46688713233E+03  0.11322989749E+04  0.46999998093E+01 0.  1.
</event>
<event>
 5   0  0.2284329E-05  0.2196173E+04  0.7818609E-02  0.8520023E-01
       -2   -1    0    0    0  501  0.00000000000E+00  0.00000000000E+00  0.21636362280E+04  0.21636362280E+04  0.25500000920E-02 0. -1.
        2   -1    0    0  501    0  0.00000000000E+00  0.00000000000E+00 -0.55729996940E+03  0.55729996940E+03  0.25500000920E-02 0.  1.
    10030    2    1    2    0    0  0.00000000000E+00  0.00000000000E+00  0.16063362586E+04  0.27209361974E+04  0.21961734027E+04 0.  0.
        2    1    3    3  502    0 -0.20148100900E+03  0.95683096889E+03  0.14222365550E+04  0.17259423277E+04  0.25500000920E-02 0. -1.
       -2    1    3    3    0  502  0.20148100900E+03 -0.95683096889E+03  0.18409970363E+03  0.99499386978E+03  0.25500000920E-02 0.  1.
</event>
<event>
 5   0  0.2284329E-05  0.2208242E+04  0.7818609E-02  0.8515005E-01
        2   -1    0    0  501    0  0.00000000000E+00  0.00000000000E+00  0.16243403895E+04  0.16243403895E+04  0.25500000920E-02 0.  1.
       -2   -1    0    0    0  501  0.00000000000E+00  0.00000000000E+00 -0.75050980061E+03  0.75050980061E+03  0.25500000920E-02 0. -1.
    10030    2    1    2    0    0  0.00000000000E+00  0.00000000000E+00  0.87383058893E+03  0.23748501902E+04  0.22082421805E+04 0.  0.
        2    1    3    3  502    0  0.13393429227E+03 -0.30661159112E+03 -0.69467619938E+03  0.77105387908E+03  0.25500000920E-02 0. -1.
       -2    1    3    3    0  502 -0.13393429227E+03  0.30661159112E+03  0.15685067883E+04  0.16037963111E+04  0.25500000920E-02 0.  1.
</event>
<event>
 5   0  0.2289708E-05  0.2193784E+04  0.7818609E-02  0.8521020E-01
       -2   -1    0    0    0  501  0.00000000000E+00  0.00000000000E+00  0.74488026386E+03  0.74488026387E+03  0.25500000920E-02 0. -1.
        2   -1    0    0  501    0  0.00000000000E+00  0.00000000000E+00 -0.16152552354E+04  0.16152552354E+04  0.25500000920E-02 0.  1.
    10030    2    1    2    0    0  0.00000000000E+00  0.00000000000E+00 -0.87037497155E+03  0.23601354993E+04  0.21937837140E+04 0.  0.
        5    1    3    3  502    0  0.47789371963E+03  0.98318888957E+03 -0.53205303872E+03  0.12157900007E+04  0.46999998093E+01 0.  1.
       -5    1    3    3    0  502 -0.47789371963E+03 -0.98318888957E+03 -0.33832193283E+03  0.11443454986E+04  0.46999998093E+01 0. -1.
</event>
<event>
 5   0  0.2298329E-05  0.2198600E+04  0.7818609E-02  0.8519011E-01
       -2   -1    0    0    0  501  0.00000000000E+00  0.00000000000E+00  0.95399761173E+03  0.95399761173E+03  0.25500000920E-02 0.  1.
        2   -1    0    0  501    0  0.00000000000E+00  0.00000000000E+00 -0.12667336280E+04  0.12667336280E+04  0.25500000920E-02 0. -1.
    10030    2    1    2    0    0  0.00000000000E+00  0.00000000000E+00 -0.31273601627E+03  0.22207312397E+04  0.21986003328E+04 0.  0.
        4    1    3    3  502    0 -0.92981239985E+03  0.27272148643E+03  0.36802172784E+03  0.10365180718E+04  0.12699999809E+01 0.  1.
       -4    1    3    3    0  502  0.92981239985E+03 -0.27272148643E+03 -0.68075774410E+03  0.11842131679E+04  0.12699999809E+01 0. -1.
</event>
<event>
 5   0  0.1049198E-05  0.2193927E+04  0.7818609E-02  0.8520960E-01
       -1   -1    0    0    0  501  0.00000000000E+00  0.00000000000E+00  0.45901822087E+03  0.45901822090E+03  0.50400001928E-02 0.  1.
        1   -1    0    0  501    0  0.00000000000E+00  0.00000000000E+00 -0.26215282601E+04  0.26215282601E+04  0.50400001928E-02 0. -1.
    10030    2    1    2    0    0  0.00000000000E+00  0.00000000000E+00 -0.21625100392E+04  0.30805464810E+04  0.21939272896E+04 0.  0.
        1    1    3    3  502    0  0.94745963742E+03  0.51445328285E+03 -0.79698559215E+03  0.13407192021E+04  0.50400001928E-02 0.  1.
       -1    1    3    3    0  502 -0.94745963742E+03 -0.51445328285E+03 -0.13655244471E+04  0.17398272789E+04  0.50400001928E-02 0. -1.
</event>
<event>
 5   0  0.2298329E-05  0.2207566E+04  0.7818609E-02  0.8515286E-01
        2   -1    0    0  501    0  0.00000000000E+00  0.00000000000E+00  0.14508115065E+04  0.14508115065E+04  0.25500000920E-02 0. -1.
       -2   -1    0    0    0  501  0.00000000000E+00  0.00000000000E+00 -0.83976219818E+03  0.83976219819E+03  0.25500000920E-02 0.  1.
    10030    2    1    2    0    0  0.00000000000E+00  0.00000000000E+00  0.61104930832E+03  0.22905737047E+04  0.22075657724E+04 0.  0.
        4    1    3    3  502    0 -0.34491771456E+03  0.53821501739E+02 -0.78097353862E+03  0.85544506824E+03  0.12699999809E+01 0.  1.
       -4    1    3    3    0  502  0.34491771456E+03 -0.53821501739E+02  0.13920228469E+04  0.14351286365E+04  0.12699999809E+01 0. -1.
</event>
<event>
 5   0  0.1071208E-05  0.2227498E+04  0.7818609E-02  0.8507069E-01
       -1   -1    0    0    0  501  0.00000000000E+00  0.00000000000E+00  0.51387008150E+03  0.51387008152E+03  0.50400001928E-02 0.  1.
        1   -1    0    0  501    0  0.00000000000E+00  0.00000000000E+00 -0.24139107570E+04  0.24139107570E+04  0.50400001928E-02 0. -1.
    10030    2    1    2    0    0  0.00000000000E+00  0.00000000000E+00 -0.19000406755E+04  0.29277808385E+04  0.22274977149E+04 0.  0.
        4    1    3    3  502    0  0.91733926175E+03 -0.45628022899E+03 -0.15240482433E+04  0.18364170630E+04  0.12699999809E+01 0.  1.
       -4    1    3    3    0  502 -0.91733926175E+03  0.45628022899E+03 -0.37599243221E+03  0.10913637755E+04  0.12699999809E+01 0. -1.
</event>
<event>
 5   0  0.2229552E-05  0.2209743E+04  0.7818609E-02  0.8514384E-01
       -2   -1    0    0    0  501  0.00000000000E+00  0.00000000000E+00  0.57846843372E+03  0.57846843373E+03  0.25500000920E-02 0. -1.
        2   -1    0    0  501    0  0.00000000000E+00  0.00000000000E+00 -0.21102984399E+04  0.21102984399E+04  0.25500000920E-02 0.  1.
    10030    2    1    2    0    0  0.00000000000E+00  0.00000000000E+00 -0.15318300062E+04  0.26887668737E+04  0.22097430016E+04 0.  0.
        1    1    3    3  502    0  0.29348472246E+03 -0.48122109713E+03 -0.19221961230E+04  0.20031337853E+04  0.50400001928E-02 0.  1.
       -1    1    3    3    0  502 -0.29348472246E+03  0.48122109713E+03  0.39036611680E+03  0.68563308833E+03  0.50400001928E-02 0. -1.
</event>
<event>
 5   0  0.1005538E-05  0.2204324E+04  0.7818609E-02  0.8516631E-01
        1   -1    0    0  501    0  0.00000000000E+00  0.00000000000E+00  0.30112509600E+04  0.30112509600E+04  0.50400001928E-02 0.  1.
       -1   -1    0    0    0  501  0.00000000000E+00  0.00000000000E+00 -0.40340737189E+03  0.40340737193E+03  0.50400001928E-02 0. -1.
    10030    2    1    2    0    0  0.00000000000E+00  0.00000000000E+00  0.26078435881E+04  0.34146583319E+04  0.22043237838E+04 0.  0.
        3    1    3    3  502    0 -0.74886926728E+03 -0.33333971280E+03  0.24452430411E+04  0.25789792717E+04  0.10100000352E+00 0.  1.
       -3    1    3    3    0  502  0.74886926728E+03  0.33333971280E+03  0.16260054699E+03  0.83567906022E+03  0.10100000352E+00 0. -1.
</event>
<event>
 5   0  0.2319707E-05  0.2324369E+04  0.7818609E-02  0.8468374E-01
       -2   -1    0    0    0  501  0.00000000000E+00  0.00000000000E+00  0.66318355820E+03  0.66318355821E+03  0.25500000920E-02 0. -1.
        2   -1    0    0  501    0  0.00000000000E+00  0.00000000000E+00 -0.20366498174E+04  0.20366498174E+04  0.25500000920E-02 0.  1.
    10030    2    1    2    0    0  0.00000000000E+00  0.00000000000E+00 -0.13734662592E+04  0.26998333756E+04  0.23243688801E+04 0.  0.
        3    1    3    3  502    0 -0.43986620351E+03  0.10504943537E+04 -0.41768816925E+03  0.12130474356E+04  0.10100000352E+00 0. -1.
       -3    1    3    3    0  502  0.43986620351E+03 -0.10504943537E+04 -0.95577808998E+03  0.14867859401E+04  0.10100000352E+00 0.  1.
</event>
<event>
 5   0  0.1033733E-05  0.2193603E+04  0.7818609E-02  0.8521095E-01
        1   -1    0    0  501    0  0.00000000000E+00  0.00000000000E+00  0.85682419456E+03  0.85682419457E+03  0.50400001928E-02 0.  1.
       -1   -1    0    0    0  501  0.00000000000E+00  0.00000000000E+00 -0.14039910389E+04  0.14039910389E+04  0.50400001928E-02 0. -1.
    10030    2    1    2    0    0  0.00000000000E+00  0.00000000000E+00 -0.54716684434E+03  0.22608152335E+04  0.21936029642E+04 0.  0.
        5    1    3    3  502    0 -0.53163197487E+03  0.72096089126E+03  0.37868577413E+03  0.97254417327E+03  0.46999998093E+01 0.  1.
       -5    1    3    3    0  502  0.53163197487E+03 -0.72096089126E+03 -0.92585261847E+03  0.12882710602E+04  0.46999998093E+01 0. -1.
</event>
<event>
 5   0  0.2229552E-05  0.2208012E+04  0.7818609E-02  0.8515101E-01
       -2   -1    0    0    0  501  0.00000000000E+00  0.00000000000E+00  0.35670134886E+03  0.35670134887E+03  0.25500000920E-02 0. -1.
        2   -1    0    0  501    0  0.00000000000E+00  0.00000000000E+00 -0.34169455293E+04  0.34169455293E+04  0.25500000920E-02 0.  1.
    10030    2    1    2    0    0  0.00000000000E+00  0.00000000000E+00 -0.30602441805E+04  0.37736468782E+04  0.22080118472E+04 0.  0.
        1    1    3    3  502    0  0.10507647620E+03  0.21654116426E+03  0.31131496769E+03  0.39350749777E+03  0.50400001928E-02 0. -1.
       -1    1    3    3    0  502 -0.10507647620E+03 -0.21654116426E+03 -0.33715591482E+04  0.33801393805E+04  0.50400001928E-02 0.  1.
</event>
<event>
 5   0  0.2319707E-05  0.2201164E+04  0.7818609E-02  0.8517944E-01
       -2   -1    0    0    0  501  0.00000000000E+00  0.00000000000E+00  0.23792046762E+04  0.23792046762E+04  0.25500000920E-02 0.  1.
        2   -1    0    0  501    0  0.00000000000E+00  0.00000000000E+00 -0.50911158433E+03  0.50911158433E+03  0.25500000920E-02 0. -1.
    10030    2    1    2    0    0  0.00000000000E+00  0.00000000000E+00  0.18700930919E+04  0.28883162605E+04  0.22011639304E+04 0.  0.
        3    1    3    3  502    0 -0.51842648784E+03  0.96500964121E+03  0.10743538821E+04  0.15343552082E+04  0.10100000352E+00 0.  1.
       -3    1    3    3    0  502  0.51842648784E+03 -0.96500964121E+03  0.79573920980E+03  0.13539610523E+04  0.10100000352E+00 0. -1.
</event>
<event>
 5   0  0.8003875E-06  0.2201941E+04  0.7818609E-02  0.8517620E-01
       -3   -1    0    0    0  501  0.00000000000E+00  0.00000000000E+00  0.12338379541E+04  0.12338379582E+04  0.10100000352E+00 0.  1.
        3   -1    0    0  501    0  0.00000000000E+00  0.00000000000E+00 -0.98241142782E+03  0.98241143301E+03  0.10100000352E+00 0. -1.
    10030    2    1    2    0    0  0.00000000000E+00  0.00000000000E+00  0.25142652626E+03  0.22162493912E+04  0.22019414311E+04 0.  0.
        4    1    3    3  502    0 -0.23850475335E+03 -0.64432131971E+03 -0.74016770188E+03  0.10098932222E+04  0.12699999809E+01 0. -1.
       -4    1    3    3    0  502  0.23850475335E+03  0.64432131971E+03  0.99159422814E+03  0.12063561690E+04  0.12699999809E+01 0.  1.
</event>
<event>
 5   0  0.1071208E-05  0.2191380E+04  0.7818609E-02  0.8522024E-01
       -1   -1    0    0    0  501  0.00000000000E+00  0.00000000000E+00  0.85063702225E+03  0.85063702227E+03  0.50400001928E-02 0. -1.
        1   -1    0    0  501    0  0.00000000000E+00  0.00000000000E+00 -0.14113385163E+04  0.14113385163E+04  0.50400001928E-02 0.  1.
    10030    2    1    2    0    0  0.00000000000E+00  0.00000000000E+00 -0.56070149401E+03  0.22619755385E+04  0.21913801979E+04 0.  0.
        4    1    3    3  502    0  0.63961795117E+03 -0.56180984163E+03 -0.99235000567E+03  0.13074790890E+04  0.12699999809E+01 0.  1.
       -4    1    3    3    0  502 -0.63961795117E+03  0.56180984163E+03  0.43164851166E+03  0.95449644951E+03  0.12699999809E+01 0. -1.
</event>
<event>
 5   0  0.1007682E-05  0.2201514E+04  0.7818609E-02  0.8517798E-01
        1   -1    0    0  501    0  0.00000000000E+00  0.00000000000E+00  0.82187884340E+03  0.82187884342E+03  0.50400001928E-02 0. -1.
       -1   -1    0    0    0  501  0.00000000000E+00  0.00000000000E+00 -0.14742636039E+04  0.14742636039E+04  0.50400001928E-02 0.  1.
    10030    2    1    2    0    0  0.00000000000E+00  0.00000000000E+00 -0.65238476051E+03  0.22961424473E+04  0.22015140842E+04 0.  0.
        2    1    3    3  502    0 -0.33846743037E+03  0.96967857414E+03  0.86846560735E+02  0.10307177420E+04  0.25500000920E-02 0. -1.
       -2    1    3    3    0  502  0.33846743037E+03 -0.96967857414E+03 -0.73923132125E+03  0.12654247053E+04  0.25500000920E-02 0.  1.
</event>
<event>
 5   0  0.2298329E-05  0.2175226E+04  0.7818609E-02  0.8528811E-01
        2   -1    0    0  501    0  0.00000000000E+00  0.00000000000E+00  0.18290841942E+04  0.18290841942E+04  0.25500000920E-02 0. -1.
       -2   -1    0    0    0  501  0.00000000000E+00  0.00000000000E+00 -0.64671848884E+03  0.64671848885E+03  0.25500000920E-02 0.  1.
    10030    2    1    2    0    0  0.00000000000E+00  0.00000000000E+00  0.11823657054E+04  0.24758026830E+04  0.21752264857E+04 0.  0.
        4    1    3    3  502    0  0.57205099573E+03  0.45621567232E+03  0.15070660873E+04  0.16752984468E+04  0.12699999809E+01 0. -1.
       -4    1    3    3    0  502 -0.57205099573E+03 -0.45621567232E+03 -0.32470038193E+03  0.80050423628E+03  0.12699999809E+01 0.  1.
</event>
<event>
 5   0  0.2229552E-05  0.2199299E+04  0.7818609E-02  0.8518720E-01
        2   -1    0    0  501    0  0.00000000000E+00  0.00000000000E+00  0.12121043356E+04  0.12121043356E+04  0.25500000920E-02 0. -1.
       -2   -1    0    0    0  501  0.00000000000E+00  0.00000000000E+00 -0.99762765339E+03  0.99762765339E+03  0.25500000920E-02 0.  1.
    10030    2    1    2    0    0  0.00000000000E+00  0.00000000000E+00  0.21447668218E+03  0.22097319890E+04  0.21992988009E+04 0.  0.
        1    1    3    3  502    0 -0.59545646742E+03  0.69406896247E+03 -0.50633750396E+03  0.10453122965E+04  0.50400001928E-02 0.  1.
       -1    1    3    3    0  502  0.59545646742E+03 -0.69406896247E+03  0.72081418614E+03  0.11644196925E+04  0.50400001928E-02 0. -1.
</event>
<event>
 5   0  0.1049198E-05  0.2254877E+04  0.7818609E-02  0.8495928E-01
        1   -1    0    0  501    0  0.00000000000E+00  0.00000000000E+00  0.10431810634E+04  0.10431810634E+04  0.50400001928E-02 0. -1.
       -1   -1    0    0    0  501  0.00000000000E+00  0.00000000000E+00 -0.12185013789E+04  0.12185013789E+04  0.50400001928E-02 0.  1.
    10030    2    1    2    0    0  0.00000000000E+00  0.00000000000E+00 -0.17532031555E+03  0.22616824423E+04  0.22548769937E+04 0.  0.
        1    1    3    3  502    0 -0.49400584227E+03  0.25925343118E+00  0.92884597540E+03  0.10520440511E+04  0.50400001928E-02 0. -1.
       -1    1    3    3    0  502  0.49400584227E+03 -0.25925343118E+00 -0.11041662910E+04  0.12096383912E+04  0.50400001928E-02 0.  1.
</event>
<event>
 5   0  0.2289708E-05  0.2199333E+04  0.7818609E-02  0.8518706E-01
        2   -1    0    0  501    0  0.00000000000E+00  0.00000000000E+00  0.11307343383E+04  0.11307343383E+04  0.25500000920E-02 0.  1.
       -2   -1    0    0    0  501  0.00000000000E+00  0.00000000000E+00 -0.10694519321E+04  0.10694519321E+04  0.25500000920E-02 0. -1.
    10030    2    1    2    0    0  0.00000000000E+00  0.00000000000E+00  0.61282406168E+02  0.22001862704E+04  0.21993326468E+04 0.  0.
        5    1    3    3  502    0 -0.52004314768E+03  0.96824713420E+03  0.66662739950E+02  0.11010964532E+04  0.46999998093E+01 0. -1.
       -5    1    3    3    0  502  0.52004314768E+03 -0.96824713420E+03 -0.53803337816E+01  0.10990898172E+04  0.46999998093E+01 0.  1.
</event>
<event>
 5   0  0.1071208E-05  0.2193492E+04  0.7818609E-02  0.8521142E-01
        1   -1    0    0  501    0  0.00000000000E+00  0.00000000000E+00  0.25115750549E+04  0.25115750549E+04  0.50400001928E-02 0.  1.
       -1   -1    0    0    0  501  0.00000000000E+00  0.00000000000E+00 -0.47892313867E+03  0.47892313870E+03  0.50400001928E-02 0. -1.
    10030    2    1    2    0    0  0.00000000000E+00  0.00000000000E+00  0.20326519162E+04  0.29904981936E+04  0.21934916534E+04 0.  0.
        4    1    3    3  502    0  0.33533621883E+03  0.93405407148E+03  0.37985523694E+03  0.10626377567E+04  0.12699999809E+01 0. -1.
       -4    1    3    3    0  502 -0.33533621883E+03 -0.93405407148E+03  0.16527966793E+04  0.19278604369E+04  0.12699999809E+01 0.  1.
</event>
<event>
 5   0  0.1005538E-05  0.2193771E+04  0.7818609E-02  0.8521025E-01
        1   -1    0    0  501    0  0.00000000000E+00  0.00000000000E+00  0.16594994978E+04  0.16594994978E+04  0.50400001928E-02 0.  1.
       -1   -1    0    0    0  501  0.00000000000E+00  0.00000000000E+00 -0.72501255225E+03  0.72501255227E+03  0.50400001928E-02 0. -1.
    10030    2    1    2    0    0  0.00000000000E+00  0.00000000000E+00  0.93448694554E+03  0.23845120501E+04  0.21937711516E+04 0.  0.
        3    1    3    3  502    0 -0.61080464304E+03 -0.11438880799E+03 -0.51522086562E+03  0.80722962156E+03  0.10100000352E+00 0. -1.
       -3    1    3    3    0  502  0.61080464304E+03  0.11438880799E+03  0.14497078112E+04  0.15772824285E+04  0.10100000352E+00 0.  1.
</event>
<event>
 5   0  0.1007682E-05  0.2188156E+04  0.7818609E-02  0.8523374E-01
        1   -1    0    0  501    0  0.00000000000E+00  0.00000000000E+00  0.87693858211E+03  0.87693858212E+03  0.50400001928E-02 0.  1.
       -1   -1    0    0    0  501  0.00000000000E+00  0.00000000000E+00 -0.13649836418E+04  0.13649836418E+04  0.50400001928E-02 0. -1.
    10030    2    1    2    0    0  0.00000000000E+00  0.00000000000E+00 -0.48804505964E+03  0.22419222239E+04  0.21881561365E+04 0.  0.
        2    1    3    3  502    0 -0.31146691144E+03 -0.10134002408E+04 -0.52087517574E+03  0.11812292892E+04  0.25500000920E-02 0.  1.
       -2    1    3    3    0  502  0.31146691144E+03  0.10134002408E+04  0.32830116092E+02  0.10606929346E+04  0.25500000920E-02 0. -1.
</event>
<event>
 5   0  0.2298329E-05  0.2232107E+04  0.7818609E-02  0.8505182E-01
       -2   -1    0    0    0  501  0.00000000000E+00  0.00000000000E+00  0.12383963561E+04  0.12383963561E+04  0.25500000920E-02 0.  1.
        2   -1    0    0  501    0  0.00000000000E+00  0.00000000000E+00 -0.10057970100E+04  0.10057970100E+04  0.25500000920E-02 0. -1.
    10030    2    1    2    0    0  0.00000000000E+00  0.00000000000E+00  0.23259934610E+03  0.22441933661E+04  0.22321069438E+04 0.  0.
        4    1    3    3  502    0  0.11066192873E+04  0.13934265858E+03  0.15589713662E+03  0.11262007608E+04  0.12699999809E+01 0.  1.
       -4    1    3    3    0  502 -0.11066192873E+04 -0.13934265858E+03  0.76702209488E+02  0.11179926053E+04  0.12699999809E+01 0. -1.
</event>
<event>
 5   0  0.1049198E-05  0.2189102E+04  0.7818609E-02  0.8522978E-01
       -1   -1    0    0    0  501  0.00000000000E+00  0.00000000000E+00  0.57376004643E+03  0.57376004645E+03  0.50400001928E-02 0.  1.
        1   -1    0    0  501    0  0.00000000000E+00  0.00000000000E+00 -0.20880540547E+04  0.20880540547E+04  0.50400001928E-02 0. -1.
    10030    2    1    2    0    0  0.00000000000E+00  0.00000000000E+00 -0.15142940082E+04  0.26618141011E+04  0.21891020912E+04 0.  0.
        1    1    3    3  502    0  0.10471976232E+04 -0.19393880941E+02 -0.11436606542E+04  0.15507929187E+04  0.50400001928E-02 0.  1.
       -1    1    3    3    0  502 -0.10471976232E+04  0.19393880941E+02 -0.37063335397E+03  0.11110211824E+04  0.50400001928E-02 0. -1.
</event>
<event>
 5   0  0.1005538E-05  0.2199233E+04  0.7818609E-02  0.8518747E-01
       -1   -1    0    0    0  501  0.00000000000E+00  0.00000000000E+00  0.50890694621E+03  0.50890694624E+03  0.50400001928E-02 0. -1.
        1   -1    0    0  501    0  0.00000000000E+00  0.00000000000E+00 -0.23759875949E+04  0.23759875949E+04  0.50400001928E-02 0.  1.
    10030    2    1    2    0    0  0.00000000000E+00  0.00000000000E+00 -0.18670806487E+04  0.28848945411E+04  0.21992331311E+04 0.  0.
        3    1    3    3  502    0 -0.11800124350E+02 -0.44637816152E+03 -0.22517017159E+04  0.22955507691E+04  0.10100000352E+00 0.  1.
       -3    1    3    3    0  502  0.11800124350E+02  0.44637816152E+03  0.38462106725E+03  0.58934377199E+03  0.10100000352E+00 0. -1.
</event>
<event>
 5   0  0.2284329E-05  0.2186416E+04  0.7818609E-02  0.8524103E-01
       -2   -1    0    0    0  501  0.00000000000E+00  0.00000000000E+00  0.97264362236E+03  0.97264362236E+03  0.25500000920E-02 0.  1.
        2   -1    0    0  501    0  0.00000000000E+00  0.00000000000E+00 -0.12287170731E+04  0.12287170731E+04  0.25500000920E-02 0. -1.
    10030    2    1    2    0    0  0.00000000000E+00  0.00000000000E+00 -0.25607345071E+03  0.22013606954E+04  0.21864160856E+04 0.  0.
        2    1    3    3  502    0  0.88602055020E+03  0.30416191089E+03 -0.69541042364E+03  0.11666801364E+04  0.25500000920E-02 0. -1.
       -2    1    3    3    0  502 -0.88602055020E+03 -0.30416191089E+03  0.43933697293E+03  0.10346805590E+04  0.25500000920E-02 0.  1.
</event>
<event>
 5   0  0.2298329E-05  0.2172557E+04  0.7818609E-02  0.8529938E-01
        2   -1    0    0  501    0  0.00000000000E+00  0.00000000000E+00  0.68185400636E+03  0.68185400636E+03  0.25500000920E-02 0.  1.
       -2   -1    0    0    0  501  0.00000000000E+00  0.00000000000E+00 -0.17305768000E+04  0.17305768000E+04  0.25500000920E-02 0. -1.
    10030    2    1    2    0    0  0.00000000000E+00  0.00000000000E+00 -0.10487227936E+04  0.24124308064E+04  0.21725567651E+04 0.  0.
        4    1    3    3  502    0  0.31951224357E+02  0.58824553188E+03 -0.15377873140E+04  0.16467680840E+04  0.12699999809E+01 0. -1.
       -4    1    3    3    0  502 -0.31951224357E+02 -0.58824553188E+03  0.48906452032E+03  0.76566272239E+03  0.12699999809E+01 0.  1.
</event>
<event>
 5   0  0.1033733E-05  0.2194135E+04  0.7818609E-02  0.8520873E-01
       -1   -1    0    0    0  501  0.00000000000E+00  0.00000000000E+00  0.16464928031E+04  0.16464928031E+04  0.50400001928E-02 0. -1.
        1   -1    0    0  501    0  0.00000000000E+00  0.00000000000E+00 -0.73098224336E+03  0.73098224338E+03  0.50400001928E-02 0.  1.
    10030    2    1    2    0    0  0.00000000000E+00  0.00000000000E+00  0.91551055978E+03  0.23774750465E+04  0.21941349119E+04 0.  0.
        5    1    3    3  502    0  0.20301074936E+03 -0.10139132473E+04  0.60661548093E+02  0.10358259269E+04  0.46999998093E+01 0. -1.
       -5    1    3    3    0  502 -0.20301074936E+03  0.10139132473E+04  0.85484901169E+03  0.13416491196E+04  0.46999998093E+01 0.  1.
</event>
<event>
 5   0  0.2298329E-05  0.2194200E+04  0.7818609E-02  0.8520846E-01
       -2   -1    0    0    0  501  0.00000000000E+00  0.00000000000E+00  0.88004336007E+03  0.88004336007E+03  0.25500000920E-02 0. -1.
        2   -1    0    0  501    0  0.00000000000E+00  0.00000000000E+00 -0.13676925506E+04  0.13676925506E+04  0.25500000920E-02 0.  1.
    10030    2    1    2    0    0  0.00000000000E+00  0.00000000000E+00 -0.48764919055E+03  0.22477359107E+04  0.21942003079E+04 0.  0.
        4    1    3    3  502    0  0.34674693856E+03  0.19362772828E+03  0.80382128329E+03  0.89657983745E+03  0.12699999809E+01 0. -1.
       -4    1    3    3    0  502 -0.34674693856E+03 -0.19362772828E+03 -0.12914704738E+04  0.13511560732E+04  0.12699999809E+01 0.  1.
</event>
<event>
 5   0  0.1007682E-05  0.2199167E+04  0.7818609E-02  0.8518775E-01
        1   -1    0    0  501    0  0.00000000000E+00  0.00000000000E+00  0.99584256876E+03  0.99584256878E+03  0.50400001928E-02 0. -1.
       -1   -1    0    0    0  501  0.00000000000E+00  0.00000000000E+00 -0.12141313501E+04  0.12141313501E+04  0.50400001928E-02 0.  1.
    10030    2    1    2    0    0  0.00000000000E+00  0.00000000000E+00 -0.21828878129E+03  0.22099739188E+04  0.21991668263E+04 0.  0.
        2    1    3    3  502    0 -0.16414001470E+02  0.27699732855E+03 -0.11783687023E+04  0.12105989171E+04  0.25500000920E-02 0.  1.
       -2    1    3    3    0  502  0.16414001470E+02 -0.27699732855E+03  0.96007992100E+03  0.99937500177E+03  0.25500000920E-02 0. -1.
</event>
<event>
 5   0  0.2289708E-05  0.2189540E+04  0.7818609E-02  0.8522794E-01
       -2   -1    0    0    0  501  0.00000000000E+00  0.00000000000E+00  0.61714562983E+03  0.61714562984E+03  0.25500000920E-02 0. -1.
        2   -1    0    0  501    0  0.00000000000E+00  0.00000000000E+00 -0.19420404896E+04  0.19420404896E+04  0.25500000920E-02 0.  1.
    10030    2    1    2    0    0  0.00000000000E+00  0.00000000000E+00 -0.13248948597E+04  0.25591861194E+04  0.21895404094E+04 0.  0.
        5    1    3    3  502    0  0.40184391640E+03  0.85129906273E+03 -0.92528002387E+01  0.94143312649E+03  0.46999998093E+01 0. -1.
       -5    1    3    3    0  502 -0.40184391640E+03 -0.85129906273E+03 -0.13156420595E+04  0.16177529929E+04  0.46999998093E+01 0.  1.
</event>
<event>
 5   0  0.1071208E-05  0.2135806E+04  0.7818609E-02  0.8545632E-01
       -1   -1    0    0    0  501  0.00000000000E+00  0.00000000000E+00  0.11806154077E+04  0.11806154077E+04  0.50400001928E-02 0.  1.
        1   -1    0    0  501    0  0.00000000000E+00  0.00000000000E+00 -0.96595124013E+03  0.96595124014E+03  0.50400001928E-02 0. -1.
    10030    2    1    2    0    0  0.00000000000E+00  0.00000000000E+00  0.21466416758E+03  0.21465666479E+04  0.21358060935E+04 0.  0.
        4    1    3    3  502    0  0.33184315491E+03 -0.84436881641E+03  0.67349670167E+03  0.11299017646E+04  0.12699999809E+01 0.  1.
       -4    1    3    3    0  502 -0.33184315491E+03  0.84436881641E+03 -0.45883253409E+03  0.10166648832E+04  0.12699999809E+01 0. -1.
</event>
<event>
 5   0  0.2319707E-05  0.2204523E+04  0.7818609E-02  0.8516548E-01
        2   -1    0    0  501    0  0.00000000000E+00  0.00000000000E+00  0.14670403453E+04  0.14670403453E+04  0.25500000920E-02 0.  1.
       -2   -1    0    0    0  501  0.00000000000E+00  0.00000000000E+00 -0.82818458399E+03  0.82818458399E+03  0.25500000920E-02 0. -1.
    10030    2    1    2    0    0  0.00000000000E+00  0.00000000000E+00  0.63885576129E+03  0.22952249293E+04  0.22045228037E+04 0.  0.
        3    1    3    3  502    0  0.69112381774E+03 -0.16578732691E+03 -0.55775812015E+03  0.90345542226E+03  0.10100000352E+00 0. -1.
       -3    1    3    3    0  502 -0.69112381774E+03  0.16578732691E+03  0.11966138814E+04  0.13917695070E+04  0.10100000352E+00 0.  1.
</event>
<event>
 5   0  0.8003875E-06  0.2194975E+04  0.7818609E-02  0.8520522E-01
       -4   -1    0    0    0  501  0.00000000000E+00  0.00000000000E+00  0.13195769195E+04  0.13195775307E+04  0.12699999809E+01 0.  1.
        4   -1    0    0  501    0  0.00000000000E+00  0.00000000000E+00 -0.91277560474E+03  0.91277648825E+03  0.12699999809E+01 0. -1.
    10030    2    1    2    0    0  0.00000000000E+00  0.00000000000E+00  0.40680131477E+03  0.22323540189E+04  0.21949754340E+04 0.  0.
        5    1    3    3  502    0  0.10264988955E+04 -0.31491265096E+03  0.43439670352E+03  0.11582713612E+04  0.46999998093E+01 0.  1.
       -5    1    3    3    0  502 -0.10264988955E+04  0.31491265096E+03 -0.27595388747E+02  0.10740826577E+04  0.46999998093E+01 0. -1.
</event>
<event>
 5   0  0.2284329E-05  0.2199125E+04  0.7818609E-02  0.8518793E-01
       -2   -1    0    0    0  501  0.00000000000E+00  0.00000000000E+00  0.99455361189E+03  0.99455361190E+03  0.25500000920E-02 0.  1.
        2   -1    0    0  501    0  0.00000000000E+00  0.00000000000E+00 -0.12156582740E+04  0.12156582740E+04  0.25500000920E-02 0. -1.
    10030    2    1    2    0    0  0.00000000000E+00  0.00000000000E+00 -0.22110466215E+03  0.22102118859E+04  0.21991246688E+04 0.  0.
        2    1    3    3  502    0  0.39389447997E+03 -0.94437775547E+03  0.29401297678E+03  0.10646341329E+04  0.25500000920E-02 0.  1.
       -2    1    3    3    0  502 -0.39389447997E+03  0.94437775547E+03 -0.51511763892E+03  0.11455777531E+04  0.25500000920E-02 0. -1.
</event>
<event>
 5   0  0.8003875E-06  0.2191521E+04  0.7818609E-02  0.8521966E-01
       -3   -1    0    0    0  501  0.00000000000E+00  0.00000000000E+00  0.96855084488E+03  0.96855085015E+03  0.10100000352E+00 0. -1.
        3   -1    0    0  501    0  0.00000000000E+00  0.00000000000E+00 -0.12396779461E+04  0.12396779502E+04  0.10100000352E+00 0.  1.
    10030    2    1    2    0    0  0.00000000000E+00  0.00000000000E+00 -0.27112710119E+03  0.22082288003E+04  0.21915210539E+04 0.  0.
        3    1    3    3  502    0 -0.67006901849E+03  0.77193673850E+02  0.73458234210E+03  0.99727758440E+03  0.10100000352E+00 0. -1.
       -3    1    3    3    0  502  0.67006901849E+03 -0.77193673850E+02 -0.10057094433E+04  0.12109512159E+04  0.10100000352E+00 0.  1.
</event>
<event>
 5   0  0.2298329E-05  0.2200010E+04  0.7818609E-02  0.8518424E-01
        2   -1    0    0  501    0  0.00000000000E+00  0.00000000000E+00  0.25582024538E+04  0.25582024538E+04  0.25500000920E-02 0.  1.
       -2   -1    0    0    0  501  0.00000000000E+00  0.00000000000E+00 -0.47299260004E+03  0.47299260005E+03  0.25500000920E-02 0. -1.
    10030    2    1    2    0    0  0.00000000000E+00  0.00000000000E+00  0.20852098538E+04  0.30311950539E+04  0.22000098455E+04 0.  0.
        4    1    3    3  502    0 -0.10140524065E+04 -0.41429203349E+03  0.11808607408E+04  0.16107060173E+04  0.12699999809E+01 0.  1.
       -4    1    3    3    0  502  0.10140524065E+04  0.41429203349E+03  0.90434911303E+03  0.14204890366E+04  0.12699999809E+01 0. -1.
</event>
<event>
 5   0  0.2289708E-05  0.2149240E+04  0.7818609E-02  0.8539858E-01
       -2   -1    0    0    0  501  0.00000000000E+00  0.00000000000E+00  0.19861927369E+04  0.19861927369E+04  0.25500000920E-02 0.  1.
        2   -1    0    0  501    0  0.00000000000E+00  0.00000000000E+00 -0.58141773811E+03  0.58141773811E+03  0.25500000920E-02 0. -1.
    10030    2    1    2    0    0  0.00000000000E+00  0.00000000000E+00  0.14047749988E+04  0.25676104750E+04  0.21492395758E+04 0.  0.
        5    1    3    3  502    0 -0.98409002541E+03 -0.26931924229E+03  0.29934320945E+03  0.10632941641E+04  0.46999998093E+01 0. -1.
       -5    1    3    3    0  502  0.98409002541E+03  0.26931924229E+03  0.11054317893E+04  0.15043163109E+04  0.46999998093E+01 0.  1.
</event>
<event>
 5   0  0.1071208E-05  0.2207130E+04  0.7818609E-02  0.8515466E-01
        1   -1    0    0  501    0  0.00000000000E+00  0.00000000000E+00  0.20288415394E+04  0.20288415394E+04  0.50400001928E-02 0.  1.
       -1   -1    0    0    0  501  0.00000000000E+00  0.00000000000E+00 -0.60027152490E+03  0.60027152493E+03  0.50400001928E-02 0. -1.
    10030    2    1    2    0    0  0.00000000000E+00  0.00000000000E+00  0.14285700145E+04  0.26291130643E+04  0.22071300865E+04 0.  0.
        4    1    3    3  502    0 -0.79953282819E+03 -0.60992836313E+03  0.17286442550E+03  0.10203671271E+04  0.12699999809E+01 0. -1.
       -4    1    3    3    0  502  0.79953282819E+03  0.60992836313E+03  0.12557055890E+04  0.16087459372E+04  0.12699999809E+01 0.  1.
</event>
<event>
 5   0  0.1007682E-05  0.2199789E+04  0.7818609E-02  0.8518516E-01
        1   -1    0    0  501    0  0.00000000000E+00  0.00000000000E+00  0.13247447824E+04  0.13247447824E+04  0.50400001928E-02 0. -1.
       -1   -1    0    0    0  501  0.00000000000E+00  0.00000000000E+00 -0.91320819246E+03  0.91320819248E+03  0.50400001928E-02 0.  1.
    10030    2    1    2    0    0  0.00000000000E+00  0.00000000000E+00  0.41153658995E+03  0.22379529749E+04  0.21997888883E+04 0.  0.
        2    1    3    3  502    0 -0.55817391784E+03  0.37094925110E+03 -0.68148969137E+03  0.95581884732E+03  0.25500000920E-02 0.  1.
       -2    1    3    3    0  502  0.55817391784E+03 -0.37094925110E+03  0.10930262813E+04  0.12821341276E+04  0.25500000920E-02 0. -1.
</event>
<event>
 5   0  0.2289708E-05  0.2170416E+04  0.7818609E-02  0.8530843E-01
        2   -1    0    0  501    0  0.00000000000E+00  0.00000000000E+00  0.69464874563E+03  0.69464874564E+03  0.25500000920E-02 0.  1.
       -2   -1    0    0    0  501  0.00000000000E+00  0.00000000000E+00 -0.16953559278E+04  0.16953559278E+04  0.25500000920E-02 0. -1.
    10030    2    1    2    0    0  0.00000000000E+00  0.00000000000E+00 -0.10007071822E+04  0.23900046735E+04  0.21704164289E+04 0.  0.
        5    1    3    3  502    0  0.48503685483E+01  0.42697991858E+03  0.59823963530E+03  0.73501573329E+03  0.46999998093E+01 0.  1.
       -5    1    3    3    0  502 -0.48503685483E+01 -0.42697991858E+03 -0.15989468175E+04  0.16549889402E+04  0.46999998093E+01 0. -1.
</event>
<event>
 5   0  0.1005538E-05  0.2195068E+04  0.7818609E-02  0.8520484E-01
       -1   -1    0    0    0  501  0.00000000000E+00  0.00000000000E+00  0.61051807631E+03  0.61051807633E+03  0.50400001928E-02 0.  1.
        1   -1    0    0  501    0  0.00000000000E+00  0.00000000000E+00 -0.19730479043E+04  0.19730479043E+04  0.50400001928E-02 0. -1.
    10030    2    1    2    0    0  0.00000000000E+00  0.00000000000E+00 -0.13625298280E+04  0.25835659806E+04  0.21950684828E+04 0.  0.
        3    1    3    3  502    0  0.51613072024E+02 -0.53194333545E+03  0.44701879449E+03  0.69674488456E+03  0.10100000352E+00 0.  1.
       -3    1    3    3    0  502 -0.51613072024E+02  0.53194333545E+03 -0.18095486225E+04  0.18868210961E+04  0.10100000352E+00 0. -1.
</event>
<event>
 5   0  0.2229552E-05  0.2178423E+04  0.7818609E-02  0.8527463E-01
        2   -1    0    0  501    0  0.00000000000E+00  0.00000000000E+00  0.10901470759E+04  0.10901470759E+04  0.25500000920E-02 0. -1.
       -2   -1    0    0    0  501  0.00000000000E+00  0.00000000000E+00 -0.10882768134E+04  0.10882768134E+04  0.25500000920E-02 0.  1.
    10030    2    1    2    0    0  0.00000000000E+00  0.00000000000E+00  0.18702624873E+01  0.21784238893E+04  0.21784230864E+04 0.  0.
        1    1    3    3  502    0 -0.22552878762E+03 -0.10444224562E+04 -0.21048936514E+03  0.10890304284E+04  0.50400001928E-02 0.  1.
       -1    1    3    3    0  502  0.22552878762E+03  0.10444224562E+04  0.21235962763E+03  0.10893934609E+04  0.50400001928E-02 0. -1.
</event>
<event>
 5   0  0.1049198E-05  0.2200188E+04  0.7818609E-02  0.8518350E-01
       -1   -1    0    0    0  501  0.00000000000E+00  0.00000000000E+00  0.72186483073E+03  0.72186483075E+03  0.50400001928E-02 0.  1.
        1   -1    0    0  501    0  0.00000000000E+00  0.00000000000E+00 -0.16764999180E+04  0.16764999180E+04  0.50400001928E-02 0. -1.
    10030    2    1    2    0    0  0.00000000000E+00  0.00000000000E+00 -0.95463508726E+03  0.23983647487E+04  0.22001875643E+04 0.  0.
        1    1    3    3  502    0 -0.58492022089E+03 -0.73386464322E+02 -0.14897887470E+04  0.16021821833E+04  0.50400001928E-02 0. -1.
       -1    1    3    3    0  502  0.58492022089E+03  0.73386464322E+02  0.53515365971E+03  0.79618256542E+03  0.50400001928E-02 0.  1.
</event>
<event>
 5   0  0.2229552E-05  0.2160276E+04  0.7818609E-02  0.8535146E-01
        2   -1    0    0  501    0  0.00000000000E+00  0.00000000000E+00  0.20922292492E+04  0.20922292492E+04  0.25500000920E-02 0.  1.
       -2   -1    0    0    0  501  0.00000000000E+00  0.00000000000E+00 -0.55763392176E+03  0.55763392176E+03  0.25500000920E-02 0. -1.
    10030    2    1    2    0    0  0.00000000000E+00  0.00000000000E+00  0.15345953274E+04  0.26498631709E+04  0.21602759096E+04 0.  0.
        1    1    3    3  502    0 -0.77676041518E+03  0.29194778819E+03  0.16154563561E+04  0.18161193496E+04  0.50400001928E-02 0.  1.
       -1    1    3    3    0  502  0.77676041518E+03 -0.29194778819E+03 -0.80861028655E+02  0.83374382133E+03  0.50400001928E-02 0. -1.
</event>
<event>
 5   0  0.2229552E-05  0.2198140E+04  0.7818609E-02  0.8519203E-01
       -2   -1    0    0    0  501  0.00000000000E+00  0.00000000000E+00  0.13725139630E+04  0.13725139631E+04  0.25500000920E-02 0. -1.
        2   -1    0    0  501    0  0.00000000000E+00  0.00000000000E+00 -0.88010382764E+03  0.88010382764E+03  0.25500000920E-02 0.  1.
    10030    2    1    2    0    0  0.00000000000E+00  0.00000000000E+00  0.49241013541E+03  0.22526177907E+04  0.21981399340E+04 0.  0.
        1    1    3    3  502    0 -0.10526123848E+04 -0.17775359762E+03  0.51415339240E+03  0.11848809582E+04  0.50400001928E-02 0. -1.
       -1    1    3    3    0  502  0.10526123848E+04  0.17775359762E+03 -0.21743256987E+02  0.10677368325E+04  0.50400001928E-02 0.  1.
</event>
<event>
 5   0  0.2289708E-05  0.2198988E+04  0.7818609E-02  0.8518850E-01
        2   -1    0    0  501    0  0.00000000000E+00  0.00000000000E+00  0.65977298300E+03  0.65977298300E+03  0.25500000920E-02 0.  1.
       -2   -1    0    0    0  501  0.00000000000E+00  0.00000000000E+00 -0.18322770275E+04  0.18322770275E+04  0.25500000920E-02 0. -1.
    10030    2    1    2    0    0  0.00000000000E+00  0.00000000000E+00 -0.11725040445E+04  0.24920500105E+04  0.21989878400E+04 0.  0.
        5    1    3    3  502    0 -0.98867878982E+03 -0.48100495082E+03 -0.58212249836E+03  0.12440820734E+04  0.46999998093E+01 0.  1.
       -5    1    3    3    0  502  0.98867878982E+03  0.48100495082E+03 -0.59038154616E+03  0.12479679372E+04  0.46999998093E+01 0. -1.
</event>
<event>
 5   0  0.2319707E-05  0.2192971E+04  0.7818609E-02  0.8521359E-01
        2   -1    0    0  501    0  0.00000000000E+00  0.00000000000E+00  0.21973671891E+04  0.21973671891E+04  0.25500000920E-02 0.  1.
       -2   -1    0    0    0  501  0.00000000000E+00  0.00000000000E+00 -0.54714607289E+03  0.54714607289E+03  0.25500000920E-02 0. -1.
    10030    2    1    2    0    0  0.00000000000E+00  0.00000000000E+00  0.16502211162E+04  0.27445132620E+04  0.21929713434E+04 0.  0.
        3    1    3    3  502    0  0.61112768540E+03 -0.36747194869E+03 -0.21730180168E+03  0.74547485816E+03  0.10100000352E+00 0. -1.
       -3    1    3    3    0  502 -0.61112768540E+03  0.36747194869E+03  0.18675229179E+04  0.19990384038E+04  0.10100000352E+00 0.  1.
</event>
<event>
 5   0  0.1007682E-05  0.2193132E+04  0.7818609E-02  0.8521292E-01
       -1   -1    0    0    0  501  0.00000000000E+00  0.00000000000E+00  0.12155477982E+04  0.12155477982E+04  0.50400001928E-02 0.  1.
        1   -1    0    0  501    0  0.00000000000E+00  0.00000000000E+00 -0.98923075352E+03  0.98923075353E+03  0.50400001928E-02 0. -1.
    10030    2    1    2    0    0  0.00000000000E+00  0.00000000000E+00  0.22631704471E+03  0.22047785518E+04  0.21931322481E+04 0.  0.
        2    1    3    3  502    0 -0.10596962510E+04 -0.14480726251E+03 -0.13006005857E+03  0.10774232717E+04  0.25500000920E-02 0.  1.
       -2    1    3    3    0  502  0.10596962510E+04  0.14480726251E+03  0.35637710328E+03  0.11273552800E+04  0.25500000920E-02 0. -1.
</event>
<event>
 5   0  0.1005538E-05  0.2199579E+04  0.7818609E-02  0.8518603E-01
       -1   -1    0    0    0  501  0.00000000000E+00  0.00000000000E+00  0.18557989515E+04  0.18557989515E+04  0.50400001928E-02 0.  1.
        1   -1    0    0  501    0  0.00000000000E+00  0.00000000000E+00 -0.65176067850E+03  0.65176067852E+03  0.50400001928E-02 0. -1.
    10030    2    1    2    0    0  0.00000000000E+00  0.00000000000E+00  0.12040382730E+04  0.25075596300E+04  0.21995788541E+04 0.  0.
        3    1    3    3  502    0  0.56322471316E+03 -0.75016065978E+03  0.12564865003E+04  0.15680310675E+04  0.10100000352E+00 0.  1.
       -3    1    3    3    0  502 -0.56322471316E+03  0.75016065978E+03 -0.52448227329E+02  0.93952856250E+03  0.10100000352E+00 0. -1.
</event>
<event>
 5   0  0.1007682E-05  0.2146408E+04  0.7818609E-02  0.8541071E-01
       -1   -1    0    0    0  501  0.00000000000E+00  0.00000000000E+00  0.76908091150E+03  0.76908091151E+03  0.50400001928E-02 0. -1.
        1   -1    0    0  501    0  0.00000000000E+00  0.00000000000E+00 -0.14975888216E+04  0.14975888216E+04  0.50400001928E-02 0.  1.
    10030    2    1    2    0    0  0.00000000000E+00  0.00000000000E+00 -0.72850791006E+03  0.22666697331E+04  0.21464081401E+04 0.  0.
        2    1    3    3  502    0  0.10267508137E+04  0.31225097858E+03 -0.35685656262E+03  0.11309573438E+04  0.25500000920E-02 0.  1.
       -2    1    3    3    0  502 -0.10267508137E+04 -0.31225097858E+03 -0.37165134745E+03  0.11357123893E+04  0.25500000920E-02 0. -1.
</event>
<event>
 5   0  0.1049198E-05  0.2216217E+04  0.7818609E-02  0.8511709E-01
       -1   -1    0    0    0  501  0.00000000000E+00  0.00000000000E+00  0.10960213995E+04  0.10960213995E+04  0.50400001928E-02 0.  1.
        1   -1    0    0  501    0  0.00000000000E+00  0.00000000000E+00 -0.11203286915E+04  0.11203286915E+04  0.50400001928E-02 0. -1.
    10030    2    1    2    0    0  0.00000000000E+00  0.00000000000E+00 -0.24307291928E+02  0.22163500910E+04  0.22162167948E+04 0.  0.
        1    1    3    3  502    0 -0.44225595956E+03  0.10106112524E+04  0.92632344190E+02  0.11070258301E+04  0.50400001928E-02 0.  1.
       -1    1    3    3    0  502  0.44225595956E+03 -0.10106112524E+04 -0.11693963612E+03  0.11093242609E+04  0.50400001928E-02 0. -1.
</event>
<event>
 5   0  0.2229552E-05  0.2199942E+04  0.7818609E-02  0.8518452E-01
       -2   -1    0    0    0  501  0.00000000000E+00  0.00000000000E+00  0.80143900148E+03  0.80143900148E+03  0.25500000920E-02 0.  1.
        2   -1    0    0  501    0  0.00000000000E+00  0.00000000000E+00 -0.15097051611E+04  0.15097051611E+04  0.25500000920E-02 0. -1.
    10030    2    1    2    0    0  0.00000000000E+00  0.00000000000E+00 -0.70826615960E+03  0.23111441626E+04  0.21999423600E+04 0.  0.
        1    1    3    3  502    0 -0.87766757607E+03 -0.44924083865E+01 -0.10506834055E+04  0.13690347601E+04  0.50400001928E-02 0. -1.
       -1    1    3    3    0  502  0.87766757607E+03  0.44924083865E+01  0.34241724590E+03  0.94210940243E+03  0.50400001928E-02 0.  1.
</event>
<event>
 5   0  0.1005538E-05  0.2184045E+04  0.7818609E-02  0.8525098E-01
        1   -1    0    0  501    0  0.00000000000E+00  0.00000000000E+00  0.56746745766E+03  0.56746745768E+03  0.50400001928E-02 0. -1.
       -1   -1    0    0    0  501  0.00000000000E+00  0.00000000000E+00 -0.21014660595E+04  0.21014660595E+04  0.50400001928E-02 0.  1.
    10030    2    1    2    0    0  0.00000000000E+00  0.00000000000E+00 -0.15339986019E+04  0.26689335172E+04  0.21840454228E+04 0.  0.
        3    1    3    3  502    0 -0.28096192768E+03 -0.13765285772E+03  0.51152475884E+03  0.59962113301E+03  0.10100000352E+00 0. -1.
       -3    1    3    3    0  502  0.28096192768E+03  0.13765285772E+03 -0.20455233607E+04  0.20693123842E+04  0.10100000352E+00 0.  1.
</event>
<event>
 5   0  0.2284329E-05  0.2200121E+04  0.7818609E-02  0.8518378E-01
       -2   -1    0    0    0  501  0.00000000000E+00  0.00000000000E+00  0.57679333821E+03  0.57679333822E+03  0.25500000920E-02 0. -1.
        2   -1    0    0  501    0  0.00000000000E+00  0.00000000000E+00 -0.20980365601E+04  0.20980365601E+04  0.25500000920E-02 0.  1.
    10030    2    1    2    0    0  0.00000000000E+00  0.00000000000E+00 -0.15212432219E+04  0.26748298983E+04  0.22001213705E+04 0.  0.
        2    1    3    3  502    0  0.91004472803E+03 -0.25914724255E+03 -0.78497639652E+02  0.94947384365E+03  0.25500000920E-02 0. -1.
       -2    1    3    3    0  502 -0.91004472803E+03  0.25914724255E+03 -0.14427455822E+04  0.17253560547E+04  0.25500000920E-02 0.  1.
</event>
<event>
 5   0  0.1033733E-05  0.2201899E+04  0.7818609E-02  0.8517638E-01
        1   -1    0    0  501    0  0.00000000000E+00  0.00000000000E+00  0.17714347517E+04  0.17714347517E+04  0.50400001928E-02 0.  1.
       -1   -1    0    0    0  501  0.00000000000E+00  0.00000000000E+00 -0.68424180530E+03  0.68424180531E+03  0.50400001928E-02 0. -1.
    10030    2    1    2    0    0  0.00000000000E+00  0.00000000000E+00  0.10871929464E+04  0.24556765570E+04  0.22018989191E+04 0.  0.
        5    1    3    3  502    0  0.33334714243E+03  0.11308575264E+03 -0.61977912111E+03  0.71278114017E+03  0.46999998093E+01 0. -1.
       -5    1    3    3    0  502 -0.33334714243E+03 -0.11308575264E+03  0.17069720675E+04  0.17428954168E+04  0.46999998093E+01 0.  1.
</event>
<event>
 5   0  0.2298329E-05  0.2195431E+04  0.7818609E-02  0.8520332E-01
        2   -1    0    0  501    0  0.00000000000E+00  0.00000000000E+00  0.21439945381E+04  0.21439945381E+04  0.25500000920E-02 0. -1.
       -2   -1    0    0    0  501  0.00000000000E+00  0.00000000000E+00 -0.56202523383E+03  0.56202523384E+03  0.25500000920E-02 0.  1.
    10030    2    1    2    0    0  0.00000000000E+00  0.00000000000E+00  0.15819693043E+04  0.27060197719E+04  0.21954307383E+04 0.  0.
        4    1    3    3  502    0 -0.53409210163E+03 -0.61516297784E+03 -0.11585240375E+03  0.82286284075E+03  0.12699999809E+01 0.  1.
       -4    1    3    3    0  502  0.53409210163E+03  0.61516297784E+03  0.16978217080E+04  0.18831569312E+04  0.12699999809E+01 0. -1.
</event>
<event>
 5   0  0.2229552E-05  0.2202102E+04  0.7818609E-02  0.8517554E-01
       -2   -1    0    0    0  501  0.00000000000E+00  0.00000000000E+00  0.47391318277E+03  0.47391318278E+03  0.25500000920E-02 0. -1.
        2   -1    0    0  501    0  0.00000000000E+00  0.00000000000E+00 -0.25580907006E+04  0.25580907006E+04  0.25500000920E-02 0.  1.
    10030    2    1    2    0    0  0.00000000000E+00  0.00000000000E+00 -0.20841775178E+04  0.30320038833E+04  0.22021016377E+04 0.  0.
        1    1    3    3  502    0  0.51114963091E+03 -0.52311530452E+03 -0.21753018210E+04  0.22949643961E+04  0.50400001928E-02 0.  1.
       -1    1    3    3    0  502 -0.51114963091E+03  0.52311530452E+03  0.91124303238E+02  0.73703948719E+03  0.50400001928E-02 0. -1.
</event>
<event>
 5   0  0.2229552E-05  0.2197010E+04  0.7818609E-02  0.8519674E-01
       -2   -1    0    0    0  501  0.00000000000E+00  0.00000000000E+00  0.72560344486E+03  0.72560344486E+03  0.25500000920E-02 0. -1.
        2   -1    0    0  501    0  0.00000000000E+00  0.00000000000E+00 -0.16630473781E+04  0.16630473781E+04  0.25500000920E-02 0.  1.
    10030    2    1    2    0    0  0.00000000000E+00  0.00000000000E+00 -0.93744393323E+03  0.23886508229E+04  0.21970097009E+04 0.  0.
        1    1    3    3  502    0  0.47387361559E+03  0.98659997205E+03 -0.36686314597E+03  0.11543501532E+04  0.50400001928E-02 0. -1.
       -1    1    3    3    0  502 -0.47387361559E+03 -0.98659997205E+03 -0.57058078726E+03  0.12343006697E+04  0.50400001928E-02 0.  1.
</event>
<event>
 5   0  0.1071208E-05  0.2207570E+04  0.7818609E-02  0.8515284E-01
       -1   -1    0    0    0  501  0.00000000000E+00  0.00000000000E+00  0.77790181472E+03  0.77790181474E+03  0.50400001928E-02 0. -1.
        1   -1    0    0  501    0  0.00000000000E+00  0.00000000000E+00 -0.15661888298E+04  0.15661888298E+04  0.50400001928E-02 0.  1.
    10030    2    1    2    0    0  0.00000000000E+00  0.00000000000E+00 -0.78828701507E+03  0.23440906445E+04  0.22075698249E+04 0.  0.
        4    1    3    3  502    0  0.66367648714E+03 -0.14818408255E+03  0.52905755516E+03  0.86158488350E+03  0.12699999809E+01 0. -1.
       -4    1    3    3    0  502 -0.66367648714E+03  0.14818408255E+03 -0.13173445702E+04  0.14825057610E+04  0.12699999809E+01 0.  1.
</event>
<event>
 5   0  0.2298329E-05  0.2187718E+04  0.7818609E-02  0.8523557E-01
        2   -1    0    0  501    0  0.00000000000E+00  0.00000000000E+00  0.16271332667E+04  0.16271332667E+04  0.25500000920E-02 0.  1.
       -2   -1    0    0    0  501  0.00000000000E+00  0.00000000000E+00 -0.73535956591E+03  0.73535956591E+03  0.25500000920E-02 0. -1.
    10030    2    1    2    0    0  0.00000000000E+00  0.00000000000E+00  0.89177370080E+03  0.23624928326E+04  0.21877184578E+04 0.  0.
        4    1    3    3  502    0 -0.10101762096E+04 -0.29594391134E+03  0.76711998986E+03  0.13025027696E+04  0.12699999809E+01 0.  1.
       -4    1    3    3    0  502  0.10101762096E+04  0.29594391134E+03  0.12465371094E+03  0.10599900630E+04  0.12699999809E+01 0. -1.
</event>
<event>
 5   0  0.2298329E-05  0.2205576E+04  0.7818609E-02  0.8516111E-01
       -2   -1    0    0    0  501  0.00000000000E+00  0.00000000000E+00  0.15015582853E+04  0.15015582854E+04  0.25500000920E-02 0.  1.
        2   -1    0    0  501    0  0.00000000000E+00  0.00000000000E+00 -0.80991969342E+03  0.80991969342E+03  0.25500000920E-02 0. -1.
    10030    2    1    2    0    0  0.00000000000E+00  0.00000000000E+00  0.69163859193E+03  0.23114779788E+04  0.22055762296E+04 0.  0.
        4    1    3    3  502    0 -0.73816496110E+03  0.65963951750E+03  0.85508171139E+03  0.13081200820E+04  0.12699999809E+01 0.  1.
       -4    1    3    3    0  502  0.73816496110E+03 -0.65963951750E+03 -0.16344311946E+03  0.10033578968E+04  0.12699999809E+01 0. -1.
</event>
<event>
 5   0  0.1007682E-05  0.2179316E+04  0.7818609E-02  0.8527087E-01
        1   -1    0    0  501    0  0.00000000000E+00  0.00000000000E+00  0.22808306195E+04  0.22808306195E+04  0.50400001928E-02 0. -1.
       -1   -1    0    0    0  501  0.00000000000E+00  0.00000000000E+00 -0.52057997161E+03  0.52057997163E+03  0.50400001928E-02 0.  1.
    10030    2    1    2    0    0  0.00000000000E+00  0.00000000000E+00  0.17602506479E+04  0.28014105911E+04  0.21793161672E+04 0.  0.
        2    1    3    3  502    0  0.28871279252E+03 -0.86968481243E+03  0.12220005467E+03  0.92446719948E+03  0.25500000920E-02 0.  1.
       -2    1    3    3    0  502 -0.28871279252E+03  0.86968481243E+03  0.16380505932E+04  0.18769433917E+04  0.25500000920E-02 0. -1.
</event>
<event>
 5   0  0.2229552E-05  0.2196183E+04  0.7818609E-02  0.8520019E-01
       -2   -1    0    0    0  501  0.00000000000E+00  0.00000000000E+00  0.12279881819E+04  0.12279881819E+04  0.25500000920E-02 0.  1.
        2   -1    0    0  501    0  0.00000000000E+00  0.00000000000E+00 -0.98193511877E+03  0.98193511877E+03  0.25500000920E-02 0. -1.
    10030    2    1    2    0    0  0.00000000000E+00  0.00000000000E+00  0.24605306309E+03  0.22099233006E+04  0.21961827986E+04 0.  0.
        1    1    3    3  502    0  0.76223363491E+02 -0.10594753520E+04 -0.15711553913E+03  0.10737706065E+04  0.50400001928E-02 0. -1.
       -1    1    3    3    0  502 -0.76223363491E+02  0.10594753520E+04  0.40316860221E+03  0.11361526942E+04  0.50400001928E-02 0.  1.
</event>
<event>
 5   0  0.1033733E-05  0.2201453E+04  0.7818609E-02  0.8517824E-01
        1   -1    0    0  501    0  0.00000000000E+00  0.00000000000E+00  0.18176765982E+04  0.18176765982E+04  0.50400001928E-02 0. -1.
       -1   -1    0    0    0  501  0.00000000000E+00  0.00000000000E+00 -0.66656469966E+03  0.66656469968E+03  0.50400001928E-02 0.  1.
    10030    2    1    2    0    0  0.00000000000E+00  0.00000000000E+00  0.11511118985E+04  0.24842412979E+04  0.22014532071E+04 0.  0.
        5    1    3    3  502    0  0.86540549860E+03 -0.33075753417E+03  0.12462512220E+04  0.15528977499E+04  0.46999998093E+01 0. -1.
       -5    1    3    3    0  502 -0.86540549860E+03  0.33075753417E+03 -0.95139323477E+02  0.93134354794E+03  0.46999998093E+01 0.  1.
</event>
<event>
 5   0  0.1033733E-05  0.2203051E+04  0.7818609E-02  0.8517159E-01
        1   -1    0    0  501    0  0.00000000000E+00  0.00000000000E+00  0.11996422183E+04  0.11996422183E+04  0.50400001928E-02 0.  1.
       -1   -1    0    0    0  501  0.00000000000E+00  0.00000000000E+00 -0.10114331740E+04  0.10114331741E+04  0.50400001928E-02 0. -1.
    10030    2    1    2    0    0  0.00000000000E+00  0.00000000000E+00  0.18820904429E+03  0.22110753924E+04  0.22030505547E+04 0.  0.
        5    1    3    3  502    0  0.26974729518E+03 -0.89136198599E+03  0.68450409984E+03  0.11557931242E+04  0.46999998093E+01 0.  1.
       -5    1    3    3    0  502 -0.26974729518E+03  0.89136198599E+03 -0.49629505556E+03  0.10552822682E+04  0.46999998093E+01 0. -1.
</event>
<event>
 5   0  0.1033733E-05  0.2158570E+04  0.7818609E-02  0.8535873E-01
       -1   -1    0    0    0  501  0.00000000000E+00  0.00000000000E+00  0.56027000904E+03  0.56027000906E+03  0.50400001928E-02 0. -1.
        1   -1    0    0  501    0  0.00000000000E+00  0.00000000000E+00 -0.20790975288E+04  0.20790975288E+04  0.50400001928E-02 0.  1.
    10030    2    1    2    0    0  0.00000000000E+00  0.00000000000E+00 -0.15188275198E+04  0.26393675379E+04  0.21585698889E+04 0.  0.
        5    1    3    3  502    0 -0.65796051715E+03 -0.67164171291E+03 -0.11145523454E+03  0.94681518363E+03  0.46999998093E+01 0. -1.
       -5    1    3    3    0  502  0.65796051715E+03  0.67164171291E+03 -0.14073722852E+04  0.16925523542E+04  0.46999998093E+01 0.  1.
</event>
<event>
 5   0  0.1007682E-05  0.2197294E+04  0.7818609E-02  0.8519555E-01
        1   -1    0    0  501    0  0.00000000000E+00  0.00000000000E+00  0.15659471631E+04  0.15659471631E+04  0.50400001928E-02 0. -1.
       -1   -1    0    0    0  501  0.00000000000E+00  0.00000000000E+00 -0.77079530517E+03  0.77079530519E+03  0.50400001928E-02 0.  1.
    10030    2    1    2    0    0  0.00000000000E+00  0.00000000000E+00  0.79515185789E+03  0.23367424683E+04  0.21972935366E+04 0.  0.
        2    1    3    3  502    0 -0.68734649381E+03  0.85541649476E+03  0.34088083734E+03  0.11490789039E+04  0.25500000920E-02 0. -1.
       -2    1    3    3    0  502  0.68734649381E+03 -0.85541649476E+03  0.45427102055E+03  0.11876635644E+04  0.25500000920E-02 0.  1.
</event>
<event>
 5   0  0.2319707E-05  0.2210016E+04  0.7818609E-02  0.8514271E-01
       -2   -1    0    0    0  501  0.00000000000E+00  0.00000000000E+00  0.16341190736E+04  0.16341190736E+04  0.25500000920E-02 0.  1.
        2   -1    0    0  501    0  0.00000000000E+00  0.00000000000E+00 -0.74721766888E+03  0.74721766889E+03  0.25500000920E-02 0. -1.
    10030    2    1    2    0    0  0.00000000000E+00  0.00000000000E+00  0.88690140475E+03  0.23813367425E+04  0.22100159682E+04 0.  0.
        3    1    3    3  502    0  0.83594133841E+03 -0.12007946534E+03  0.12113118817E+04  0.14766494114E+04  0.10100000352E+00 0. -1.
       -3    1    3    3    0  502 -0.83594133841E+03  0.12007946534E+03 -0.32441047698E+03  0.90468733109E+03  0.10100000352E+00 0.  1.
</event>
<event>
 5   0  0.2289708E-05  0.2199625E+04  0.7818609E-02  0.8518584E-01
       -2   -1    0    0    0  501  0.00000000000E+00  0.00000000000E+00  0.55452528161E+03  0.55452528162E+03  0.25500000920E-02 0.  1.
        2   -1    0    0  501    0  0.00000000000E+00  0.00000000000E+00 -0.21813025315E+04  0.21813025315E+04  0.25500000920E-02 0. -1.
    10030    2    1    2    0    0  0.00000000000E+00  0.00000000000E+00 -0.16267772499E+04  0.27358278132E+04  0.21996248776E+04 0.  0.
        5    1    3    3  502    0  0.30646406575E+03 -0.97427857588E+03 -0.30598779488E+03  0.10662033519E+04  0.46999998093E+01 0.  1.
       -5    1    3    3    0  502 -0.30646406575E+03  0.97427857588E+03 -0.13207894550E+04  0.16696244612E+04  0.46999998093E+01 0. -1.
</event>
<event>
 5   0  0.2284329E-05  0.2184087E+04  0.7818609E-02  0.8525081E-01
        2   -1    0    0  501    0  0.00000000000E+00  0.00000000000E+00  0.27457148432E+04  0.27457148432E+04  0.25500000920E-02 0. -1.
       -2   -1    0    0    0  501  0.00000000000E+00  0.00000000000E+00 -0.43433444093E+03  0.43433444093E+03  0.25500000920E-02 0.  1.
    10030    2    1    2    0    0  0.00000000000E+00  0.00000000000E+00  0.23113804023E+04  0.31800492842E+04  0.21840865563E+04 0.  0.
        2    1    3    3  502    0  0.13294781851E+03 -0.10502220499E+04  0.76522716983E+03  0.13062213052E+04  0.25500000920E-02 0.  1.
       -2    1    3    3    0  502 -0.13294781851E+03  0.10502220499E+04  0.15461532325E+04  0.18738279790E+04  0.25500000920E-02 0. -1.
</event>
<event>
 5   0  0.1007682E-05  0.2193183E+04  0.7818609E-02  0.8521271E-01
        1   -1    0    0  501    0  0.00000000000E+00  0.00000000000E+00  0.15120854725E+04  0.15120854725E+04  0.50400001928E-02 0. -1.
       -1   -1    0    0    0  501  0.00000000000E+00  0.00000000000E+00 -0.79526795317E+03  0.79526795319E+03  0.50400001928E-02 0.  1.
    10030    2    1    2    0    0  0.00000000000E+00  0.00000000000E+00  0.71681751933E+03  0.23073534257E+04  0.21931831832E+04 0.  0.
        2    1    3    3  502    0 -0.29419090713E+03  0.74081765200E+03  0.11507088915E+04  0.13998178582E+04  0.25500000920E-02 0. -1.
       -2    1    3    3    0  502  0.29419090713E+03 -0.74081765200E+03 -0.43389137214E+03  0.90753556745E+03  0.25500000920E-02 0.  1.
</event>
<event>
 5   0  0.2229552E-05  0.2199092E+04  0.7818609E-02  0.8518806E-01
        2   -1    0    0  501    0  0.00000000000E+00  0.00000000000E+00  0.13173958593E+04  0.13173958593E+04  0.25500000920E-02 0.  1.
       -2   -1    0    0    0  501  0.00000000000E+00  0.00000000000E+00 -0.91772077587E+03  0.91772077587E+03  0.25500000920E-02 0. -1.
    10030    2    1    2    0    0  0.00000000000E+00  0.00000000000E+00  0.39967508345E+03  0.22351166352E+04  0.21990921310E+04 0.  0.
        1    1    3    3  502    0 -0.23574895312E+03 -0.37120864745E+03 -0.82445527021E+03  0.93439816002E+03  0.50400001928E-02 0. -1.
       -1    1    3    3    0  502  0.23574895312E+03  0.37120864745E+03  0.12241303537E+04  0.13007184752E+04  0.50400001928E-02 0.  1.
</event>
<event>
 5   0  0.1007682E-05  0.2196132E+04  0.7818609E-02  0.8520040E-01
        1   -1    0    0  501    0  0.00000000000E+00  0.00000000000E+00  0.27070123969E+04  0.27070123969E+04  0.50400001928E-02 0. -1.
       -1   -1    0    0    0  501  0.00000000000E+00  0.00000000000E+00 -0.44541686957E+03  0.44541686960E+03  0.50400001928E-02 0.  1.
    10030    2    1    2    0    0  0.00000000000E+00  0.00000000000E+00  0.22615955273E+04  0.31524292665E+04  0.21961320432E+04 0.  0.
        2    1    3    3  502    0 -0.63143905977E+02  0.60727535839E+03  0.24408957867E+04  0.25160967301E+04  0.25500000920E-02 0. -1.
       -2    1    3    3    0  502  0.63143905977E+02 -0.60727535839E+03 -0.17930025942E+03  0.63633253634E+03  0.25500000920E-02 0.  1.
</event>
<event>
 5   0  0.1049198E-05  0.2207096E+04  0.7818609E-02  0.8515480E-01
       -1   -1    0    0    0  501  0.00000000000E+00  0.00000000000E+00  0.77950525066E+03  0.77950525068E+03  0.50400001928E-02 0.  1.
        1   -1    0    0  501    0  0.00000000000E+00  0.00000000000E+00 -0.15622969916E+04  0.15622969916E+04  0.50400001928E-02 0. -1.
    10030    2    1    2    0    0  0.00000000000E+00  0.00000000000E+00 -0.78279174092E+03  0.23418022423E+04  0.22070964710E+04 0.  0.
        1    1    3    3  502    0  0.84781603505E+03 -0.64033466733E+03 -0.70792923535E+03  0.12767083918E+04  0.50400001928E-02 0. -1.
       -1    1    3    3    0  502 -0.84781603505E+03  0.64033466733E+03 -0.74862505566E+02  0.10650938504E+04  0.50400001928E-02 0.  1.
</event>
<event>
 5   0  0.1005538E-05  0.2213654E+04  0.7818609E-02  0.8512767E-01
       -1   -1    0    0    0  501  0.00000000000E+00  0.00000000000E+00  0.66892136225E+03  0.66892136227E+03  0.50400001928E-02 0.  1.
        1   -1    0    0  501    0  0.00000000000E+00  0.00000000000E+00 -0.18314045049E+04  0.18314045049E+04  0.50400001928E-02 0. -1.
    10030    2    1    2    0    0  0.00000000000E+00  0.00000000000E+00 -0.11624831427E+04  0.25003258672E+04  0.22136536281E+04 0.  0.
        3    1    3    3  502    0  0.37568068514E+03 -0.32024584714E+03 -0.17001739041E+04  0.17703911133E+04  0.10100000352E+00 0. -1.
       -3    1    3    3    0  502 -0.37568068514E+03  0.32024584714E+03  0.53769076141E+03  0.72993475387E+03  0.10100000352E+00 0.  1.
</event>
<event>
 5   0  0.1007682E-05  0.2205769E+04  0.7818609E-02  0.8516031E-01
       -1   -1    0    0    0  501  0.00000000000E+00  0.00000000000E+00  0.16092955208E+04  0.16092955208E+04  0.50400001928E-02 0. -1.
        1   -1    0    0  501    0  0.00000000000E+00  0.00000000000E+00 -0.75583045608E+03  0.75583045610E+03  0.50400001928E-02 0.  1.
    10030    2    1    2    0    0  0.00000000000E+00  0.00000000000E+00  0.85346506472E+03  0.23651259769E+04  0.22057693148E+04 0.  0.
        2    1    3    3  502    0  0.92102043808E+03  0.59635143275E+03  0.54632942361E+03  0.12257199998E+04  0.25500000920E-02 0. -1.
       -2    1    3    3    0  502 -0.92102043808E+03 -0.59635143275E+03  0.30713564110E+03  0.11394059771E+04  0.25500000920E-02 0.  1.
</event>
<event>
 5   0  0.1005538E-05  0.2213945E+04  0.7818609E-02  0.8512646E-01
        1   -1    0    0  501    0  0.00000000000E+00  0.00000000000E+00  0.20802208204E+04  0.20802208204E+04  0.50400001928E-02 0.  1.
       -1   -1    0    0    0  501  0.00000000000E+00  0.00000000000E+00 -0.58906633616E+03  0.58906633618E+03  0.50400001928E-02 0. -1.
    10030    2    1    2    0    0  0.00000000000E+00  0.00000000000E+00  0.14911544842E+04  0.26692871566E+04  0.22139449470E+04 0.  0.
        3    1    3    3  502    0 -0.89612993813E+03 -0.27042051950E+03  0.14580577895E+04  0.17326594158E+04  0.10100000352E+00 0.  1.
       -3    1    3    3    0  502  0.89612993813E+03  0.27042051950E+03  0.33096694705E+02  0.93662774077E+03  0.10100000352E+00 0. -1.
</event>
<event>
 5   0  0.1049198E-05  0.2199984E+04  0.7818609E-02  0.8518435E-01
        1   -1    0    0  501    0  0.00000000000E+00  0.00000000000E+00  0.21653431853E+04  0.21653431853E+04  0.50400001928E-02 0.  1.
       -1   -1    0    0    0  501  0.00000000000E+00  0.00000000000E+00 -0.55879461059E+03  0.55879461061E+03  0.50400001928E-02 0. -1.
    10030    2    1    2    0    0  0.00000000000E+00  0.00000000000E+00  0.16065485747E+04  0.27241377959E+04  0.21999837291E+04 0.  0.
        1    1    3    3  502    0  0.96593642979E+03  0.15851509858E+03  0.18189562875E+03  0.99561350064E+03  0.50400001928E-02 0. -1.
       -1    1    3    3    0  502 -0.96593642979E+03 -0.15851509858E+03  0.14246529459E+04  0.17285242952E+04  0.50400001928E-02 0.  1.
</event>
<event>
 5   0  0.1007682E-05  0.2192194E+04  0.7818609E-02  0.8521684E-01
        1   -1    0    0  501    0  0.00000000000E+00  0.00000000000E+00  0.17014395731E+04  0.17014395731E+04  0.50400001928E-02 0. -1.
       -1   -1    0    0    0  501  0.00000000000E+00  0.00000000000E+00 -0.70612467155E+03  0.70612467157E+03  0.50400001928E-02 0.  1.
    10030    2    1    2    0    0  0.00000000000E+00  0.00000000000E+00  0.99531490157E+03  0.24075642447E+04  0.21921938416E+04 0.  0.
        2    1    3    3  502    0  0.51164822157E+03  0.65644784595E+03 -0.28566156865E+03  0.87994898084E+03  0.25500000920E-02 0.  1.
       -2    1    3    3    0  502 -0.51164822157E+03 -0.65644784595E+03  0.12809764702E+04  0.15276152638E+04  0.25500000920E-02 0. -1.
</event>
<event>
 5   0  0.2284329E-05  0.2199686E+04  0.7818609E-02  0.8518559E-01
       -2   -1    0    0    0  501  0.00000000000E+00  0.00000000000E+00  0.52709162860E+03  0.52709162860E+03  0.25500000920E-02 0.  1.
        2   -1    0    0  501    0  0.00000000000E+00  0.00000000000E+00 -0.22949600571E+04  0.22949600571E+04  0.25500000920E-02 0. -1.
    10030    2    1    2    0    0  0.00000000000E+00  0.00000000000E+00 -0.17678684285E+04  0.28220516857E+04  0.21996856449E+04 0.  0.
        2    1    3    3  502    0  0.33540320919E+03  0.53866556550E+03  0.26856506089E+03  0.68904506102E+03  0.25500000920E-02 0.  1.
       -2    1    3    3    0  502 -0.33540320919E+03 -0.53866556550E+03 -0.20364334894E+04  0.21330066246E+04  0.25500000920E-02 0. -1.
</event>
<event>
 5   0  0.1007682E-05  0.2202725E+04  0.7818609E-02  0.8517295E-01
        1   -1    0    0  501    0  0.00000000000E+00  0.00000000000E+00  0.11720946814E+04  0.11720946814E+04  0.50400001928E-02 0. -1.
       -1   -1    0    0    0  501  0.00000000000E+00  0.00000000000E+00 -0.10348983115E+04  0.10348983115E+04  0.50400001928E-02 0.  1.
    10030    2    1    2    0    0  0.00000000000E+00  0.00000000000E+00  0.13719636990E+03  0.22069929929E+04  0.22027245009E+04 0.  0.
        2    1    3    3  502    0 -0.51981716227E+02  0.32728085412E+03  0.11209591712E+04  0.11689158737E+04  0.25500000920E-02 0. -1.
       -2    1    3    3    0  502  0.51981716227E+02 -0.32728085412E+03 -0.98376280127E+03  0.10380771192E+04  0.25500000920E-02 0.  1.
</event>
<event>
 5   0  0.1033733E-05  0.2204870E+04  0.7818609E-02  0.8516404E-01
        1   -1    0    0  501    0  0.00000000000E+00  0.00000000000E+00  0.15752456919E+04  0.15752456919E+04  0.50400001928E-02 0.  1.
       -1   -1    0    0    0  501  0.00000000000E+00  0.00000000000E+00 -0.77153889819E+03  0.77153889820E+03  0.50400001928E-02 0. -1.
    10030    2    1    2    0    0  0.00000000000E+00  0.00000000000E+00  0.80370679367E+03  0.23467845901E+04  0.22048703595E+04 0.  0.
        5    1    3    3  502    0  0.68538747244E+03 -0.72927847972E+03  0.89392826948E+03  0.13419139053E+04  0.46999998093E+01 0.  1.
       -5    1    3    3    0  502 -0.68538747244E+03  0.72927847972E+03 -0.90221475808E+02  0.10048706847E+04  0.46999998093E+01 0. -1.
</event>
<event>
 5   0  0.8003875E-06  0.2191269E+04  0.7818609E-02  0.8522071E-01
       -3   -1    0    0    0  501  0.00000000000E+00  0.00000000000E+00  0.85823932536E+03  0.85823933130E+03  0.10100000352E+00 0.  1.
        3   -1    0    0  501    0  0.00000000000E+00  0.00000000000E+00 -0.13986948558E+04  0.13986948594E+04  0.10100000352E+00 0. -1.
    10030    2    1    2    0    0  0.00000000000E+00  0.00000000000E+00 -0.54045553040E+03  0.22569341907E+04  0.21912689841E+04 0.  0.
        5    1    3    3  502    0 -0.12563946835E+03 -0.51277370027E+03 -0.12590337729E+04  0.13652509934E+04  0.46999998093E+01 0. -1.
       -5    1    3    3    0  502  0.12563946835E+03  0.51277370027E+03  0.71857824252E+03  0.89168319728E+03  0.46999998093E+01 0.  1.
</event>
<event>
 5   0  0.2319707E-05  0.2191160E+04  0.7818609E-02  0.8522117E-01
       -2   -1    0    0    0  501  0.00000000000E+00  0.00000000000E+00  0.10142143999E+04  0.10142143999E+04  0.25500000920E-02 0.  1.
        2   -1    0    0  501    0  0.00000000000E+00  0.00000000000E+00 -0.11834726385E+04  0.11834726385E+04  0.25500000920E-02 0. -1.
    10030    2    1    2    0    0  0.00000000000E+00  0.00000000000E+00 -0.16925823857E+03  0.21976870385E+04  0.21911595030E+04 0.  0.
        3    1    3    3  502    0  0.87819056668E+03  0.11632332231E+03 -0.73117743775E+03  0.11486384298E+04  0.10100000352E+00 0. -1.
       -3    1    3    3    0  502 -0.87819056668E+03 -0.11632332231E+03  0.56191919919E+03  0.10490486087E+04  0.10100000352E+00 0.  1.
</event>
<event>
 5   0  0.2319707E-05  0.2189241E+04  0.7818609E-02  0.8522919E-01
       -2   -1    0    0    0  501  0.00000000000E+00  0.00000000000E+00  0.41909208339E+03  0.41909208340E+03  0.25500000920E-02 0.  1.
        2   -1    0    0  501    0  0.00000000000E+00  0.00000000000E+00 -0.28590245806E+04  0.28590245806E+04  0.25500000920E-02 0. -1.
    10030    2    1    2    0    0  0.00000000000E+00  0.00000000000E+00 -0.24399324972E+04  0.32781166640E+04  0.21892414832E+04 0.  0.
        3    1    3    3  502    0  0.14315401252E+03  0.68099649177E+02 -0.28417448885E+04  0.28461631463E+04  0.10100000352E+00 0. -1.
       -3    1    3    3    0  502 -0.14315401252E+03 -0.68099649177E+02  0.40181239128E+03  0.43195351776E+03  0.10100000352E+00 0.  1.
</event>
<event>
 5   0  0.2298329E-05  0.2198354E+04  0.7818609E-02  0.8519114E-01
       -2   -1    0    0    0  501  0.00000000000E+00  0.00000000000E+00  0.71788299085E+03  0.71788299085E+03  0.25500000920E-02 0.  1.
        2   -1    0    0  501    0  0.00000000000E+00  0.00000000000E+00 -0.16829902081E+04  0.16829902081E+04  0.25500000920E-02 0. -1.
    10030    2    1    2    0    0  0.00000000000E+00  0.00000000000E+00 -0.96510721727E+03  0.24008731990E+04  0.21983539698E+04 0.  0.
        4    1    3    3  502    0 -0.94070388179E+01  0.43365027472E+03  0.62046229310E+03  0.75704433371E+03  0.12699999809E+01 0.  1.
       -4    1    3    3    0  502  0.94070388179E+01 -0.43365027472E+03 -0.15855695104E+04  0.16438288653E+04  0.12699999809E+01 0. -1.
</event>
<event>
 5   0  0.2319707E-05  0.2198884E+04  0.7818609E-02  0.8518893E-01
       -2   -1    0    0    0  501  0.00000000000E+00  0.00000000000E+00  0.11376916466E+04  0.11376916466E+04  0.25500000920E-02 0. -1.
        2   -1    0    0  501    0  0.00000000000E+00  0.00000000000E+00 -0.10624786173E+04  0.10624786173E+04  0.25500000920E-02 0.  1.
    10030    2    1    2    0    0  0.00000000000E+00  0.00000000000E+00  0.75213029297E+02  0.22001702639E+04  0.21988843058E+04 0.  0.
        3    1    3    3  502    0  0.28594217383E+03 -0.83650410120E+01 -0.10245886855E+04  0.10637738882E+04  0.10100000352E+00 0.  1.
       -3    1    3    3    0  502 -0.28594217383E+03  0.83650410120E+01  0.10998017148E+04  0.11363963757E+04  0.10100000352E+00 0. -1.
</event>
<event>
 5   0  0.2229552E-05  0.2195601E+04  0.7818609E-02  0.8520261E-01
       -2   -1    0    0    0  501  0.00000000000E+00  0.00000000000E+00  0.16857567729E+04  0.16857567729E+04  0.25500000920E-02 0.  1.
        2   -1    0    0  501    0  0.00000000000E+00  0.00000000000E+00 -0.71491083857E+03  0.71491083858E+03  0.25500000920E-02 0. -1.
    10030    2    1    2    0    0  0.00000000000E+00  0.00000000000E+00  0.97084593429E+03  0.24006676114E+04  0.21956008637E+04 0.  0.
        1    1    3    3  502    0 -0.10451834214E+04 -0.88512427859E+02  0.13125123590E+03  0.10571044042E+04  0.50400001928E-02 0.  1.
       -1    1    3    3    0  502  0.10451834214E+04  0.88512427859E+02  0.83959469839E+03  0.13435632073E+04  0.50400001928E-02 0. -1.
</event>
<event>
 5   0  0.2319707E-05  0.2199734E+04  0.7818609E-02  0.8518539E-01
        2   -1    0    0  501    0  0.00000000000E+00  0.00000000000E+00  0.18157169389E+04  0.18157169389E+04  0.25500000920E-02 0. -1.
       -2   -1    0    0    0  501  0.00000000000E+00  0.00000000000E+00 -0.66624247627E+03  0.66624247628E+03  0.25500000920E-02 0.  1.
    10030    2    1    2    0    0  0.00000000000E+00  0.00000000000E+00  0.11494744627E+04  0.24819594152E+04  0.21997343018E+04 0.  0.
        3    1    3    3  502    0  0.24373585087E+03  0.93041635955E+03 -0.27214561384E+02  0.96219665852E+03  0.10100000352E+00 0.  1.
       -3    1    3    3    0  502 -0.24373585087E+03 -0.93041635955E+03  0.11766890241E+04  0.15197627567E+04  0.10100000352E+00 0. -1.
</event>
<event>
 5   0  0.2289708E-05  0.2200623E+04  0.7818609E-02  0.8518169E-01
        2   -1    0    0  501    0  0.00000000000E+00  0.00000000000E+00  0.24419170593E+04  0.24419170593E+04  0.25500000920E-02 0. -1.
       -2   -1    0    0    0  501  0.00000000000E+00  0.00000000000E+00 -0.49579283147E+03  0.49579283147E+03  0.25500000920E-02 0.  1.
    10030    2    1    2    0    0  0.00000000000E+00  0.00000000000E+00  0.19461242279E+04  0.29377098908E+04  0.22006226147E+04 0.  0.
        5    1    3    3  502    0  0.65916479409E+03 -0.32447889963E+03 -0.12035317358E+03  0.74450772895E+03  0.46999998093E+01 0.  1.
       -5    1    3    3    0  502 -0.65916479409E+03  0.32447889963E+03  0.20664774015E+04  0.21932021619E+04  0.46999998093E+01 0. -1.
</event>
<event>
 5   0  0.1005538E-05  0.2184154E+04  0.7818609E-02  0.8525052E-01
        1   -1    0    0  501    0  0.00000000000E+00  0.00000000000E+00  0.19347048947E+04  0.19347048947E+04  0.50400001928E-02 0. -1.
       -1   -1    0    0    0  501  0.00000000000E+00  0.00000000000E+00 -0.61644156760E+03  0.61644156762E+03  0.50400001928E-02 0.  1.
    10030    2    1    2    0    0  0.00000000000E+00  0.00000000000E+00  0.13182633271E+04  0.25511464623E+04  0.21841543152E+04 0.  0.
        3    1    3    3  502    0 -0.16363212918E+03  0.15953901733E+03  0.19064620528E+04  0.19201108668E+04  0.10100000352E+00 0. -1.
       -3    1    3    3    0  502  0.16363212918E+03 -0.15953901733E+03 -0.58819872569E+03  0.63103559556E+03  0.10100000352E+00 0.  1.
</event>
<event>
 5   0  0.1049198E-05  0.2182727E+04  0.7818609E-02  0.8525652E-01
       -1   -1    0    0    0  501  0.00000000000E+00  0.00000000000E+00  0.68050767361E+03  0.68050767363E+03  0.50400001928E-02 0.  1.
        1   -1    0    0  501    0  0.00000000000E+00  0.00000000000E+00 -0.17502728242E+04  0.17502728242E+04  0.50400001928E-02 0. -1.
    10030    2    1    2    0    0  0.00000000000E+00  0.00000000000E+00 -0.10697651506E+04  0.24307804978E+04  0.21827268155E+04 0.  0.
        1    1    3    3  502    0 -0.19172382193E+02  0.62009264727E+03 -0.15348031351E+04  0.16554465062E+04  0.50400001928E-02 0. -1.
       -1    1    3    3    0  502  0.19172382193E+02 -0.62009264727E+03  0.46503798453E+03  0.77533399159E+03  0.50400001928E-02 0.  1.
</event>
<event>
 5   0  0.1005538E-05  0.2169045E+04  0.7818609E-02  0.8531424E-01
       -1   -1    0    0    0  501  0.00000000000E+00  0.00000000000E+00  0.58605504153E+03  0.58605504155E+03  0.50400001928E-02 0. -1.
        1   -1    0    0  501    0  0.00000000000E+00  0.00000000000E+00 -0.20069604587E+04  0.20069604587E+04  0.50400001928E-02 0.  1.
    10030    2    1    2    0    0  0.00000000000E+00  0.00000000000E+00 -0.14209054172E+04  0.25930155003E+04  0.21690452231E+04 0.  0.
        3    1    3    3  502    0 -0.95135893946E+02 -0.16255141686E+03 -0.19872594711E+04  0.19961648271E+04  0.10100000352E+00 0.  1.
       -3    1    3    3    0  502  0.95135893946E+02  0.16255141686E+03  0.56635405391E+03  0.59685067313E+03  0.10100000352E+00 0. -1.
</event>
<event>
 5   0  0.1049198E-05  0.2199479E+04  0.7818609E-02  0.8518645E-01
       -1   -1    0    0    0  501  0.00000000000E+00  0.00000000000E+00  0.73627707550E+03  0.73627707551E+03  0.50400001928E-02 0. -1.
        1   -1    0    0  501    0  0.00000000000E+00  0.00000000000E+00 -0.16426243023E+04  0.16426243023E+04  0.50400001928E-02 0.  1.
    10030    2    1    2    0    0  0.00000000000E+00  0.00000000000E+00 -0.90634722683E+03  0.23789013779E+04  0.21994786814E+04 0.  0.
        1    1    3    3  502    0  0.28051143563E+03  0.38858083102E+03 -0.15237389672E+04  0.15973296992E+04  0.50400001928E-02 0.  1.
       -1    1    3    3    0  502 -0.28051143563E+03 -0.38858083102E+03  0.61739174037E+03  0.78157167865E+03  0.50400001928E-02 0. -1.
</event>
<event>
 5   0  0.1071208E-05  0.2205908E+04  0.7818609E-02  0.8515973E-01
        1   -1    0    0  501    0  0.00000000000E+00  0.00000000000E+00  0.94242061234E+03  0.94242061236E+03  0.50400001928E-02 0. -1.
       -1   -1    0    0    0  501  0.00000000000E+00  0.00000000000E+00 -0.12908323309E+04  0.12908323309E+04  0.50400001928E-02 0.  1.
    10030    2    1    2    0    0  0.00000000000E+00  0.00000000000E+00 -0.34841171852E+03  0.22332529432E+04  0.22059075191E+04 0.  0.
        4    1    3    3  502    0 -0.84746239839E+03  0.13044398026E+03  0.52815014096E+03  0.10070513060E+04  0.12699999809E+01 0. -1.
       -4    1    3    3    0  502  0.84746239839E+03 -0.13044398026E+03 -0.87656185949E+03  0.12262016372E+04  0.12699999809E+01 0.  1.
</event>
<event>
 5   0  0.2298329E-05  0.2254574E+04  0.7818609E-02  0.8496051E-01
        2   -1    0    0  501    0  0.00000000000E+00  0.00000000000E+00  0.20267849248E+04  0.20267849248E+04  0.25500000920E-02 0.  1.
       -2   -1    0    0    0  501  0.00000000000E+00  0.00000000000E+00 -0.62699086442E+03  0.62699086443E+03  0.25500000920E-02 0. -1.
    10030    2    1    2    0    0  0.00000000000E+00  0.00000000000E+00  0.13997940603E+04  0.26537757892E+04  0.22545736909E+04 0.  0.
        4    1    3    3  502    0  0.30816013088E+03  0.68275069160E+03  0.16914726203E+04  0.18499168660E+04  0.12699999809E+01 0.  1.
       -4    1    3    3    0  502 -0.30816013088E+03 -0.68275069160E+03 -0.29167855992E+03  0.80385892318E+03  0.12699999809E+01 0. -1.
</event>
<event>
 5   0  0.2289708E-05  0.2215755E+04  0.7818609E-02  0.8511899E-01
       -2   -1    0    0    0  501  0.00000000000E+00  0.00000000000E+00  0.75876008961E+03  0.75876008961E+03  0.25500000920E-02 0. -1.
        2   -1    0    0  501    0  0.00000000000E+00  0.00000000000E+00 -0.16176295705E+04  0.16176295705E+04  0.25500000920E-02 0.  1.
    10030    2    1    2    0    0  0.00000000000E+00  0.00000000000E+00 -0.85886948092E+03  0.23763896601E+04  0.22157551831E+04 0.  0.
        5    1    3    3  502    0  0.35201047810E+03  0.16530595556E+03  0.68313924709E+03  0.78609080681E+03  0.46999998093E+01 0. -1.
       -5    1    3    3    0  502 -0.35201047810E+03 -0.16530595556E+03 -0.15420087280E+04  0.15902988533E+04  0.46999998093E+01 0.  1.
</event>
<event>
 5   0  0.1049198E-05  0.2206227E+04  0.7818609E-02  0.8515841E-01
        1   -1    0    0  501    0  0.00000000000E+00  0.00000000000E+00  0.18732140817E+04  0.18732140817E+04  0.50400001928E-02 0. -1.
       -1   -1    0    0    0  501  0.00000000000E+00  0.00000000000E+00 -0.64961064649E+03  0.64961064651E+03  0.50400001928E-02 0.  1.
    10030    2    1    2    0    0  0.00000000000E+00  0.00000000000E+00  0.12236034352E+04  0.25228247282E+04  0.22062273778E+04 0.  0.
        1    1    3    3  502    0 -0.30328067383E+02  0.49818726952E+03  0.17367130171E+04  0.18070092560E+04  0.50400001928E-02 0. -1.
       -1    1    3    3    0  502  0.30328067383E+02 -0.49818726952E+03 -0.51310958195E+03  0.71581547224E+03  0.50400001928E-02 0.  1.
</event>
<event>
 5   0  0.2319707E-05  0.2195559E+04  0.7818609E-02  0.8520279E-01
       -2   -1    0    0    0  501  0.00000000000E+00  0.00000000000E+00  0.83210886630E+03  0.83210886630E+03  0.25500000920E-02 0. -1.
        2   -1    0    0  501    0  0.00000000000E+00  0.00000000000E+00 -0.14482719684E+04  0.14482719684E+04  0.25500000920E-02 0.  1.
    10030    2    1    2    0    0  0.00000000000E+00  0.00000000000E+00 -0.61616310208E+03  0.22803808347E+04  0.21955591048E+04 0.  0.
        3    1    3    3  502    0 -0.57978870844E+03  0.91023433375E+03 -0.51694357505E+03  0.11966253210E+04  0.10100000352E+00 0.  1.
       -3    1    3    3    0  502  0.57978870844E+03 -0.91023433375E+03 -0.99219527028E+02  0.10837555137E+04  0.10100000352E+00 0. -1.
</event>
<event>
 5   0  0.2229552E-05  0.2188441E+04  0.7818609E-02  0.8523255E-01
        2   -1    0    0  501    0  0.00000000000E+00  0.00000000000E+00  0.77284356364E+03  0.77284356364E+03  0.25500000920E-02 0. -1.
       -2   -1    0    0    0  501  0.00000000000E+00  0.00000000000E+00 -0.15492378786E+04  0.15492378786E+04  0.25500000920E-02 0.  1.
    10030    2    1    2    0    0  0.00000000000E+00  0.00000000000E+00 -0.77639431492E+03  0.23220814422E+04  0.21884410186E+04 0.  0.
        1    1    3    3  502    0 -0.10240953954E+04  0.38282287543E+03 -0.43557576908E+03  0.11768818902E+04  0.50400001928E-02 0. -1.
       -1    1    3    3    0  502  0.10240953954E+04 -0.38282287543E+03 -0.34081854585E+03  0.11451995520E+04  0.50400001928E-02 0.  1.
</event>
<event>
 5   0  0.2284329E-05  0.2210261E+04  0.7818609E-02  0.8514169E-01
        2   -1    0    0  501    0  0.00000000000E+00  0.00000000000E+00  0.15640649941E+04  0.15640649941E+04  0.25500000920E-02 0. -1.
       -2   -1    0    0    0  501  0.00000000000E+00  0.00000000000E+00 -0.78085833099E+03  0.78085833100E+03  0.25500000920E-02 0.  1.
    10030    2    1    2    0    0  0.00000000000E+00  0.00000000000E+00  0.78320666313E+03  0.23449233251E+04  0.22102607818E+04 0.  0.
        2    1    3    3  502    0  0.31109225815E+03 -0.87795824853E+03  0.10225860357E+04  0.13832104973E+04  0.25500000920E-02 0. -1.
       -2    1    3    3    0  502 -0.31109225815E+03  0.87795824853E+03 -0.23937937261E+03  0.96171282786E+03  0.25500000920E-02 0.  1.
</event>
<event>
 5   0  0.1007682E-05  0.2202096E+04  0.7818609E-02  0.8517556E-01
       -1   -1    0    0    0  501  0.00000000000E+00  0.00000000000E+00  0.85184619867E+03  0.85184619868E+03  0.50400001928E-02 0.  1.
        1   -1    0    0  501    0  0.00000000000E+00  0.00000000000E+00 -0.14231522980E+04  0.14231522980E+04  0.50400001928E-02 0. -1.
    10030    2    1    2    0    0  0.00000000000E+00  0.00000000000E+00 -0.57130609931E+03  0.22749984967E+04  0.22020961606E+04 0.  0.
        2    1    3    3  502    0  0.37135528527E+03  0.98083448051E+03 -0.63196063427E+03  0.12244652994E+04  0.25500000920E-02 0. -1.
       -2    1    3    3    0  502 -0.37135528527E+03 -0.98083448051E+03  0.60654534966E+02  0.10505331973E+04  0.25500000920E-02 0.  1.
</event>
<event>
 5   0  0.1071208E-05  0.2203428E+04  0.7818609E-02  0.8517003E-01
        1   -1    0    0  501    0  0.00000000000E+00  0.00000000000E+00  0.20932922624E+04  0.20932922624E+04  0.50400001928E-02 0.  1.
       -1   -1    0    0    0  501  0.00000000000E+00  0.00000000000E+00 -0.57983959478E+03  0.57983959480E+03  0.50400001928E-02 0. -1.
    10030    2    1    2    0    0  0.00000000000E+00  0.00000000000E+00  0.15134526677E+04  0.26731318572E+04  0.22034279995E+04 0.  0.
        4    1    3    3  502    0 -0.44042147965E+03  0.42419670618E+03  0.18685207820E+04  0.19660329222E+04  0.12699999809E+01 0.  1.
       -4    1    3    3    0  502  0.44042147965E+03 -0.42419670618E+03 -0.35506811436E+03  0.70709893509E+03  0.12699999809E+01 0. -1.
</event>
<event>
 5   0  0.2289708E-05  0.2200107E+04  0.7818609E-02  0.8518383E-01
        2   -1    0    0  501    0  0.00000000000E+00  0.00000000000E+00  0.20105804294E+04  0.20105804294E+04  0.25500000920E-02 0.  1.
       -2   -1    0    0    0  501  0.00000000000E+00  0.00000000000E+00 -0.60187504198E+03  0.60187504199E+03  0.25500000920E-02 0. -1.
    10030    2    1    2    0    0  0.00000000000E+00  0.00000000000E+00  0.14087053874E+04  0.26124554714E+04  0.22001074341E+04 0.  0.
        5    1    3    3  502    0  0.93384699755E+03  0.60531337733E+02  0.17737583326E+02  0.93598662894E+03  0.46999998093E+01 0. -1.
       -5    1    3    3    0  502 -0.93384699755E+03 -0.60531337733E+02  0.13909678041E+04  0.16764688424E+04  0.46999998093E+01 0.  1.
</event>
<event>
 5   0  0.8003875E-06  0.2201386E+04  0.7818609E-02  0.8517851E-01
        4   -1    0    0  501    0  0.00000000000E+00  0.00000000000E+00  0.79698550626E+03  0.79698651813E+03  0.12699999809E+01 0. -1.
       -4   -1    0    0    0  501  0.00000000000E+00  0.00000000000E+00 -0.15201328366E+04  0.15201333671E+04  0.12699999809E+01 0.  1.
    10030    2    1    2    0    0  0.00000000000E+00  0.00000000000E+00 -0.72314733031E+03  0.23171198852E+04  0.22013864952E+04 0.  0.
        5    1    3    3  502    0  0.14320761023E+03 -0.69535725672E+03  0.52376058269E+03  0.88225697622E+03  0.46999998093E+01 0. -1.
       -5    1    3    3    0  502 -0.14320761023E+03  0.69535725672E+03 -0.12469079130E+04  0.14348629090E+04  0.46999998093E+01 0.  1.
</event>
<event>
 5   0  0.1033733E-05  0.2171701E+04  0.7818609E-02  0.8530300E-01
        1   -1    0    0  501    0  0.00000000000E+00  0.00000000000E+00  0.88417774631E+03  0.88417774633E+03  0.50400001928E-02 0.  1.
       -1   -1    0    0    0  501  0.00000000000E+00  0.00000000000E+00 -0.13335232037E+04  0.13335232037E+04  0.50400001928E-02 0. -1.
    10030    2    1    2    0    0  0.00000000000E+00  0.00000000000E+00 -0.44934545741E+03  0.22177009501E+04  0.21717012142E+04 0.  0.
        5    1    3    3  502    0  0.95877257519E+03 -0.20087330688E+03 -0.70305510098E+03  0.12057792092E+04  0.46999998093E+01 0. -1.
       -5    1    3    3    0  502 -0.95877257519E+03  0.20087330688E+03  0.25370964358E+03  0.10119217408E+04  0.46999998093E+01 0.  1.
</event>
<event>
 5   0  0.1071208E-05  0.2177086E+04  0.7818609E-02  0.8528026E-01
       -1   -1    0    0    0  501  0.00000000000E+00  0.00000000000E+00  0.82635258364E+03  0.82635258365E+03  0.50400001928E-02 0. -1.
        1   -1    0    0  501    0  0.00000000000E+00  0.00000000000E+00 -0.14339229094E+04  0.14339229094E+04  0.50400001928E-02 0.  1.
    10030    2    1    2    0    0  0.00000000000E+00  0.00000000000E+00 -0.60757032578E+03  0.22602754931E+04  0.21770860350E+04 0.  0.
        4    1    3    3  502    0  0.60542823449E+03  0.44377713174E+02  0.63429587392E+03  0.87797813021E+03  0.12699999809E+01 0. -1.
       -4    1    3    3    0  502 -0.60542823449E+03 -0.44377713174E+02 -0.12418661997E+04  0.13822973629E+04  0.12699999809E+01 0.  1.
</event>
<event>
 5   0  0.1005538E-05  0.2198823E+04  0.7818609E-02  0.8518918E-01
        1   -1    0    0  501    0  0.00000000000E+00  0.00000000000E+00  0.13402794839E+04  0.13402794839E+04  0.50400001928E-02 0. -1.
       -1   -1    0    0    0  501  0.00000000000E+00  0.00000000000E+00 -0.90183114684E+03  0.90183114686E+03  0.50400001928E-02 0.  1.
    10030    2    1    2    0    0  0.00000000000E+00  0.00000000000E+00  0.43844833708E+03  0.22421106308E+04  0.21988231253E+04 0.  0.
        3    1    3    3  502    0  0.89571566318E+03  0.61268330550E+03  0.39881178262E+03  0.11561739619E+04  0.10100000352E+00 0. -1.
       -3    1    3    3    0  502 -0.89571566318E+03 -0.61268330550E+03  0.39636554458E+02  0.10859366689E+04  0.10100000352E+00 0.  1.
</event>
<event>
 5   0  0.1033733E-05  0.2160969E+04  0.7818609E-02  0.8534852E-01
        1   -1    0    0  501    0  0.00000000000E+00  0.00000000000E+00  0.13735446123E+04  0.13735446123E+04  0.50400001928E-02 0. -1.
       -1   -1    0    0    0  501  0.00000000000E+00  0.00000000000E+00 -0.84995189332E+03  0.84995189333E+03  0.50400001928E-02 0.  1.
    10030    2    1    2    0    0  0.00000000000E+00  0.00000000000E+00  0.52359271901E+03  0.22234965057E+04  0.21609690825E+04 0.  0.
        5    1    3    3  502    0 -0.10271507354E+03  0.10486575723E+04  0.50786386246E+03  0.11696926447E+04  0.46999998093E+01 0. -1.
       -5    1    3    3    0  502  0.10271507354E+03 -0.10486575723E+04  0.15728856550E+02  0.10538038609E+04  0.46999998093E+01 0.  1.
</event>
<event>
 5   0  0.1049198E-05  0.2149209E+04  0.7818609E-02  0.8539871E-01
       -1   -1    0    0    0  501  0.00000000000E+00  0.00000000000E+00  0.66056816349E+03  0.66056816351E+03  0.50400001928E-02 0. -1.
        1   -1    0    0  501    0  0.00000000000E+00  0.00000000000E+00 -0.17481537956E+04  0.17481537956E+04  0.50400001928E-02 0.  1.
    10030    2    1    2    0    0  0.00000000000E+00  0.00000000000E+00 -0.10875856321E+04  0.24087219591E+04  0.21492089171E+04 0.  0.
        1    1    3    3  502    0 -0.78515931558E+03 -0.52588185259E+03  0.29596524477E+02  0.94546434518E+03  0.50400001928E-02 0. -1.
       -1    1    3    3    0  502  0.78515931558E+03  0.52588185259E+03 -0.11171821566E+04  0.14632576139E+04  0.50400001928E-02 0.  1.
</event>
<event>
 5   0  0.8003875E-06  0.2231922E+04  0.7818609E-02  0.8505258E-01
       -3   -1    0    0    0  501  0.00000000000E+00  0.00000000000E+00  0.10952212919E+04  0.10952212966E+04  0.10100000352E+00 0. -1.
        3   -1    0    0  501    0  0.00000000000E+00  0.00000000000E+00 -0.11370936614E+04  0.11370936659E+04  0.10100000352E+00 0.  1.
    10030    2    1    2    0    0  0.00000000000E+00  0.00000000000E+00 -0.41872369461E+02  0.22323149625E+04  0.22319222200E+04 0.  0.
        5    1    3    3  502    0  0.63508537067E+03  0.25295350514E+03 -0.90315046844E+03  0.11327055056E+04  0.46999998093E+01 0.  1.
       -5    1    3    3    0  502 -0.63508537067E+03 -0.25295350514E+03  0.86127809898E+03  0.10996094568E+04  0.46999998093E+01 0. -1.
</event>
<event>
 5   0  0.2229552E-05  0.2148404E+04  0.7818609E-02  0.8540216E-01
        2   -1    0    0  501    0  0.00000000000E+00  0.00000000000E+00  0.18205617202E+04  0.18205617202E+04  0.25500000920E-02 0. -1.
       -2   -1    0    0    0  501  0.00000000000E+00  0.00000000000E+00 -0.63382087173E+03  0.63382087173E+03  0.25500000920E-02 0.  1.
    10030    2    1    2    0    0  0.00000000000E+00  0.00000000000E+00  0.11867408485E+04  0.24543825919E+04  0.21484040742E+04 0.  0.
        1    1    3    3  502    0  0.20210088852E+03  0.13075458382E+02 -0.61181327720E+03  0.64446196391E+03  0.50400001928E-02 0.  1.
       -1    1    3    3    0  502 -0.20210088852E+03 -0.13075458382E+02  0.17985541257E+04  0.18099206280E+04  0.50400001928E-02 0. -1.
</event>
<event>
 5   0  0.1049198E-05  0.2198786E+04  0.7818609E-02  0.8518934E-01
       -1   -1    0    0    0  501  0.00000000000E+00  0.00000000000E+00  0.93612037385E+03  0.93612037386E+03  0.50400001928E-02 0. -1.
        1   -1    0    0  501    0  0.00000000000E+00  0.00000000000E+00 -0.12911424056E+04  0.12911424056E+04  0.50400001928E-02 0.  1.
    10030    2    1    2    0    0  0.00000000000E+00  0.00000000000E+00 -0.35502203175E+03  0.22272627795E+04  0.21987857662E+04 0.  0.
        1    1    3    3  502    0  0.53508557492E+03  0.87134303058E+03  0.23158770367E+03  0.10484217252E+04  0.50400001928E-02 0. -1.
       -1    1    3    3    0  502 -0.53508557492E+03 -0.87134303058E+03 -0.58660973542E+03  0.11788410542E+04  0.50400001928E-02 0.  1.
</event>
<event>
 5   0  0.2298329E-05  0.2195910E+04  0.7818609E-02  0.8520132E-01
       -2   -1    0    0    0  501  0.00000000000E+00  0.00000000000E+00  0.49680703579E+03  0.49680703580E+03  0.25500000920E-02 0. -1.
        2   -1    0    0  501    0  0.00000000000E+00  0.00000000000E+00 -0.24265056206E+04  0.24265056206E+04  0.25500000920E-02 0.  1.
    10030    2    1    2    0    0  0.00000000000E+00  0.00000000000E+00 -0.19296985848E+04  0.29233126564E+04  0.21959098932E+04 0.  0.
        4    1    3    3  502    0 -0.47845101064E+03 -0.73762740481E+03 -0.89360195884E+02  0.88374001574E+03  0.12699999809E+01 0. -1.
       -4    1    3    3    0  502  0.47845101064E+03  0.73762740481E+03 -0.18403383889E+04  0.20395726407E+04  0.12699999809E+01 0.  1.
</event>
<event>
 5   0  0.2289708E-05  0.2184818E+04  0.7818609E-02  0.8524774E-01
       -2   -1    0    0    0  501  0.00000000000E+00  0.00000000000E+00  0.58179023772E+03  0.58179023772E+03  0.25500000920E-02 0.  1.
        2   -1    0    0  501    0  0.00000000000E+00  0.00000000000E+00 -0.20511816243E+04  0.20511816243E+04  0.25500000920E-02 0. -1.
    10030    2    1    2    0    0  0.00000000000E+00  0.00000000000E+00 -0.14693913866E+04  0.26329718620E+04  0.21848180197E+04 0.  0.
        5    1    3    3  502    0 -0.51954416059E+03  0.16108756840E+03 -0.18763602096E+04  0.19536184544E+04  0.46999998093E+01 0. -1.
       -5    1    3    3    0  502  0.51954416059E+03 -0.16108756840E+03  0.40696882299E+03  0.67935340758E+03  0.46999998093E+01 0.  1.
</event>
<event>
 5   0  0.1007682E-05  0.2180024E+04  0.7818609E-02  0.8526789E-01
       -1   -1    0    0    0  501  0.00000000000E+00  0.00000000000E+00  0.83989126927E+03  0.83989126929E+03  0.50400001928E-02 0. -1.
        1   -1    0    0  501    0  0.00000000000E+00  0.00000000000E+00 -0.14146193409E+04  0.14146193409E+04  0.50400001928E-02 0.  1.
    10030    2    1    2    0    0  0.00000000000E+00  0.00000000000E+00 -0.57472807161E+03  0.22545106102E+04  0.21800242510E+04 0.  0.
        2    1    3    3  502    0  0.69651606640E+02  0.79164995666E+03 -0.10588873848E+04  0.13239348525E+04  0.25500000920E-02 0.  1.
       -2    1    3    3    0  502 -0.69651606640E+02 -0.79164995666E+03  0.48415931314E+03  0.93057575763E+03  0.25500000920E-02 0. -1.
</event>
<event>
 5   0  0.1049198E-05  0.2215496E+04  0.7818609E-02  0.8512006E-01
        1   -1    0    0  501    0  0.00000000000E+00  0.00000000000E+00  0.23956980353E+04  0.23956980353E+04  0.50400001928E-02 0. -1.
       -1   -1    0    0    0  501  0.00000000000E+00  0.00000000000E+00 -0.51221213053E+03  0.51221213056E+03  0.50400001928E-02 0.  1.
    10030    2    1    2    0    0  0.00000000000E+00  0.00000000000E+00  0.18834859048E+04  0.29079101659E+04  0.22154959669E+04 0.  0.
        1    1    3    3  502    0  0.24870790681E+02  0.10478919264E+04  0.14120794521E+04  0.17585972889E+04  0.50400001928E-02 0. -1.
       -1    1    3    3    0  502 -0.24870790681E+02 -0.10478919264E+04  0.47140645276E+03  0.11493128770E+04  0.50400001928E-02 0.  1.
</event>
<event>
 5   0  0.2284329E-05  0.2199838E+04  0.7818609E-02  0.8518496E-01
        2   -1    0    0  501    0  0.00000000000E+00  0.00000000000E+00  0.67400937037E+03  0.67400937037E+03  0.25500000920E-02 0. -1.
       -2   -1    0    0    0  501  0.00000000000E+00  0.00000000000E+00 -0.17949627524E+04  0.17949627524E+04  0.25500000920E-02 0.  1.
    10030    2    1    2    0    0  0.00000000000E+00  0.00000000000E+00 -0.11209533820E+04  0.24689721228E+04  0.21998379164E+04 0.  0.
        2    1    3    3  502    0 -0.85657976335E+03  0.59086977944E+03 -0.16056071347E+03  0.10529177223E+04  0.25500000920E-02 0. -1.
       -2    1    3    3    0  502  0.85657976335E+03 -0.59086977944E+03 -0.96039266854E+03  0.14160544004E+04  0.25500000920E-02 0.  1.
</event>
<event>
 5   0  0.1005538E-05  0.2192572E+04  0.7818609E-02  0.8521526E-01
        1   -1    0    0  501    0  0.00000000000E+00  0.00000000000E+00  0.10232434343E+04  0.10232434344E+04  0.50400001928E-02 0. -1.
       -1   -1    0    0    0  501  0.00000000000E+00  0.00000000000E+00 -0.11745425755E+04  0.11745425756E+04  0.50400001928E-02 0.  1.
    10030    2    1    2    0    0  0.00000000000E+00  0.00000000000E+00 -0.15129914120E+03  0.21977860099E+04  0.21925719863E+04 0.  0.
        3    1    3    3  502    0  0.43063069680E+03  0.54977899091E+02 -0.10847100433E+04  0.11683583588E+04  0.10100000352E+00 0.  1.
       -3    1    3    3    0  502 -0.43063069680E+03 -0.54977899091E+02  0.93341090210E+03  0.10294276511E+04  0.10100000352E+00 0. -1.
</event>
<event>
 5   0  0.1005538E-05  0.2224232E+04  0.7818609E-02  0.8508409E-01
       -1   -1    0    0    0  501  0.00000000000E+00  0.00000000000E+00  0.97968616760E+03  0.97968616761E+03  0.50400001928E-02 0.  1.
        1   -1    0    0  501    0  0.00000000000E+00  0.00000000000E+00 -0.12624472056E+04  0.12624472056E+04  0.50400001928E-02 0. -1.
    10030    2    1    2    0    0  0.00000000000E+00  0.00000000000E+00 -0.28276103802E+03  0.22421333732E+04  0.22242320605E+04 0.  0.
        3    1    3    3  502    0  0.49309749595E+03  0.11808668627E+03 -0.11391510196E+04  0.12468980158E+04  0.10100000352E+00 0. -1.
       -3    1    3    3    0  502 -0.49309749595E+03 -0.11808668627E+03  0.85638998160E+03  0.99523535748E+03  0.10100000352E+00 0.  1.
</event>
<event>
 5   0  0.2284329E-05  0.2223996E+04  0.7818609E-02  0.8508506E-01
       -2   -1    0    0    0  501  0.00000000000E+00  0.00000000000E+00  0.12991253111E+04  0.12991253111E+04  0.25500000920E-02 0. -1.
        2   -1    0    0  501    0  0.00000000000E+00  0.00000000000E+00 -0.95182469618E+03  0.95182469619E+03  0.25500000920E-02 0.  1.
    10030    2    1    2    0    0  0.00000000000E+00  0.00000000000E+00  0.34730061491E+03  0.22509500073E+04  0.22239960023E+04 0.  0.
        2    1    3    3  502    0 -0.72444650817E+03 -0.46002614996E+03  0.88939333789E+03  0.12359074849E+04  0.25500000920E-02 0. -1.
       -2    1    3    3    0  502  0.72444650817E+03  0.46002614996E+03 -0.54209272297E+03  0.10150425223E+04  0.25500000920E-02 0.  1.
</event>
<event>
 5   0  0.1033733E-05  0.2208403E+04  0.7818609E-02  0.8514939E-01
       -1   -1    0    0    0  501  0.00000000000E+00  0.00000000000E+00  0.72003073734E+03  0.72003073736E+03  0.50400001928E-02 0.  1.
        1   -1    0    0  501    0  0.00000000000E+00  0.00000000000E+00 -0.16933460077E+04  0.16933460077E+04  0.50400001928E-02 0. -1.
    10030    2    1    2    0    0  0.00000000000E+00  0.00000000000E+00 -0.97331527039E+03  0.24133767451E+04  0.22084032010E+04 0.  0.
        5    1    3    3  502    0  0.10551744120E+04  0.28383800589E+02 -0.13247688883E+03  0.10638472146E+04  0.46999998093E+01 0.  1.
       -5    1    3    3    0  502 -0.10551744120E+04 -0.28383800589E+02 -0.84083838156E+03  0.13495295305E+04  0.46999998093E+01 0. -1.
</event>
<event>
 5   0  0.2319707E-05  0.2199302E+04  0.7818609E-02  0.8518719E-01
       -2   -1    0    0    0  501  0.00000000000E+00  0.00000000000E+00  0.17714574534E+04  0.17714574534E+04  0.25500000920E-02 0.  1.
        2   -1    0    0  501    0  0.00000000000E+00  0.00000000000E+00 -0.68262026066E+03  0.68262026067E+03  0.25500000920E-02 0. -1.
    10030    2    1    2    0    0  0.00000000000E+00  0.00000000000E+00  0.10888371927E+04  0.24540777141E+04  0.21993023881E+04 0.  0.
        3    1    3    3  502    0  0.92372756713E+03  0.30859810320E+03 -0.25347554897E+02  0.97424222671E+03  0.10100000352E+00 0. -1.
       -3    1    3    3    0  502 -0.92372756713E+03 -0.30859810320E+03  0.11141847476E+04  0.14798354873E+04  0.10100000352E+00 0.  1.
</event>
<event>
 5   0  0.2319707E-05  0.2195515E+04  0.7818609E-02  0.8520297E-01
       -2   -1    0    0    0  501  0.00000000000E+00  0.00000000000E+00  0.82216102932E+03  0.82216102933E+03  0.25500000920E-02 0. -1.
        2   -1    0    0  501    0  0.00000000000E+00  0.00000000000E+00 -0.14657370064E+04  0.14657370064E+04  0.25500000920E-02 0.  1.
    10030    2    1    2    0    0  0.00000000000E+00  0.00000000000E+00 -0.64357597706E+03  0.22878980357E+04  0.21955152889E+04 0.  0.
        3    1    3    3  502    0  0.46149800595E+03 -0.22952435297E+03 -0.13318029070E+04  0.14280619144E+04  0.10100000352E+00 0.  1.
       -3    1    3    3    0  502 -0.46149800595E+03  0.22952435297E+03  0.68822692997E+03  0.85983612127E+03  0.10100000352E+00 0. -1.
</event>
<event>
 5   0  0.2284329E-05  0.2200405E+04  0.7818609E-02  0.8518259E-01
        2   -1    0    0  501    0  0.00000000000E+00  0.00000000000E+00  0.90019284953E+03  0.90019284953E+03  0.25500000920E-02 0.  1.
       -2   -1    0    0    0  501  0.00000000000E+00  0.00000000000E+00 -0.13446518924E+04  0.13446518924E+04  0.25500000920E-02 0. -1.
    10030    2    1    2    0    0  0.00000000000E+00  0.00000000000E+00 -0.44445904282E+03  0.22448447419E+04  0.22004054341E+04 0.  0.
        2    1    3    3  502    0 -0.75129789354E+03  0.68280385203E+02  0.59477821204E+03  0.96066219733E+03  0.25500000920E-02 0.  1.
       -2    1    3    3    0  502  0.75129789354E+03 -0.68280385203E+02 -0.10392372549E+04  0.12841825446E+04  0.25500000920E-02 0. -1.
</event>
<event>
 5   0  0.1071208E-05  0.2190989E+04  0.7818609E-02  0.8522188E-01
        1   -1    0    0  501    0  0.00000000000E+00  0.00000000000E+00  0.15911738177E+04  0.15911738177E+04  0.50400001928E-02 0. -1.
       -1   -1    0    0    0  501  0.00000000000E+00  0.00000000000E+00 -0.75422849905E+03  0.75422849907E+03  0.50400001928E-02 0.  1.
    10030    2    1    2    0    0  0.00000000000E+00  0.00000000000E+00  0.83694531868E+03  0.23454023168E+04  0.21909894024E+04 0.  0.
        4    1    3    3  502    0 -0.51015305847E+03 -0.94771874495E+03  0.19992746270E+03  0.10947143764E+04  0.12699999809E+01 0. -1.
       -4    1    3    3    0  502  0.51015305847E+03  0.94771874495E+03  0.63701785598E+03  0.12506879404E+04  0.12699999809E+01 0.  1.
</event>
<event>
 5   0  0.2229552E-05  0.2199812E+04  0.7818609E-02  0.8518506E-01
        2   -1    0    0  501    0  0.00000000000E+00  0.00000000000E+00  0.19105426834E+04  0.19105426834E+04  0.25500000920E-02 0. -1.
       -2   -1    0    0    0  501  0.00000000000E+00  0.00000000000E+00 -0.63321979524E+03  0.63321979525E+03  0.25500000920E-02 0.  1.
    10030    2    1    2    0    0  0.00000000000E+00  0.00000000000E+00  0.12773228881E+04  0.25437624786E+04  0.21998122163E+04 0.  0.
        1    1    3    3  502    0 -0.10028632857E+03  0.29861711720E+03  0.18572658018E+04  0.18837902720E+04  0.50400001928E-02 0. -1.
       -1    1    3    3    0  502  0.10028632857E+03 -0.29861711720E+03 -0.57994291366E+03  0.65997220662E+03  0.50400001928E-02 0.  1.
</event>
<event>
 5   0  0.2284329E-05  0.2178716E+04  0.7818609E-02  0.8527339E-01
        2   -1    0    0  501    0  0.00000000000E+00  0.00000000000E+00  0.15451634423E+04  0.15451634423E+04  0.25500000920E-02 0. -1.
       -2   -1    0    0    0  501  0.00000000000E+00  0.00000000000E+00 -0.76801008919E+03  0.76801008920E+03  0.25500000920E-02 0.  1.
    10030    2    1    2    0    0  0.00000000000E+00  0.00000000000E+00  0.77715335311E+03  0.23131735315E+04  0.21787162396E+04 0.  0.
        2    1    3    3  502    0  0.11098999433E+03 -0.42903843343E+03  0.14451332727E+04  0.15115564601E+04  0.25500000920E-02 0. -1.
       -2    1    3    3    0  502 -0.11098999433E+03  0.42903843343E+03 -0.66797991958E+03  0.80161707141E+03  0.25500000920E-02 0.  1.
</event>
<event>
 5   0  0.2229552E-05  0.2188881E+04  0.7818609E-02  0.8523070E-01
        2   -1    0    0  501    0  0.00000000000E+00  0.00000000000E+00  0.20167072448E+04  0.20167072448E+04  0.25500000920E-02 0. -1.
       -2   -1    0    0    0  501  0.00000000000E+00  0.00000000000E+00 -0.59393867039E+03  0.59393867040E+03  0.25500000920E-02 0.  1.
    10030    2    1    2    0    0  0.00000000000E+00  0.00000000000E+00  0.14227685744E+04  0.26106459152E+04  0.21888813760E+04 0.  0.
        1    1    3    3  502    0 -0.42647243994E+03  0.96503547503E+03  0.10583474132E+04  0.14944134158E+04  0.50400001928E-02 0.  1.
       -1    1    3    3    0  502  0.42647243994E+03 -0.96503547503E+03  0.36442116120E+03  0.11162324995E+04  0.50400001928E-02 0. -1.
</event>
<event>
 5   0  0.2319707E-05  0.2116616E+04  0.7818609E-02  0.8553959E-01
        2   -1    0    0  501    0  0.00000000000E+00  0.00000000000E+00  0.96199424349E+03  0.96199424349E+03  0.25500000920E-02 0. -1.
       -2   -1    0    0    0  501  0.00000000000E+00  0.00000000000E+00 -0.11642648833E+04  0.11642648833E+04  0.25500000920E-02 0.  1.
    10030    2    1    2    0    0  0.00000000000E+00  0.00000000000E+00 -0.20227063983E+03  0.21262591268E+04  0.21166162767E+04 0.  0.
        3    1    3    3  502    0 -0.55032960909E+03 -0.52616447348E+03  0.63726742225E+03  0.99288544629E+03  0.10100000352E+00 0. -1.
       -3    1    3    3    0  502  0.55032960909E+03  0.52616447348E+03 -0.83953806208E+03  0.11333736805E+04  0.10100000352E+00 0.  1.
</event>
<event>
 5   0  0.1007682E-05  0.2200057E+04  0.7818609E-02  0.8518404E-01
        1   -1    0    0  501    0  0.00000000000E+00  0.00000000000E+00  0.94251806165E+03  0.94251806166E+03  0.50400001928E-02 0.  1.
       -1   -1    0    0    0  501  0.00000000000E+00  0.00000000000E+00 -0.12838619994E+04  0.12838619994E+04  0.50400001928E-02 0. -1.
    10030    2    1    2    0    0  0.00000000000E+00  0.00000000000E+00 -0.34134393775E+03  0.22263800611E+04  0.22000573839E+04 0.  0.
        2    1    3    3  502    0  0.57830657302E+03  0.93487534993E+03 -0.12978170332E+03  0.11069208205E+04  0.25500000920E-02 0.  1.
       -2    1    3    3    0  502 -0.57830657302E+03 -0.93487534993E+03 -0.21156223444E+03  0.11194592406E+04  0.25500000920E-02 0. -1.
</event>
<event>
 5   0  0.2229552E-05  0.2278870E+04  0.7818609E-02  0.8486299E-01
        2   -1    0    0  501    0  0.00000000000E+00  0.00000000000E+00  0.11924328732E+04  0.11924328732E+04  0.25500000920E-02 0.  1.
       -2   -1    0    0    0  501  0.00000000000E+00  0.00000000000E+00 -0.10887928463E+04  0.10887928463E+04  0.25500000920E-02 0. -1.
    10030    2    1    2    0    0  0.00000000000E+00  0.00000000000E+00  0.10364002697E+03  0.22812257195E+04  0.22788702306E+04 0.  0.
        1    1    3    3  502    0 -0.64443794579E+03 -0.72010720161E+03  0.65614736366E+03  0.11680684957E+04  0.50400001928E-02 0.  1.
       -1    1    3    3    0  502  0.64443794579E+03  0.72010720161E+03 -0.55250733669E+03  0.11131572238E+04  0.50400001928E-02 0. -1.
</event>
<event>
 5   0  0.2298329E-05  0.2265427E+04  0.7818609E-02  0.8491679E-01
       -2   -1    0    0    0  501  0.00000000000E+00  0.00000000000E+00  0.66137047758E+03  0.66137047759E+03  0.25500000920E-02 0.  1.
        2   -1    0    0  501    0  0.00000000000E+00  0.00000000000E+00 -0.19399708629E+04  0.19399708629E+04  0.25500000920E-02 0. -1.
    10030    2    1    2    0    0  0.00000000000E+00  0.00000000000E+00 -0.12786003853E+04  0.26013413405E+04  0.22654266319E+04 0.  0.
        4    1    3    3  502    0 -0.26860073498E+03  0.24269876113E+02  0.62396432927E+03  0.67975619072E+03  0.12699999809E+01 0.  1.
       -4    1    3    3    0  502  0.26860073498E+03 -0.24269876113E+02 -0.19025647146E+04  0.19215851498E+04  0.12699999809E+01 0. -1.
</event>
<event>
 5   0  0.1049198E-05  0.2238876E+04  0.7818609E-02  0.8502419E-01
       -1   -1    0    0    0  501  0.00000000000E+00  0.00000000000E+00  0.10143891122E+04  0.10143891122E+04  0.50400001928E-02 0.  1.
        1   -1    0    0  501    0  0.00000000000E+00  0.00000000000E+00 -0.12353652107E+04  0.12353652107E+04  0.50400001928E-02 0. -1.
    10030    2    1    2    0    0  0.00000000000E+00  0.00000000000E+00 -0.22097609849E+03  0.22497543229E+04  0.22388756279E+04 0.  0.
        1    1    3    3  502    0 -0.12760338501E+03 -0.10937546893E+04 -0.31285945476E+03  0.11447545512E+04  0.50400001928E-02 0. -1.
       -1    1    3    3    0  502  0.12760338501E+03  0.10937546893E+04  0.91883356263E+02  0.11049997716E+04  0.50400001928E-02 0.  1.
</event>
<event>
 5   0  0.1007682E-05  0.2198256E+04  0.7818609E-02  0.8519154E-01
        1   -1    0    0  501    0  0.00000000000E+00  0.00000000000E+00  0.20064864334E+04  0.20064864334E+04  0.50400001928E-02 0. -1.
       -1   -1    0    0    0  501  0.00000000000E+00  0.00000000000E+00 -0.60208865541E+03  0.60208865543E+03  0.50400001928E-02 0.  1.
    10030    2    1    2    0    0  0.00000000000E+00  0.00000000000E+00  0.14043977780E+04  0.26085750889E+04  0.21982563261E+04 0.  0.
        2    1    3    3  502    0 -0.84669336190E+02  0.11530996256E+03 -0.59099395655E+03  0.60806179015E+03  0.25500000920E-02 0.  1.
       -2    1    3    3    0  502  0.84669336190E+02 -0.11530996256E+03  0.19953917346E+04  0.20005132987E+04  0.25500000920E-02 0. -1.
</event>
<event>
 5   0  0.1033733E-05  0.2143667E+04  0.7818609E-02  0.8542248E-01
        1   -1    0    0  501    0  0.00000000000E+00  0.00000000000E+00  0.29185825357E+04  0.29185825357E+04  0.50400001928E-02 0. -1.
       -1   -1    0    0    0  501  0.00000000000E+00  0.00000000000E+00 -0.39362516062E+03  0.39362516065E+03  0.50400001928E-02 0.  1.
    10030    2    1    2    0    0  0.00000000000E+00  0.00000000000E+00  0.25249573751E+04  0.33122076964E+04  0.21436674364E+04 0.  0.
        5    1    3    3  502    0  0.88768834808E+03 -0.57460147484E+03  0.15329747932E+04  0.18623080478E+04  0.46999998093E+01 0. -1.
       -5    1    3    3    0  502 -0.88768834808E+03  0.57460147484E+03  0.99198258188E+03  0.14498996486E+04  0.46999998093E+01 0.  1.
</event>
<event>
 5   0  0.8003875E-06  0.2196079E+04  0.7818609E-02  0.8520062E-01
       -3   -1    0    0    0  501  0.00000000000E+00  0.00000000000E+00  0.12352894084E+04  0.12352894126E+04  0.10100000352E+00 0. -1.
        3   -1    0    0  501    0  0.00000000000E+00  0.00000000000E+00 -0.97603870422E+03  0.97603870944E+03  0.10100000352E+00 0.  1.
    10030    2    1    2    0    0  0.00000000000E+00  0.00000000000E+00  0.25925070421E+03  0.22113281220E+04  0.21960785814E+04 0.  0.
        3    1    3    3  502    0 -0.85501351170E+03  0.14260628286E+03  0.80832772215E+03  0.11852334680E+04  0.10100000352E+00 0. -1.
       -3    1    3    3    0  502  0.85501351170E+03 -0.14260628286E+03 -0.54907701795E+03  0.10260946540E+04  0.10100000352E+00 0.  1.
</event>
<event>
 5   0  0.1005538E-05  0.2180627E+04  0.7818609E-02  0.8526535E-01
        1   -1    0    0  501    0  0.00000000000E+00  0.00000000000E+00  0.17322542416E+04  0.17322542416E+04  0.50400001928E-02 0.  1.
       -1   -1    0    0    0  501  0.00000000000E+00  0.00000000000E+00 -0.68626371742E+03  0.68626371744E+03  0.50400001928E-02 0. -1.
    10030    2    1    2    0    0  0.00000000000E+00  0.00000000000E+00  0.10459905242E+04  0.24185179590E+04  0.21806267314E+04 0.  0.
        3    1    3    3  502    0  0.64668230758E+03 -0.48388246449E+03  0.13353201658E+04  0.15605832890E+04  0.10100000352E+00 0. -1.
       -3    1    3    3    0  502 -0.64668230758E+03  0.48388246449E+03 -0.28932964164E+03  0.85793467007E+03  0.10100000352E+00 0.  1.
</event>
<event>
 5   0  0.2298329E-05  0.2199327E+04  0.7818609E-02  0.8518708E-01
        2   -1    0    0  501    0  0.00000000000E+00  0.00000000000E+00  0.15085950266E+04  0.15085950266E+04  0.25500000920E-02 0.  1.
       -2   -1    0    0    0  501  0.00000000000E+00  0.00000000000E+00 -0.80157988643E+03  0.80157988644E+03  0.25500000920E-02 0. -1.
    10030    2    1    2    0    0  0.00000000000E+00  0.00000000000E+00  0.70701514021E+03  0.23101749131E+04  0.21993266516E+04 0.  0.
        4    1    3    3  502    0  0.91854659656E+03 -0.32312977614E+03 -0.18324334763E+03  0.99081806585E+03  0.12699999809E+01 0. -1.
       -4    1    3    3    0  502 -0.91854659656E+03  0.32312977614E+03  0.89025848784E+03  0.13193568472E+04  0.12699999809E+01 0.  1.
</event>
<event>
 5   0  0.1049198E-05  0.2234518E+04  0.7818609E-02  0.8504197E-01
       -1   -1    0    0    0  501  0.00000000000E+00  0.00000000000E+00  0.13923002475E+04  0.13923002476E+04  0.50400001928E-02 0. -1.
        1   -1    0    0  501    0  0.00000000000E+00  0.00000000000E+00 -0.89655065839E+03  0.89655065841E+03  0.50400001928E-02 0.  1.
    10030    2    1    2    0    0  0.00000000000E+00  0.00000000000E+00  0.49574958915E+03  0.22888509060E+04  0.22345180274E+04 0.  0.
        1    1    3    3  502    0 -0.92774019112E+03  0.20014124694E+03 -0.35595824336E+03  0.10136393106E+04  0.50400001928E-02 0.  1.
       -1    1    3    3    0  502  0.92774019112E+03 -0.20014124694E+03  0.85170783251E+03  0.12752115954E+04  0.50400001928E-02 0. -1.
</event>
<event>
 5   0  0.2289708E-05  0.2223342E+04  0.7818609E-02  0.8508775E-01
        2   -1    0    0  501    0  0.00000000000E+00  0.00000000000E+00  0.22549888519E+04  0.22549888519E+04  0.25500000920E-02 0.  1.
       -2   -1    0    0    0  501  0.00000000000E+00  0.00000000000E+00 -0.54803490764E+03  0.54803490765E+03  0.25500000920E-02 0. -1.
    10030    2    1    2    0    0  0.00000000000E+00  0.00000000000E+00  0.17069539443E+04  0.28030237595E+04  0.22233421754E+04 0.  0.
        5    1    3    3  502    0  0.65388547862E+03 -0.89427153582E+03  0.73722525745E+03  0.13307182155E+04  0.46999998093E+01 0.  1.
       -5    1    3    3    0  502 -0.65388547862E+03  0.89427153582E+03  0.96972868681E+03  0.14723055440E+04  0.46999998093E+01 0. -1.
</event>
<event>
 5   0  0.2289708E-05  0.2202449E+04  0.7818609E-02  0.8517409E-01
       -2   -1    0    0    0  501  0.00000000000E+00  0.00000000000E+00  0.66695140328E+03  0.66695140328E+03  0.25500000920E-02 0. -1.
        2   -1    0    0  501    0  0.00000000000E+00  0.00000000000E+00 -0.18182665307E+04  0.18182665307E+04  0.25500000920E-02 0.  1.
    10030    2    1    2    0    0  0.00000000000E+00  0.00000000000E+00 -0.11513151274E+04  0.24852179340E+04  0.22024490134E+04 0.  0.
        5    1    3    3  502    0 -0.62142501852E+03 -0.87565525741E+03 -0.29987763472E+03  0.11148497070E+04  0.46999998093E+01 0.  1.
       -5    1    3    3    0  502  0.62142501852E+03  0.87565525741E+03 -0.85143749268E+03  0.13703682269E+04  0.46999998093E+01 0. -1.
</event>
<event>
 5   0  0.2289708E-05  0.2204836E+04  0.7818609E-02  0.8516418E-01
       -2   -1    0    0    0  501  0.00000000000E+00  0.00000000000E+00  0.24769972475E+04  0.24769972475E+04  0.25500000920E-02 0. -1.
        2   -1    0    0  501    0  0.00000000000E+00  0.00000000000E+00 -0.49064460602E+03  0.49064460603E+03  0.25500000920E-02 0.  1.
    10030    2    1    2    0    0  0.00000000000E+00  0.00000000000E+00  0.19863526415E+04  0.29676418535E+04  0.22048359020E+04 0.  0.
        5    1    3    3  502    0 -0.30941619393E+03 -0.98393614710E+03  0.46939782185E+03  0.11332365719E+04  0.46999998093E+01 0.  1.
       -5    1    3    3    0  502  0.30941619393E+03  0.98393614710E+03  0.15169548196E+04  0.18344052817E+04  0.46999998093E+01 0. -1.
</event>
<event>
 5   0  0.2284329E-05  0.2199769E+04  0.7818609E-02  0.8518524E-01
        2   -1    0    0  501    0  0.00000000000E+00  0.00000000000E+00  0.13015352788E+04  0.13015352788E+04  0.25500000920E-02 0. -1.
       -2   -1    0    0    0  501  0.00000000000E+00  0.00000000000E+00 -0.92947591013E+03  0.92947591013E+03  0.25500000920E-02 0.  1.
    10030    2    1    2    0    0  0.00000000000E+00  0.00000000000E+00  0.37205936867E+03  0.22310111889E+04  0.21997687950E+04 0.  0.
        2    1    3    3  502    0 -0.70062451804E+01 -0.85463376296E+03 -0.51611627042E+03  0.99841071752E+03  0.25500000920E-02 0.  1.
       -2    1    3    3    0  502  0.70062451804E+01  0.85463376296E+03  0.88817563909E+03  0.12326004714E+04  0.25500000920E-02 0. -1.
</event>
<event>
 5   0  0.1071208E-05  0.2194581E+04  0.7818609E-02  0.8520687E-01
        1   -1    0    0  501    0  0.00000000000E+00  0.00000000000E+00  0.89662855037E+03  0.89662855039E+03  0.50400001928E-02 0.  1.
       -1   -1    0    0    0  501  0.00000000000E+00  0.00000000000E+00 -0.13428600465E+04  0.13428600466E+04  0.50400001928E-02 0. -1.
    10030    2    1    2    0    0  0.00000000000E+00  0.00000000000E+00 -0.44623149617E+03  0.22394885969E+04  0.21945811964E+04 0.  0.
        4    1    3    3  502    0  0.63051585711E+02 -0.18648729643E+03  0.87846056722E+03  0.90024862968E+03  0.12699999809E+01 0.  1.
       -4    1    3    3    0  502 -0.63051585711E+02  0.18648729643E+03 -0.13246920634E+04  0.13392399673E+04  0.12699999809E+01 0. -1.
</event>
<event>
 5   0  0.2229552E-05  0.2197892E+04  0.7818609E-02  0.8519306E-01
        2   -1    0    0  501    0  0.00000000000E+00  0.00000000000E+00  0.47461759288E+03  0.47461759289E+03  0.25500000920E-02 0.  1.
       -2   -1    0    0    0  501  0.00000000000E+00  0.00000000000E+00 -0.25445376158E+04  0.25445376158E+04  0.25500000920E-02 0. -1.
    10030    2    1    2    0    0  0.00000000000E+00  0.00000000000E+00 -0.20699200229E+04  0.30191552087E+04  0.21978920067E+04 0.  0.
        1    1    3    3  502    0  0.23168477550E+03  0.10482696555E+04 -0.13575074642E+04  0.17307147718E+04  0.50400001928E-02 0.  1.
       -1    1    3    3    0  502 -0.23168477550E+03 -0.10482696555E+04 -0.71241255873E+03  0.12884404370E+04  0.50400001928E-02 0. -1.
</event>
<event>
 5   0  0.2289708E-05  0.2200213E+04  0.7818609E-02  0.8518340E-01
       -2   -1    0    0    0  501  0.00000000000E+00  0.00000000000E+00  0.11493930524E+04  0.11493930524E+04  0.25500000920E-02 0. -1.
        2   -1    0    0  501    0  0.00000000000E+00  0.00000000000E+00 -0.10529332062E+04  0.10529332062E+04  0.25500000920E-02 0.  1.
    10030    2    1    2    0    0  0.00000000000E+00  0.00000000000E+00  0.96459846205E+02  0.22023262585E+04  0.22002128186E+04 0.  0.
        5    1    3    3  502    0  0.20417559849E+03  0.45859907948E+03 -0.93159299815E+03  0.10582477947E+04  0.46999998093E+01 0.  1.
       -5    1    3    3    0  502 -0.20417559849E+03 -0.45859907948E+03  0.10280528444E+04  0.11440784639E+04  0.46999998093E+01 0. -1.
</event>
<event>
 5   0  0.2298329E-05  0.2201145E+04  0.7818609E-02  0.8517952E-01
        2   -1    0    0  501    0  0.00000000000E+00  0.00000000000E+00  0.24327065923E+04  0.24327065923E+04  0.25500000920E-02 0. -1.
       -2   -1    0    0    0  501  0.00000000000E+00  0.00000000000E+00 -0.49790632657E+03  0.49790632658E+03  0.25500000920E-02 0.  1.
    10030    2    1    2    0    0  0.00000000000E+00  0.00000000000E+00  0.19348002657E+04  0.29306129188E+04  0.22011451592E+04 0.  0.
        4    1    3    3  502    0 -0.14640864736E+03  0.87471227798E+02  0.24150050573E+04  0.24210199808E+04  0.12699999809E+01 0. -1.
       -4    1    3    3    0  502  0.14640864736E+03 -0.87471227798E+02 -0.48020479161E+03  0.50959293804E+03  0.12699999809E+01 0.  1.
</event>
<event>
 5   0  0.2319707E-05  0.2199843E+04  0.7818609E-02  0.8518493E-01
        2   -1    0    0  501    0  0.00000000000E+00  0.00000000000E+00  0.23771038924E+04  0.23771038924E+04  0.25500000920E-02 0.  1.
       -2   -1    0    0    0  501  0.00000000000E+00  0.00000000000E+00 -0.50895032925E+03  0.50895032926E+03  0.25500000920E-02 0. -1.
    10030    2    1    2    0    0  0.00000000000E+00  0.00000000000E+00  0.18681535632E+04  0.28860542217E+04  0.21998434569E+04 0.  0.
        3    1    3    3  502    0  0.82159881160E+03 -0.82209286599E+02 -0.19263852374E+02  0.82592619539E+03  0.10100000352E+00 0. -1.
       -3    1    3    3    0  502 -0.82159881160E+03  0.82209286599E+02  0.18874174156E+04  0.20601280263E+04  0.10100000352E+00 0.  1.
</event>
<event>
 5   0  0.2289708E-05  0.2195726E+04  0.7818609E-02  0.8520209E-01
        2   -1    0    0  501    0  0.00000000000E+00  0.00000000000E+00  0.84441459684E+03  0.84441459684E+03  0.25500000920E-02 0. -1.
       -2   -1    0    0    0  501  0.00000000000E+00  0.00000000000E+00 -0.14273833204E+04  0.14273833204E+04  0.25500000920E-02 0.  1.
    10030    2    1    2    0    0  0.00000000000E+00  0.00000000000E+00 -0.58296872352E+03  0.22717979172E+04  0.21957261314E+04 0.  0.
        5    1    3    3  502    0 -0.70188629895E+03 -0.52288552323E+03 -0.97718779647E+03  0.13118581199E+04  0.46999998093E+01 0.  1.
       -5    1    3    3    0  502  0.70188629895E+03  0.52288552323E+03  0.39421907295E+03  0.95993979735E+03  0.46999998093E+01 0. -1.
</event>
<event>
 5   0  0.1071208E-05  0.2200376E+04  0.7818609E-02  0.8518272E-01
       -1   -1    0    0    0  501  0.00000000000E+00  0.00000000000E+00  0.78179969400E+03  0.78179969401E+03  0.50400001928E-02 0.  1.
        1   -1    0    0  501    0  0.00000000000E+00  0.00000000000E+00 -0.15482396526E+04  0.15482396526E+04  0.50400001928E-02 0. -1.
    10030    2    1    2    0    0  0.00000000000E+00  0.00000000000E+00 -0.76643995858E+03  0.23300393466E+04  0.22003756831E+04 0.  0.
        4    1    3    3  502    0 -0.88800788532E+03  0.60763255512E+03 -0.62616572031E+03  0.12449339134E+04  0.12699999809E+01 0. -1.
       -4    1    3    3    0  502  0.88800788532E+03 -0.60763255512E+03 -0.14027423827E+03  0.10851054332E+04  0.12699999809E+01 0.  1.
</event>
<event>
 5   0  0.1005538E-05  0.2191375E+04  0.7818609E-02  0.8522027E-01
        1   -1    0    0  501    0  0.00000000000E+00  0.00000000000E+00  0.13513269995E+04  0.13513269995E+04  0.50400001928E-02 0.  1.
       -1   -1    0    0    0  501  0.00000000000E+00  0.00000000000E+00 -0.88840878915E+03  0.88840878916E+03  0.50400001928E-02 0. -1.
    10030    2    1    2    0    0  0.00000000000E+00  0.00000000000E+00  0.46291821037E+03  0.22397357887E+04  0.21913747132E+04 0.  0.
        3    1    3    3  502    0  0.36369796835E+03 -0.62343622289E+03 -0.61110125924E+03  0.94572390022E+03  0.10100000352E+00 0. -1.
       -3    1    3    3    0  502 -0.36369796835E+03  0.62343622289E+03  0.10740194696E+04  0.12940118885E+04  0.10100000352E+00 0.  1.
</event>
<event>
 5   0  0.1033733E-05  0.2181053E+04  0.7818609E-02  0.8526356E-01
       -1   -1    0    0    0  501  0.00000000000E+00  0.00000000000E+00  0.71070188346E+03  0.71070188348E+03  0.50400001928E-02 0.  1.
        1   -1    0    0  501    0  0.00000000000E+00  0.00000000000E+00 -0.16733429409E+04  0.16733429409E+04  0.50400001928E-02 0. -1.
    10030    2    1    2    0    0  0.00000000000E+00  0.00000000000E+00 -0.96264105743E+03  0.23840448244E+04  0.21810529382E+04 0.  0.
        5    1    3    3  502    0  0.55926522080E+03 -0.44534919326E+03 -0.13814377118E+04  0.15554760470E+04  0.46999998093E+01 0. -1.
       -5    1    3    3    0  502 -0.55926522080E+03  0.44534919326E+03  0.41879665438E+03  0.82856877739E+03  0.46999998093E+01 0.  1.
</event>
<event>
 5   0  0.2229552E-05  0.2202838E+04  0.7818609E-02  0.8517248E-01
       -2   -1    0    0    0  501  0.00000000000E+00  0.00000000000E+00  0.68968180443E+03  0.68968180443E+03  0.25500000920E-02 0.  1.
        2   -1    0    0  501    0  0.00000000000E+00  0.00000000000E+00 -0.17589618736E+04  0.17589618736E+04  0.25500000920E-02 0. -1.
    10030    2    1    2    0    0  0.00000000000E+00  0.00000000000E+00 -0.10692800691E+04  0.24486436780E+04  0.22028381683E+04 0.  0.
        1    1    3    3  502    0  0.69733534798E+03 -0.18010873599E+02  0.41283481128E+03  0.81057606709E+03  0.50400001928E-02 0.  1.
       -1    1    3    3    0  502 -0.69733534798E+03  0.18010873599E+02 -0.14821148804E+04  0.16380676109E+04  0.50400001928E-02 0. -1.
</event>
<event>
 5   0  0.2289708E-05  0.2207082E+04  0.7818609E-02  0.8515486E-01
        2   -1    0    0  501    0  0.00000000000E+00  0.00000000000E+00  0.11475482628E+04  0.11475482628E+04  0.25500000920E-02 0.  1.
       -2   -1    0    0    0  501  0.00000000000E+00  0.00000000000E+00 -0.10612217172E+04  0.10612217172E+04  0.25500000920E-02 0. -1.
    10030    2    1    2    0    0  0.00000000000E+00  0.00000000000E+00  0.86326545613E+02  0.22087699800E+04  0.22070823619E+04 0.  0.
        5    1    3    3  502    0  0.63390844538E+03  0.73253809529E+03  0.57208330857E+03  0.11250570564E+04  0.46999998093E+01 0.  1.
       -5    1    3    3    0  502 -0.63390844538E+03 -0.73253809529E+03 -0.48575676295E+03  0.10837129237E+04  0.46999998093E+01 0. -1.
</event>
<event>
 5   0  0.1033733E-05  0.2205178E+04  0.7818609E-02  0.8516276E-01
       -1   -1    0    0    0  501  0.00000000000E+00  0.00000000000E+00  0.62733746778E+03  0.62733746780E+03  0.50400001928E-02 0.  1.
        1   -1    0    0  501    0  0.00000000000E+00  0.00000000000E+00 -0.19378772392E+04  0.19378772392E+04  0.50400001928E-02 0. -1.
    10030    2    1    2    0    0  0.00000000000E+00  0.00000000000E+00 -0.13105397715E+04  0.25652147070E+04  0.22051784510E+04 0.  0.
        5    1    3    3  502    0  0.56010282395E+03 -0.59338638773E+03 -0.15178618068E+04  0.17232960086E+04  0.46999998093E+01 0. -1.
       -5    1    3    3    0  502 -0.56010282395E+03  0.59338638773E+03  0.20732203534E+03  0.84191869849E+03  0.46999998093E+01 0.  1.
</event>
<event>
 5   0  0.1049198E-05  0.2231423E+04  0.7818609E-02  0.8505462E-01
       -1   -1    0    0    0  501  0.00000000000E+00  0.00000000000E+00  0.48643102796E+03  0.48643102799E+03  0.50400001928E-02 0. -1.
        1   -1    0    0  501    0  0.00000000000E+00  0.00000000000E+00 -0.25590733094E+04  0.25590733094E+04  0.50400001928E-02 0.  1.
    10030    2    1    2    0    0  0.00000000000E+00  0.00000000000E+00 -0.20726422815E+04  0.30455043374E+04  0.22314234565E+04 0.  0.
        1    1    3    3  502    0  0.94413975873E+03 -0.51948150040E+02 -0.18445863445E+04  0.20728235035E+04  0.50400001928E-02 0.  1.
       -1    1    3    3    0  502 -0.94413975873E+03  0.51948150040E+02 -0.22805593698E+03  0.97268083394E+03  0.50400001928E-02 0. -1.
</event>
<event>
 5   0  0.2298329E-05  0.2211095E+04  0.7818609E-02  0.8513824E-01
        2   -1    0    0  501    0  0.00000000000E+00  0.00000000000E+00  0.17427754695E+04  0.17427754696E+04  0.25500000920E-02 0. -1.
       -2   -1    0    0    0  501  0.00000000000E+00  0.00000000000E+00 -0.70131520804E+03  0.70131520805E+03  0.25500000920E-02 0.  1.
    10030    2    1    2    0    0  0.00000000000E+00  0.00000000000E+00  0.10414602615E+04  0.24440906776E+04  0.22110946981E+04 0.  0.
        4    1    3    3  502    0 -0.38244777423E+03 -0.74708651574E+03 -0.27470186738E+03  0.88310095168E+03  0.12699999809E+01 0.  1.
       -4    1    3    3    0  502  0.38244777423E+03  0.74708651574E+03  0.13161621289E+04  0.15609897259E+04  0.12699999809E+01 0. -1.
</event>
<event>
 5   0  0.1049198E-05  0.2237341E+04  0.7818609E-02  0.8503045E-01
        1   -1    0    0  501    0  0.00000000000E+00  0.00000000000E+00  0.12006846249E+04  0.12006846249E+04  0.50400001928E-02 0. -1.
       -1   -1    0    0    0  501  0.00000000000E+00  0.00000000000E+00 -0.10422584715E+04  0.10422584715E+04  0.50400001928E-02 0.  1.
    10030    2    1    2    0    0  0.00000000000E+00  0.00000000000E+00  0.15842615342E+03  0.22429430964E+04  0.22373410307E+04 0.  0.
        1    1    3    3  502    0  0.37065201575E+02 -0.10685741306E+04  0.40897319780E+03  0.11447635469E+04  0.50400001928E-02 0.  1.
       -1    1    3    3    0  502 -0.37065201575E+02  0.10685741306E+04 -0.25054704438E+03  0.10981795496E+04  0.50400001928E-02 0. -1.
</event>
<event>
 5   0  0.2298329E-05  0.2206454E+04  0.7818609E-02  0.8515747E-01
       -2   -1    0    0    0  501  0.00000000000E+00  0.00000000000E+00  0.72427088776E+03  0.72427088777E+03  0.25500000920E-02 0.  1.
        2   -1    0    0  501    0  0.00000000000E+00  0.00000000000E+00 -0.16804623773E+04  0.16804623773E+04  0.25500000920E-02 0. -1.
    10030    2    1    2    0    0  0.00000000000E+00  0.00000000000E+00 -0.95619148950E+03  0.24047332650E+04  0.22064541489E+04 0.  0.
        4    1    3    3  502    0 -0.22338164685E+03  0.71977110089E+03  0.39999765003E+03  0.85321130487E+03  0.12699999809E+01 0.  1.
       -4    1    3    3    0  502  0.22338164685E+03 -0.71977110089E+03 -0.13561891395E+04  0.15515219602E+04  0.12699999809E+01 0. -1.
</event>
<event>
 5   0  0.2229552E-05  0.2198902E+04  0.7818609E-02  0.8518885E-01
        2   -1    0    0  501    0  0.00000000000E+00  0.00000000000E+00  0.16882839165E+04  0.16882839165E+04  0.25500000920E-02 0. -1.
       -2   -1    0    0    0  501  0.00000000000E+00  0.00000000000E+00 -0.71598910671E+03  0.71598910671E+03  0.25500000920E-02 0.  1.
    10030    2    1    2    0    0  0.00000000000E+00  0.00000000000E+00  0.97229480980E+03  0.24042730232E+04  0.21989023564E+04 0.  0.
        1    1    3    3  502    0  0.28425240808E+03  0.79675318266E+03  0.12540031013E+04  0.15126595267E+04  0.50400001928E-02 0. -1.
       -1    1    3    3    0  502 -0.28425240808E+03 -0.79675318266E+03 -0.28170829155E+03  0.89161349650E+03  0.50400001928E-02 0.  1.
</event>
<event>
 5   0  0.8003875E-06  0.2192614E+04  0.7818609E-02  0.8521509E-01
        4   -1    0    0  501    0  0.00000000000E+00  0.00000000000E+00  0.10651110238E+04  0.10651117810E+04  0.12699999809E+01 0.  1.
       -4   -1    0    0    0  501  0.00000000000E+00  0.00000000000E+00 -0.11284149531E+04  0.11284156678E+04  0.12699999809E+01 0. -1.
    10030    2    1    2    0    0  0.00000000000E+00  0.00000000000E+00 -0.63303929265E+02  0.21935274488E+04  0.21926138012E+04 0.  0.
        3    1    3    3  502    0 -0.87622386262E+03  0.16011928693E+03  0.60774060749E+03  0.10783112258E+04  0.10100000352E+00 0.  1.
       -3    1    3    3    0  502  0.87622386262E+03 -0.16011928693E+03 -0.67104453675E+03  0.11152162230E+04  0.10100000352E+00 0. -1.
</event>
<event>
 5   0  0.1049198E-05  0.2165996E+04  0.7818609E-02  0.8532716E-01
        1   -1    0    0  501    0  0.00000000000E+00  0.00000000000E+00  0.19585180791E+04  0.19585180791E+04  0.50400001928E-02 0.  1.
       -1   -1    0    0    0  501  0.00000000000E+00  0.00000000000E+00 -0.59886336036E+03  0.59886336038E+03  0.50400001928E-02 0. -1.
    10030    2    1    2    0    0  0.00000000000E+00  0.00000000000E+00  0.13596547188E+04  0.25573814395E+04  0.21659960464E+04 0.  0.
        1    1    3    3  502    0 -0.40576557937E+02  0.88916677444E+03  0.14082510399E+04  0.16659636854E+04  0.50400001928E-02 0.  1.
       -1    1    3    3    0  502  0.40576557937E+02 -0.88916677444E+03 -0.48596321113E+02  0.89141775407E+03  0.50400001928E-02 0. -1.
</event>
<event>
 5   0  0.8003875E-06  0.2227185E+04  0.7818609E-02  0.8507197E-01
        3   -1    0    0  501    0  0.00000000000E+00  0.00000000000E+00  0.93485661612E+03  0.93485662157E+03  0.10100000352E+00 0. -1.
       -3   -1    0    0    0  501  0.00000000000E+00  0.00000000000E+00 -0.13265015333E+04  0.13265015371E+04  0.10100000352E+00 0.  1.
    10030    2    1    2    0    0  0.00000000000E+00  0.00000000000E+00 -0.39164491715E+03  0.22613581587E+04  0.22271854392E+04 0.  0.
        4    1    3    3  502    0  0.71197284978E+03 -0.56208202214E+03 -0.85167899808E+03  0.12442669597E+04  0.12699999809E+01 0.  1.
       -4    1    3    3    0  502 -0.71197284978E+03  0.56208202214E+03  0.46003408093E+03  0.10170911989E+04  0.12699999809E+01 0. -1.
</event>
<event>
 5   0  0.2298329E-05  0.2173495E+04  0.7818609E-02  0.8529542E-01
       -2   -1    0    0    0  501  0.00000000000E+00  0.00000000000E+00  0.12252343993E+04  0.12252343993E+04  0.25500000920E-02 0.  1.
        2   -1    0    0  501    0  0.00000000000E+00  0.00000000000E+00 -0.96391397328E+03  0.96391397328E+03  0.25500000920E-02 0. -1.
    10030    2    1    2    0    0  0.00000000000E+00  0.00000000000E+00  0.26132042598E+03  0.21891483725E+04  0.21734953950E+04 0.  0.
        4    1    3    3  502    0  0.13094292162E+03  0.65302163494E+02 -0.95394621155E+03  0.96510383313E+03  0.12699999809E+01 0. -1.
       -4    1    3    3    0  502 -0.13094292162E+03 -0.65302163494E+02  0.12152666375E+04  0.12240445394E+04  0.12699999809E+01 0.  1.
</event>
<event>
 5   0  0.1071208E-05  0.2198419E+04  0.7818609E-02  0.8519086E-01
        1   -1    0    0  501    0  0.00000000000E+00  0.00000000000E+00  0.10844309812E+04  0.10844309812E+04  0.50400001928E-02 0. -1.
       -1   -1    0    0    0  501  0.00000000000E+00  0.00000000000E+00 -0.11141896042E+04  0.11141896042E+04  0.50400001928E-02 0.  1.
    10030    2    1    2    0    0  0.00000000000E+00  0.00000000000E+00 -0.29758623025E+02  0.21986205854E+04  0.21984191827E+04 0.  0.
        4    1    3    3  502    0 -0.10968394002E+04  0.45910362711E+02  0.40764635123E+02  0.10985571445E+04  0.12699999809E+01 0.  1.
       -4    1    3    3    0  502  0.10968394002E+04 -0.45910362711E+02 -0.70523258148E+02  0.11000634409E+04  0.12699999809E+01 0. -1.
</event>
<event>
 5   0  0.2298329E-05  0.2200347E+04  0.7818609E-02  0.8518284E-01
       -2   -1    0    0    0  501  0.00000000000E+00  0.00000000000E+00  0.14969121148E+04  0.14969121148E+04  0.25500000920E-02 0.  1.
        2   -1    0    0  501    0  0.00000000000E+00  0.00000000000E+00 -0.80858575103E+03  0.80858575104E+03  0.25500000920E-02 0. -1.
    10030    2    1    2    0    0  0.00000000000E+00  0.00000000000E+00  0.68832636374E+03  0.23054978658E+04  0.22003470695E+04 0.  0.
        4    1    3    3  502    0 -0.10739048454E+04 -0.19964137380E+03  0.20653987718E+03  0.11116603029E+04  0.12699999809E+01 0.  1.
       -4    1    3    3    0  502  0.10739048454E+04  0.19964137380E+03  0.48178648656E+03  0.11938375630E+04  0.12699999809E+01 0. -1.
</event>
<event>
 5   0  0.1007682E-05  0.2200496E+04  0.7818609E-02  0.8518222E-01
       -1   -1    0    0    0  501  0.00000000000E+00  0.00000000000E+00  0.67043479429E+03  0.67043479431E+03  0.50400001928E-02 0. -1.
        1   -1    0    0  501    0  0.00000000000E+00  0.00000000000E+00 -0.18056121376E+04  0.18056121376E+04  0.50400001928E-02 0.  1.
    10030    2    1    2    0    0  0.00000000000E+00  0.00000000000E+00 -0.11351773433E+04  0.24760469319E+04  0.22004955824E+04 0.  0.
        2    1    3    3  502    0 -0.16085533323E+03 -0.10711264199E+04 -0.35010045161E+03  0.11383130378E+04  0.25500000920E-02 0. -1.
       -2    1    3    3    0  502  0.16085533323E+03  0.10711264199E+04 -0.78507689171E+03  0.13377338942E+04  0.25500000920E-02 0.  1.
</event>
<event>
 5   0  0.2229552E-05  0.2271649E+04  0.7818609E-02  0.8489184E-01
       -2   -1    0    0    0  501  0.00000000000E+00  0.00000000000E+00  0.13327587683E+04  0.13327587683E+04  0.25500000920E-02 0. -1.
        2   -1    0    0  501    0  0.00000000000E+00  0.00000000000E+00 -0.96798970597E+03  0.96798970598E+03  0.25500000920E-02 0.  1.
    10030    2    1    2    0    0  0.00000000000E+00  0.00000000000E+00  0.36476906236E+03  0.23007484743E+04  0.22716485365E+04 0.  0.
        1    1    3    3  502    0  0.49601844536E+03  0.36185521457E+03  0.11502003349E+04  0.13038152878E+04  0.50400001928E-02 0. -1.
       -1    1    3    3    0  502 -0.49601844536E+03 -0.36185521457E+03 -0.78543127250E+03  0.99693318648E+03  0.50400001928E-02 0.  1.
</event>
<event>
 5   0  0.1005538E-05  0.2202055E+04  0.7818609E-02  0.8517573E-01
        1   -1    0    0  501    0  0.00000000000E+00  0.00000000000E+00  0.93021268368E+03  0.93021268369E+03  0.50400001928E-02 0. -1.
       -1   -1    0    0    0  501  0.00000000000E+00  0.00000000000E+00 -0.13032085897E+04  0.13032085897E+04  0.50400001928E-02 0.  1.
    10030    2    1    2    0    0  0.00000000000E+00  0.00000000000E+00 -0.37299590601E+03  0.22334212734E+04  0.22020546402E+04 0.  0.
        3    1    3    3  502    0  0.64756109796E+03  0.69320586701E+03 -0.75337920218E+03  0.12113834992E+04  0.10100000352E+00 0.  1.
       -3    1    3    3    0  502 -0.64756109796E+03 -0.69320586701E+03  0.38038329617E+03  0.10220377742E+04  0.10100000352E+00 0. -1.
</event>
<event>
 5   0  0.1049198E-05  0.2197689E+04  0.7818609E-02  0.8519390E-01
        1   -1    0    0  501    0  0.00000000000E+00  0.00000000000E+00  0.11057641169E+04  0.11057641169E+04  0.50400001928E-02 0. -1.
       -1   -1    0    0    0  501  0.00000000000E+00  0.00000000000E+00 -0.10919686085E+04  0.10919686085E+04  0.50400001928E-02 0.  1.
    10030    2    1    2    0    0  0.00000000000E+00  0.00000000000E+00  0.13795508464E+02  0.21977327254E+04  0.21976894267E+04 0.  0.
        1    1    3    3  502    0 -0.73108040279E+01  0.80579236974E+03  0.75397666893E+03  0.11035558927E+04  0.50400001928E-02 0. -1.
       -1    1    3    3    0  502  0.73108040279E+01 -0.80579236974E+03 -0.74018116046E+03  0.10941768327E+04  0.50400001928E-02 0.  1.
</event>
<event>
 5   0  0.1005538E-05  0.2202718E+04  0.7818609E-02  0.8517298E-01
       -1   -1    0    0    0  501  0.00000000000E+00  0.00000000000E+00  0.61616327450E+03  0.61616327452E+03  0.50400001928E-02 0.  1.
        1   -1    0    0  501    0  0.00000000000E+00  0.00000000000E+00 -0.19686205944E+04  0.19686205944E+04  0.50400001928E-02 0. -1.
    10030    2    1    2    0    0  0.00000000000E+00  0.00000000000E+00 -0.13524573199E+04  0.25847838689E+04  0.22027180589E+04 0.  0.
        3    1    3    3  502    0 -0.74260520994E+03  0.65549089479E+03 -0.12412685024E+04  0.15880422904E+04  0.10100000352E+00 0. -1.
       -3    1    3    3    0  502  0.74260520994E+03 -0.65549089479E+03 -0.11118881752E+03  0.99674157850E+03  0.10100000352E+00 0.  1.
</event>
<event>
 5   0  0.2319707E-05  0.2203138E+04  0.7818609E-02  0.8517123E-01
       -2   -1    0    0    0  501  0.00000000000E+00  0.00000000000E+00  0.52293448687E+03  0.52293448687E+03  0.25500000920E-02 0.  1.
        2   -1    0    0  501    0  0.00000000000E+00  0.00000000000E+00 -0.23204703257E+04  0.23204703257E+04  0.25500000920E-02 0. -1.
    10030    2    1    2    0    0  0.00000000000E+00  0.00000000000E+00 -0.17975358388E+04  0.28434048126E+04  0.22031377252E+04 0.  0.
        3    1    3    3  502    0  0.48087983664E+02  0.55054905289E+02  0.51980076332E+03  0.52491555561E+03  0.10100000352E+00 0.  1.
       -3    1    3    3    0  502 -0.48087983664E+02 -0.55054905289E+02 -0.23173366021E+04  0.23184892569E+04  0.10100000352E+00 0. -1.
</event>
<event>
 5   0  0.2284329E-05  0.2204831E+04  0.7818609E-02  0.8516420E-01
        2   -1    0    0  501    0  0.00000000000E+00  0.00000000000E+00  0.17109033352E+04  0.17109033352E+04  0.25500000920E-02 0. -1.
       -2   -1    0    0    0  501  0.00000000000E+00  0.00000000000E+00 -0.71033813378E+03  0.71033813378E+03  0.25500000920E-02 0.  1.
    10030    2    1    2    0    0  0.00000000000E+00  0.00000000000E+00  0.10005652014E+04  0.24212414689E+04  0.22048309524E+04 0.  0.
        2    1    3    3  502    0 -0.12057974505E+03 -0.56647421939E+03  0.15303753906E+04  0.16363011191E+04  0.25500000920E-02 0. -1.
       -2    1    3    3    0  502  0.12057974505E+03  0.56647421939E+03 -0.52981018925E+03  0.78494034983E+03  0.25500000920E-02 0.  1.
</event>
<event>
 5   0  0.1071208E-05  0.2214084E+04  0.7818609E-02  0.8512589E-01
       -1   -1    0    0    0  501  0.00000000000E+00  0.00000000000E+00  0.99624081589E+03  0.99624081590E+03  0.50400001928E-02 0.  1.
        1   -1    0    0  501    0  0.00000000000E+00  0.00000000000E+00 -0.12301668130E+04  0.12301668131E+04  0.50400001928E-02 0. -1.
    10030    2    1    2    0    0  0.00000000000E+00  0.00000000000E+00 -0.23392599715E+03  0.22264076290E+04  0.22140843611E+04 0.  0.
        4    1    3    3  502    0  0.52920785852E+03  0.42290265019E+03  0.76348623434E+03  0.10206960625E+04  0.12699999809E+01 0.  1.
       -4    1    3    3    0  502 -0.52920785852E+03 -0.42290265019E+03 -0.99741223150E+03  0.12057115665E+04  0.12699999809E+01 0. -1.
</event>
<event>
 5   0  0.2229552E-05  0.2199309E+04  0.7818609E-02  0.8518716E-01
        2   -1    0    0  501    0  0.00000000000E+00  0.00000000000E+00  0.16215269244E+04  0.16215269244E+04  0.25500000920E-02 0. -1.
       -2   -1    0    0    0  501  0.00000000000E+00  0.00000000000E+00 -0.74574183031E+03  0.74574183031E+03  0.25500000920E-02 0.  1.
    10030    2    1    2    0    0  0.00000000000E+00  0.00000000000E+00  0.87578509412E+03  0.23672687547E+04  0.21993093975E+04 0.  0.
        1    1    3    3  502    0 -0.10576034541E+04  0.25599763678E+03  0.26709002637E+03  0.11204449734E+04  0.50400001928E-02 0. -1.
       -1    1    3    3    0  502  0.10576034541E+04 -0.25599763678E+03  0.60869506775E+03  0.12468237813E+04  0.50400001928E-02 0.  1.
</event>
<event>
 5   0  0.2289708E-05  0.2344809E+04  0.7818609E-02  0.8460460E-01
       -2   -1    0    0    0  501  0.00000000000E+00  0.00000000000E+00  0.68083506215E+03  0.68083506216E+03  0.25500000920E-02 0.  1.
        2   -1    0    0  501    0  0.00000000000E+00  0.00000000000E+00 -0.20188926126E+04  0.20188926126E+04  0.25500000920E-02 0. -1.
    10030    2    1    2    0    0  0.00000000000E+00  0.00000000000E+00 -0.13380575505E+04  0.26997276748E+04  0.23448094826E+04 0.  0.
        5    1    3    3  502    0  0.10278942507E+04 -0.41519451801E+02 -0.21577200013E+02  0.10289694461E+04  0.46999998093E+01 0.  1.
       -5    1    3    3    0  502 -0.10278942507E+04  0.41519451801E+02 -0.13164803504E+04  0.16707582286E+04  0.46999998093E+01 0. -1.
</event>
<event>
 5   0  0.1071208E-05  0.2191359E+04  0.7818609E-02  0.8522033E-01
        1   -1    0    0  501    0  0.00000000000E+00  0.00000000000E+00  0.15517419558E+04  0.15517419558E+04  0.50400001928E-02 0. -1.
       -1   -1    0    0    0  501  0.00000000000E+00  0.00000000000E+00 -0.77365542929E+03  0.77365542930E+03  0.50400001928E-02 0.  1.
    10030    2    1    2    0    0  0.00000000000E+00  0.00000000000E+00  0.77808652654E+03  0.23253973851E+04  0.21913590203E+04 0.  0.
        4    1    3    3  502    0  0.65879095187E+03  0.85282932840E+03  0.17897352823E+03  0.10924085858E+04  0.12699999809E+01 0.  1.
       -4    1    3    3    0  502 -0.65879095187E+03 -0.85282932840E+03  0.59911299831E+03  0.12329887993E+04  0.12699999809E+01 0. -1.
</event>
<event>
 5   0  0.2229552E-05  0.2187339E+04  0.7818609E-02  0.8523717E-01
        2   -1    0    0  501    0  0.00000000000E+00  0.00000000000E+00  0.82418553463E+03  0.82418553463E+03  0.25500000920E-02 0. -1.
       -2   -1    0    0    0  501  0.00000000000E+00  0.00000000000E+00 -0.14512660849E+04  0.14512660849E+04  0.25500000920E-02 0.  1.
    10030    2    1    2    0    0  0.00000000000E+00  0.00000000000E+00 -0.62708055027E+03  0.22754516195E+04  0.21873385783E+04 0.  0.
        1    1    3    3  502    0  0.74623004606E+03  0.19618505840E+03  0.49277294463E+03  0.91551790467E+03  0.50400001928E-02 0. -1.
       -1    1    3    3    0  502 -0.74623004606E+03 -0.19618505840E+03 -0.11198534949E+04  0.13599337149E+04  0.50400001928E-02 0.  1.
</event>
<event>
 5   0  0.1049198E-05  0.2196118E+04  0.7818609E-02  0.8520046E-01
        1   -1    0    0  501    0  0.00000000000E+00  0.00000000000E+00  0.69329078760E+03  0.69329078762E+03  0.50400001928E-02 0. -1.
       -1   -1    0    0    0  501  0.00000000000E+00  0.00000000000E+00 -0.17391450524E+04  0.17391450524E+04  0.50400001928E-02 0.  1.
    10030    2    1    2    0    0  0.00000000000E+00  0.00000000000E+00 -0.10458542648E+04  0.24324358400E+04  0.21961177046E+04 0.  0.
        1    1    3    3  502    0  0.10043977168E+04  0.42309707484E+03 -0.37470902693E+03  0.11524898104E+04  0.50400001928E-02 0. -1.
       -1    1    3    3    0  502 -0.10043977168E+04 -0.42309707484E+03 -0.67114523787E+03  0.12799460296E+04  0.50400001928E-02 0.  1.
</event>
<event>
 5   0  0.2229552E-05  0.2199312E+04  0.7818609E-02  0.8518715E-01
       -2   -1    0    0    0  501  0.00000000000E+00  0.00000000000E+00  0.51572703151E+03  0.51572703151E+03  0.25500000920E-02 0. -1.
        2   -1    0    0  501    0  0.00000000000E+00  0.00000000000E+00 -0.23447349930E+04  0.23447349930E+04  0.25500000920E-02 0.  1.
    10030    2    1    2    0    0  0.00000000000E+00  0.00000000000E+00 -0.18290079615E+04  0.28604620246E+04  0.21993119084E+04 0.  0.
        1    1    3    3  502    0 -0.10616151919E+03 -0.48069062380E+03 -0.21934207102E+04  0.22479831307E+04  0.50400001928E-02 0.  1.
       -1    1    3    3    0  502  0.10616151919E+03  0.48069062380E+03  0.36441274868E+03  0.61247889384E+03  0.50400001928E-02 0. -1.
</event>
<event>
 5   0  0.1071208E-05  0.2198662E+04  0.7818609E-02  0.8518985E-01
       -1   -1    0    0    0  501  0.00000000000E+00  0.00000000000E+00  0.16850650989E+04  0.16850650989E+04  0.50400001928E-02 0. -1.
        1   -1    0    0  501    0  0.00000000000E+00  0.00000000000E+00 -0.71719987921E+03  0.71719987923E+03  0.50400001928E-02 0.  1.
    10030    2    1    2    0    0  0.00000000000E+00  0.00000000000E+00  0.96786521967E+03  0.24022649781E+04  0.21986618525E+04 0.  0.
        4    1    3    3  502    0  0.31570286436E+03  0.42063945516E+03 -0.57082343495E+03  0.77617450138E+03  0.12699999809E+01 0.  1.
       -4    1    3    3    0  502 -0.31570286436E+03 -0.42063945516E+03  0.15386886546E+04  0.16260904767E+04  0.12699999809E+01 0. -1.
</event>
<event>
 5   0  0.2284329E-05  0.2205738E+04  0.7818609E-02  0.8516044E-01
       -2   -1    0    0    0  501  0.00000000000E+00  0.00000000000E+00  0.14576934249E+04  0.14576934249E+04  0.25500000920E-02 0.  1.
        2   -1    0    0  501    0  0.00000000000E+00  0.00000000000E+00 -0.83441400062E+03  0.83441400062E+03  0.25500000920E-02 0. -1.
    10030    2    1    2    0    0  0.00000000000E+00  0.00000000000E+00  0.62327942428E+03  0.22921074255E+04  0.22057377925E+04 0.  0.
        2    1    3    3  502    0 -0.34853459290E+03  0.10107259307E+04  0.30343723057E+02  0.10695625326E+04  0.25500000920E-02 0. -1.
       -2    1    3    3    0  502  0.34853459290E+03 -0.10107259307E+04  0.59293570122E+03  0.12225448930E+04  0.25500000920E-02 0.  1.
</event>
<event>
 5   0  0.2284329E-05  0.2199124E+04  0.7818609E-02  0.8518793E-01
        2   -1    0    0  501    0  0.00000000000E+00  0.00000000000E+00  0.96194832499E+03  0.96194832499E+03  0.25500000920E-02 0.  1.
       -2   -1    0    0    0  501  0.00000000000E+00  0.00000000000E+00 -0.12568628370E+04  0.12568628370E+04  0.25500000920E-02 0. -1.
    10030    2    1    2    0    0  0.00000000000E+00  0.00000000000E+00 -0.29491451202E+03  0.22188111620E+04  0.21991244629E+04 0.  0.
        2    1    3    3  502    0 -0.10726061068E+04 -0.16387606121E+03 -0.32709004812E+03  0.11332815729E+04  0.25500000920E-02 0.  1.
       -2    1    3    3    0  502  0.10726061068E+04  0.16387606121E+03  0.32175536096E+02  0.10855295891E+04  0.25500000920E-02 0. -1.
</event>
<event>
 5   0  0.1071208E-05  0.2198875E+04  0.7818609E-02  0.8518897E-01
        1   -1    0    0  501    0  0.00000000000E+00  0.00000000000E+00  0.16007186488E+04  0.16007186488E+04  0.50400001928E-02 0. -1.
       -1   -1    0    0    0  501  0.00000000000E+00  0.00000000000E+00 -0.75513729175E+03  0.75513729177E+03  0.50400001928E-02 0.  1.
    10030    2    1    2    0    0  0.00000000000E+00  0.00000000000E+00  0.84558135707E+03  0.23558559406E+04  0.21988745715E+04 0.  0.
        4    1    3    3  502    0  0.61129137031E+03 -0.67951385980E+02  0.13991490499E+04  0.15283697874E+04  0.12699999809E+01 0. -1.
       -4    1    3    3    0  502 -0.61129137031E+03  0.67951385980E+02 -0.55356769284E+03  0.82748615319E+03  0.12699999809E+01 0.  1.
</event>
<event>
 5   0  0.1033733E-05  0.2179124E+04  0.7818609E-02  0.8527168E-01
        1   -1    0    0  501    0  0.00000000000E+00  0.00000000000E+00  0.14946668007E+04  0.14946668007E+04  0.50400001928E-02 0.  1.
       -1   -1    0    0    0  501  0.00000000000E+00  0.00000000000E+00 -0.79425423248E+03  0.79425423250E+03  0.50400001928E-02 0. -1.
    10030    2    1    2    0    0  0.00000000000E+00  0.00000000000E+00  0.70041256825E+03  0.22889210332E+04  0.21791240742E+04 0.  0.
        5    1    3    3  502    0 -0.55063025275E+03  0.51035722891E+03  0.11795889385E+04  0.13982525988E+04  0.46999998093E+01 0.  1.
       -5    1    3    3    0  502  0.55063025275E+03 -0.51035722891E+03 -0.47917637020E+03  0.89066843444E+03  0.46999998093E+01 0. -1.
</event>
<event>
 5   0  0.1007682E-05  0.2197905E+04  0.7818609E-02  0.8519301E-01
       -1   -1    0    0    0  501  0.00000000000E+00  0.00000000000E+00  0.19654046258E+04  0.19654046258E+04  0.50400001928E-02 0.  1.
        1   -1    0    0  501    0  0.00000000000E+00  0.00000000000E+00 -0.61447728787E+03  0.61447728789E+03  0.50400001928E-02 0. -1.
    10030    2    1    2    0    0  0.00000000000E+00  0.00000000000E+00  0.13509273380E+04  0.25798819137E+04  0.21979049152E+04 0.  0.
        2    1    3    3  502    0  0.88251052336E+02 -0.10065225537E+04  0.16811875109E+03  0.10242752627E+04  0.25500000920E-02 0. -1.
       -2    1    3    3    0  502 -0.88251052336E+02  0.10065225537E+04  0.11828085869E+04  0.15556066510E+04  0.25500000920E-02 0.  1.
</event>
<event>
 5   0  0.2319707E-05  0.2196298E+04  0.7818609E-02  0.8519970E-01
        2   -1    0    0  501    0  0.00000000000E+00  0.00000000000E+00  0.99686018193E+03  0.99686018193E+03  0.25500000920E-02 0. -1.
       -2   -1    0    0    0  501  0.00000000000E+00  0.00000000000E+00 -0.12097300614E+04  0.12097300614E+04  0.25500000920E-02 0.  1.
    10030    2    1    2    0    0  0.00000000000E+00  0.00000000000E+00 -0.21286987944E+03  0.22065902433E+04  0.21962984579E+04 0.  0.
        3    1    3    3  502    0 -0.52013656776E+03  0.53813348589E+03  0.70094887092E+03  0.10254067620E+04  0.10100000352E+00 0. -1.
       -3    1    3    3    0  502  0.52013656776E+03 -0.53813348589E+03 -0.91381875036E+03  0.11811834813E+04  0.10100000352E+00 0.  1.
</event>
<event>
 5   0  0.1007682E-05  0.2211083E+04  0.7818609E-02  0.8513829E-01
        1   -1    0    0  501    0  0.00000000000E+00  0.00000000000E+00  0.14894376900E+04  0.14894376900E+04  0.50400001928E-02 0.  1.
       -1   -1    0    0    0  501  0.00000000000E+00  0.00000000000E+00 -0.82059284568E+03  0.82059284570E+03  0.50400001928E-02 0. -1.
    10030    2    1    2    0    0  0.00000000000E+00  0.00000000000E+00  0.66884484432E+03  0.23100305357E+04  0.22110829134E+04 0.  0.
        2    1    3    3  502    0 -0.30787167865E+03 -0.11223890353E+03  0.14375324713E+04  0.14744090844E+04  0.25500000920E-02 0.  1.
       -2    1    3    3    0  502  0.30787167865E+03  0.11223890353E+03 -0.76868762701E+03  0.83562145132E+03  0.25500000920E-02 0. -1.
</event>
<event>
 5   0  0.1049198E-05  0.2190450E+04  0.7818609E-02  0.8522413E-01
       -1   -1    0    0    0  501  0.00000000000E+00  0.00000000000E+00  0.13754481500E+04  0.13754481501E+04  0.50400001928E-02 0.  1.
        1   -1    0    0  501    0  0.00000000000E+00  0.00000000000E+00 -0.87209269591E+03  0.87209269593E+03  0.50400001928E-02 0. -1.
    10030    2    1    2    0    0  0.00000000000E+00  0.00000000000E+00  0.50335545413E+03  0.22475408460E+04  0.21904504425E+04 0.  0.
        1    1    3    3  502    0  0.10115304726E+04  0.32899959604E+03 -0.16051379845E+02  0.10638102641E+04  0.50400001928E-02 0.  1.
       -1    1    3    3    0  502 -0.10115304726E+04 -0.32899959604E+03  0.51940683398E+03  0.11837305819E+04  0.50400001928E-02 0. -1.
</event>
<event>
 5   0  0.2229552E-05  0.2177540E+04  0.7818609E-02  0.8527835E-01
        2   -1    0    0  501    0  0.00000000000E+00  0.00000000000E+00  0.25016116843E+04  0.25016116843E+04  0.25500000920E-02 0. -1.
       -2   -1    0    0    0  501  0.00000000000E+00  0.00000000000E+00 -0.47386250983E+03  0.47386250983E+03  0.25500000920E-02 0.  1.
    10030    2    1    2    0    0  0.00000000000E+00  0.00000000000E+00  0.20277491745E+04  0.29754741941E+04  0.21775398883E+04 0.  0.
        1    1    3    3  502    0 -0.10278027295E+04 -0.14230578910E+03  0.14645727221E+04  0.17948823490E+04  0.50400001928E-02 0. -1.
       -1    1    3    3    0  502  0.10278027295E+04  0.14230578910E+03  0.56317645230E+03  0.11805918451E+04  0.50400001928E-02 0.  1.
</event>
<event>
 5   0  0.1033733E-05  0.2256209E+04  0.7818609E-02  0.8495390E-01
       -1   -1    0    0    0  501  0.00000000000E+00  0.00000000000E+00  0.93767696564E+03  0.93767696566E+03  0.50400001928E-02 0.  1.
        1   -1    0    0  501    0  0.00000000000E+00  0.00000000000E+00 -0.13572047174E+04  0.13572047174E+04  0.50400001928E-02 0. -1.
    10030    2    1    2    0    0  0.00000000000E+00  0.00000000000E+00 -0.41952775172E+03  0.22948816830E+04  0.22562088566E+04 0.  0.
        5    1    3    3  502    0 -0.91132028244E+03 -0.28963390667E+03  0.39899717001E+03  0.10361531203E+04  0.46999998093E+01 0.  1.
       -5    1    3    3    0  502  0.91132028244E+03  0.28963390667E+03 -0.81852492173E+03  0.12587285627E+04  0.46999998093E+01 0. -1.
</event>
<event>
 5   0  0.1033733E-05  0.2218787E+04  0.7818609E-02  0.8510649E-01
        1   -1    0    0  501    0  0.00000000000E+00  0.00000000000E+00  0.15353762882E+04  0.15353762882E+04  0.50400001928E-02 0. -1.
       -1   -1    0    0    0  501  0.00000000000E+00  0.00000000000E+00 -0.80159768400E+03  0.80159768402E+03  0.50400001928E-02 0.  1.
    10030    2    1    2    0    0  0.00000000000E+00  0.00000000000E+00  0.73377860423E+03  0.23369739723E+04  0.22187871252E+04 0.  0.
        5    1    3    3  502    0  0.10442759731E+04 -0.37201174705E+03  0.32186984526E+03  0.11543514782E+04  0.46999998093E+01 0.  1.
       -5    1    3    3    0  502 -0.10442759731E+04  0.37201174705E+03  0.41190875897E+03  0.11826224941E+04  0.46999998093E+01 0. -1.
</event>
<event>
 5   0  0.2284329E-05  0.2192969E+04  0.7818609E-02  0.8521360E-01
        2   -1    0    0  501    0  0.00000000000E+00  0.00000000000E+00  0.13497936525E+04  0.13497936525E+04  0.25500000920E-02 0.  1.
       -2   -1    0    0    0  501  0.00000000000E+00  0.00000000000E+00 -0.89071280381E+03  0.89071280381E+03  0.25500000920E-02 0. -1.
    10030    2    1    2    0    0  0.00000000000E+00  0.00000000000E+00  0.45908084873E+03  0.22405064563E+04  0.21929692098E+04 0.  0.
        2    1    3    3  502    0  0.26909315687E+03  0.69982971341E+02  0.13131780776E+04  0.13422911037E+04  0.25500000920E-02 0.  1.
       -2    1    3    3    0  502 -0.26909315687E+03 -0.69982971341E+02 -0.85409722892E+03  0.89821535269E+03  0.25500000920E-02 0. -1.
</event>
<event>
 5   0  0.2284329E-05  0.2205006E+04  0.7818609E-02  0.8516347E-01
        2   -1    0    0  501    0  0.00000000000E+00  0.00000000000E+00  0.19626804245E+04  0.19626804245E+04  0.25500000920E-02 0.  1.
       -2   -1    0    0    0  501  0.00000000000E+00  0.00000000000E+00 -0.61931266238E+03  0.61931266239E+03  0.25500000920E-02 0. -1.
    10030    2    1    2    0    0  0.00000000000E+00  0.00000000000E+00  0.13433677621E+04  0.25819930869E+04  0.22050059765E+04 0.  0.
        2    1    3    3  502    0  0.94726835678E+03  0.95849942170E+02  0.13226080063E+04  0.16296614647E+04  0.25500000920E-02 0.  1.
       -2    1    3    3    0  502 -0.94726835678E+03 -0.95849942170E+02  0.20759755820E+02  0.95233162220E+03  0.25500000920E-02 0. -1.
</event>
<event>
 5   0  0.1005538E-05  0.2200816E+04  0.7818609E-02  0.8518089E-01
        1   -1    0    0  501    0  0.00000000000E+00  0.00000000000E+00  0.15014888814E+04  0.15014888814E+04  0.50400001928E-02 0.  1.
       -1   -1    0    0    0  501  0.00000000000E+00  0.00000000000E+00 -0.80646433226E+03  0.80646433228E+03  0.50400001928E-02 0. -1.
    10030    2    1    2    0    0  0.00000000000E+00  0.00000000000E+00  0.69502454918E+03  0.23079532137E+04  0.22008155108E+04 0.  0.
        3    1    3    3  502    0  0.88216271124E+03  0.54404213658E+03 -0.40222261458E+02  0.10372129656E+04  0.10100000352E+00 0. -1.
       -3    1    3    3    0  502 -0.88216271124E+03 -0.54404213658E+03  0.73524681063E+03  0.12707402481E+04  0.10100000352E+00 0.  1.
</event>
<event>
 5   0  0.2289708E-05  0.2202984E+04  0.7818609E-02  0.8517187E-01
       -2   -1    0    0    0  501  0.00000000000E+00  0.00000000000E+00  0.18486720935E+04  0.18486720935E+04  0.25500000920E-02 0.  1.
        2   -1    0    0  501    0  0.00000000000E+00  0.00000000000E+00 -0.65630084347E+03  0.65630084347E+03  0.25500000920E-02 0. -1.
    10030    2    1    2    0    0  0.00000000000E+00  0.00000000000E+00  0.11923712500E+04  0.25049729369E+04  0.22029843887E+04 0.  0.
        5    1    3    3  502    0  0.10839153450E+04  0.16610384946E+03  0.47801664010E+03  0.11962378367E+04  0.46999998093E+01 0. -1.
       -5    1    3    3    0  502 -0.10839153450E+04 -0.16610384946E+03  0.71435460989E+03  0.13087351002E+04  0.46999998093E+01 0.  1.
</event>
<event>
 5   0  0.1071208E-05  0.2191977E+04  0.7818609E-02  0.8521775E-01
       -1   -1    0    0    0  501  0.00000000000E+00  0.00000000000E+00  0.12081106768E+04  0.12081106768E+04  0.50400001928E-02 0. -1.
        1   -1    0    0  501    0  0.00000000000E+00  0.00000000000E+00 -0.99427218183E+03  0.99427218184E+03  0.50400001928E-02 0.  1.
    10030    2    1    2    0    0  0.00000000000E+00  0.00000000000E+00  0.21383849499E+03  0.22023828587E+04  0.21919770424E+04 0.  0.
        4    1    3    3  502    0 -0.68079370428E+03  0.85371620123E+03  0.20158864931E+03  0.11103832746E+04  0.12699999809E+01 0. -1.
       -4    1    3    3    0  502  0.68079370428E+03 -0.85371620123E+03  0.12249845682E+02  0.10919995841E+04  0.12699999809E+01 0.  1.
</event>
<event>
 5   0  0.2284329E-05  0.2201321E+04  0.7818609E-02  0.8517878E-01
        2   -1    0    0  501    0  0.00000000000E+00  0.00000000000E+00  0.12776088836E+04  0.12776088836E+04  0.25500000920E-02 0.  1.
       -2   -1    0    0    0  501  0.00000000000E+00  0.00000000000E+00 -0.94821949545E+03  0.94821949545E+03  0.25500000920E-02 0. -1.
    10030    2    1    2    0    0  0.00000000000E+00  0.00000000000E+00  0.32938938812E+03  0.22258283790E+04  0.22013211042E+04 0.  0.
        2    1    3    3  502    0 -0.12676613834E+03  0.98721313815E+03 -0.31042400728E+03  0.10426037110E+04  0.25500000920E-02 0. -1.
       -2    1    3    3    0  502  0.12676613834E+03 -0.98721313815E+03  0.63981339541E+03  0.11832246680E+04  0.25500000920E-02 0.  1.
</event>
<event>
 5   0  0.1033733E-05  0.2193791E+04  0.7818609E-02  0.8521017E-01
        1   -1    0    0  501    0  0.00000000000E+00  0.00000000000E+00  0.10243230921E+04  0.10243230921E+04  0.50400001928E-02 0.  1.
       -1   -1    0    0    0  501  0.00000000000E+00  0.00000000000E+00 -0.11746095605E+04  0.11746095605E+04  0.50400001928E-02 0. -1.
    10030    2    1    2    0    0  0.00000000000E+00  0.00000000000E+00 -0.15028646839E+03  0.21989326526E+04  0.21937909627E+04 0.  0.
        5    1    3    3  502    0 -0.53813003216E+03  0.90194102156E+03 -0.39223269284E+03  0.11211378654E+04  0.46999998093E+01 0. -1.
       -5    1    3    3    0  502  0.53813003216E+03 -0.90194102156E+03  0.24194622445E+03  0.10777947872E+04  0.46999998093E+01 0.  1.
</event>
<event>
 5   0  0.8003875E-06  0.2252227E+04  0.7818609E-02  0.8496999E-01
        3   -1    0    0  501    0  0.00000000000E+00  0.00000000000E+00  0.10208839316E+04  0.10208839366E+04  0.10100000352E+00 0. -1.
       -3   -1    0    0    0  501  0.00000000000E+00  0.00000000000E+00 -0.12421898547E+04  0.12421898588E+04  0.10100000352E+00 0.  1.
    10030    2    1    2    0    0  0.00000000000E+00  0.00000000000E+00 -0.22130592313E+03  0.22630737954E+04  0.22522270516E+04 0.  0.
        2    1    3    3  502    0 -0.19763291212E+03  0.69843043123E+03  0.75446259982E+03  0.10469372712E+04  0.25500000920E-02 0. -1.
       -2    1    3    3    0  502  0.19763291212E+03 -0.69843043123E+03 -0.97576852294E+03  0.12161365242E+04  0.25500000920E-02 0.  1.
</event>
<event>
 5   0  0.1007682E-05  0.2187045E+04  0.7818609E-02  0.8523840E-01
        1   -1    0    0  501    0  0.00000000000E+00  0.00000000000E+00  0.94081483152E+03  0.94081483153E+03  0.50400001928E-02 0.  1.
       -1   -1    0    0    0  501  0.00000000000E+00  0.00000000000E+00 -0.12710166058E+04  0.12710166058E+04  0.50400001928E-02 0. -1.
    10030    2    1    2    0    0  0.00000000000E+00  0.00000000000E+00 -0.33020177431E+03  0.22118314374E+04  0.21870448316E+04 0.  0.
        2    1    3    3  502    0 -0.52523084689E+02  0.41936533347E+03  0.85487548748E+03  0.95364461748E+03  0.25500000920E-02 0.  1.
       -2    1    3    3    0  502  0.52523084689E+02 -0.41936533347E+03 -0.11850772618E+04  0.12581868199E+04  0.25500000920E-02 0. -1.
</event>
<event>
 5   0  0.1033733E-05  0.2198611E+04  0.7818609E-02  0.8519006E-01
        1   -1    0    0  501    0  0.00000000000E+00  0.00000000000E+00  0.10766721138E+04  0.10766721138E+04  0.50400001928E-02 0.  1.
       -1   -1    0    0    0  501  0.00000000000E+00  0.00000000000E+00 -0.11224146819E+04  0.11224146819E+04  0.50400001928E-02 0. -1.
    10030    2    1    2    0    0  0.00000000000E+00  0.00000000000E+00 -0.45742568089E+02  0.21990867956E+04  0.21986110052E+04 0.  0.
        5    1    3    3  502    0 -0.56604725883E+03 -0.77258206044E+03  0.51683603334E+03  0.10883171021E+04  0.46999998093E+01 0.  1.
       -5    1    3    3    0  502  0.56604725883E+03  0.77258206044E+03 -0.56257860143E+03  0.11107696936E+04  0.46999998093E+01 0. -1.
</event>
<event>
 5   0  0.2284329E-05  0.2242067E+04  0.7818609E-02  0.8501120E-01
       -2   -1    0    0    0  501  0.00000000000E+00  0.00000000000E+00  0.76563606536E+03  0.76563606537E+03  0.25500000920E-02 0. -1.
        2   -1    0    0  501    0  0.00000000000E+00  0.00000000000E+00 -0.16414006910E+04  0.16414006910E+04  0.25500000920E-02 0.  1.
    10030    2    1    2    0    0  0.00000000000E+00  0.00000000000E+00 -0.87576462559E+03  0.24070367563E+04  0.22420665170E+04 0.  0.
        2    1    3    3  502    0 -0.62196632528E+03  0.67626432509E+03 -0.11274347084E+04  0.14544017907E+04  0.25500000920E-02 0.  1.
       -2    1    3    3    0  502  0.62196632528E+03 -0.67626432509E+03  0.25167008276E+03  0.95263496563E+03  0.25500000920E-02 0. -1.
</event>
<event>
 5   0  0.2284329E-05  0.2196763E+04  0.7818609E-02  0.8519777E-01
       -2   -1    0    0    0  501  0.00000000000E+00  0.00000000000E+00  0.79984500176E+03  0.79984500176E+03  0.25500000920E-02 0. -1.
        2   -1    0    0  501    0  0.00000000000E+00  0.00000000000E+00 -0.15083450049E+04  0.15083450049E+04  0.25500000920E-02 0.  1.
    10030    2    1    2    0    0  0.00000000000E+00  0.00000000000E+00 -0.70850000312E+03  0.23081900067E+04  0.21967632673E+04 0.  0.
        2    1    3    3  502    0  0.63359130363E+03  0.56782426310E+03 -0.10841660352E+04  0.13781430716E+04  0.25500000920E-02 0. -1.
       -2    1    3    3    0  502 -0.63359130363E+03 -0.56782426310E+03  0.37566603207E+03  0.93004693509E+03  0.25500000920E-02 0.  1.
</event>
<event>
 5   0  0.1071208E-05  0.2199787E+04  0.7818609E-02  0.8518517E-01
       -1   -1    0    0    0  501  0.00000000000E+00  0.00000000000E+00  0.93594402255E+03  0.93594402256E+03  0.50400001928E-02 0.  1.
        1   -1    0    0  501    0  0.00000000000E+00  0.00000000000E+00 -0.12925621133E+04  0.12925621133E+04  0.50400001928E-02 0. -1.
    10030    2    1    2    0    0  0.00000000000E+00  0.00000000000E+00 -0.35661809073E+03  0.22285061358E+04  0.21997870658E+04 0.  0.
        4    1    3    3  502    0  0.34879262006E+01 -0.10214878592E+04 -0.59145007144E+03  0.11803662195E+04  0.12699999809E+01 0. -1.
       -4    1    3    3    0  502 -0.34879262006E+01  0.10214878592E+04  0.23483198071E+03  0.10481399164E+04  0.12699999809E+01 0.  1.
</event>
<event>
 5   0  0.2298329E-05  0.2205333E+04  0.7818609E-02  0.8516212E-01
        2   -1    0    0  501    0  0.00000000000E+00  0.00000000000E+00  0.13791696872E+04  0.13791696872E+04  0.25500000920E-02 0.  1.
       -2   -1    0    0    0  501  0.00000000000E+00  0.00000000000E+00 -0.88159827384E+03  0.88159827385E+03  0.25500000920E-02 0. -1.
    10030    2    1    2    0    0  0.00000000000E+00  0.00000000000E+00  0.49757141332E+03  0.22607679610E+04  0.22053331862E+04 0.  0.
        4    1    3    3  502    0 -0.93230458654E+03 -0.52624777842E+03 -0.21942463360E+02  0.10707995382E+04  0.12699999809E+01 0.  1.
       -4    1    3    3    0  502  0.93230458654E+03  0.52624777842E+03  0.51951387668E+03  0.11899684228E+04  0.12699999809E+01 0. -1.
</event>
<event>
 5   0  0.8003875E-06  0.2240252E+04  0.7818609E-02  0.8501859E-01
        3   -1    0    0  501    0  0.00000000000E+00  0.00000000000E+00  0.23192912996E+04  0.23192913018E+04  0.10100000352E+00 0. -1.
       -3   -1    0    0    0  501  0.00000000000E+00  0.00000000000E+00 -0.54097673104E+03  0.54097674047E+03  0.10100000352E+00 0.  1.
    10030    2    1    2    0    0  0.00000000000E+00  0.00000000000E+00  0.17783145686E+04  0.28602680423E+04  0.22402523449E+04 0.  0.
        3    1    3    3  502    0  0.82539512998E+03 -0.54553578586E+03  0.21864931161E+03  0.10132590715E+04  0.10100000352E+00 0.  1.
       -3    1    3    3    0  502 -0.82539512998E+03  0.54553578586E+03  0.15596652570E+04  0.18470089708E+04  0.10100000352E+00 0. -1.
</event>
<event>
 5   0  0.8003875E-06  0.2200791E+04  0.7818609E-02  0.8518099E-01
        3   -1    0    0  501    0  0.00000000000E+00  0.00000000000E+00  0.12059581950E+04  0.12059581992E+04  0.10100000352E+00 0. -1.
       -3   -1    0    0    0  501  0.00000000000E+00  0.00000000000E+00 -0.10040734631E+04  0.10040734682E+04  0.10100000352E+00 0.  1.
    10030    2    1    2    0    0  0.00000000000E+00  0.00000000000E+00  0.20188473189E+03  0.22100316674E+04  0.22007913409E+04 0.  0.
        2    1    3    3  502    0  0.51429599024E+03 -0.59785515178E+03  0.87158842815E+03  0.11754137723E+04  0.25500000920E-02 0. -1.
       -2    1    3    3    0  502 -0.51429599024E+03  0.59785515178E+03 -0.66970369626E+03  0.10346178951E+04  0.25500000920E-02 0.  1.
</event>
<event>
 5   0  0.1005538E-05  0.2199129E+04  0.7818609E-02  0.8518791E-01
       -1   -1    0    0    0  501  0.00000000000E+00  0.00000000000E+00  0.87227421521E+03  0.87227421522E+03  0.50400001928E-02 0.  1.
        1   -1    0    0  501    0  0.00000000000E+00  0.00000000000E+00 -0.13860805845E+04  0.13860805845E+04  0.50400001928E-02 0. -1.
    10030    2    1    2    0    0  0.00000000000E+00  0.00000000000E+00 -0.51380636925E+03  0.22583547997E+04  0.21991292405E+04 0.  0.
        3    1    3    3  502    0 -0.30140407894E+02 -0.10473084569E+04  0.85665629035E+02  0.10512383451E+04  0.10100000352E+00 0. -1.
       -3    1    3    3    0  502  0.30140407894E+02  0.10473084569E+04 -0.59947199829E+03  0.12071164546E+04  0.10100000352E+00 0.  1.
</event>
<event>
 5   0  0.2284329E-05  0.2197573E+04  0.7818609E-02  0.8519439E-01
        2   -1    0    0  501    0  0.00000000000E+00  0.00000000000E+00  0.94255199742E+03  0.94255199743E+03  0.25500000920E-02 0. -1.
       -2   -1    0    0    0  501  0.00000000000E+00  0.00000000000E+00 -0.12809174279E+04  0.12809174279E+04  0.25500000920E-02 0.  1.
    10030    2    1    2    0    0  0.00000000000E+00  0.00000000000E+00 -0.33836543052E+03  0.22234694254E+04  0.21975725519E+04 0.  0.
        2    1    3    3  502    0 -0.22757010171E+03 -0.12856452389E+02 -0.12567345284E+04  0.12772372976E+04  0.25500000920E-02 0.  1.
       -2    1    3    3    0  502  0.22757010171E+03  0.12856452389E+02  0.91836909790E+03  0.94623212773E+03  0.25500000920E-02 0. -1.
</event>
<event>
 5   0  0.1049198E-05  0.2221371E+04  0.7818609E-02  0.8509585E-01
        1   -1    0    0  501    0  0.00000000000E+00  0.00000000000E+00  0.16851941884E+04  0.16851941884E+04  0.50400001928E-02 0. -1.
       -1   -1    0    0    0  501  0.00000000000E+00  0.00000000000E+00 -0.73203552210E+03  0.73203552212E+03  0.50400001928E-02 0.  1.
    10030    2    1    2    0    0  0.00000000000E+00  0.00000000000E+00  0.95315866629E+03  0.24172297105E+04  0.22213707548E+04 0.  0.
        1    1    3    3  502    0  0.58438169363E+03  0.83397066287E+03  0.95908560555E+03  0.13988760593E+04  0.50400001928E-02 0. -1.
       -1    1    3    3    0  502 -0.58438169363E+03 -0.83397066287E+03 -0.59269392587E+01  0.10183536513E+04  0.50400001928E-02 0.  1.
</event>
<event>
 5   0  0.2284329E-05  0.2204896E+04  0.7818609E-02  0.8516393E-01
        2   -1    0    0  501    0  0.00000000000E+00  0.00000000000E+00  0.10832860907E+04  0.10832860907E+04  0.25500000920E-02 0.  1.
       -2   -1    0    0    0  501  0.00000000000E+00  0.00000000000E+00 -0.11219491531E+04  0.11219491531E+04  0.25500000920E-02 0. -1.
    10030    2    1    2    0    0  0.00000000000E+00  0.00000000000E+00 -0.38663062426E+02  0.22052352438E+04  0.22048962896E+04 0.  0.
        2    1    3    3  502    0 -0.13141395859E+03 -0.32515038744E+03  0.10260083176E+04  0.10842903074E+04  0.25500000920E-02 0.  1.
       -2    1    3    3    0  502  0.13141395859E+03  0.32515038744E+03 -0.10646713800E+04  0.11209449364E+04  0.25500000920E-02 0. -1.
</event>
<event>
 5   0  0.2284329E-05  0.2201424E+04  0.7818609E-02  0.8517836E-01
        2   -1    0    0  501    0  0.00000000000E+00  0.00000000000E+00  0.74860141361E+03  0.74860141362E+03  0.25500000920E-02 0.  1.
       -2   -1    0    0    0  501  0.00000000000E+00  0.00000000000E+00 -0.16184402480E+04  0.16184402480E+04  0.25500000920E-02 0. -1.
    10030    2    1    2    0    0  0.00000000000E+00  0.00000000000E+00 -0.86983883443E+03  0.23670416617E+04  0.22014237734E+04 0.  0.
        2    1    3    3  502    0  0.25952321899E+03  0.43648160764E+03  0.61512512677E+03  0.79765118729E+03  0.25500000920E-02 0.  1.
       -2    1    3    3    0  502 -0.25952321899E+03 -0.43648160764E+03 -0.14849639612E+04  0.15693904744E+04  0.25500000920E-02 0. -1.
</event>
<event>
 5   0  0.1005538E-05  0.2187357E+04  0.7818609E-02  0.8523709E-01
        1   -1    0    0  501    0  0.00000000000E+00  0.00000000000E+00  0.10567313604E+04  0.10567313604E+04  0.50400001928E-02 0.  1.
       -1   -1    0    0    0  501  0.00000000000E+00  0.00000000000E+00 -0.11319171833E+04  0.11319171833E+04  0.50400001928E-02 0. -1.
    10030    2    1    2    0    0  0.00000000000E+00  0.00000000000E+00 -0.75185822887E+02  0.21886485437E+04  0.21873567472E+04 0.  0.
        3    1    3    3  502    0  0.43046096837E+03  0.39679040863E+03 -0.96193125998E+03  0.11260777206E+04  0.10100000352E+00 0. -1.
       -3    1    3    3    0  502 -0.43046096837E+03 -0.39679040863E+03  0.88674543709E+03  0.10625708231E+04  0.10100000352E+00 0.  1.
</event>
<event>
 5   0  0.1049198E-05  0.2211017E+04  0.7818609E-02  0.8513856E-01
       -1   -1    0    0    0  501  0.00000000000E+00  0.00000000000E+00  0.55507151623E+03  0.55507151626E+03  0.50400001928E-02 0. -1.
        1   -1    0    0  501    0  0.00000000000E+00  0.00000000000E+00 -0.22017869863E+04  0.22017869863E+04  0.50400001928E-02 0.  1.
    10030    2    1    2    0    0  0.00000000000E+00  0.00000000000E+00 -0.16467154700E+04  0.27568585025E+04  0.22110171785E+04 0.  0.
        1    1    3    3  502    0  0.32847136254E+03  0.10029881802E+04 -0.41308046092E+03  0.11333641042E+04  0.50400001928E-02 0. -1.
       -1    1    3    3    0  502 -0.32847136254E+03 -0.10029881802E+04 -0.12336350091E+04  0.16234943983E+04  0.50400001928E-02 0.  1.
</event>
<event>
 5   0  0.1005538E-05  0.2208256E+04  0.7818609E-02  0.8515000E-01
       -1   -1    0    0    0  501  0.00000000000E+00  0.00000000000E+00  0.11218049899E+04  0.11218049899E+04  0.50400001928E-02 0.  1.
        1   -1    0    0  501    0  0.00000000000E+00  0.00000000000E+00 -0.10867294300E+04  0.10867294300E+04  0.50400001928E-02 0. -1.
    10030    2    1    2    0    0  0.00000000000E+00  0.00000000000E+00  0.35075559900E+02  0.22085344200E+04  0.22082558704E+04 0.  0.
        3    1    3    3  502    0  0.10493769709E+04  0.34096131207E+03 -0.23110226593E+02  0.11036216454E+04  0.10100000352E+00 0.  1.
       -3    1    3    3    0  502 -0.10493769709E+04 -0.34096131207E+03  0.58185786493E+02  0.11049127746E+04  0.10100000352E+00 0. -1.
</event>
<event>
 5   0  0.8003875E-06  0.2209509E+04  0.7818609E-02  0.8514481E-01
       -3   -1    0    0    0  501  0.00000000000E+00  0.00000000000E+00  0.96860512582E+03  0.96860513109E+03  0.10100000352E+00 0.  1.
        3   -1    0    0  501    0  0.00000000000E+00  0.00000000000E+00 -0.12600414549E+04  0.12600414590E+04  0.10100000352E+00 0. -1.
    10030    2    1    2    0    0  0.00000000000E+00  0.00000000000E+00 -0.29143632911E+03  0.22286465901E+04  0.22095091060E+04 0.  0.
        4    1    3    3  502    0 -0.15428622790E+03 -0.71526986958E+03  0.68913778728E+03  0.10051506003E+04  0.12699999809E+01 0.  1.
       -4    1    3    3    0  502  0.15428622790E+03  0.71526986958E+03 -0.98057411639E+03  0.12234959898E+04  0.12699999809E+01 0. -1.
</event>
<event>
 5   0  0.1071208E-05  0.2217818E+04  0.7818609E-02  0.8511048E-01
        1   -1    0    0  501    0  0.00000000000E+00  0.00000000000E+00  0.68167964806E+03  0.68167964808E+03  0.50400001928E-02 0. -1.
       -1   -1    0    0    0  501  0.00000000000E+00  0.00000000000E+00 -0.18038951636E+04  0.18038951636E+04  0.50400001928E-02 0.  1.
    10030    2    1    2    0    0  0.00000000000E+00  0.00000000000E+00 -0.11222155155E+04  0.24855748117E+04  0.22178175040E+04 0.  0.
        4    1    3    3  502    0  0.31049223736E+03 -0.10086900308E+04 -0.94251181832E+03  0.14149880382E+04  0.12699999809E+01 0.  1.
       -4    1    3    3    0  502 -0.31049223736E+03  0.10086900308E+04 -0.17970369722E+03  0.10705867734E+04  0.12699999809E+01 0. -1.
</event>
<event>
 5   0  0.1071208E-05  0.2199134E+04  0.7818609E-02  0.8518789E-01
       -1   -1    0    0    0  501  0.00000000000E+00  0.00000000000E+00  0.12882628530E+04  0.12882628530E+04  0.50400001928E-02 0.  1.
        1   -1    0    0  501    0  0.00000000000E+00  0.00000000000E+00 -0.93851006903E+03  0.93851006904E+03  0.50400001928E-02 0. -1.
    10030    2    1    2    0    0  0.00000000000E+00  0.00000000000E+00  0.34975278397E+03  0.22267729221E+04  0.21991340651E+04 0.  0.
        4    1    3    3  502    0 -0.84436843096E+02  0.68465784039E+03  0.10418854579E+04  0.12495650680E+04  0.12699999809E+01 0.  1.
       -4    1    3    3    0  502  0.84436843096E+02 -0.68465784039E+03 -0.69213267391E+03  0.97720785407E+03  0.12699999809E+01 0. -1.
</event>
<event>
 5   0  0.2229552E-05  0.2204783E+04  0.7818609E-02  0.8516440E-01
        2   -1    0    0  501    0  0.00000000000E+00  0.00000000000E+00  0.24327146326E+04  0.24327146326E+04  0.25500000920E-02 0.  1.
       -2   -1    0    0    0  501  0.00000000000E+00  0.00000000000E+00 -0.49955166149E+03  0.49955166149E+03  0.25500000920E-02 0. -1.
    10030    2    1    2    0    0  0.00000000000E+00  0.00000000000E+00  0.19331629711E+04  0.29322662941E+04  0.22047826529E+04 0.  0.
        1    1    3    3  502    0 -0.74392464803E+03  0.77138579340E+03  0.13103354181E+04  0.16927607132E+04  0.50400001928E-02 0.  1.
       -1    1    3    3    0  502  0.74392464803E+03 -0.77138579340E+03  0.62282755297E+03  0.12395055809E+04  0.50400001928E-02 0. -1.
</event>
<event>
 5   0  0.2319707E-05  0.2195056E+04  0.7818609E-02  0.8520489E-01
       -2   -1    0    0    0  501  0.00000000000E+00  0.00000000000E+00  0.85273102265E+03  0.85273102265E+03  0.25500000920E-02 0. -1.
        2   -1    0    0  501    0  0.00000000000E+00  0.00000000000E+00 -0.14125998708E+04  0.14125998708E+04  0.25500000920E-02 0.  1.
    10030    2    1    2    0    0  0.00000000000E+00  0.00000000000E+00 -0.55986884818E+03  0.22653308935E+04  0.21950560197E+04 0.  0.
        3    1    3    3  502    0 -0.13292212833E+03  0.90627490630E+03 -0.90391127363E+03  0.12868792091E+04  0.10100000352E+00 0. -1.
       -3    1    3    3    0  502  0.13292212833E+03 -0.90627490630E+03  0.34404242545E+03  0.97845168440E+03  0.10100000352E+00 0.  1.
</event>
<event>
 5   0  0.8003875E-06  0.2195838E+04  0.7818609E-02  0.8520163E-01
        3   -1    0    0  501    0  0.00000000000E+00  0.00000000000E+00  0.87193098703E+03  0.87193099288E+03  0.10100000352E+00 0. -1.
       -3   -1    0    0    0  501  0.00000000000E+00  0.00000000000E+00 -0.13824784256E+04  0.13824784293E+04  0.10100000352E+00 0.  1.
    10030    2    1    2    0    0  0.00000000000E+00  0.00000000000E+00 -0.51054743856E+03  0.22544094222E+04  0.21958376888E+04 0.  0.
        2    1    3    3  502    0  0.71045752479E+03 -0.47955880739E+03  0.44910188607E+03  0.96768747452E+03  0.25500000920E-02 0. -1.
       -2    1    3    3    0  502 -0.71045752479E+03  0.47955880739E+03 -0.95964932463E+03  0.12867219476E+04  0.25500000920E-02 0.  1.
</event>
<event>
 5   0  0.2284329E-05  0.2215472E+04  0.7818609E-02  0.8512016E-01
       -2   -1    0    0    0  501  0.00000000000E+00  0.00000000000E+00  0.78298646543E+03  0.78298646543E+03  0.25500000920E-02 0.  1.
        2   -1    0    0  501    0  0.00000000000E+00  0.00000000000E+00 -0.15671779241E+04  0.15671779241E+04  0.25500000920E-02 0. -1.
    10030    2    1    2    0    0  0.00000000000E+00  0.00000000000E+00 -0.78419145864E+03  0.23501643895E+04  0.22154720521E+04 0.  0.
        2    1    3    3  502    0 -0.31868519316E+03 -0.75025872230E+03  0.40359386528E+03  0.90958034875E+03  0.25500000920E-02 0.  1.
       -2    1    3    3    0  502  0.31868519316E+03  0.75025872230E+03 -0.11877853239E+04  0.14405840407E+04  0.25500000920E-02 0. -1.
</event>
<event>
 5   0  0.2298329E-05  0.2197791E+04  0.7818609E-02  0.8519348E-01
       -2   -1    0    0    0  501  0.00000000000E+00  0.00000000000E+00  0.94053288158E+03  0.94053288158E+03  0.25500000920E-02 0.  1.
        2   -1    0    0  501    0  0.00000000000E+00  0.00000000000E+00 -0.12839230017E+04  0.12839230017E+04  0.25500000920E-02 0. -1.
    10030    2    1    2    0    0  0.00000000000E+00  0.00000000000E+00 -0.34339012008E+03  0.22244558832E+04  0.21977914373E+04 0.  0.
        4    1    3    3  502    0  0.27196315275E+03  0.10570414055E+04 -0.42594814687E+02  0.10922986865E+04  0.12699999809E+01 0.  1.
       -4    1    3    3    0  502 -0.27196315275E+03 -0.10570414055E+04 -0.30079530539E+03  0.11321571967E+04  0.12699999809E+01 0. -1.
</event>
<event>
 5   0  0.1071208E-05  0.2204748E+04  0.7818609E-02  0.8516455E-01
        1   -1    0    0  501    0  0.00000000000E+00  0.00000000000E+00  0.10768142667E+04  0.10768142667E+04  0.50400001928E-02 0.  1.
       -1   -1    0    0    0  501  0.00000000000E+00  0.00000000000E+00 -0.11285399874E+04  0.11285399874E+04  0.50400001928E-02 0. -1.
    10030    2    1    2    0    0  0.00000000000E+00  0.00000000000E+00 -0.51725720660E+02  0.22053542541E+04  0.22047475674E+04 0.  0.
        4    1    3    3  502    0  0.94411033910E+03 -0.82303555272E+02  0.53741565125E+03  0.10894656501E+04  0.12699999809E+01 0.  1.
       -4    1    3    3    0  502 -0.94411033910E+03  0.82303555272E+02 -0.58914137191E+03  0.11158886040E+04  0.12699999809E+01 0. -1.
</event>
<event>
 5   0  0.2289708E-05  0.2198641E+04  0.7818609E-02  0.8518994E-01
       -2   -1    0    0    0  501  0.00000000000E+00  0.00000000000E+00  0.17568186163E+04  0.17568186163E+04  0.25500000920E-02 0. -1.
        2   -1    0    0  501    0  0.00000000000E+00  0.00000000000E+00 -0.68789405477E+03  0.68789405478E+03  0.25500000920E-02 0.  1.
    10030    2    1    2    0    0  0.00000000000E+00  0.00000000000E+00  0.10689245615E+04  0.24447126711E+04  0.21986405631E+04 0.  0.
        5    1    3    3  502    0 -0.12740175351E+03  0.10512449618E+04  0.20623706973E+03  0.10788433600E+04  0.46999998093E+01 0. -1.
       -5    1    3    3    0  502  0.12740175351E+03 -0.10512449618E+04  0.86268749178E+03  0.13658693111E+04  0.46999998093E+01 0.  1.
</event>
<event>
 5   0  0.2229552E-05  0.2210842E+04  0.7818609E-02  0.8513929E-01
       -2   -1    0    0    0  501  0.00000000000E+00  0.00000000000E+00  0.12240509546E+04  0.12240509546E+04  0.25500000920E-02 0.  1.
        2   -1    0    0  501    0  0.00000000000E+00  0.00000000000E+00 -0.99828798574E+03  0.99828798574E+03  0.25500000920E-02 0. -1.
    10030    2    1    2    0    0  0.00000000000E+00  0.00000000000E+00  0.22576296881E+03  0.22223389403E+04  0.22108417961E+04 0.  0.
        1    1    3    3  502    0 -0.54174719724E+03 -0.92689118019E+03 -0.15180911887E+03  0.10842800811E+04  0.50400001928E-02 0. -1.
       -1    1    3    3    0  502  0.54174719724E+03  0.92689118019E+03  0.37757208768E+03  0.11380588592E+04  0.50400001928E-02 0.  1.
</event>
<event>
 5   0  0.1071208E-05  0.2212579E+04  0.7818609E-02  0.8513211E-01
        1   -1    0    0  501    0  0.00000000000E+00  0.00000000000E+00  0.93868150285E+03  0.93868150286E+03  0.50400001928E-02 0. -1.
       -1   -1    0    0    0  501  0.00000000000E+00  0.00000000000E+00 -0.13038251058E+04  0.13038251058E+04  0.50400001928E-02 0.  1.
    10030    2    1    2    0    0  0.00000000000E+00  0.00000000000E+00 -0.36514360299E+03  0.22425066087E+04  0.22125790470E+04 0.  0.
        4    1    3    3  502    0  0.24412704711E+03  0.16361237643E+03 -0.12635380691E+04  0.12972652350E+04  0.12699999809E+01 0.  1.
       -4    1    3    3    0  502 -0.24412704711E+03 -0.16361237643E+03  0.89839446616E+03  0.94524137371E+03  0.12699999809E+01 0. -1.
</event>
<event>
 5   0  0.1005538E-05  0.2199423E+04  0.7818609E-02  0.8518668E-01
        1   -1    0    0  501    0  0.00000000000E+00  0.00000000000E+00  0.18416984032E+04  0.18416984033E+04  0.50400001928E-02 0.  1.
       -1   -1    0    0    0  501  0.00000000000E+00  0.00000000000E+00 -0.65665786281E+03  0.65665786282E+03  0.50400001928E-02 0. -1.
    10030    2    1    2    0    0  0.00000000000E+00  0.00000000000E+00  0.11850405404E+04  0.24983562661E+04  0.21994233221E+04 0.  0.
        3    1    3    3  502    0 -0.28694240678E+03  0.63984436205E+02 -0.61119287121E+03  0.67822318517E+03  0.10100000352E+00 0. -1.
       -3    1    3    3    0  502  0.28694240678E+03 -0.63984436205E+02  0.17962334116E+04  0.18201330809E+04  0.10100000352E+00 0.  1.
</event>
<event>
 5   0  0.2298329E-05  0.2174969E+04  0.7818609E-02  0.8528919E-01
        2   -1    0    0  501    0  0.00000000000E+00  0.00000000000E+00  0.16003279706E+04  0.16003279706E+04  0.25500000920E-02 0. -1.
       -2   -1    0    0    0  501  0.00000000000E+00  0.00000000000E+00 -0.73898762676E+03  0.73898762677E+03  0.25500000920E-02 0.  1.
    10030    2    1    2    0    0  0.00000000000E+00  0.00000000000E+00  0.86134034382E+03  0.23393155974E+04  0.21749690288E+04 0.  0.
        4    1    3    3  502    0 -0.56896023304E+03  0.53531687671E+03  0.12443680580E+04  0.14692628702E+04  0.12699999809E+01 0. -1.
       -4    1    3    3    0  502  0.56896023304E+03 -0.53531687671E+03 -0.38302771413E+03  0.87005272712E+03  0.12699999809E+01 0.  1.
</event>
<event>
 5   0  0.2319707E-05  0.2197726E+04  0.7818609E-02  0.8519375E-01
        2   -1    0    0  501    0  0.00000000000E+00  0.00000000000E+00  0.18558843895E+04  0.18558843895E+04  0.25500000920E-02 0.  1.
       -2   -1    0    0    0  501  0.00000000000E+00  0.00000000000E+00 -0.65063288356E+03  0.65063288356E+03  0.25500000920E-02 0. -1.
    10030    2    1    2    0    0  0.00000000000E+00  0.00000000000E+00  0.12052515060E+04  0.25065172731E+04  0.21977255624E+04 0.  0.
        3    1    3    3  502    0 -0.46616197586E+03  0.96798765278E+03  0.33958581073E+03  0.11267766490E+04  0.10100000352E+00 0. -1.
       -3    1    3    3    0  502  0.46616197586E+03 -0.96798765278E+03  0.86566569526E+03  0.13797406241E+04  0.10100000352E+00 0.  1.
</event>
<event>
 5   0  0.2284329E-05  0.2192661E+04  0.7818609E-02  0.8521489E-01
       -2   -1    0    0    0  501  0.00000000000E+00  0.00000000000E+00  0.84440438963E+03  0.84440438963E+03  0.25500000920E-02 0.  1.
        2   -1    0    0  501    0  0.00000000000E+00  0.00000000000E+00 -0.14234181481E+04  0.14234181481E+04  0.25500000920E-02 0. -1.
    10030    2    1    2    0    0  0.00000000000E+00  0.00000000000E+00 -0.57901375851E+03  0.22678225378E+04  0.21926609702E+04 0.  0.
        2    1    3    3  502    0  0.47774579840E+02 -0.46898220816E+03 -0.13132410413E+04  0.13952880543E+04  0.25500000920E-02 0. -1.
       -2    1    3    3    0  502 -0.47774579840E+02  0.46898220816E+03  0.73422728276E+03  0.87253448345E+03  0.25500000920E-02 0.  1.
</event>
<event>
 5   0  0.2284329E-05  0.2195455E+04  0.7818609E-02  0.8520322E-01
        2   -1    0    0  501    0  0.00000000000E+00  0.00000000000E+00  0.15666189672E+04  0.15666189672E+04  0.25500000920E-02 0.  1.
       -2   -1    0    0    0  501  0.00000000000E+00  0.00000000000E+00 -0.76917624827E+03  0.76917624827E+03  0.25500000920E-02 0. -1.
    10030    2    1    2    0    0  0.00000000000E+00  0.00000000000E+00  0.79744271898E+03  0.23357952155E+04  0.21954553967E+04 0.  0.
        2    1    3    3  502    0 -0.76622715462E+03  0.45636060158E+03 -0.28222007359E+03  0.93542355171E+03  0.25500000920E-02 0. -1.
       -2    1    3    3    0  502  0.76622715462E+03 -0.45636060158E+03  0.10796627926E+04  0.14003716638E+04  0.25500000920E-02 0.  1.
</event>
<event>
 5   0  0.2298329E-05  0.2189371E+04  0.7818609E-02  0.8522865E-01
       -2   -1    0    0    0  501  0.00000000000E+00  0.00000000000E+00  0.69315332509E+03  0.69315332509E+03  0.25500000920E-02 0. -1.
        2   -1    0    0  501    0  0.00000000000E+00  0.00000000000E+00 -0.17288184490E+04  0.17288184490E+04  0.25500000920E-02 0.  1.
    10030    2    1    2    0    0  0.00000000000E+00  0.00000000000E+00 -0.10356651239E+04  0.24219717741E+04  0.21893709201E+04 0.  0.
        4    1    3    3  502    0  0.50444845382E+02 -0.35636296418E+03 -0.16614927942E+04  0.17000291652E+04  0.12699999809E+01 0.  1.
       -4    1    3    3    0  502 -0.50444845382E+02  0.35636296418E+03  0.62582767028E+03  0.72194260884E+03  0.12699999809E+01 0. -1.
</event>
<event>
 5   0  0.2289708E-05  0.2215633E+04  0.7818609E-02  0.8511949E-01
       -2   -1    0    0    0  501  0.00000000000E+00  0.00000000000E+00  0.11134332993E+04  0.11134332993E+04  0.25500000920E-02 0.  1.
        2   -1    0    0  501    0  0.00000000000E+00  0.00000000000E+00 -0.11022279714E+04  0.11022279714E+04  0.25500000920E-02 0. -1.
    10030    2    1    2    0    0  0.00000000000E+00  0.00000000000E+00  0.11205327931E+02  0.22156612708E+04  0.22156329361E+04 0.  0.
        5    1    3    3  502    0  0.18857530461E+02  0.36062471738E+03 -0.10417069834E+04  0.11025340460E+04  0.46999998093E+01 0. -1.
       -5    1    3    3    0  502 -0.18857530461E+02 -0.36062471738E+03  0.10529123113E+04  0.11131272248E+04  0.46999998093E+01 0.  1.
</event>
<event>
 5   0  0.2289708E-05  0.2197594E+04  0.7818609E-02  0.8519430E-01
        2   -1    0    0  501    0  0.00000000000E+00  0.00000000000E+00  0.25101383500E+04  0.25101383500E+04  0.25500000920E-02 0.  1.
       -2   -1    0    0    0  501  0.00000000000E+00  0.00000000000E+00 -0.48099145905E+03  0.48099145906E+03  0.25500000920E-02 0. -1.
    10030    2    1    2    0    0  0.00000000000E+00  0.00000000000E+00  0.20291468909E+04  0.29911298090E+04  0.21975942368E+04 0.  0.
        5    1    3    3  502    0  0.22190523038E+03  0.17883222768E+03 -0.42979563937E+03  0.51572209430E+03  0.46999998093E+01 0. -1.
       -5    1    3    3    0  502 -0.22190523038E+03 -0.17883222768E+03  0.24589425303E+04  0.24754077147E+04  0.46999998093E+01 0.  1.
</event>
<event>
 5   0  0.2319707E-05  0.2209946E+04  0.7818609E-02  0.8514300E-01
        2   -1    0    0  501    0  0.00000000000E+00  0.00000000000E+00  0.15749593957E+04  0.15749593957E+04  0.25500000920E-02 0. -1.
       -2   -1    0    0    0  501  0.00000000000E+00  0.00000000000E+00 -0.77523623583E+03  0.77523623583E+03  0.25500000920E-02 0.  1.
    10030    2    1    2    0    0  0.00000000000E+00  0.00000000000E+00  0.79972315990E+03  0.23501956316E+04  0.22099462378E+04 0.  0.
        3    1    3    3  502    0  0.47532292880E+03 -0.78965254226E+03  0.10480354519E+04  0.13956580322E+04  0.10100000352E+00 0. -1.
       -3    1    3    3    0  502 -0.47532292880E+03  0.78965254226E+03 -0.24831229197E+03  0.95453759941E+03  0.10100000352E+00 0.  1.
</event>
<event>
 5   0  0.1049198E-05  0.2203674E+04  0.7818609E-02  0.8516900E-01
        1   -1    0    0  501    0  0.00000000000E+00  0.00000000000E+00  0.10133723398E+04  0.10133723398E+04  0.50400001928E-02 0.  1.
       -1   -1    0    0    0  501  0.00000000000E+00  0.00000000000E+00 -0.11980246035E+04  0.11980246035E+04  0.50400001928E-02 0. -1.
    10030    2    1    2    0    0  0.00000000000E+00  0.00000000000E+00 -0.18465226367E+03  0.22113969433E+04  0.22036742006E+04 0.  0.
        1    1    3    3  502    0 -0.58739772099E+03  0.54693400629E+03 -0.84987040171E+03  0.11689536302E+04  0.50400001928E-02 0. -1.
       -1    1    3    3    0  502  0.58739772099E+03 -0.54693400629E+03  0.66521813804E+03  0.10424433131E+04  0.50400001928E-02 0.  1.
</event>
<event>
 5   0  0.1049198E-05  0.2176800E+04  0.7818609E-02  0.8528147E-01
        1   -1    0    0  501    0  0.00000000000E+00  0.00000000000E+00  0.11016046736E+04  0.11016046736E+04  0.50400001928E-02 0. -1.
       -1   -1    0    0    0  501  0.00000000000E+00  0.00000000000E+00 -0.10753534180E+04  0.10753534180E+04  0.50400001928E-02 0.  1.
    10030    2    1    2    0    0  0.00000000000E+00  0.00000000000E+00  0.26251255597E+02  0.21769580916E+04  0.21767998081E+04 0.  0.
        1    1    3    3  502    0  0.86628414859E+03 -0.25087844516E+03 -0.59620196823E+03  0.10811313552E+04  0.50400001928E-02 0.  1.
       -1    1    3    3    0  502 -0.86628414859E+03  0.25087844516E+03  0.62245322382E+03  0.10958267364E+04  0.50400001928E-02 0. -1.
</event>
<event>
 5   0  0.2284329E-05  0.2200528E+04  0.7818609E-02  0.8518209E-01
       -2   -1    0    0    0  501  0.00000000000E+00  0.00000000000E+00  0.94421158895E+03  0.94421158896E+03  0.25500000920E-02 0. -1.
        2   -1    0    0  501    0  0.00000000000E+00  0.00000000000E+00 -0.12821072303E+04  0.12821072303E+04  0.25500000920E-02 0.  1.
    10030    2    1    2    0    0  0.00000000000E+00  0.00000000000E+00 -0.33789564131E+03  0.22263188192E+04  0.22005276686E+04 0.  0.
        2    1    3    3  502    0  0.10802675495E+04 -0.14352202632E+03 -0.32239601229E+03  0.11364487403E+04  0.25500000920E-02 0.  1.
       -2    1    3    3    0  502 -0.10802675495E+04  0.14352202632E+03 -0.15499629027E+02  0.10898700790E+04  0.25500000920E-02 0. -1.
</event>
<event>
 5   0  0.2298329E-05  0.2201732E+04  0.7818609E-02  0.8517707E-01
        2   -1    0    0  501    0  0.00000000000E+00  0.00000000000E+00  0.72398347004E+03  0.72398347005E+03  0.25500000920E-02 0.  1.
       -2   -1    0    0    0  501  0.00000000000E+00  0.00000000000E+00 -0.16739421709E+04  0.16739421709E+04  0.25500000920E-02 0. -1.
    10030    2    1    2    0    0  0.00000000000E+00  0.00000000000E+00 -0.94995870088E+03  0.23979256410E+04  0.22017324647E+04 0.  0.
        4    1    3    3  502    0 -0.22605084445E+03  0.51253434524E+03  0.55715681935E+03  0.79007327102E+03  0.12699999809E+01 0.  1.
       -4    1    3    3    0  502  0.22605084445E+03 -0.51253434524E+03 -0.15071155202E+04  0.16078523699E+04  0.12699999809E+01 0. -1.
</event>
<event>
 5   0  0.1033733E-05  0.2204282E+04  0.7818609E-02  0.8516648E-01
       -1   -1    0    0    0  501  0.00000000000E+00  0.00000000000E+00  0.84145490816E+03  0.84145490817E+03  0.50400001928E-02 0. -1.
        1   -1    0    0  501    0  0.00000000000E+00  0.00000000000E+00 -0.14435886726E+04  0.14435886726E+04  0.50400001928E-02 0.  1.
    10030    2    1    2    0    0  0.00000000000E+00  0.00000000000E+00 -0.60213376443E+03  0.22850435808E+04  0.22042819910E+04 0.  0.
        5    1    3    3  502    0 -0.39770741452E+03 -0.49947968849E+03  0.63020240168E+03  0.89712223462E+03  0.46999998093E+01 0. -1.
       -5    1    3    3    0  502  0.39770741452E+03  0.49947968849E+03 -0.12323361661E+04  0.13879213461E+04  0.46999998093E+01 0.  1.
</event>
<event>
 5   0  0.2229552E-05  0.2201460E+04  0.7818609E-02  0.8517821E-01
        2   -1    0    0  501    0  0.00000000000E+00  0.00000000000E+00  0.15753901219E+04  0.15753901219E+04  0.25500000920E-02 0. -1.
       -2   -1    0    0    0  501  0.00000000000E+00  0.00000000000E+00 -0.76908356744E+03  0.76908356744E+03  0.25500000920E-02 0.  1.
    10030    2    1    2    0    0  0.00000000000E+00  0.00000000000E+00  0.80630655446E+03  0.23444736893E+04  0.22014601110E+04 0.  0.
        1    1    3    3  502    0  0.54477633956E+03 -0.92690659405E+03  0.15188165704E+03  0.10858200274E+04  0.50400001928E-02 0.  1.
       -1    1    3    3    0  502 -0.54477633956E+03  0.92690659405E+03  0.65442489742E+03  0.12586536619E+04  0.50400001928E-02 0. -1.
</event>
<event>
 5   0  0.1033733E-05  0.2198496E+04  0.7818609E-02  0.8519054E-01
       -1   -1    0    0    0  501  0.00000000000E+00  0.00000000000E+00  0.56154397477E+03  0.56154397479E+03  0.50400001928E-02 0. -1.
        1   -1    0    0  501    0  0.00000000000E+00  0.00000000000E+00 -0.21518288655E+04  0.21518288655E+04  0.50400001928E-02 0.  1.
    10030    2    1    2    0    0  0.00000000000E+00  0.00000000000E+00 -0.15902848907E+04  0.27133728403E+04  0.21984963354E+04 0.  0.
        5    1    3    3  502    0 -0.48447565610E+03  0.81601401746E+03 -0.11049360943E+03  0.95541952343E+03  0.46999998093E+01 0. -1.
       -5    1    3    3    0  502  0.48447565610E+03 -0.81601401746E+03 -0.14797912813E+04  0.17579533168E+04  0.46999998093E+01 0.  1.
</event>
<event>
 5   0  0.1071208E-05  0.2208674E+04  0.7818609E-02  0.8514826E-01
        1   -1    0    0  501    0  0.00000000000E+00  0.00000000000E+00  0.15336796792E+04  0.15336796792E+04  0.50400001928E-02 0.  1.
       -1   -1    0    0    0  501  0.00000000000E+00  0.00000000000E+00 -0.79518599798E+03  0.79518599799E+03  0.50400001928E-02 0. -1.
    10030    2    1    2    0    0  0.00000000000E+00  0.00000000000E+00  0.73849368119E+03  0.23288656772E+04  0.22086743592E+04 0.  0.
        4    1    3    3  502    0  0.74160671761E+03 -0.38124618403E+03 -0.39419087331E+03  0.92234333843E+03  0.12699999809E+01 0. -1.
       -4    1    3    3    0  502 -0.74160671761E+03  0.38124618403E+03  0.11326845545E+04  0.14065223387E+04  0.12699999809E+01 0.  1.
</event>
<event>
 5   0  0.1049198E-05  0.2203762E+04  0.7818609E-02  0.8516864E-01
        1   -1    0    0  501    0  0.00000000000E+00  0.00000000000E+00  0.21913949284E+04  0.21913949284E+04  0.50400001928E-02 0.  1.
       -1   -1    0    0    0  501  0.00000000000E+00  0.00000000000E+00 -0.55404981267E+03  0.55404981269E+03  0.50400001928E-02 0. -1.
    10030    2    1    2    0    0  0.00000000000E+00  0.00000000000E+00  0.16373451157E+04  0.27454447411E+04  0.22037621919E+04 0.  0.
        1    1    3    3  502    0  0.61660548034E+03 -0.49220043610E+03  0.17769490236E+04  0.19442251465E+04  0.50400001928E-02 0.  1.
       -1    1    3    3    0  502 -0.61660548034E+03  0.49220043610E+03 -0.13960390788E+03  0.80121959462E+03  0.50400001928E-02 0. -1.
</event>
<event>
 5   0  0.1049198E-05  0.2188074E+04  0.7818609E-02  0.8523409E-01
       -1   -1    0    0    0  501  0.00000000000E+00  0.00000000000E+00  0.65192952165E+03  0.65192952167E+03  0.50400001928E-02 0.  1.
        1   -1    0    0  501    0  0.00000000000E+00  0.00000000000E+00 -0.18359601906E+04  0.18359601906E+04  0.50400001928E-02 0. -1.
    10030    2    1    2    0    0  0.00000000000E+00  0.00000000000E+00 -0.11840306689E+04  0.24878897122E+04  0.21880737180E+04 0.  0.
        1    1    3    3  502    0 -0.81906445340E+03 -0.62936366196E+03 -0.10018981786E+04  0.14390153433E+04  0.50400001928E-02 0. -1.
       -1    1    3    3    0  502  0.81906445340E+03  0.62936366196E+03 -0.18213249028E+03  0.10488743690E+04  0.50400001928E-02 0.  1.
</event>
<event>
 5   0  0.1049198E-05  0.2201616E+04  0.7818609E-02  0.8517756E-01
       -1   -1    0    0    0  501  0.00000000000E+00  0.00000000000E+00  0.94419872477E+03  0.94419872478E+03  0.50400001928E-02 0. -1.
        1   -1    0    0  501    0  0.00000000000E+00  0.00000000000E+00 -0.12833930972E+04  0.12833930972E+04  0.50400001928E-02 0.  1.
    10030    2    1    2    0    0  0.00000000000E+00  0.00000000000E+00 -0.33919437243E+03  0.22275918220E+04  0.22016158845E+04 0.  0.
        1    1    3    3  502    0 -0.82883804875E+03 -0.55237000654E+03 -0.64384153584E+03  0.11860088779E+04  0.50400001928E-02 0. -1.
       -1    1    3    3    0  502  0.82883804875E+03  0.55237000654E+03  0.30464716341E+03  0.10415829441E+04  0.50400001928E-02 0.  1.
</event>
<event>
 5   0  0.1007682E-05  0.2186012E+04  0.7818609E-02  0.8524273E-01
       -1   -1    0    0    0  501  0.00000000000E+00  0.00000000000E+00  0.10471758242E+04  0.10471758243E+04  0.50400001928E-02 0. -1.
        1   -1    0    0  501    0  0.00000000000E+00  0.00000000000E+00 -0.11408416546E+04  0.11408416546E+04  0.50400001928E-02 0.  1.
    10030    2    1    2    0    0  0.00000000000E+00  0.00000000000E+00 -0.93665830356E+02  0.21880174789E+04  0.21860117109E+04 0.  0.
        2    1    3    3  502    0 -0.80379918470E+03  0.55689837217E+03 -0.53557683701E+03  0.11149311524E+04  0.25500000920E-02 0.  1.
       -2    1    3    3    0  502  0.80379918470E+03 -0.55689837217E+03  0.44191100665E+03  0.10730863265E+04  0.25500000920E-02 0. -1.
</event>
<event>
 5   0  0.1033733E-05  0.2196716E+04  0.7818609E-02  0.8519796E-01
        1   -1    0    0  501    0  0.00000000000E+00  0.00000000000E+00  0.19356610869E+04  0.19356610869E+04  0.50400001928E-02 0.  1.
       -1   -1    0    0    0  501  0.00000000000E+00  0.00000000000E+00 -0.62324439892E+03  0.62324439894E+03  0.50400001928E-02 0. -1.
    10030    2    1    2    0    0  0.00000000000E+00  0.00000000000E+00  0.13124166880E+04  0.25589054859E+04  0.21967156672E+04 0.  0.
        5    1    3    3  502    0 -0.22674474267E+03  0.34175579326E+03  0.18431026602E+04  0.18881895314E+04  0.46999998093E+01 0.  1.
       -5    1    3    3    0  502  0.22674474267E+03 -0.34175579326E+03 -0.53068597216E+03  0.67071595449E+03  0.46999998093E+01 0. -1.
</event>
<event>
 5   0  0.2319707E-05  0.2199422E+04  0.7818609E-02  0.8518669E-01
       -2   -1    0    0    0  501  0.00000000000E+00  0.00000000000E+00  0.55114863581E+03  0.55114863581E+03  0.25500000920E-02 0.  1.
        2   -1    0    0  501    0  0.00000000000E+00  0.00000000000E+00 -0.21942608093E+04  0.21942608093E+04  0.25500000920E-02 0. -1.
    10030    2    1    2    0    0  0.00000000000E+00  0.00000000000E+00 -0.16431121735E+04  0.27454094451E+04  0.21994216073E+04 0.  0.
        3    1    3    3  502    0  0.52019441625E+03 -0.64310099405E+02 -0.20283066883E+04  0.20949381975E+04  0.10100000352E+00 0. -1.
       -3    1    3    3    0  502 -0.52019441625E+03  0.64310099405E+02  0.38519451475E+03  0.65047124762E+03  0.10100000352E+00 0.  1.
</event>
<event>
 5   0  0.1005538E-05  0.2202425E+04  0.7818609E-02  0.8517420E-01
       -1   -1    0    0    0  501  0.00000000000E+00  0.00000000000E+00  0.80155128323E+03  0.80155128325E+03  0.50400001928E-02 0. -1.
        1   -1    0    0  501    0  0.00000000000E+00  0.00000000000E+00 -0.15129020958E+04  0.15129020958E+04  0.50400001928E-02 0.  1.
    10030    2    1    2    0    0  0.00000000000E+00  0.00000000000E+00 -0.71135081256E+03  0.23144533790E+04  0.22024246787E+04 0.  0.
        3    1    3    3  502    0 -0.10543240838E+04 -0.27875554833E+03 -0.51630562854E+03  0.12065966359E+04  0.10100000352E+00 0.  1.
       -3    1    3    3    0  502  0.10543240838E+04  0.27875554833E+03 -0.19504518402E+03  0.11078567432E+04  0.10100000352E+00 0. -1.
</event>
<event>
 5   0  0.1007682E-05  0.2204001E+04  0.7818609E-02  0.8516765E-01
        1   -1    0    0  501    0  0.00000000000E+00  0.00000000000E+00  0.13489493276E+04  0.13489493276E+04  0.50400001928E-02 0.  1.
       -1   -1    0    0    0  501  0.00000000000E+00  0.00000000000E+00 -0.90026019651E+03  0.90026019652E+03  0.50400001928E-02 0. -1.
    10030    2    1    2    0    0  0.00000000000E+00  0.00000000000E+00  0.44868913107E+03  0.22492095241E+04  0.22040012584E+04 0.  0.
        2    1    3    3  502    0  0.40563117259E+03 -0.54487132181E+03 -0.66120106461E+03  0.94794949937E+03  0.25500000920E-02 0. -1.
       -2    1    3    3    0  502 -0.40563117259E+03  0.54487132181E+03  0.11098901957E+04  0.13012600247E+04  0.25500000920E-02 0.  1.
</event>
<event>
 5   0  0.2289708E-05  0.2206066E+04  0.7818609E-02  0.8515908E-01
        2   -1    0    0  501    0  0.00000000000E+00  0.00000000000E+00  0.16449357027E+04  0.16449357027E+04  0.25500000920E-02 0. -1.
       -2   -1    0    0    0  501  0.00000000000E+00  0.00000000000E+00 -0.73965318760E+03  0.73965318761E+03  0.25500000920E-02 0.  1.
    10030    2    1    2    0    0  0.00000000000E+00  0.00000000000E+00  0.90528251512E+03  0.23845888903E+04  0.22060661241E+04 0.  0.
        5    1    3    3  502    0 -0.27510429097E+03  0.91330371543E+03  0.10514122357E+04  0.14196111534E+04  0.46999998093E+01 0. -1.
       -5    1    3    3    0  502  0.27510429097E+03 -0.91330371543E+03 -0.14612972057E+03  0.96497773692E+03  0.46999998093E+01 0.  1.
</event>
<event>
 5   0  0.2319707E-05  0.2201422E+04  0.7818609E-02  0.8517837E-01
        2   -1    0    0  501    0  0.00000000000E+00  0.00000000000E+00  0.17559340791E+04  0.17559340791E+04  0.25500000920E-02 0.  1.
       -2   -1    0    0    0  501  0.00000000000E+00  0.00000000000E+00 -0.68998271269E+03  0.68998271270E+03  0.25500000920E-02 0. -1.
    10030    2    1    2    0    0  0.00000000000E+00  0.00000000000E+00  0.10659513664E+04  0.24459167918E+04  0.22014215037E+04 0.  0.
        3    1    3    3  502    0 -0.10577271996E+04  0.53583368786E+02  0.86612057386E+03  0.13681457762E+04  0.10100000352E+00 0. -1.
       -3    1    3    3    0  502  0.10577271996E+04 -0.53583368786E+02  0.19983079254E+03  0.10777710156E+04  0.10100000352E+00 0.  1.
</event>
<event>
 5   0  0.1049198E-05  0.2224827E+04  0.7818609E-02  0.8508165E-01
        1   -1    0    0  501    0  0.00000000000E+00  0.00000000000E+00  0.85634418808E+03  0.85634418809E+03  0.50400001928E-02 0.  1.
       -1   -1    0    0    0  501  0.00000000000E+00  0.00000000000E+00 -0.14450538551E+04  0.14450538551E+04  0.50400001928E-02 0. -1.
    10030    2    1    2    0    0  0.00000000000E+00  0.00000000000E+00 -0.58870966699E+03  0.23013980432E+04  0.22248267081E+04 0.  0.
        1    1    3    3  502    0 -0.71580657264E+03 -0.81163296928E+03 -0.27932077634E+02  0.10825466859E+04  0.50400001928E-02 0.  1.
       -1    1    3    3    0  502  0.71580657264E+03  0.81163296928E+03 -0.56077758936E+03  0.12188513572E+04  0.50400001928E-02 0. -1.
</event>
<event>
 5   0  0.2298329E-05  0.2191302E+04  0.7818609E-02  0.8522057E-01
       -2   -1    0    0    0  501  0.00000000000E+00  0.00000000000E+00  0.10718434610E+04  0.10718434610E+04  0.25500000920E-02 0. -1.
        2   -1    0    0  501    0  0.00000000000E+00  0.00000000000E+00 -0.11199876746E+04  0.11199876746E+04  0.25500000920E-02 0.  1.
    10030    2    1    2    0    0  0.00000000000E+00  0.00000000000E+00 -0.48144213603E+02  0.21918311355E+04  0.21913023209E+04 0.  0.
        4    1    3    3  502    0 -0.12362290369E+03  0.50899174323E+03 -0.98664245115E+03  0.11170587076E+04  0.12699999809E+01 0.  1.
       -4    1    3    3    0  502  0.12362290369E+03 -0.50899174323E+03  0.93849823755E+03  0.10747724279E+04  0.12699999809E+01 0. -1.
</event>
<event>
 5   0  0.2229552E-05  0.2193132E+04  0.7818609E-02  0.8521292E-01
        2   -1    0    0  501    0  0.00000000000E+00  0.00000000000E+00  0.21297142442E+04  0.21297142442E+04  0.25500000920E-02 0.  1.
       -2   -1    0    0    0  501  0.00000000000E+00  0.00000000000E+00 -0.56460928979E+03  0.56460928979E+03  0.25500000920E-02 0. -1.
    10030    2    1    2    0    0  0.00000000000E+00  0.00000000000E+00  0.15651049544E+04  0.26943235340E+04  0.21931315025E+04 0.  0.
        1    1    3    3  502    0 -0.90437676624E+03 -0.39302391767E+03  0.19325418670E+03  0.10048444237E+04  0.50400001928E-02 0. -1.
       -1    1    3    3    0  502  0.90437676624E+03  0.39302391767E+03  0.13718507677E+04  0.16894791103E+04  0.50400001928E-02 0.  1.
</event>
<event>
 5   0  0.2319707E-05  0.2195424E+04  0.7818609E-02  0.8520335E-01
        2   -1    0    0  501    0  0.00000000000E+00  0.00000000000E+00  0.11476809270E+04  0.11476809270E+04  0.25500000920E-02 0. -1.
       -2   -1    0    0    0  501  0.00000000000E+00  0.00000000000E+00 -0.10499185481E+04  0.10499185481E+04  0.25500000920E-02 0.  1.
    10030    2    1    2    0    0  0.00000000000E+00  0.00000000000E+00  0.97762378908E+02  0.21975994750E+04  0.21954238702E+04 0.  0.
        3    1    3    3  502    0  0.65415756219E+03 -0.17038882296E+03 -0.81685565184E+03  0.10602865807E+04  0.10100000352E+00 0.  1.
       -3    1    3    3    0  502 -0.65415756219E+03  0.17038882296E+03  0.91461803074E+03  0.11373128943E+04  0.10100000352E+00 0. -1.
</event>
<event>
 5   0  0.1033733E-05  0.2206269E+04  0.7818609E-02  0.8515823E-01
        1   -1    0    0  501    0  0.00000000000E+00  0.00000000000E+00  0.78879528807E+03  0.78879528809E+03  0.50400001928E-02 0. -1.
       -1   -1    0    0    0  501  0.00000000000E+00  0.00000000000E+00 -0.15427396754E+04  0.15427396754E+04  0.50400001928E-02 0.  1.
    10030    2    1    2    0    0  0.00000000000E+00  0.00000000000E+00 -0.75394438729E+03  0.23315349635E+04  0.22062690558E+04 0.  0.
        5    1    3    3  502    0  0.10877595556E+04 -0.85140981221E+02 -0.20522114906E+03  0.11102286465E+04  0.46999998093E+01 0.  1.
       -5    1    3    3    0  502 -0.10877595556E+04  0.85140981221E+02 -0.54872323823E+03  0.12213063169E+04  0.46999998093E+01 0. -1.
</event>
<event>
 5   0  0.1007682E-05  0.2196978E+04  0.7818609E-02  0.8519687E-01
       -1   -1    0    0    0  501  0.00000000000E+00  0.00000000000E+00  0.14030918874E+04  0.14030918874E+04  0.50400001928E-02 0.  1.
        1   -1    0    0  501    0  0.00000000000E+00  0.00000000000E+00 -0.86001352041E+03  0.86001352042E+03  0.50400001928E-02 0. -1.
    10030    2    1    2    0    0  0.00000000000E+00  0.00000000000E+00  0.54307836699E+03  0.22631054078E+04  0.21969779185E+04 0.  0.
        2    1    3    3  502    0  0.72560615600E+03  0.51276030242E+03  0.93693116190E+03  0.12912270999E+04  0.25500000920E-02 0.  1.
       -2    1    3    3    0  502 -0.72560615600E+03 -0.51276030242E+03 -0.39385279492E+03  0.97187830793E+03  0.25500000920E-02 0. -1.
</event>
<event>
 5   0  0.1005538E-05  0.2187060E+04  0.7818609E-02  0.8523833E-01
       -1   -1    0    0    0  501  0.00000000000E+00  0.00000000000E+00  0.14985165410E+04  0.14985165410E+04  0.50400001928E-02 0. -1.
        1   -1    0    0  501    0  0.00000000000E+00  0.00000000000E+00 -0.79799440246E+03  0.79799440248E+03  0.50400001928E-02 0.  1.
    10030    2    1    2    0    0  0.00000000000E+00  0.00000000000E+00  0.70052213856E+03  0.22965109435E+04  0.21870599551E+04 0.  0.
        3    1    3    3  502    0  0.54818881061E+02  0.81239478601E+03  0.11167343703E+04  0.13820586319E+04  0.10100000352E+00 0. -1.
       -3    1    3    3    0  502 -0.54818881061E+02 -0.81239478601E+03 -0.41621223176E+03  0.91445231157E+03  0.10100000352E+00 0.  1.
</event>
<event>
 5   0  0.2284329E-05  0.2202295E+04  0.7818609E-02  0.8517474E-01
       -2   -1    0    0    0  501  0.00000000000E+00  0.00000000000E+00  0.10666027220E+04  0.10666027220E+04  0.25500000920E-02 0.  1.
        2   -1    0    0  501    0  0.00000000000E+00  0.00000000000E+00 -0.11368106586E+04  0.11368106586E+04  0.25500000920E-02 0. -1.
    10030    2    1    2    0    0  0.00000000000E+00  0.00000000000E+00 -0.70207936618E+02  0.22034133805E+04  0.22022945696E+04 0.  0.
        2    1    3    3  502    0 -0.53593074281E+03 -0.27733643483E+03 -0.95665174232E+03  0.11310702079E+04  0.25500000920E-02 0. -1.
       -2    1    3    3    0  502  0.53593074281E+03  0.27733643483E+03  0.88644380570E+03  0.10723431726E+04  0.25500000920E-02 0.  1.
</event>
<event>
 5   0  0.2298329E-05  0.2093242E+04  0.7818609E-02  0.8564226E-01
       -2   -1    0    0    0  501  0.00000000000E+00  0.00000000000E+00  0.66355604188E+03  0.66355604189E+03  0.25500000920E-02 0. -1.
        2   -1    0    0  501    0  0.00000000000E+00  0.00000000000E+00 -0.16508254431E+04  0.16508254431E+04  0.25500000920E-02 0.  1.
    10030    2    1    2    0    0  0.00000000000E+00  0.00000000000E+00 -0.98726940123E+03  0.23143814850E+04  0.20932416935E+04 0.  0.
        4    1    3    3  502    0  0.84048192791E+03  0.16529268231E+03  0.17130006882E+03  0.87354271129E+03  0.12699999809E+01 0. -1.
       -4    1    3    3    0  502 -0.84048192791E+03 -0.16529268231E+03 -0.11585694700E+04  0.14408387737E+04  0.12699999809E+01 0.  1.
</event>
<event>
 5   0  0.1007682E-05  0.2207745E+04  0.7818609E-02  0.8515211E-01
       -1   -1    0    0    0  501  0.00000000000E+00  0.00000000000E+00  0.12845747320E+04  0.12845747320E+04  0.50400001928E-02 0. -1.
        1   -1    0    0  501    0  0.00000000000E+00  0.00000000000E+00 -0.94858981993E+03  0.94858981994E+03  0.50400001928E-02 0.  1.
    10030    2    1    2    0    0  0.00000000000E+00  0.00000000000E+00  0.33598491204E+03  0.22331645519E+04  0.22077450158E+04 0.  0.
        2    1    3    3  502    0 -0.42339936294E+03 -0.55359860710E+03 -0.69789885144E+03  0.98630687170E+03  0.25500000920E-02 0.  1.
       -2    1    3    3    0  502  0.42339936294E+03  0.55359860710E+03  0.10338837635E+04  0.12468576802E+04  0.25500000920E-02 0. -1.
</event>
<event>
 5   0  0.1033733E-05  0.2197991E+04  0.7818609E-02  0.8519265E-01
       -1   -1    0    0    0  501  0.00000000000E+00  0.00000000000E+00  0.16475863383E+04  0.16475863383E+04  0.50400001928E-02 0.  1.
        1   -1    0    0  501    0  0.00000000000E+00  0.00000000000E+00 -0.73306707362E+03  0.73306707364E+03  0.50400001928E-02 0. -1.
    10030    2    1    2    0    0  0.00000000000E+00  0.00000000000E+00  0.91451926464E+03  0.23806534119E+04  0.21979911697E+04 0.  0.
        5    1    3    3  502    0  0.34080654598E+03 -0.50966296478E+03 -0.53060249042E+03  0.81084309968E+03  0.46999998093E+01 0. -1.
       -5    1    3    3    0  502 -0.34080654598E+03  0.50966296478E+03  0.14451217551E+04  0.15698103122E+04  0.46999998093E+01 0.  1.
</event>
<event>
 5   0  0.1007682E-05  0.2206534E+04  0.7818609E-02  0.8515713E-01
        1   -1    0    0  501    0  0.00000000000E+00  0.00000000000E+00  0.13303942656E+04  0.13303942656E+04  0.50400001928E-02 0.  1.
       -1   -1    0    0    0  501  0.00000000000E+00  0.00000000000E+00 -0.91491562003E+03  0.91491562005E+03  0.50400001928E-02 0. -1.
    10030    2    1    2    0    0  0.00000000000E+00  0.00000000000E+00  0.41547864560E+03  0.22453098857E+04  0.22065343817E+04 0.  0.
        2    1    3    3  502    0  0.23480928184E+03 -0.26789995058E+03  0.12702593975E+04  0.13192667354E+04  0.25500000920E-02 0.  1.
       -2    1    3    3    0  502 -0.23480928184E+03  0.26789995058E+03 -0.85478075187E+03  0.92604315025E+03  0.25500000920E-02 0. -1.
</event>
<event>
 5   0  0.2284329E-05  0.2188652E+04  0.7818609E-02  0.8523166E-01
        2   -1    0    0  501    0  0.00000000000E+00  0.00000000000E+00  0.10153029390E+04  0.10153029390E+04  0.25500000920E-02 0.  1.
       -2   -1    0    0    0  501  0.00000000000E+00  0.00000000000E+00 -0.11794994515E+04  0.11794994515E+04  0.25500000920E-02 0. -1.
    10030    2    1    2    0    0  0.00000000000E+00  0.00000000000E+00 -0.16419651253E+03  0.21948023905E+04  0.21886518770E+04 0.  0.
        2    1    3    3  502    0 -0.28341383244E+02  0.67088261498E+03  0.78442638660E+03  0.10325751658E+04  0.25500000920E-02 0.  1.
       -2    1    3    3    0  502  0.28341383244E+02 -0.67088261498E+03 -0.94862289913E+03  0.11622272247E+04  0.25500000920E-02 0. -1.
</event>
<event>
 5   0  0.2319707E-05  0.2201971E+04  0.7818609E-02  0.8517608E-01
        2   -1    0    0  501    0  0.00000000000E+00  0.00000000000E+00  0.18414198753E+04  0.18414198753E+04  0.25500000920E-02 0.  1.
       -2   -1    0    0    0  501  0.00000000000E+00  0.00000000000E+00 -0.65827959636E+03  0.65827959637E+03  0.25500000920E-02 0. -1.
    10030    2    1    2    0    0  0.00000000000E+00  0.00000000000E+00  0.11831402789E+04  0.24996994716E+04  0.22019710554E+04 0.  0.
        3    1    3    3  502    0  0.97807019175E+03  0.26381488513E+02  0.18483770891E+02  0.97860050220E+03  0.10100000352E+00 0. -1.
       -3    1    3    3    0  502 -0.97807019175E+03 -0.26381488513E+02  0.11646565080E+04  0.15210989694E+04  0.10100000352E+00 0.  1.
</event>
<event>
 5   0  0.2284329E-05  0.2212671E+04  0.7818609E-02  0.8513173E-01
       -2   -1    0    0    0  501  0.00000000000E+00  0.00000000000E+00  0.79323968094E+03  0.79323968095E+03  0.25500000920E-02 0.  1.
        2   -1    0    0  501    0  0.00000000000E+00  0.00000000000E+00 -0.15430112809E+04  0.15430112810E+04  0.25500000920E-02 0. -1.
    10030    2    1    2    0    0  0.00000000000E+00  0.00000000000E+00 -0.74977160000E+03  0.23362509619E+04  0.22126705821E+04 0.  0.
        2    1    3    3  502    0  0.94875002544E+03  0.56426085568E+03 -0.29686095012E+03  0.11430850133E+04  0.25500000920E-02 0.  1.
       -2    1    3    3    0  502 -0.94875002544E+03 -0.56426085568E+03 -0.45291064988E+03  0.11931659486E+04  0.25500000920E-02 0. -1.
</event>
<event>
 5   0  0.1005538E-05  0.2211136E+04  0.7818609E-02  0.8513807E-01
        1   -1    0    0  501    0  0.00000000000E+00  0.00000000000E+00  0.12118851575E+04  0.12118851575E+04  0.50400001928E-02 0.  1.
       -1   -1    0    0    0  501  0.00000000000E+00  0.00000000000E+00 -0.10085779739E+04  0.10085779739E+04  0.50400001928E-02 0. -1.
    10030    2    1    2    0    0  0.00000000000E+00  0.00000000000E+00  0.20330718359E+03  0.22204631313E+04  0.22111360670E+04 0.  0.
        3    1    3    3  502    0  0.25927907560E+03 -0.16361366058E+03  0.11683421093E+04  0.12078983250E+04  0.10100000352E+00 0.  1.
       -3    1    3    3    0  502 -0.25927907560E+03  0.16361366058E+03 -0.96503492571E+03  0.10125648063E+04  0.10100000352E+00 0. -1.
</event>
<event>
 5   0  0.1033733E-05  0.2220065E+04  0.7818609E-02  0.8510123E-01
        1   -1    0    0  501    0  0.00000000000E+00  0.00000000000E+00  0.11439835393E+04  0.11439835393E+04  0.50400001928E-02 0.  1.
       -1   -1    0    0    0  501  0.00000000000E+00  0.00000000000E+00 -0.10770889461E+04  0.10770889461E+04  0.50400001928E-02 0. -1.
    10030    2    1    2    0    0  0.00000000000E+00  0.00000000000E+00  0.66894593229E+02  0.22210724854E+04  0.22200648861E+04 0.  0.
        5    1    3    3  502    0  0.63322185014E+03 -0.90403301705E+03  0.15141742572E+03  0.11140892847E+04  0.46999998093E+01 0. -1.
       -5    1    3    3    0  502 -0.63322185014E+03  0.90403301705E+03 -0.84522832495E+02  0.11069832007E+04  0.46999998093E+01 0.  1.
</event>
<event>
 5   0  0.2289708E-05  0.2202575E+04  0.7818609E-02  0.8517357E-01
       -2   -1    0    0    0  501  0.00000000000E+00  0.00000000000E+00  0.95374060339E+03  0.95374060339E+03  0.25500000920E-02 0.  1.
        2   -1    0    0  501    0  0.00000000000E+00  0.00000000000E+00 -0.12716601445E+04  0.12716601445E+04  0.25500000920E-02 0. -1.
    10030    2    1    2    0    0  0.00000000000E+00  0.00000000000E+00 -0.31791954114E+03  0.22254007479E+04  0.22025747783E+04 0.  0.
        5    1    3    3  502    0  0.64578760148E+03 -0.53554496755E+03  0.56184915431E+03  0.10097260028E+04  0.46999998093E+01 0. -1.
       -5    1    3    3    0  502 -0.64578760148E+03  0.53554496755E+03 -0.87976869545E+03  0.12156747451E+04  0.46999998093E+01 0.  1.
</event>
<event>
 5   0  0.1033733E-05  0.2269450E+04  0.7818609E-02  0.8490065E-01
       -1   -1    0    0    0  501  0.00000000000E+00  0.00000000000E+00  0.65381733292E+03  0.65381733294E+03  0.50400001928E-02 0.  1.
        1   -1    0    0  501    0  0.00000000000E+00  0.00000000000E+00 -0.19693582591E+04  0.19693582591E+04  0.50400001928E-02 0. -1.
    10030    2    1    2    0    0  0.00000000000E+00  0.00000000000E+00 -0.13155409262E+04  0.26231755920E+04  0.22694497699E+04 0.  0.
        5    1    3    3  502    0 -0.30881251657E+03 -0.10538137634E+04 -0.32740787969E+03  0.11459086473E+04  0.46999998093E+01 0.  1.
       -5    1    3    3    0  502  0.30881251657E+03  0.10538137634E+04 -0.98813304648E+03  0.14772669447E+04  0.46999998093E+01 0. -1.
</event>
<event>
 5   0  0.1007682E-05  0.2195624E+04  0.7818609E-02  0.8520252E-01
       -1   -1    0    0    0  501  0.00000000000E+00  0.00000000000E+00  0.10696749884E+04  0.10696749884E+04  0.50400001928E-02 0.  1.
        1   -1    0    0  501    0  0.00000000000E+00  0.00000000000E+00 -0.11266888821E+04  0.11266888821E+04  0.50400001928E-02 0. -1.
    10030    2    1    2    0    0  0.00000000000E+00  0.00000000000E+00 -0.57013893707E+02  0.21963638706E+04  0.21956237537E+04 0.  0.
        2    1    3    3  502    0  0.41567232212E+03 -0.22022795553E+03 -0.10207622175E+04  0.11239392050E+04  0.25500000920E-02 0. -1.
       -2    1    3    3    0  502 -0.41567232212E+03  0.22022795553E+03  0.96374832378E+03  0.10724246656E+04  0.25500000920E-02 0.  1.
</event>
<event>
 5   0  0.2289708E-05  0.2200089E+04  0.7818609E-02  0.8518391E-01
       -2   -1    0    0    0  501  0.00000000000E+00  0.00000000000E+00  0.12104257059E+04  0.12104257059E+04  0.25500000920E-02 0. -1.
        2   -1    0    0  501    0  0.00000000000E+00  0.00000000000E+00 -0.99972891087E+03  0.99972891088E+03  0.25500000920E-02 0.  1.
    10030    2    1    2    0    0  0.00000000000E+00  0.00000000000E+00  0.21069679498E+03  0.22101546167E+04  0.22000887006E+04 0.  0.
        5    1    3    3  502    0 -0.10617061335E+02 -0.53669592307E+03  0.10699081640E+04  0.11970299934E+04  0.46999998093E+01 0. -1.
       -5    1    3    3    0  502  0.10617061335E+02  0.53669592307E+03 -0.85921136897E+03  0.10131246233E+04  0.46999998093E+01 0.  1.
</event>
<event>
 5   0  0.1049198E-05  0.2197350E+04  0.7818609E-02  0.8519532E-01
        1   -1    0    0  501    0  0.00000000000E+00  0.00000000000E+00  0.91185026902E+03  0.91185026903E+03  0.50400001928E-02 0. -1.
       -1   -1    0    0    0  501  0.00000000000E+00  0.00000000000E+00 -0.13237776372E+04  0.13237776372E+04  0.50400001928E-02 0.  1.
    10030    2    1    2    0    0  0.00000000000E+00  0.00000000000E+00 -0.41192736817E+03  0.22356279062E+04  0.21973502175E+04 0.  0.
        1    1    3    3  502    0  0.80402259297E+03  0.74798602856E+03 -0.24048955114E+03  0.11241755437E+04  0.50400001928E-02 0. -1.
       -1    1    3    3    0  502 -0.80402259297E+03 -0.74798602856E+03 -0.17143781702E+03  0.11114523625E+04  0.50400001928E-02 0.  1.
</event>
<event>
 5   0  0.2319707E-05  0.2197744E+04  0.7818609E-02  0.8519368E-01
       -2   -1    0    0    0  501  0.00000000000E+00  0.00000000000E+00  0.12595977991E+04  0.12595977991E+04  0.25500000920E-02 0. -1.
        2   -1    0    0  501    0  0.00000000000E+00  0.00000000000E+00 -0.95865472770E+03  0.95865472771E+03  0.25500000920E-02 0.  1.
    10030    2    1    2    0    0  0.00000000000E+00  0.00000000000E+00  0.30094307138E+03  0.22182525268E+04  0.21977437386E+04 0.  0.
        3    1    3    3  502    0  0.38969069896E+03  0.91188999441E+03 -0.32735636013E+03  0.10443009142E+04  0.10100000352E+00 0. -1.
       -3    1    3    3    0  502 -0.38969069896E+03 -0.91188999441E+03  0.62829943151E+03  0.11739516126E+04  0.10100000352E+00 0.  1.
</event>
<event>
 5   0  0.2229552E-05  0.2201385E+04  0.7818609E-02  0.8517852E-01
       -2   -1    0    0    0  501  0.00000000000E+00  0.00000000000E+00  0.12610142046E+04  0.12610142046E+04  0.25500000920E-02 0. -1.
        2   -1    0    0  501    0  0.00000000000E+00  0.00000000000E+00 -0.96075370570E+03  0.96075370571E+03  0.25500000920E-02 0.  1.
    10030    2    1    2    0    0  0.00000000000E+00  0.00000000000E+00  0.30026049888E+03  0.22217679103E+04  0.22013850822E+04 0.  0.
        1    1    3    3  502    0 -0.43477982754E+02 -0.19445995800E+03  0.12426591886E+04  0.12585336186E+04  0.50400001928E-02 0. -1.
       -1    1    3    3    0  502  0.43477982754E+02  0.19445995800E+03 -0.94239868970E+03  0.96323429166E+03  0.50400001928E-02 0.  1.
</event>
<event>
 5   0  0.2319707E-05  0.2196176E+04  0.7818609E-02  0.8520022E-01
        2   -1    0    0  501    0  0.00000000000E+00  0.00000000000E+00  0.19083570178E+04  0.19083570178E+04  0.25500000920E-02 0.  1.
       -2   -1    0    0    0  501  0.00000000000E+00  0.00000000000E+00 -0.63185074229E+03  0.63185074229E+03  0.25500000920E-02 0. -1.
    10030    2    1    2    0    0  0.00000000000E+00  0.00000000000E+00  0.12765062755E+04  0.25402077601E+04  0.21961755834E+04 0.  0.
        3    1    3    3  502    0 -0.10641710574E+04 -0.15501447598E+03  0.89509015566E+03  0.13991697267E+04  0.10100000352E+00 0.  1.
       -3    1    3    3    0  502  0.10641710574E+04  0.15501447598E+03  0.38141611987E+03  0.11410380334E+04  0.10100000352E+00 0. -1.
</event>
<event>
 5   0  0.1007682E-05  0.2150740E+04  0.7818609E-02  0.8539216E-01
        1   -1    0    0  501    0  0.00000000000E+00  0.00000000000E+00  0.12858773259E+04  0.12858773259E+04  0.50400001928E-02 0.  1.
       -1   -1    0    0    0  501  0.00000000000E+00  0.00000000000E+00 -0.89932424122E+03  0.89932424124E+03  0.50400001928E-02 0. -1.
    10030    2    1    2    0    0  0.00000000000E+00  0.00000000000E+00  0.38655308468E+03  0.21852015671E+04  0.21507400126E+04 0.  0.
        2    1    3    3  502    0 -0.28691216529E+03  0.37079770047E+03 -0.79001713019E+03  0.91866021535E+03  0.25500000920E-02 0. -1.
       -2    1    3    3    0  502  0.28691216529E+03 -0.37079770047E+03  0.11765702149E+04  0.12665413518E+04  0.25500000920E-02 0.  1.
</event>
<event>
 5   0  0.2298329E-05  0.2196271E+04  0.7818609E-02  0.8519982E-01
       -2   -1    0    0    0  501  0.00000000000E+00  0.00000000000E+00  0.88745089210E+03  0.88745089210E+03  0.25500000920E-02 0. -1.
        2   -1    0    0  501    0  0.00000000000E+00  0.00000000000E+00 -0.13588372945E+04  0.13588372945E+04  0.25500000920E-02 0.  1.
    10030    2    1    2    0    0  0.00000000000E+00  0.00000000000E+00 -0.47138640243E+03  0.22462881866E+04  0.21962708114E+04 0.  0.
        4    1    3    3  502    0 -0.54339954145E+03 -0.37125076571E+03 -0.11347977762E+04  0.13118223197E+04  0.12699999809E+01 0.  1.
       -4    1    3    3    0  502  0.54339954145E+03  0.37125076571E+03  0.66341137378E+03  0.93446586693E+03  0.12699999809E+01 0. -1.
</event>
<event>
 5   0  0.1033733E-05  0.2180359E+04  0.7818609E-02  0.8526648E-01
        1   -1    0    0  501    0  0.00000000000E+00  0.00000000000E+00  0.15481203752E+04  0.15481203752E+04  0.50400001928E-02 0.  1.
       -1   -1    0    0    0  501  0.00000000000E+00  0.00000000000E+00 -0.76769930286E+03  0.76769930288E+03  0.50400001928E-02 0. -1.
    10030    2    1    2    0    0  0.00000000000E+00  0.00000000000E+00  0.78042107230E+03  0.23158196780E+04  0.21803586244E+04 0.  0.
        5    1    3    3  502    0 -0.79078021941E+03 -0.13814725180E+03 -0.39321287258E+03  0.89389958706E+03  0.46999998093E+01 0. -1.
       -5    1    3    3    0  502  0.79078021941E+03  0.13814725180E+03  0.11736339449E+04  0.14219200910E+04  0.46999998093E+01 0.  1.
</event>
<event>
 5   0  0.1007682E-05  0.2189526E+04  0.7818609E-02  0.8522800E-01
        1   -1    0    0  501    0  0.00000000000E+00  0.00000000000E+00  0.73317070914E+03  0.73317070915E+03  0.50400001928E-02 0. -1.
       -1   -1    0    0    0  501  0.00000000000E+00  0.00000000000E+00 -0.16346887974E+04  0.16346887974E+04  0.50400001928E-02 0.  1.
    10030    2    1    2    0    0  0.00000000000E+00  0.00000000000E+00 -0.90151808829E+03  0.23678595066E+04  0.21895259257E+04 0.  0.
        2    1    3    3  502    0 -0.41108419317E+03 -0.96644281705E+03 -0.11655119341E+03  0.10566863836E+04  0.25500000920E-02 0. -1.
       -2    1    3    3    0  502  0.41108419317E+03  0.96644281705E+03 -0.78496689488E+03  0.13111731230E+04  0.25500000920E-02 0.  1.
</event>
<event>
 5   0  0.8003875E-06  0.2202351E+04  0.7818609E-02  0.8517450E-01
       -3   -1    0    0    0  501  0.00000000000E+00  0.00000000000E+00  0.66887868775E+03  0.66887869537E+03  0.10100000352E+00 0.  1.
        3   -1    0    0  501    0  0.00000000000E+00  0.00000000000E+00 -0.18128665849E+04  0.18128665877E+04  0.10100000352E+00 0. -1.
    10030    2    1    2    0    0  0.00000000000E+00  0.00000000000E+00 -0.11439878972E+04  0.24817452831E+04  0.22023513211E+04 0.  0.
        5    1    3    3  502    0  0.89581015190E+01 -0.10503626103E+04 -0.94441087817E+03  0.14125423383E+04  0.46999998093E+01 0. -1.
       -5    1    3    3    0  502 -0.89581015190E+01  0.10503626103E+04 -0.19957701902E+03  0.10692029448E+04  0.46999998093E+01 0.  1.
</event>
<event>
 5   0  0.1007682E-05  0.2243672E+04  0.7818609E-02  0.8500468E-01
        1   -1    0    0  501    0  0.00000000000E+00  0.00000000000E+00  0.11567667960E+04  0.11567667960E+04  0.50400001928E-02 0. -1.
       -1   -1    0    0    0  501  0.00000000000E+00  0.00000000000E+00 -0.10879602376E+04  0.10879602376E+04  0.50400001928E-02 0.  1.
    10030    2    1    2    0    0  0.00000000000E+00  0.00000000000E+00  0.68806558380E+02  0.22447270336E+04  0.22436722383E+04 0.  0.
        2    1    3    3  502    0  0.39888225038E+03  0.98175743279E+03  0.40276324193E+03  0.11336546809E+04  0.25500000920E-02 0. -1.
       -2    1    3    3    0  502 -0.39888225038E+03 -0.98175743279E+03 -0.33395668355E+03  0.11110723527E+04  0.25500000920E-02 0.  1.
</event>
<event>
 5   0  0.1005538E-05  0.2196995E+04  0.7818609E-02  0.8519680E-01
       -1   -1    0    0    0  501  0.00000000000E+00  0.00000000000E+00  0.11523527306E+04  0.11523527306E+04  0.50400001928E-02 0.  1.
        1   -1    0    0  501    0  0.00000000000E+00  0.00000000000E+00 -0.10471590451E+04  0.10471590451E+04  0.50400001928E-02 0. -1.
    10030    2    1    2    0    0  0.00000000000E+00  0.00000000000E+00  0.10519368552E+03  0.21995117758E+04  0.21969948430E+04 0.  0.
        3    1    3    3  502    0 -0.10916811236E+04 -0.73638832307E+02 -0.45014709662E+02  0.10950875251E+04  0.10100000352E+00 0. -1.
       -3    1    3    3    0  502  0.10916811236E+04  0.73638832307E+02  0.15020839519E+03  0.11044242507E+04  0.10100000352E+00 0.  1.
</event>
<event>
 5   0  0.1033733E-05  0.2201993E+04  0.7818609E-02  0.8517599E-01
       -1   -1    0    0    0  501  0.00000000000E+00  0.00000000000E+00  0.47154170474E+03  0.47154170477E+03  0.50400001928E-02 0.  1.
        1   -1    0    0  501    0  0.00000000000E+00  0.00000000000E+00 -0.25707030132E+04  0.25707030132E+04  0.50400001928E-02 0. -1.
    10030    2    1    2    0    0  0.00000000000E+00  0.00000000000E+00 -0.20991613085E+04  0.30422447180E+04  0.22019933527E+04 0.  0.
        5    1    3    3  502    0 -0.59506055603E+03 -0.87439744060E+03 -0.62711402916E+03  0.12296186584E+04  0.46999998093E+01 0.  1.
       -5    1    3    3    0  502  0.59506055603E+03  0.87439744060E+03 -0.14720472793E+04  0.18126260596E+04  0.46999998093E+01 0. -1.
</event>
<event>
 5   0  0.2289708E-05  0.2182229E+04  0.7818609E-02  0.8525861E-01
       -2   -1    0    0    0  501  0.00000000000E+00  0.00000000000E+00  0.86941421026E+03  0.86941421026E+03  0.25500000920E-02 0. -1.
        2   -1    0    0  501    0  0.00000000000E+00  0.00000000000E+00 -0.13693479665E+04  0.13693479665E+04  0.25500000920E-02 0.  1.
    10030    2    1    2    0    0  0.00000000000E+00  0.00000000000E+00 -0.49993375623E+03  0.22387621767E+04  0.21822287514E+04 0.  0.
        5    1    3    3  502    0  0.73568126342E+02  0.12088172002E+03 -0.13598836066E+04  0.13672344981E+04  0.46999998093E+01 0.  1.
       -5    1    3    3    0  502 -0.73568126342E+02 -0.12088172002E+03  0.85994985036E+03  0.87152767861E+03  0.46999998093E+01 0. -1.
</event>
<event>
 5   0  0.1049198E-05  0.2215379E+04  0.7818609E-02  0.8512054E-01
        1   -1    0    0  501    0  0.00000000000E+00  0.00000000000E+00  0.86482376082E+03  0.86482376084E+03  0.50400001928E-02 0. -1.
       -1   -1    0    0    0  501  0.00000000000E+00  0.00000000000E+00 -0.14187587618E+04  0.14187587618E+04  0.50400001928E-02 0.  1.
    10030    2    1    2    0    0  0.00000000000E+00  0.00000000000E+00 -0.55393500099E+03  0.22835825227E+04  0.22153792345E+04 0.  0.
        1    1    3    3  502    0  0.50859182553E+03  0.50762005944E+03 -0.11459102590E+04  0.13525731372E+04  0.50400001928E-02 0.  1.
       -1    1    3    3    0  502 -0.50859182553E+03 -0.50762005944E+03  0.59197525800E+03  0.93100938548E+03  0.50400001928E-02 0. -1.
</event>
<event>
 5   0  0.1033733E-05  0.2203746E+04  0.7818609E-02  0.8516871E-01
        1   -1    0    0  501    0  0.00000000000E+00  0.00000000000E+00  0.18063169828E+04  0.18063169828E+04  0.50400001928E-02 0.  1.
       -1   -1    0    0    0  501  0.00000000000E+00  0.00000000000E+00 -0.67215426785E+03  0.67215426787E+03  0.50400001928E-02 0. -1.
    10030    2    1    2    0    0  0.00000000000E+00  0.00000000000E+00  0.11341627150E+04  0.24784712507E+04  0.22037456016E+04 0.  0.
        5    1    3    3  502    0 -0.30007117412E+03 -0.20452168472E+03 -0.60290867343E+03  0.70384145058E+03  0.46999998093E+01 0. -1.
       -5    1    3    3    0  502  0.30007117412E+03  0.20452168472E+03  0.17370713884E+04  0.17746298001E+04  0.46999998093E+01 0.  1.
</event>
<event>
 5   0  0.1071208E-05  0.2191178E+04  0.7818609E-02  0.8522109E-01
       -1   -1    0    0    0  501  0.00000000000E+00  0.00000000000E+00  0.77213118858E+03  0.77213118860E+03  0.50400001928E-02 0. -1.
        1   -1    0    0  501    0  0.00000000000E+00  0.00000000000E+00 -0.15545484716E+04  0.15545484716E+04  0.50400001928E-02 0.  1.
    10030    2    1    2    0    0  0.00000000000E+00  0.00000000000E+00 -0.78241728299E+03  0.23266796602E+04  0.21911780933E+04 0.  0.
        4    1    3    3  502    0 -0.10594416244E+04  0.27752995200E+03 -0.35981127432E+03  0.11527815039E+04  0.12699999809E+01 0.  1.
       -4    1    3    3    0  502  0.10594416244E+04 -0.27752995200E+03 -0.42260600867E+03  0.11738981563E+04  0.12699999809E+01 0. -1.
</event>
<event>
 5   0  0.1007682E-05  0.2205398E+04  0.7818609E-02  0.8516185E-01
        1   -1    0    0  501    0  0.00000000000E+00  0.00000000000E+00  0.10914193376E+04  0.10914193376E+04  0.50400001928E-02 0.  1.
       -1   -1    0    0    0  501  0.00000000000E+00  0.00000000000E+00 -0.11140951080E+04  0.11140951080E+04  0.50400001928E-02 0. -1.
    10030    2    1    2    0    0  0.00000000000E+00  0.00000000000E+00 -0.22675770422E+02  0.22055144456E+04  0.22053978732E+04 0.  0.
        2    1    3    3  502    0  0.88703651749E+03 -0.80381176210E+02  0.63881187432E+03  0.10960727748E+04  0.25500000920E-02 0.  1.
       -2    1    3    3    0  502 -0.88703651749E+03  0.80381176210E+02 -0.66148764475E+03  0.11094416708E+04  0.25500000920E-02 0. -1.
</event>
<event>
 5   0  0.2284329E-05  0.2185048E+04  0.7818609E-02  0.8524677E-01
       -2   -1    0    0    0  501  0.00000000000E+00  0.00000000000E+00  0.13548557267E+04  0.13548557267E+04  0.25500000920E-02 0. -1.
        2   -1    0    0  501    0  0.00000000000E+00  0.00000000000E+00 -0.88098555689E+03  0.88098555689E+03  0.25500000920E-02 0.  1.
    10030    2    1    2    0    0  0.00000000000E+00  0.00000000000E+00  0.47387016982E+03  0.22358412836E+04  0.21850476671E+04 0.  0.
        2    1    3    3  502    0  0.53128679277E+03 -0.83481658507E+03 -0.23688851852E+03  0.10174972025E+04  0.25500000920E-02 0.  1.
       -2    1    3    3    0  502 -0.53128679277E+03  0.83481658507E+03  0.71075868834E+03  0.12183440811E+04  0.25500000920E-02 0. -1.
</event>
<event>
 5   0  0.2319707E-05  0.2204669E+04  0.7818609E-02  0.8516487E-01
       -2   -1    0    0    0  501  0.00000000000E+00  0.00000000000E+00  0.63667164132E+03  0.63667164133E+03  0.25500000920E-02 0. -1.
        2   -1    0    0  501    0  0.00000000000E+00  0.00000000000E+00 -0.19085848695E+04  0.19085848695E+04  0.25500000920E-02 0.  1.
    10030    2    1    2    0    0  0.00000000000E+00  0.00000000000E+00 -0.12719132282E+04  0.25452565108E+04  0.22046694641E+04 0.  0.
        3    1    3    3  502    0  0.89307607195E+03 -0.21939993228E+03 -0.13376520547E+04  0.16232788516E+04  0.10100000352E+00 0. -1.
       -3    1    3    3    0  502 -0.89307607195E+03  0.21939993228E+03  0.65738826484E+02  0.92197765921E+03  0.10100000352E+00 0.  1.
</event>
<event>
 5   0  0.2298329E-05  0.2177871E+04  0.7818609E-02  0.8527696E-01
       -2   -1    0    0    0  501  0.00000000000E+00  0.00000000000E+00  0.13476579634E+04  0.13476579634E+04  0.25500000920E-02 0.  1.
        2   -1    0    0  501    0  0.00000000000E+00  0.00000000000E+00 -0.87988239446E+03  0.87988239446E+03  0.25500000920E-02 0. -1.
    10030    2    1    2    0    0  0.00000000000E+00  0.00000000000E+00  0.46777556899E+03  0.22275403579E+04  0.21778709932E+04 0.  0.
        4    1    3    3  502    0 -0.10433978937E+04  0.29735528647E+03  0.13859882544E+03  0.10937598358E+04  0.12699999809E+01 0. -1.
       -4    1    3    3    0  502  0.10433978937E+04 -0.29735528647E+03  0.32917674355E+03  0.11337805222E+04  0.12699999809E+01 0.  1.
</event>
<event>
 5   0  0.1033733E-05  0.2221274E+04  0.7818609E-02  0.8509625E-01
       -1   -1    0    0    0  501  0.00000000000E+00  0.00000000000E+00  0.71511809703E+03  0.71511809705E+03  0.50400001928E-02 0.  1.
        1   -1    0    0  501    0  0.00000000000E+00  0.00000000000E+00 -0.17249106174E+04  0.17249106174E+04  0.50400001928E-02 0. -1.
    10030    2    1    2    0    0  0.00000000000E+00  0.00000000000E+00 -0.10097925204E+04  0.24400287144E+04  0.22212742274E+04 0.  0.
        5    1    3    3  502    0  0.52619853622E+03 -0.22486142663E+03 -0.15505013265E+04  0.16527322876E+04  0.46999998093E+01 0. -1.
       -5    1    3    3    0  502 -0.52619853622E+03  0.22486142663E+03  0.54070880619E+03  0.78729642689E+03  0.46999998093E+01 0.  1.
</event>
<event>
 5   0  0.2229552E-05  0.2203510E+04  0.7818609E-02  0.8516969E-01
       -2   -1    0    0    0  501  0.00000000000E+00  0.00000000000E+00  0.49050109239E+03  0.49050109240E+03  0.25500000920E-02 0. -1.
        2   -1    0    0  501    0  0.00000000000E+00  0.00000000000E+00 -0.24747421237E+04  0.24747421237E+04  0.25500000920E-02 0.  1.
    10030    2    1    2    0    0  0.00000000000E+00  0.00000000000E+00 -0.19842410313E+04  0.29652432160E+04  0.22035096687E+04 0.  0.
        1    1    3    3  502    0  0.64291286685E+03  0.30213425765E+01  0.21189147368E+03  0.67693727887E+03  0.50400001928E-02 0. -1.
       -1    1    3    3    0  502 -0.64291286685E+03 -0.30213425765E+01 -0.21961325049E+04  0.22883059372E+04  0.50400001928E-02 0.  1.
</event>
<event>
 5   0  0.2289708E-05  0.2197070E+04  0.7818609E-02  0.8519649E-01
        2   -1    0    0  501    0  0.00000000000E+00  0.00000000000E+00  0.25373065816E+04  0.25373065816E+04  0.25500000920E-02 0.  1.
       -2   -1    0    0    0  501  0.00000000000E+00  0.00000000000E+00 -0.47561413813E+03  0.47561413814E+03  0.25500000920E-02 0. -1.
    10030    2    1    2    0    0  0.00000000000E+00  0.00000000000E+00  0.20616924435E+04  0.30129207198E+04  0.21970697604E+04 0.  0.
        5    1    3    3  502    0  0.31795556287E+03  0.38841940786E+03 -0.30913314312E+03  0.58953436417E+03  0.46999998093E+01 0. -1.
       -5    1    3    3    0  502 -0.31795556287E+03 -0.38841940786E+03  0.23708255866E+04  0.24233863556E+04  0.46999998093E+01 0.  1.
</event>
<event>
 5   0  0.1071208E-05  0.2201217E+04  0.7818609E-02  0.8517922E-01
       -1   -1    0    0    0  501  0.00000000000E+00  0.00000000000E+00  0.92582820624E+03  0.92582820625E+03  0.50400001928E-02 0.  1.
        1   -1    0    0  501    0  0.00000000000E+00  0.00000000000E+00 -0.13083840745E+04  0.13083840745E+04  0.50400001928E-02 0. -1.
    10030    2    1    2    0    0  0.00000000000E+00  0.00000000000E+00 -0.38255586830E+03  0.22342122808E+04  0.22012168279E+04 0.  0.
        4    1    3    3  502    0  0.11252771132E+03  0.10761321258E+04 -0.39582902098E+03  0.11521306630E+04  0.12699999809E+01 0. -1.
       -4    1    3    3    0  502 -0.11252771132E+03 -0.10761321258E+04  0.13273152681E+02  0.10820816177E+04  0.12699999809E+01 0.  1.
</event>
<event>
 5   0  0.1007682E-05  0.2199075E+04  0.7818609E-02  0.8518813E-01
       -1   -1    0    0    0  501  0.00000000000E+00  0.00000000000E+00  0.12709731255E+04  0.12709731255E+04  0.50400001928E-02 0.  1.
        1   -1    0    0  501    0  0.00000000000E+00  0.00000000000E+00 -0.95122598530E+03  0.95122598532E+03  0.50400001928E-02 0. -1.
    10030    2    1    2    0    0  0.00000000000E+00  0.00000000000E+00  0.31974714015E+03  0.22221991108E+04  0.21990749542E+04 0.  0.
        2    1    3    3  502    0  0.84949185877E+03  0.20449682610E+03  0.83437068207E+03  0.12081513999E+04  0.25500000920E-02 0.  1.
       -2    1    3    3    0  502 -0.84949185877E+03 -0.20449682610E+03 -0.51462354192E+03  0.10140477109E+04  0.25500000920E-02 0. -1.
</event>
<event>
 5   0  0.1007682E-05  0.2200776E+04  0.7818609E-02  0.8518105E-01
        1   -1    0    0  501    0  0.00000000000E+00  0.00000000000E+00  0.20512046448E+04  0.20512046448E+04  0.50400001928E-02 0. -1.
       -1   -1    0    0    0  501  0.00000000000E+00  0.00000000000E+00 -0.59031345533E+03  0.59031345535E+03  0.50400001928E-02 0.  1.
    10030    2    1    2    0    0  0.00000000000E+00  0.00000000000E+00  0.14608911895E+04  0.26415181002E+04  0.22007759554E+04 0.  0.
        2    1    3    3  502    0  0.45325161582E+03 -0.94963343676E+03  0.34409204784E+03  0.11070862789E+04  0.25500000920E-02 0. -1.
       -2    1    3    3    0  502 -0.45325161582E+03  0.94963343676E+03  0.11167991416E+04  0.15344318213E+04  0.25500000920E-02 0.  1.
</event>
<event>
 5   0  0.1033733E-05  0.2200492E+04  0.7818609E-02  0.8518223E-01
       -1   -1    0    0    0  501  0.00000000000E+00  0.00000000000E+00  0.56401908119E+03  0.56401908122E+03  0.50400001928E-02 0.  1.
        1   -1    0    0  501    0  0.00000000000E+00  0.00000000000E+00 -0.21462777526E+04  0.21462777526E+04  0.50400001928E-02 0. -1.
    10030    2    1    2    0    0  0.00000000000E+00  0.00000000000E+00 -0.15822586714E+04  0.27102968338E+04  0.22004923140E+04 0.  0.
        5    1    3    3  502    0  0.79002556495E+02  0.10983239537E+03  0.55372201896E+03  0.57003045820E+03  0.46999998093E+01 0.  1.
       -5    1    3    3    0  502 -0.79002556495E+02 -0.10983239537E+03 -0.21359806903E+04  0.21402663756E+04  0.46999998093E+01 0. -1.
</event>
<event>
 5   0  0.1007682E-05  0.2206825E+04  0.7818609E-02  0.8515593E-01
        1   -1    0    0  501    0  0.00000000000E+00  0.00000000000E+00  0.21678635322E+04  0.21678635322E+04  0.50400001928E-02 0. -1.
       -1   -1    0    0    0  501  0.00000000000E+00  0.00000000000E+00 -0.56162158237E+03  0.56162158239E+03  0.50400001928E-02 0.  1.
    10030    2    1    2    0    0  0.00000000000E+00  0.00000000000E+00  0.16062419498E+04  0.27294851146E+04  0.22068248207E+04 0.  0.
        2    1    3    3  502    0  0.91666662334E+03 -0.40766729857E+03  0.13713247717E+04  0.16991179930E+04  0.25500000920E-02 0. -1.
       -2    1    3    3    0  502 -0.91666662334E+03  0.40766729857E+03  0.23491717815E+03  0.10303671216E+04  0.25500000920E-02 0.  1.
</event>
<event>
 5   0  0.2284329E-05  0.2189720E+04  0.7818609E-02  0.8522719E-01
       -2   -1    0    0    0  501  0.00000000000E+00  0.00000000000E+00  0.55385893649E+03  0.55385893650E+03  0.25500000920E-02 0.  1.
        2   -1    0    0  501    0  0.00000000000E+00  0.00000000000E+00 -0.21643022357E+04  0.21643022357E+04  0.25500000920E-02 0. -1.
    10030    2    1    2    0    0  0.00000000000E+00  0.00000000000E+00 -0.16104432992E+04  0.27181611722E+04  0.21897197396E+04 0.  0.
        2    1    3    3  502    0  0.88857245355E+02  0.21439264459E+03  0.52297549750E+03  0.57215661064E+03  0.25500000920E-02 0.  1.
       -2    1    3    3    0  502 -0.88857245355E+02 -0.21439264459E+03 -0.21334187967E+04  0.21460045616E+04  0.25500000920E-02 0. -1.
</event>
<event>
 5   0  0.2284329E-05  0.2197211E+04  0.7818609E-02  0.8519590E-01
       -2   -1    0    0    0  501  0.00000000000E+00  0.00000000000E+00  0.68398393237E+03  0.68398393237E+03  0.25500000920E-02 0.  1.
        2   -1    0    0  501    0  0.00000000000E+00  0.00000000000E+00 -0.17645645343E+04  0.17645645343E+04  0.25500000920E-02 0. -1.
    10030    2    1    2    0    0  0.00000000000E+00  0.00000000000E+00 -0.10805806020E+04  0.24485484667E+04  0.21972107674E+04 0.  0.
        2    1    3    3  502    0 -0.21716240452E+03  0.10311590502E+04 -0.88644285879E+03  0.13770364696E+04  0.25500000920E-02 0.  1.
       -2    1    3    3    0  502  0.21716240452E+03 -0.10311590502E+04 -0.19413774319E+03  0.10715119971E+04  0.25500000920E-02 0. -1.
</event>
<event>
 5   0  0.2319707E-05  0.2188698E+04  0.7818609E-02  0.8523147E-01
        2   -1    0    0  501    0  0.00000000000E+00  0.00000000000E+00  0.14270331439E+04  0.14270331439E+04  0.25500000920E-02 0.  1.
       -2   -1    0    0    0  501  0.00000000000E+00  0.00000000000E+00 -0.83922319540E+03  0.83922319540E+03  0.25500000920E-02 0. -1.
    10030    2    1    2    0    0  0.00000000000E+00  0.00000000000E+00  0.58780994847E+03  0.22662563393E+04  0.21886976173E+04 0.  0.
        3    1    3    3  502    0  0.24694305147E+03  0.10061121604E+04  0.65904375134E+03  0.12278359933E+04  0.10100000352E+00 0.  1.
       -3    1    3    3    0  502 -0.24694305147E+03 -0.10061121604E+04 -0.71233802863E+02  0.10384203460E+04  0.10100000352E+00 0. -1.
</event>
<event>
 5   0  0.1049198E-05  0.2199265E+04  0.7818609E-02  0.8518734E-01
        1   -1    0    0  501    0  0.00000000000E+00  0.00000000000E+00  0.16479575813E+04  0.16479575813E+04  0.50400001928E-02 0.  1.
       -1   -1    0    0    0  501  0.00000000000E+00  0.00000000000E+00 -0.73375169542E+03  0.73375169543E+03  0.50400001928E-02 0. -1.
    10030    2    1    2    0    0  0.00000000000E+00  0.00000000000E+00  0.91420588589E+03  0.23817092767E+04  0.21992650311E+04 0.  0.
        1    1    3    3  502    0  0.59857971422E+02  0.92108068935E+03 -0.19015663948E+03  0.94240764036E+03  0.50400001928E-02 0. -1.
       -1    1    3    3    0  502 -0.59857971422E+02 -0.92108068935E+03  0.11043625254E+04  0.14393016364E+04  0.50400001928E-02 0.  1.
</event>
<event>
 5   0  0.1007682E-05  0.2156338E+04  0.7818609E-02  0.8536824E-01
       -1   -1    0    0    0  501  0.00000000000E+00  0.00000000000E+00  0.74477849415E+03  0.74477849417E+03  0.50400001928E-02 0.  1.
        1   -1    0    0  501    0  0.00000000000E+00  0.00000000000E+00 -0.15607979839E+04  0.15607979839E+04  0.50400001928E-02 0. -1.
    10030    2    1    2    0    0  0.00000000000E+00  0.00000000000E+00 -0.81601948975E+03  0.23055764781E+04  0.21563383521E+04 0.  0.
        2    1    3    3  502    0  0.12374489001E+03  0.55659358297E+03  0.57038346472E+03  0.80650264181E+03  0.25500000920E-02 0.  1.
       -2    1    3    3    0  502 -0.12374489001E+03 -0.55659358297E+03 -0.13864029545E+04  0.14990738363E+04  0.25500000920E-02 0. -1.
</event>
<event>
 5   0  0.1007682E-05  0.2229989E+04  0.7818609E-02  0.8506049E-01
        1   -1    0    0  501    0  0.00000000000E+00  0.00000000000E+00  0.69927613992E+03  0.69927613994E+03  0.50400001928E-02 0.  1.
       -1   -1    0    0    0  501  0.00000000000E+00  0.00000000000E+00 -0.17778568808E+04  0.17778568808E+04  0.50400001928E-02 0. -1.
    10030    2    1    2    0    0  0.00000000000E+00  0.00000000000E+00 -0.10785807408E+04  0.24771330207E+04  0.22299891452E+04 0.  0.
        2    1    3    3  502    0  0.36738373243E+02  0.42547741007E+00 -0.17771842761E+04  0.17775640187E+04  0.25500000920E-02 0. -1.
       -2    1    3    3    0  502 -0.36738373243E+02 -0.42547741007E+00  0.69860353529E+03  0.69956900204E+03  0.25500000920E-02 0.  1.
</event>
<event>
 5   0  0.2319707E-05  0.2157017E+04  0.7818609E-02  0.8536535E-01
       -2   -1    0    0    0  501  0.00000000000E+00  0.00000000000E+00  0.47027573834E+03  0.47027573835E+03  0.25500000920E-02 0.  1.
        2   -1    0    0  501    0  0.00000000000E+00  0.00000000000E+00 -0.24734009060E+04  0.24734009060E+04  0.25500000920E-02 0. -1.
    10030    2    1    2    0    0  0.00000000000E+00  0.00000000000E+00 -0.20031251677E+04  0.29436766444E+04  0.21570168635E+04 0.  0.
        3    1    3    3  502    0  0.40333308761E+03 -0.96875984931E+03 -0.66173578163E+03  0.12405915847E+04  0.10100000352E+00 0.  1.
       -3    1    3    3    0  502 -0.40333308761E+03  0.96875984931E+03 -0.13413893861E+04  0.17030850597E+04  0.10100000352E+00 0. -1.
</event>
<event>
 5   0  0.2284329E-05  0.2198882E+04  0.7818609E-02  0.8518894E-01
       -2   -1    0    0    0  501  0.00000000000E+00  0.00000000000E+00  0.44347588642E+03  0.44347588643E+03  0.25500000920E-02 0. -1.
        2   -1    0    0  501    0  0.00000000000E+00  0.00000000000E+00 -0.27256729262E+04  0.27256729262E+04  0.25500000920E-02 0.  1.
    10030    2    1    2    0    0  0.00000000000E+00  0.00000000000E+00 -0.22821970398E+04  0.31691488127E+04  0.21988817313E+04 0.  0.
        2    1    3    3  502    0  0.64707586664E+03  0.51676630714E+03 -0.98785667803E+02  0.83397434106E+03  0.25500000920E-02 0. -1.
       -2    1    3    3    0  502 -0.64707586664E+03 -0.51676630714E+03 -0.21834113720E+04  0.23351744716E+04  0.25500000920E-02 0.  1.
</event>
<event>
 5   0  0.2284329E-05  0.2138182E+04  0.7818609E-02  0.8544608E-01
       -2   -1    0    0    0  501  0.00000000000E+00  0.00000000000E+00  0.58961623982E+03  0.58961623982E+03  0.25500000920E-02 0.  1.
        2   -1    0    0  501    0  0.00000000000E+00  0.00000000000E+00 -0.19384732746E+04  0.19384732746E+04  0.25500000920E-02 0. -1.
    10030    2    1    2    0    0  0.00000000000E+00  0.00000000000E+00 -0.13488570347E+04  0.25280895144E+04  0.21381817726E+04 0.  0.
        2    1    3    3  502    0 -0.21228706690E+03 -0.57840042450E+03 -0.17074456830E+04  0.18152089715E+04  0.25500000920E-02 0. -1.
       -2    1    3    3    0  502  0.21228706690E+03  0.57840042450E+03  0.35858864822E+03  0.71288054292E+03  0.25500000920E-02 0.  1.
</event>
<event>
 5   0  0.1071208E-05  0.2192944E+04  0.7818609E-02  0.8521371E-01
       -1   -1    0    0    0  501  0.00000000000E+00  0.00000000000E+00  0.69771992918E+03  0.69771992920E+03  0.50400001928E-02 0.  1.
        1   -1    0    0  501    0  0.00000000000E+00  0.00000000000E+00 -0.17231141586E+04  0.17231141586E+04  0.50400001928E-02 0. -1.
    10030    2    1    2    0    0  0.00000000000E+00  0.00000000000E+00 -0.10253942294E+04  0.24208340878E+04  0.21929442207E+04 0.  0.
        4    1    3    3  502    0 -0.94346736318E+03  0.55791638751E+03 -0.54484591869E+03  0.12240343332E+04  0.12699999809E+01 0.  1.
       -4    1    3    3    0  502  0.94346736318E+03 -0.55791638751E+03 -0.48054831076E+03  0.11967997546E+04  0.12699999809E+01 0. -1.
</event>
<event>
 5   0  0.8003875E-06  0.2227919E+04  0.7818609E-02  0.8506897E-01
        3   -1    0    0  501    0  0.00000000000E+00  0.00000000000E+00  0.15278972540E+04  0.15278972574E+04  0.10100000352E+00 0. -1.
       -3   -1    0    0    0  501  0.00000000000E+00  0.00000000000E+00 -0.81216578250E+03  0.81216578878E+03  0.10100000352E+00 0.  1.
    10030    2    1    2    0    0  0.00000000000E+00  0.00000000000E+00  0.71573147154E+03  0.23400630462E+04  0.22279191010E+04 0.  0.
        4    1    3    3  502    0 -0.24237734864E+03 -0.23136214931E+03 -0.75797895793E+03  0.82873936604E+03  0.12699999809E+01 0.  1.
       -4    1    3    3    0  502  0.24237734864E+03  0.23136214931E+03  0.14737104295E+04  0.15113236801E+04  0.12699999809E+01 0. -1.
</event>
<event>
 5   0  0.2229552E-05  0.2195878E+04  0.7818609E-02  0.8520146E-01
        2   -1    0    0  501    0  0.00000000000E+00  0.00000000000E+00  0.25689416467E+04  0.25689416467E+04  0.25500000920E-02 0.  1.
       -2   -1    0    0    0  501  0.00000000000E+00  0.00000000000E+00 -0.46924783779E+03  0.46924783779E+03  0.25500000920E-02 0. -1.
    10030    2    1    2    0    0  0.00000000000E+00  0.00000000000E+00  0.20996938089E+04  0.30381894845E+04  0.21958782417E+04 0.  0.
        1    1    3    3  502    0 -0.46221023469E+03 -0.30873464469E+03  0.23598893417E+04  0.24244655260E+04  0.50400001928E-02 0.  1.
       -1    1    3    3    0  502  0.46221023469E+03  0.30873464469E+03 -0.26019553278E+03  0.61372395846E+03  0.50400001928E-02 0. -1.
</event>
<event>
 5   0  0.2319707E-05  0.2195239E+04  0.7818609E-02  0.8520412E-01
       -2   -1    0    0    0  501  0.00000000000E+00  0.00000000000E+00  0.53435045728E+03  0.53435045728E+03  0.25500000920E-02 0.  1.
        2   -1    0    0  501    0  0.00000000000E+00  0.00000000000E+00 -0.22546408510E+04  0.22546408510E+04  0.25500000920E-02 0. -1.
    10030    2    1    2    0    0  0.00000000000E+00  0.00000000000E+00 -0.17202903937E+04  0.27889913083E+04  0.21952388205E+04 0.  0.
        3    1    3    3  502    0  0.71007359036E+03 -0.86037723429E+02  0.19760365141E+03  0.74206078378E+03  0.10100000352E+00 0.  1.
       -3    1    3    3    0  502 -0.71007359036E+03  0.86037723429E+02 -0.19178940451E+04  0.20469305245E+04  0.10100000352E+00 0. -1.
</event>
<event>
 5   0  0.1007682E-05  0.2202535E+04  0.7818609E-02  0.8517374E-01
        1   -1    0    0  501    0  0.00000000000E+00  0.00000000000E+00  0.15231835975E+04  0.15231835975E+04  0.50400001928E-02 0.  1.
       -1   -1    0    0    0  501  0.00000000000E+00  0.00000000000E+00 -0.79622027891E+03  0.79622027892E+03  0.50400001928E-02 0. -1.
    10030    2    1    2    0    0  0.00000000000E+00  0.00000000000E+00  0.72696331855E+03  0.23194038764E+04  0.22025346025E+04 0.  0.
        2    1    3    3  502    0 -0.43834347814E+03 -0.53775470775E+03  0.12641196796E+04  0.14419860245E+04  0.25500000920E-02 0.  1.
       -2    1    3    3    0  502  0.43834347814E+03  0.53775470775E+03 -0.53715636106E+03  0.87741785187E+03  0.25500000920E-02 0. -1.
</event>
<event>
 5   0  0.2319707E-05  0.2190000E+04  0.7818609E-02  0.8522602E-01
       -2   -1    0    0    0  501  0.00000000000E+00  0.00000000000E+00  0.84620675381E+03  0.84620675381E+03  0.25500000920E-02 0.  1.
        2   -1    0    0  501    0  0.00000000000E+00  0.00000000000E+00 -0.14169414391E+04  0.14169414391E+04  0.25500000920E-02 0. -1.
    10030    2    1    2    0    0  0.00000000000E+00  0.00000000000E+00 -0.57073468529E+03  0.22631481929E+04  0.21900003795E+04 0.  0.
        3    1    3    3  502    0  0.34247329048E+03  0.84376713586E+03 -0.91378591185E+03  0.12900525715E+04  0.10100000352E+00 0. -1.
       -3    1    3    3    0  502 -0.34247329048E+03 -0.84376713586E+03  0.34305122656E+03  0.97309562145E+03  0.10100000352E+00 0.  1.
</event>
<event>
 5   0  0.2284329E-05  0.2201937E+04  0.7818609E-02  0.8517622E-01
       -2   -1    0    0    0  501  0.00000000000E+00  0.00000000000E+00  0.67891883895E+03  0.67891883896E+03  0.25500000920E-02 0.  1.
        2   -1    0    0  501    0  0.00000000000E+00  0.00000000000E+00 -0.17853855489E+04  0.17853855489E+04  0.25500000920E-02 0. -1.
    10030    2    1    2    0    0  0.00000000000E+00  0.00000000000E+00 -0.11064667100E+04  0.24643043879E+04  0.22019372234E+04 0.  0.
        2    1    3    3  502    0  0.19541762590E+03 -0.99712516041E+03 -0.10276343936E+04  0.14451571129E+04  0.25500000920E-02 0.  1.
       -2    1    3    3    0  502 -0.19541762590E+03  0.99712516041E+03 -0.78832316383E+02  0.10191472750E+04  0.25500000920E-02 0. -1.
</event>
<event>
 5   0  0.2289708E-05  0.2180788E+04  0.7818609E-02  0.8526467E-01
       -2   -1    0    0    0  501  0.00000000000E+00  0.00000000000E+00  0.77190829255E+03  0.77190829256E+03  0.25500000920E-02 0.  1.
        2   -1    0    0  501    0  0.00000000000E+00  0.00000000000E+00 -0.15402859278E+04  0.15402859278E+04  0.25500000920E-02 0. -1.
    10030    2    1    2    0    0  0.00000000000E+00  0.00000000000E+00 -0.76837763529E+03  0.23121942204E+04  0.21807883718E+04 0.  0.
        5    1    3    3  502    0  0.58556259279E+03 -0.43029385100E+03 -0.12461327304E+04  0.14425343046E+04  0.46999998093E+01 0. -1.
       -5    1    3    3    0  502 -0.58556259279E+03  0.43029385100E+03  0.47775509506E+03  0.86965991580E+03  0.46999998093E+01 0.  1.
</event>
<event>
 5   0  0.1033733E-05  0.2196666E+04  0.7818609E-02  0.8519817E-01
        1   -1    0    0  501    0  0.00000000000E+00  0.00000000000E+00  0.15740231081E+04  0.15740231081E+04  0.50400001928E-02 0. -1.
       -1   -1    0    0    0  501  0.00000000000E+00  0.00000000000E+00 -0.76640240946E+03  0.76640240948E+03  0.50400001928E-02 0.  1.
    10030    2    1    2    0    0  0.00000000000E+00  0.00000000000E+00  0.80762069866E+03  0.23404255176E+04  0.21966657485E+04 0.  0.
        5    1    3    3  502    0  0.67009216545E+03  0.45354440424E+03 -0.38748360516E+03  0.89715755087E+03  0.46999998093E+01 0.  1.
       -5    1    3    3    0  502 -0.67009216545E+03 -0.45354440424E+03  0.11951043038E+04  0.14432679667E+04  0.46999998093E+01 0. -1.
</event>
<event>
 5   0  0.1033733E-05  0.2207448E+04  0.7818609E-02  0.8515335E-01
        1   -1    0    0  501    0  0.00000000000E+00  0.00000000000E+00  0.11492572681E+04  0.11492572681E+04  0.50400001928E-02 0. -1.
       -1   -1    0    0    0  501  0.00000000000E+00  0.00000000000E+00 -0.10599942792E+04  0.10599942792E+04  0.50400001928E-02 0.  1.
    10030    2    1    2    0    0  0.00000000000E+00  0.00000000000E+00  0.89262988868E+02  0.22092515474E+04  0.22074475120E+04 0.  0.
        5    1    3    3  502    0  0.77290248514E+03 -0.55617734331E+03 -0.51392186955E+03  0.10820578851E+04  0.46999998093E+01 0.  1.
       -5    1    3    3    0  502 -0.77290248514E+03  0.55617734331E+03  0.60318485842E+03  0.11271936622E+04  0.46999998093E+01 0. -1.
</event>
<event>
 5   0  0.2229552E-05  0.2206527E+04  0.7818609E-02  0.8515716E-01
       -2   -1    0    0    0  501  0.00000000000E+00  0.00000000000E+00  0.13406415748E+04  0.13406415748E+04  0.25500000920E-02 0.  1.
        2   -1    0    0  501    0  0.00000000000E+00  0.00000000000E+00 -0.90791626772E+03  0.90791626772E+03  0.25500000920E-02 0. -1.
    10030    2    1    2    0    0  0.00000000000E+00  0.00000000000E+00  0.43272530707E+03  0.22485578425E+04  0.22065269497E+04 0.  0.
        1    1    3    3  502    0  0.48095641690E+03 -0.78753426156E+03 -0.39985502451E+03  0.10056904736E+04  0.50400001928E-02 0. -1.
       -1    1    3    3    0  502 -0.48095641690E+03  0.78753426156E+03  0.83258033158E+03  0.12428673689E+04  0.50400001928E-02 0.  1.
</event>
<event>
 5   0  0.1071208E-05  0.2199083E+04  0.7818609E-02  0.8518810E-01
       -1   -1    0    0    0  501  0.00000000000E+00  0.00000000000E+00  0.73397975327E+03  0.73397975328E+03  0.50400001928E-02 0.  1.
        1   -1    0    0  501    0  0.00000000000E+00  0.00000000000E+00 -0.16471734695E+04  0.16471734695E+04  0.50400001928E-02 0. -1.
    10030    2    1    2    0    0  0.00000000000E+00  0.00000000000E+00 -0.91319371620E+03  0.23811532228E+04  0.21990834243E+04 0.  0.
        4    1    3    3  502    0 -0.72018331654E+03 -0.52402062878E+03  0.24155622336E+03  0.92282861396E+03  0.12699999809E+01 0.  1.
       -4    1    3    3    0  502  0.72018331654E+03  0.52402062878E+03 -0.11547499396E+04  0.14583246088E+04  0.12699999809E+01 0. -1.
</event>
<event>
 5   0  0.2284329E-05  0.2177848E+04  0.7818609E-02  0.8527705E-01
       -2   -1    0    0    0  501  0.00000000000E+00  0.00000000000E+00  0.88522359709E+03  0.88522359710E+03  0.25500000920E-02 0.  1.
        2   -1    0    0  501    0  0.00000000000E+00  0.00000000000E+00 -0.13394985495E+04  0.13394985495E+04  0.25500000920E-02 0. -1.
    10030    2    1    2    0    0  0.00000000000E+00  0.00000000000E+00 -0.45427495236E+03  0.22247221466E+04  0.21778482264E+04 0.  0.
        2    1    3    3  502    0  0.12996411899E+02 -0.75910889116E+03 -0.10245410779E+04  0.12751861181E+04  0.25500000920E-02 0. -1.
       -2    1    3    3    0  502 -0.12996411899E+02  0.75910889116E+03  0.57026612558E+03  0.94953602847E+03  0.25500000920E-02 0.  1.
</event>
<event>
 5   0  0.1049198E-05  0.2196820E+04  0.7818609E-02  0.8519753E-01
        1   -1    0    0  501    0  0.00000000000E+00  0.00000000000E+00  0.75821606866E+03  0.75821606868E+03  0.50400001928E-02 0.  1.
       -1   -1    0    0    0  501  0.00000000000E+00  0.00000000000E+00 -0.15912414201E+04  0.15912414201E+04  0.50400001928E-02 0. -1.
    10030    2    1    2    0    0  0.00000000000E+00  0.00000000000E+00 -0.83302535142E+03  0.23494574888E+04  0.21968202601E+04 0.  0.
        1    1    3    3  502    0 -0.76329889221E+03  0.58214109728E+03  0.15442527432E+03  0.97229657068E+03  0.50400001928E-02 0.  1.
       -1    1    3    3    0  502  0.76329889221E+03 -0.58214109728E+03 -0.98745062574E+03  0.13771609181E+04  0.50400001928E-02 0. -1.
</event>
<event>
 5   0  0.2298329E-05  0.2203712E+04  0.7818609E-02  0.8516885E-01
        2   -1    0    0  501    0  0.00000000000E+00  0.00000000000E+00  0.17908793429E+04  0.17908793429E+04  0.25500000920E-02 0.  1.
       -2   -1    0    0    0  501  0.00000000000E+00  0.00000000000E+00 -0.67792742926E+03  0.67792742926E+03  0.25500000920E-02 0. -1.
    10030    2    1    2    0    0  0.00000000000E+00  0.00000000000E+00  0.11129519136E+04  0.24688067722E+04  0.22037116227E+04 0.  0.
        4    1    3    3  502    0  0.69385573034E+03 -0.50010401054E+02 -0.40080127299E+03  0.80285745190E+03  0.12699999809E+01 0. -1.
       -4    1    3    3    0  502 -0.69385573034E+03  0.50010401054E+02  0.15137531866E+04  0.16659493202E+04  0.12699999809E+01 0.  1.
</event>
<event>
 5   0  0.1071208E-05  0.2210035E+04  0.7818609E-02  0.8514263E-01
        1   -1    0    0  501    0  0.00000000000E+00  0.00000000000E+00  0.84341678446E+03  0.84341678448E+03  0.50400001928E-02 0.  1.
       -1   -1    0    0    0  501  0.00000000000E+00  0.00000000000E+00 -0.14477588319E+04  0.14477588319E+04  0.50400001928E-02 0. -1.
    10030    2    1    2    0    0  0.00000000000E+00  0.00000000000E+00 -0.60434204748E+03  0.22911756164E+04  0.22100353832E+04 0.  0.
        4    1    3    3  502    0  0.10299468443E+04 -0.17298209614E+03 -0.67646539865E+03  0.12443152158E+04  0.12699999809E+01 0. -1.
       -4    1    3    3    0  502 -0.10299468443E+04  0.17298209614E+03  0.72123351172E+02  0.10468604006E+04  0.12699999809E+01 0.  1.
</event>
<event>
 5   0  0.2289708E-05  0.2196569E+04  0.7818609E-02  0.8519858E-01
        2   -1    0    0  501    0  0.00000000000E+00  0.00000000000E+00  0.17127688916E+04  0.17127688916E+04  0.25500000920E-02 0.  1.
       -2   -1    0    0    0  501  0.00000000000E+00  0.00000000000E+00 -0.70425630854E+03  0.70425630855E+03  0.25500000920E-02 0. -1.
    10030    2    1    2    0    0  0.00000000000E+00  0.00000000000E+00  0.10085125831E+04  0.24170252002E+04  0.21965685029E+04 0.  0.
        5    1    3    3  502    0 -0.45219524011E+02 -0.63591972989E+02 -0.70119121822E+03  0.70553522867E+03  0.46999998093E+01 0. -1.
       -5    1    3    3    0  502  0.45219524011E+02  0.63591972989E+02  0.17097038013E+04  0.17114899715E+04  0.46999998093E+01 0.  1.
</event>
<event>
 5   0  0.1071208E-05  0.2207768E+04  0.7818609E-02  0.8515202E-01
       -1   -1    0    0    0  501  0.00000000000E+00  0.00000000000E+00  0.95780046026E+03  0.95780046027E+03  0.50400001928E-02 0. -1.
        1   -1    0    0  501    0  0.00000000000E+00  0.00000000000E+00 -0.12722480518E+04  0.12722480518E+04  0.50400001928E-02 0.  1.
    10030    2    1    2    0    0  0.00000000000E+00  0.00000000000E+00 -0.31444759157E+03  0.22300485121E+04  0.22077678951E+04 0.  0.
        4    1    3    3  502    0  0.80073532932E+03 -0.75402868137E+03 -0.25209630920E+03  0.11284017378E+04  0.12699999809E+01 0.  1.
       -4    1    3    3    0  502 -0.80073532932E+03  0.75402868137E+03 -0.62351282374E+02  0.11016467743E+04  0.12699999809E+01 0. -1.
</event>
<event>
 5   0  0.1033733E-05  0.2204160E+04  0.7818609E-02  0.8516699E-01
        1   -1    0    0  501    0  0.00000000000E+00  0.00000000000E+00  0.95477778947E+03  0.95477778948E+03  0.50400001928E-02 0.  1.
       -1   -1    0    0    0  501  0.00000000000E+00  0.00000000000E+00 -0.12721075781E+04  0.12721075781E+04  0.50400001928E-02 0. -1.
    10030    2    1    2    0    0  0.00000000000E+00  0.00000000000E+00 -0.31732978859E+03  0.22268853676E+04  0.22041597595E+04 0.  0.
        5    1    3    3  502    0  0.80753751428E+03 -0.34487307351E+03  0.51416211144E+03  0.10175652513E+04  0.46999998093E+01 0.  1.
       -5    1    3    3    0  502 -0.80753751428E+03  0.34487307351E+03 -0.83149190003E+03  0.12093201163E+04  0.46999998093E+01 0. -1.
</event>
<event>
 5   0  0.2229552E-05  0.2203425E+04  0.7818609E-02  0.8517004E-01
        2   -1    0    0  501    0  0.00000000000E+00  0.00000000000E+00  0.25973259615E+04  0.25973259615E+04  0.25500000920E-02 0.  1.
       -2   -1    0    0    0  501  0.00000000000E+00  0.00000000000E+00 -0.46731525619E+03  0.46731525620E+03  0.25500000920E-02 0. -1.
    10030    2    1    2    0    0  0.00000000000E+00  0.00000000000E+00  0.21300107054E+04  0.30646412177E+04  0.22034246501E+04 0.  0.
        1    1    3    3  502    0 -0.16688462576E+03 -0.60465631811E+03  0.23247151832E+04  0.24078539043E+04  0.50400001928E-02 0.  1.
       -1    1    3    3    0  502  0.16688462576E+03  0.60465631811E+03 -0.19470447788E+03  0.65678731342E+03  0.50400001928E-02 0. -1.
</event>
<event>
 5   0  0.1033733E-05  0.2176317E+04  0.7818609E-02  0.8528350E-01
        1   -1    0    0  501    0  0.00000000000E+00  0.00000000000E+00  0.69341202105E+03  0.69341202107E+03  0.50400001928E-02 0. -1.
       -1   -1    0    0    0  501  0.00000000000E+00  0.00000000000E+00 -0.17076274051E+04  0.17076274051E+04  0.50400001928E-02 0.  1.
    10030    2    1    2    0    0  0.00000000000E+00  0.00000000000E+00 -0.10142153840E+04  0.24010394261E+04  0.21763174127E+04 0.  0.
        5    1    3    3  502    0 -0.26619841184E+03  0.96970146400E+03 -0.96583585702E+03  0.13942896100E+04  0.46999998093E+01 0.  1.
       -5    1    3    3    0  502  0.26619841184E+03 -0.96970146400E+03 -0.48379526991E+02  0.10067498162E+04  0.46999998093E+01 0. -1.
</event>
<event>
 5   0  0.2229552E-05  0.2187492E+04  0.7818609E-02  0.8523652E-01
       -2   -1    0    0    0  501  0.00000000000E+00  0.00000000000E+00  0.89756933925E+03  0.89756933925E+03  0.25500000920E-02 0. -1.
        2   -1    0    0  501    0  0.00000000000E+00  0.00000000000E+00 -0.13328001278E+04  0.13328001278E+04  0.25500000920E-02 0.  1.
    10030    2    1    2    0    0  0.00000000000E+00  0.00000000000E+00 -0.43523078857E+03  0.22303694671E+04  0.21874921989E+04 0.  0.
        1    1    3    3  502    0  0.12420017997E+03  0.18809042732E+03  0.87363258860E+03  0.90224031911E+03  0.50400001928E-02 0. -1.
       -1    1    3    3    0  502 -0.12420017997E+03 -0.18809042732E+03 -0.13088633772E+04  0.13281291480E+04  0.50400001928E-02 0.  1.
</event>
<event>
 5   0  0.1005538E-05  0.2188345E+04  0.7818609E-02  0.8523295E-01
        1   -1    0    0  501    0  0.00000000000E+00  0.00000000000E+00  0.10078444540E+04  0.10078444540E+04  0.50400001928E-02 0. -1.
       -1   -1    0    0    0  501  0.00000000000E+00  0.00000000000E+00 -0.11878948204E+04  0.11878948204E+04  0.50400001928E-02 0.  1.
    10030    2    1    2    0    0  0.00000000000E+00  0.00000000000E+00 -0.18005036634E+03  0.21957392744E+04  0.21883447687E+04 0.  0.
        3    1    3    3  502    0 -0.55128293303E+03 -0.94331704210E+03 -0.14898838636E+03  0.11027046130E+04  0.10100000352E+00 0.  1.
       -3    1    3    3    0  502  0.55128293303E+03  0.94331704210E+03 -0.31061979975E+02  0.10930346614E+04  0.10100000352E+00 0. -1.
</event>
<event>
 5   0  0.1033733E-05  0.2196641E+04  0.7818609E-02  0.8519827E-01
        1   -1    0    0  501    0  0.00000000000E+00  0.00000000000E+00  0.20050649015E+04  0.20050649015E+04  0.50400001928E-02 0.  1.
       -1   -1    0    0    0  501  0.00000000000E+00  0.00000000000E+00 -0.60163049749E+03  0.60163049751E+03  0.50400001928E-02 0. -1.
    10030    2    1    2    0    0  0.00000000000E+00  0.00000000000E+00  0.14034344040E+04  0.26066953990E+04  0.21966412490E+04 0.  0.
        5    1    3    3  502    0  0.31738702834E+03  0.24367145371E+03 -0.51204465613E+03  0.64986315712E+03  0.46999998093E+01 0. -1.
       -5    1    3    3    0  502 -0.31738702834E+03 -0.24367145371E+03  0.19154790601E+04  0.19568322419E+04  0.46999998093E+01 0.  1.
</event>
<event>
 5   0  0.2298329E-05  0.2197781E+04  0.7818609E-02  0.8519352E-01
        2   -1    0    0  501    0  0.00000000000E+00  0.00000000000E+00  0.26551413402E+04  0.26551413402E+04  0.25500000920E-02 0.  1.
       -2   -1    0    0    0  501  0.00000000000E+00  0.00000000000E+00 -0.45480079979E+03  0.45480079980E+03  0.25500000920E-02 0. -1.
    10030    2    1    2    0    0  0.00000000000E+00  0.00000000000E+00  0.22003405404E+04  0.31099421400E+04  0.21977810674E+04 0.  0.
        4    1    3    3  502    0 -0.63866292729E+03  0.59656560923E+03  0.20428208348E+04  0.22219134629E+04  0.12699999809E+01 0.  1.
       -4    1    3    3    0  502  0.63866292729E+03 -0.59656560923E+03  0.15751970567E+03  0.88802867712E+03  0.12699999809E+01 0. -1.
</event>
<event>
 5   0  0.2284329E-05  0.2212913E+04  0.7818609E-02  0.8513073E-01
       -2   -1    0    0    0  501  0.00000000000E+00  0.00000000000E+00  0.61029699904E+03  0.61029699904E+03  0.25500000920E-02 0.  1.
        2   -1    0    0  501    0  0.00000000000E+00  0.00000000000E+00 -0.20059837387E+04  0.20059837387E+04  0.25500000920E-02 0. -1.
    10030    2    1    2    0    0  0.00000000000E+00  0.00000000000E+00 -0.13956867396E+04  0.26162807377E+04  0.22129128820E+04 0.  0.
        2    1    3    3  502    0  0.85623594243E+02 -0.11018031101E+04 -0.63369056174E+03  0.12739172741E+04  0.25500000920E-02 0.  1.
       -2    1    3    3    0  502 -0.85623594243E+02  0.11018031101E+04 -0.76199617788E+03  0.13423634636E+04  0.25500000920E-02 0. -1.
</event>
<event>
 5   0  0.1071208E-05  0.2210216E+04  0.7818609E-02  0.8514188E-01
       -1   -1    0    0    0  501  0.00000000000E+00  0.00000000000E+00  0.68227765084E+03  0.68227765086E+03  0.50400001928E-02 0.  1.
        1   -1    0    0  501    0  0.00000000000E+00  0.00000000000E+00 -0.17899801814E+04  0.17899801814E+04  0.50400001928E-02 0. -1.
    10030    2    1    2    0    0  0.00000000000E+00  0.00000000000E+00 -0.11077025306E+04  0.24722578323E+04  0.22102158024E+04 0.  0.
        4    1    3    3  502    0 -0.10389473253E+04 -0.16206658890E+03 -0.93413637901E+03  0.14065168010E+04  0.12699999809E+01 0.  1.
       -4    1    3    3    0  502  0.10389473253E+04  0.16206658890E+03 -0.17356615154E+03  0.10657410313E+04  0.12699999809E+01 0. -1.
</event>
<event>
 5   0  0.2289708E-05  0.2195896E+04  0.7818609E-02  0.8520138E-01
       -2   -1    0    0    0  501  0.00000000000E+00  0.00000000000E+00  0.69766054566E+03  0.69766054566E+03  0.25500000920E-02 0. -1.
        2   -1    0    0  501    0  0.00000000000E+00  0.00000000000E+00 -0.17279031522E+04  0.17279031522E+04  0.25500000920E-02 0.  1.
    10030    2    1    2    0    0  0.00000000000E+00  0.00000000000E+00 -0.10302426065E+04  0.24255636978E+04  0.21958960413E+04 0.  0.
        5    1    3    3  502    0  0.78694653709E+02  0.28770056216E+03 -0.16822826990E+04  0.17085261576E+04  0.46999998093E+01 0.  1.
       -5    1    3    3    0  502 -0.78694653709E+02 -0.28770056216E+03  0.65204009243E+03  0.71703754025E+03  0.46999998093E+01 0. -1.
</event>
<event>
 5   0  0.1049198E-05  0.2147768E+04  0.7818609E-02  0.8540488E-01
        1   -1    0    0  501    0  0.00000000000E+00  0.00000000000E+00  0.97990491305E+03  0.97990491306E+03  0.50400001928E-02 0.  1.
       -1   -1    0    0    0  501  0.00000000000E+00  0.00000000000E+00 -0.11768764072E+04  0.11768764073E+04  0.50400001928E-02 0. -1.
    10030    2    1    2    0    0  0.00000000000E+00  0.00000000000E+00 -0.19697149420E+03  0.21567813203E+04  0.21477681193E+04 0.  0.
        1    1    3    3  502    0 -0.37846751676E+03 -0.10034768501E+04 -0.43268417351E+02  0.10733478494E+04  0.50400001928E-02 0. -1.
       -1    1    3    3    0  502  0.37846751676E+03  0.10034768501E+04 -0.15370307685E+03  0.10834334709E+04  0.50400001928E-02 0.  1.
</event>
<event>
 5   0  0.2298329E-05  0.2206806E+04  0.7818609E-02  0.8515601E-01
       -2   -1    0    0    0  501  0.00000000000E+00  0.00000000000E+00  0.11605076695E+04  0.11605076695E+04  0.25500000920E-02 0.  1.
        2   -1    0    0  501    0  0.00000000000E+00  0.00000000000E+00 -0.10491083928E+04  0.10491083928E+04  0.25500000920E-02 0. -1.
    10030    2    1    2    0    0  0.00000000000E+00  0.00000000000E+00  0.11139927676E+03  0.22096160623E+04  0.22068061410E+04 0.  0.
        4    1    3    3  502    0 -0.79370366120E+03  0.50507900337E+03 -0.52159882535E+03  0.10757031417E+04  0.12699999809E+01 0. -1.
       -4    1    3    3    0  502  0.79370366120E+03 -0.50507900337E+03  0.63299810211E+03  0.11339129207E+04  0.12699999809E+01 0.  1.
</event>
<event>
 5   0  0.1007682E-05  0.2203328E+04  0.7818609E-02  0.8517044E-01
        1   -1    0    0  501    0  0.00000000000E+00  0.00000000000E+00  0.15415334885E+04  0.15415334886E+04  0.50400001928E-02 0.  1.
       -1   -1    0    0    0  501  0.00000000000E+00  0.00000000000E+00 -0.78730906193E+03  0.78730906195E+03  0.50400001928E-02 0. -1.
    10030    2    1    2    0    0  0.00000000000E+00  0.00000000000E+00  0.75422442662E+03  0.23288425505E+04  0.22033277422E+04 0.  0.
        2    1    3    3  502    0 -0.26398607637E+03  0.14207742453E+03  0.14975902396E+04  0.15273019246E+04  0.25500000920E-02 0.  1.
       -2    1    3    3    0  502  0.26398607637E+03 -0.14207742453E+03 -0.74336581298E+03  0.80154062592E+03  0.25500000920E-02 0. -1.
</event>
<event>
 5   0  0.1007682E-05  0.2233419E+04  0.7818609E-02  0.8504646E-01
       -1   -1    0    0    0  501  0.00000000000E+00  0.00000000000E+00  0.57478955879E+03  0.57478955881E+03  0.50400001928E-02 0.  1.
        1   -1    0    0  501    0  0.00000000000E+00  0.00000000000E+00 -0.21695593313E+04  0.21695593313E+04  0.50400001928E-02 0. -1.
    10030    2    1    2    0    0  0.00000000000E+00  0.00000000000E+00 -0.15947697725E+04  0.27443488902E+04  0.22334189494E+04 0.  0.
        2    1    3    3  502    0  0.41655469508E+03  0.32260666103E+03 -0.20072339748E+04  0.20752303731E+04  0.25500000920E-02 0. -1.
       -2    1    3    3    0  502 -0.41655469508E+03 -0.32260666103E+03  0.41246420226E+03  0.66911851707E+03  0.25500000920E-02 0.  1.
</event>
<event>
 5   0  0.2284329E-05  0.2159108E+04  0.7818609E-02  0.8535644E-01
       -2   -1    0    0    0  501  0.00000000000E+00  0.00000000000E+00  0.62397008708E+03  0.62397008708E+03  0.25500000920E-02 0.  1.
        2   -1    0    0  501    0  0.00000000000E+00  0.00000000000E+00 -0.18677762902E+04  0.18677762902E+04  0.25500000920E-02 0. -1.
    10030    2    1    2    0    0  0.00000000000E+00  0.00000000000E+00 -0.12438062031E+04  0.24917463773E+04  0.21591077180E+04 0.  0.
        2    1    3    3  502    0 -0.19652308299E+03  0.64748118067E+03  0.34887131592E+03  0.76129126919E+03  0.25500000920E-02 0.  1.
       -2    1    3    3    0  502  0.19652308299E+03 -0.64748118067E+03 -0.15926775191E+04  0.17304551081E+04  0.25500000920E-02 0. -1.
</event>
<event>
 5   0  0.1033733E-05  0.2191102E+04  0.7818609E-02  0.8522141E-01
        1   -1    0    0  501    0  0.00000000000E+00  0.00000000000E+00  0.95752675140E+03  0.95752675141E+03  0.50400001928E-02 0. -1.
       -1   -1    0    0    0  501  0.00000000000E+00  0.00000000000E+00 -0.12534715381E+04  0.12534715381E+04  0.50400001928E-02 0.  1.
    10030    2    1    2    0    0  0.00000000000E+00  0.00000000000E+00 -0.29594478671E+03  0.22109982895E+04  0.21911024895E+04 0.  0.
        5    1    3    3  502    0 -0.54424155546E+02  0.60687707737E+03  0.77076106405E+03  0.98252556384E+03  0.46999998093E+01 0. -1.
       -5    1    3    3    0  502  0.54424155546E+02 -0.60687707737E+03 -0.10667058508E+04  0.12284727257E+04  0.46999998093E+01 0.  1.
</event>
<event>
 5   0  0.1049198E-05  0.2198754E+04  0.7818609E-02  0.8518947E-01
       -1   -1    0    0    0  501  0.00000000000E+00  0.00000000000E+00  0.62058019917E+03  0.62058019919E+03  0.50400001928E-02 0. -1.
        1   -1    0    0  501    0  0.00000000000E+00  0.00000000000E+00 -0.19475796821E+04  0.19475796821E+04  0.50400001928E-02 0.  1.
    10030    2    1    2    0    0  0.00000000000E+00  0.00000000000E+00 -0.13269994829E+04  0.25681598813E+04  0.21987536352E+04 0.  0.
        1    1    3    3  502    0 -0.23965362601E+03  0.87573246359E+03  0.60559330692E+02  0.90994980125E+03  0.50400001928E-02 0. -1.
       -1    1    3    3    0  502  0.23965362601E+03 -0.87573246359E+03 -0.13875588136E+04  0.16582100800E+04  0.50400001928E-02 0.  1.
</event>
<event>
 5   0  0.1033733E-05  0.2172143E+04  0.7818609E-02  0.8530113E-01
        1   -1    0    0  501    0  0.00000000000E+00  0.00000000000E+00  0.22944831019E+04  0.22944831019E+04  0.50400001928E-02 0. -1.
       -1   -1    0    0    0  501  0.00000000000E+00  0.00000000000E+00 -0.51408142563E+03  0.51408142566E+03  0.50400001928E-02 0.  1.
    10030    2    1    2    0    0  0.00000000000E+00  0.00000000000E+00  0.17804016763E+04  0.28085645276E+04  0.21721428537E+04 0.  0.
        5    1    3    3  502    0  0.13177019862E+03 -0.10232652540E+04  0.45154677654E+03  0.11262112354E+04  0.46999998093E+01 0. -1.
       -5    1    3    3    0  502 -0.13177019862E+03  0.10232652540E+04  0.13288548998E+04  0.16823532922E+04  0.46999998093E+01 0.  1.
</event>
<event>
 5   0  0.2284329E-05  0.2225911E+04  0.7818609E-02  0.8507720E-01
        2   -1    0    0  501    0  0.00000000000E+00  0.00000000000E+00  0.18705370939E+04  0.18705370939E+04  0.25500000920E-02 0.  1.
       -2   -1    0    0    0  501  0.00000000000E+00  0.00000000000E+00 -0.66219987805E+03  0.66219987806E+03  0.25500000920E-02 0. -1.
    10030    2    1    2    0    0  0.00000000000E+00  0.00000000000E+00  0.12083372158E+04  0.25327369719E+04  0.22259105422E+04 0.  0.
        2    1    3    3  502    0  0.11372173038E+03 -0.56430516921E+03  0.16879881979E+04  0.17834452927E+04  0.25500000920E-02 0.  1.
       -2    1    3    3    0  502 -0.11372173038E+03  0.56430516921E+03 -0.47965098205E+03  0.74929167922E+03  0.25500000920E-02 0. -1.
</event>
<event>
 5   0  0.2284329E-05  0.2200028E+04  0.7818609E-02  0.8518417E-01
       -2   -1    0    0    0  501  0.00000000000E+00  0.00000000000E+00  0.66020432023E+03  0.66020432024E+03  0.25500000920E-02 0.  1.
        2   -1    0    0  501    0  0.00000000000E+00  0.00000000000E+00 -0.18328122619E+04  0.18328122619E+04  0.25500000920E-02 0. -1.
    10030    2    1    2    0    0  0.00000000000E+00  0.00000000000E+00 -0.11726079417E+04  0.24930165822E+04  0.22000277939E+04 0.  0.
        2    1    3    3  502    0  0.58501562177E+03  0.37274597358E+03  0.38111679186E+03  0.79147510862E+03  0.25500000920E-02 0.  1.
       -2    1    3    3    0  502 -0.58501562177E+03 -0.37274597358E+03 -0.15537247335E+04  0.17015414735E+04  0.25500000920E-02 0. -1.
</event>
<event>
 5   0  0.1049198E-05  0.2209524E+04  0.7818609E-02  0.8514475E-01
        1   -1    0    0  501    0  0.00000000000E+00  0.00000000000E+00  0.16851995777E+04  0.16851995777E+04  0.50400001928E-02 0.  1.
       -1   -1    0    0    0  501  0.00000000000E+00  0.00000000000E+00 -0.72424591559E+03  0.72424591560E+03  0.50400001928E-02 0. -1.
    10030    2    1    2    0    0  0.00000000000E+00  0.00000000000E+00  0.96095366214E+03  0.24094454933E+04  0.22095238502E+04 0.  0.
        1    1    3    3  502    0  0.64398098420E+03 -0.62480027977E+03  0.11833192071E+04  0.14850357718E+04  0.50400001928E-02 0.  1.
       -1    1    3    3    0  502 -0.64398098420E+03  0.62480027977E+03 -0.22236554499E+03  0.92440972151E+03  0.50400001928E-02 0. -1.
</event>
<event>
 5   0  0.2319707E-05  0.2202530E+04  0.7818609E-02  0.8517376E-01
        2   -1    0    0  501    0  0.00000000000E+00  0.00000000000E+00  0.98315200393E+03  0.98315200394E+03  0.25500000920E-02 0.  1.
       -2   -1    0    0    0  501  0.00000000000E+00  0.00000000000E+00 -0.12335680112E+04  0.12335680112E+04  0.25500000920E-02 0. -1.
    10030    2    1    2    0    0  0.00000000000E+00  0.00000000000E+00 -0.25041600731E+03  0.22167200152E+04  0.22025302379E+04 0.  0.
        3    1    3    3  502    0  0.54240368970E+03 -0.69390546886E+03 -0.79058622338E+03  0.11835257281E+04  0.10100000352E+00 0. -1.
       -3    1    3    3    0  502 -0.54240368970E+03  0.69390546886E+03  0.54017021607E+03  0.10331942871E+04  0.10100000352E+00 0.  1.
</event>
<event>
 5   0  0.2319707E-05  0.2203022E+04  0.7818609E-02  0.8517171E-01
       -2   -1    0    0    0  501  0.00000000000E+00  0.00000000000E+00  0.87058496763E+03  0.87058496763E+03  0.25500000920E-02 0.  1.
        2   -1    0    0  501    0  0.00000000000E+00  0.00000000000E+00 -0.13936906162E+04  0.13936906162E+04  0.25500000920E-02 0. -1.
    10030    2    1    2    0    0  0.00000000000E+00  0.00000000000E+00 -0.52310564858E+03  0.22642755838E+04  0.22030216522E+04 0.  0.
        3    1    3    3  502    0  0.66081413999E+03  0.67193496808E+03  0.32452484717E+03  0.99673884020E+03  0.10100000352E+00 0.  1.
       -3    1    3    3    0  502 -0.66081413999E+03 -0.67193496808E+03 -0.84763049575E+03  0.12675367436E+04  0.10100000352E+00 0. -1.
</event>
<event>
 5   0  0.2298329E-05  0.2197005E+04  0.7818609E-02  0.8519676E-01
        2   -1    0    0  501    0  0.00000000000E+00  0.00000000000E+00  0.12899175562E+04  0.12899175562E+04  0.25500000920E-02 0.  1.
       -2   -1    0    0    0  501  0.00000000000E+00  0.00000000000E+00 -0.93549202459E+03  0.93549202460E+03  0.25500000920E-02 0. -1.
    10030    2    1    2    0    0  0.00000000000E+00  0.00000000000E+00  0.35442553163E+03  0.22254095808E+04  0.21970048577E+04 0.  0.
        4    1    3    3  502    0 -0.16702361616E+03  0.28906378295E+03  0.12372858506E+04  0.12815352699E+04  0.12699999809E+01 0.  1.
       -4    1    3    3    0  502  0.16702361616E+03 -0.28906378295E+03 -0.88286031902E+03  0.94387431089E+03  0.12699999809E+01 0. -1.
</event>
<event>
 5   0  0.1071208E-05  0.2221011E+04  0.7818609E-02  0.8509733E-01
       -1   -1    0    0    0  501  0.00000000000E+00  0.00000000000E+00  0.81404037749E+03  0.81404037751E+03  0.50400001928E-02 0. -1.
        1   -1    0    0  501    0  0.00000000000E+00  0.00000000000E+00 -0.15149404075E+04  0.15149404075E+04  0.50400001928E-02 0.  1.
    10030    2    1    2    0    0  0.00000000000E+00  0.00000000000E+00 -0.70090002997E+03  0.23289807850E+04  0.22210111762E+04 0.  0.
        4    1    3    3  502    0 -0.35770117449E+03 -0.23663385053E+03  0.72368752351E+03  0.84123180754E+03  0.12699999809E+01 0. -1.
       -4    1    3    3    0  502  0.35770117449E+03  0.23663385053E+03 -0.14245875535E+04  0.14877489774E+04  0.12699999809E+01 0.  1.
</event>
<event>
 5   0  0.1071208E-05  0.2186158E+04  0.7818609E-02  0.8524212E-01
       -1   -1    0    0    0  501  0.00000000000E+00  0.00000000000E+00  0.24843845768E+04  0.24843845768E+04  0.50400001928E-02 0.  1.
        1   -1    0    0  501    0  0.00000000000E+00  0.00000000000E+00 -0.48093255795E+03  0.48093255797E+03  0.50400001928E-02 0. -1.
    10030    2    1    2    0    0  0.00000000000E+00  0.00000000000E+00  0.20034520189E+04  0.29653171348E+04  0.21861577523E+04 0.  0.
        4    1    3    3  502    0 -0.34130890603E+03  0.10383147874E+04  0.98113500043E+03  0.14687467001E+04  0.12699999809E+01 0. -1.
       -4    1    3    3    0  502  0.34130890603E+03 -0.10383147874E+04  0.10223170184E+04  0.14965704347E+04  0.12699999809E+01 0.  1.
</event>
<event>
 5   0  0.2289708E-05  0.2205836E+04  0.7818609E-02  0.8516003E-01
       -2   -1    0    0    0  501  0.00000000000E+00  0.00000000000E+00  0.54058274048E+03  0.54058274048E+03  0.25500000920E-02 0. -1.
        2   -1    0    0  501    0  0.00000000000E+00  0.00000000000E+00 -0.22502173383E+04  0.22502173383E+04  0.25500000920E-02 0.  1.
    10030    2    1    2    0    0  0.00000000000E+00  0.00000000000E+00 -0.17096345979E+04  0.27908000788E+04  0.22058364903E+04 0.  0.
        5    1    3    3  502    0 -0.46373402469E+02 -0.72655227164E+03 -0.19030001400E+04  0.20375132684E+04  0.46999998093E+01 0.  1.
       -5    1    3    3    0  502  0.46373402469E+02  0.72655227164E+03  0.19336554218E+03  0.75328681044E+03  0.46999998093E+01 0. -1.
</event>
<event>
 5   0  0.1071208E-05  0.2196729E+04  0.7818609E-02  0.8519791E-01
       -1   -1    0    0    0  501  0.00000000000E+00  0.00000000000E+00  0.15105928965E+04  0.15105928965E+04  0.50400001928E-02 0.  1.
        1   -1    0    0  501    0  0.00000000000E+00  0.00000000000E+00 -0.79863020312E+03  0.79863020313E+03  0.50400001928E-02 0. -1.
    10030    2    1    2    0    0  0.00000000000E+00  0.00000000000E+00  0.71196269340E+03  0.23092230997E+04  0.21967294889E+04 0.  0.
        4    1    3    3  502    0  0.10256627235E+04  0.32421616738E+03  0.12256700190E+03  0.10826469546E+04  0.12699999809E+01 0. -1.
       -4    1    3    3    0  502 -0.10256627235E+04 -0.32421616738E+03  0.58939569150E+03  0.12265761450E+04  0.12699999809E+01 0.  1.
</event>
<event>
 5   0  0.2319707E-05  0.2203010E+04  0.7818609E-02  0.8517176E-01
        2   -1    0    0  501    0  0.00000000000E+00  0.00000000000E+00  0.12573446899E+04  0.12573446899E+04  0.25500000920E-02 0.  1.
       -2   -1    0    0    0  501  0.00000000000E+00  0.00000000000E+00 -0.96498045729E+03  0.96498045729E+03  0.25500000920E-02 0. -1.
    10030    2    1    2    0    0  0.00000000000E+00  0.00000000000E+00  0.29236423266E+03  0.22223251472E+04  0.22030098083E+04 0.  0.
        3    1    3    3  502    0  0.10189431512E+04  0.29665527890E+03 -0.15147025043E+03  0.10720040797E+04  0.10100000352E+00 0. -1.
       -3    1    3    3    0  502 -0.10189431512E+04 -0.29665527890E+03  0.44383448308E+03  0.11503210676E+04  0.10100000352E+00 0.  1.
</event>
<event>
 5   0  0.2319707E-05  0.2207633E+04  0.7818609E-02  0.8515258E-01
        2   -1    0    0  501    0  0.00000000000E+00  0.00000000000E+00  0.12149450432E+04  0.12149450432E+04  0.25500000920E-02 0. -1.
       -2   -1    0    0    0  501  0.00000000000E+00  0.00000000000E+00 -0.10028528638E+04  0.10028528638E+04  0.25500000920E-02 0.  1.
    10030    2    1    2    0    0  0.00000000000E+00  0.00000000000E+00  0.21209217943E+03  0.22177979071E+04  0.22076332268E+04 0.  0.
        3    1    3    3  502    0  0.49979114013E+03 -0.88529118307E+02 -0.87866219835E+03  0.10147294504E+04  0.10100000352E+00 0.  1.
       -3    1    3    3    0  502 -0.49979114013E+03  0.88529118307E+02  0.10907543778E+04  0.12030684566E+04  0.10100000352E+00 0. -1.
</event>
<event>
 5   0  0.1071208E-05  0.2208645E+04  0.7818609E-02  0.8514838E-01
        1   -1    0    0  501    0  0.00000000000E+00  0.00000000000E+00  0.15069343897E+04  0.15069343897E+04  0.50400001928E-02 0.  1.
       -1   -1    0    0    0  501  0.00000000000E+00  0.00000000000E+00 -0.80927778465E+03  0.80927778467E+03  0.50400001928E-02 0. -1.
    10030    2    1    2    0    0  0.00000000000E+00  0.00000000000E+00  0.69765660506E+03  0.23162121744E+04  0.22086453084E+04 0.  0.
        4    1    3    3  502    0  0.46967854999E+03 -0.77936248917E+03  0.10050204790E+04  0.13557549948E+04  0.12699999809E+01 0. -1.
       -4    1    3    3    0  502 -0.46967854999E+03  0.77936248917E+03 -0.30736387397E+03  0.96045717956E+03  0.12699999809E+01 0.  1.
</event>
<event>
 5   0  0.1005538E-05  0.2168318E+04  0.7818609E-02  0.8531732E-01
       -1   -1    0    0    0  501  0.00000000000E+00  0.00000000000E+00  0.12162278624E+04  0.12162278624E+04  0.50400001928E-02 0.  1.
        1   -1    0    0  501    0  0.00000000000E+00  0.00000000000E+00 -0.96643109248E+03  0.96643109249E+03  0.50400001928E-02 0. -1.
    10030    2    1    2    0    0  0.00000000000E+00  0.00000000000E+00  0.24979676993E+03  0.21826589549E+04  0.21683177090E+04 0.  0.
        3    1    3    3  502    0  0.83613378597E+03  0.32400278380E+02  0.81882782366E+03  0.11707469842E+04  0.10100000352E+00 0.  1.
       -3    1    3    3    0  502 -0.83613378597E+03 -0.32400278380E+02 -0.56903105374E+03  0.10119119707E+04  0.10100000352E+00 0. -1.
</event>
<event>
 5   0  0.1071208E-05  0.2194894E+04  0.7818609E-02  0.8520556E-01
       -1   -1    0    0    0  501  0.00000000000E+00  0.00000000000E+00  0.74769739678E+03  0.74769739680E+03  0.50400001928E-02 0. -1.
        1   -1    0    0  501    0  0.00000000000E+00  0.00000000000E+00 -0.16107991774E+04  0.16107991774E+04  0.50400001928E-02 0.  1.
    10030    2    1    2    0    0  0.00000000000E+00  0.00000000000E+00 -0.86310178066E+03  0.23584965742E+04  0.21948943954E+04 0.  0.
        4    1    3    3  502    0  0.37731501484E+03 -0.57034651067E+03  0.49075483888E+03  0.84172661086E+03  0.12699999809E+01 0. -1.
       -4    1    3    3    0  502 -0.37731501484E+03  0.57034651067E+03 -0.13538566195E+04  0.15167699634E+04  0.12699999809E+01 0.  1.
</event>
<event>
 5   0  0.2289708E-05  0.2202103E+04  0.7818609E-02  0.8517553E-01
       -2   -1    0    0    0  501  0.00000000000E+00  0.00000000000E+00  0.77922694069E+03  0.77922694069E+03  0.25500000920E-02 0. -1.
        2   -1    0    0  501    0  0.00000000000E+00  0.00000000000E+00 -0.15557916445E+04  0.15557916445E+04  0.25500000920E-02 0.  1.
    10030    2    1    2    0    0  0.00000000000E+00  0.00000000000E+00 -0.77656470385E+03  0.23350185852E+04  0.22021033250E+04 0.  0.
        5    1    3    3  502    0  0.81423038685E+03 -0.26204491117E+03  0.34685575608E+03  0.92302202783E+03  0.46999998093E+01 0.  1.
       -5    1    3    3    0  502 -0.81423038685E+03  0.26204491117E+03 -0.11234204599E+04  0.14119965574E+04  0.46999998093E+01 0. -1.
</event>
<event>
 5   0  0.1071208E-05  0.2278785E+04  0.7818609E-02  0.8486333E-01
        1   -1    0    0  501    0  0.00000000000E+00  0.00000000000E+00  0.95069441183E+03  0.95069441184E+03  0.50400001928E-02 0. -1.
       -1   -1    0    0    0  501  0.00000000000E+00  0.00000000000E+00 -0.13655446456E+04  0.13655446456E+04  0.50400001928E-02 0.  1.
    10030    2    1    2    0    0  0.00000000000E+00  0.00000000000E+00 -0.41485023373E+03  0.23162390574E+04  0.22787853463E+04 0.  0.
        4    1    3    3  502    0  0.72869955794E+03  0.16163775450E+03 -0.10824365985E+04  0.13148385498E+04  0.12699999809E+01 0.  1.
       -4    1    3    3    0  502 -0.72869955794E+03 -0.16163775450E+03  0.66758636472E+03  0.10014005076E+04  0.12699999809E+01 0. -1.
</event>
<event>
 5   0  0.1007682E-05  0.2197919E+04  0.7818609E-02  0.8519295E-01
        1   -1    0    0  501    0  0.00000000000E+00  0.00000000000E+00  0.78645807975E+03  0.78645807976E+03  0.50400001928E-02 0. -1.
       -1   -1    0    0    0  501  0.00000000000E+00  0.00000000000E+00 -0.15356336570E+04  0.15356336571E+04  0.50400001928E-02 0.  1.
    10030    2    1    2    0    0  0.00000000000E+00  0.00000000000E+00 -0.74917557730E+03  0.23220917368E+04  0.21979185582E+04 0.  0.
        2    1    3    3  502    0  0.77313175622E+02  0.10932840373E+04 -0.28964536944E+03  0.11336409279E+04  0.25500000920E-02 0.  1.
       -2    1    3    3    0  502 -0.77313175622E+02 -0.10932840373E+04 -0.45953020786E+03  0.11884508089E+04  0.25500000920E-02 0. -1.
</event>
<event>
 5   0  0.1033733E-05  0.2195462E+04  0.7818609E-02  0.8520319E-01
       -1   -1    0    0    0  501  0.00000000000E+00  0.00000000000E+00  0.81181122269E+03  0.81181122270E+03  0.50400001928E-02 0. -1.
        1   -1    0    0  501    0  0.00000000000E+00  0.00000000000E+00 -0.14843520967E+04  0.14843520967E+04  0.50400001928E-02 0.  1.
    10030    2    1    2    0    0  0.00000000000E+00  0.00000000000E+00 -0.67254087401E+03  0.22961633194E+04  0.21954623117E+04 0.  0.
        5    1    3    3  502    0 -0.80438846222E+03 -0.61614823482E+03  0.10536840576E+03  0.10187266740E+04  0.46999998093E+01 0. -1.
       -5    1    3    3    0  502  0.80438846222E+03  0.61614823482E+03 -0.77790927977E+03  0.12774366454E+04  0.46999998093E+01 0.  1.
</event>
<event>
 5   0  0.2284329E-05  0.2217823E+04  0.7818609E-02  0.8511046E-01
       -2   -1    0    0    0  501  0.00000000000E+00  0.00000000000E+00  0.12192873914E+04  0.12192873914E+04  0.25500000920E-02 0. -1.
        2   -1    0    0  501    0  0.00000000000E+00  0.00000000000E+00 -0.10085274805E+04  0.10085274805E+04  0.25500000920E-02 0.  1.
    10030    2    1    2    0    0  0.00000000000E+00  0.00000000000E+00  0.21075991089E+03  0.22278148719E+04  0.22178231137E+04 0.  0.
        2    1    3    3  502    0  0.91358933844E+03  0.54034313091E+03 -0.21710949601E+03  0.10833986855E+04  0.25500000920E-02 0. -1.
       -2    1    3    3    0  502 -0.91358933844E+03 -0.54034313091E+03  0.42786940690E+03  0.11444161864E+04  0.25500000920E-02 0.  1.
</event>
<event>
 5   0  0.2298329E-05  0.2210512E+04  0.7818609E-02  0.8514066E-01
       -2   -1    0    0    0  501  0.00000000000E+00  0.00000000000E+00  0.58484205461E+03  0.58484205461E+03  0.25500000920E-02 0.  1.
        2   -1    0    0  501    0  0.00000000000E+00  0.00000000000E+00 -0.20887533629E+04  0.20887533629E+04  0.25500000920E-02 0. -1.
    10030    2    1    2    0    0  0.00000000000E+00  0.00000000000E+00 -0.15039113083E+04  0.26735954175E+04  0.22105119845E+04 0.  0.
        4    1    3    3  502    0 -0.71578463991E+03 -0.67301723866E+03 -0.13642610502E+04  0.16812226742E+04  0.12699999809E+01 0. -1.
       -4    1    3    3    0  502  0.71578463991E+03  0.67301723866E+03 -0.13965025814E+03  0.99237274336E+03  0.12699999809E+01 0.  1.
</event>
<event>
 5   0  0.2319707E-05  0.2197948E+04  0.7818609E-02  0.8519283E-01
        2   -1    0    0  501    0  0.00000000000E+00  0.00000000000E+00  0.14127033322E+04  0.14127033322E+04  0.25500000920E-02 0.  1.
       -2   -1    0    0    0  501  0.00000000000E+00  0.00000000000E+00 -0.85491650706E+03  0.85491650707E+03  0.25500000920E-02 0. -1.
    10030    2    1    2    0    0  0.00000000000E+00  0.00000000000E+00  0.55778682511E+03  0.22676198392E+04  0.21979475865E+04 0.  0.
        3    1    3    3  502    0  0.10370427005E+04 -0.44683503527E+02  0.65129124238E+03  0.12254119596E+04  0.10100000352E+00 0. -1.
       -3    1    3    3    0  502 -0.10370427005E+04  0.44683503527E+02 -0.93504417276E+02  0.10422078796E+04  0.10100000352E+00 0.  1.
</event>
<event>
 5   0  0.1049198E-05  0.2215530E+04  0.7818609E-02  0.8511992E-01
        1   -1    0    0  501    0  0.00000000000E+00  0.00000000000E+00  0.10157010431E+04  0.10157010431E+04  0.50400001928E-02 0.  1.
       -1   -1    0    0    0  501  0.00000000000E+00  0.00000000000E+00 -0.12081741343E+04  0.12081741343E+04  0.50400001928E-02 0. -1.
    10030    2    1    2    0    0  0.00000000000E+00  0.00000000000E+00 -0.19247309120E+03  0.22238751775E+04  0.22155303911E+04 0.  0.
        1    1    3    3  502    0  0.25734274261E+03  0.53307685828E+03  0.84363816646E+03  0.10305928294E+04  0.50400001928E-02 0.  1.
       -1    1    3    3    0  502 -0.25734274261E+03 -0.53307685828E+03 -0.10361112577E+04  0.11932823481E+04  0.50400001928E-02 0. -1.
</event>
<event>
 5   0  0.1005538E-05  0.2202429E+04  0.7818609E-02  0.8517418E-01
       -1   -1    0    0    0  501  0.00000000000E+00  0.00000000000E+00  0.11652311580E+04  0.11652311580E+04  0.50400001928E-02 0. -1.
        1   -1    0    0  501    0  0.00000000000E+00  0.00000000000E+00 -0.10407146960E+04  0.10407146960E+04  0.50400001928E-02 0.  1.
    10030    2    1    2    0    0  0.00000000000E+00  0.00000000000E+00  0.12451646198E+03  0.22059458541E+04  0.22024288324E+04 0.  0.
        3    1    3    3  502    0  0.41179893582E+03 -0.57248236175E+03 -0.78488123520E+03  0.10551554301E+04  0.10100000352E+00 0.  1.
       -3    1    3    3    0  502 -0.41179893582E+03  0.57248236175E+03  0.90939769718E+03  0.11507904240E+04  0.10100000352E+00 0. -1.
</event>
<event>
 5   0  0.1033733E-05  0.2193842E+04  0.7818609E-02  0.8520996E-01
        1   -1    0    0  501    0  0.00000000000E+00  0.00000000000E+00  0.17703977118E+04  0.17703977118E+04  0.50400001928E-02 0.  1.
       -1   -1    0    0    0  501  0.00000000000E+00  0.00000000000E+00 -0.67964120135E+03  0.67964120137E+03  0.50400001928E-02 0. -1.
    10030    2    1    2    0    0  0.00000000000E+00  0.00000000000E+00  0.10907565104E+04  0.24500389132E+04  0.21938415875E+04 0.  0.
        5    1    3    3  502    0 -0.30529726343E+03  0.50085054241E+03  0.15805289851E+04  0.16858682177E+04  0.46999998093E+01 0.  1.
       -5    1    3    3    0  502  0.30529726343E+03 -0.50085054241E+03 -0.48977247462E+03  0.76417069545E+03  0.46999998093E+01 0. -1.
</event>
<event>
 5   0  0.1033733E-05  0.2199385E+04  0.7818609E-02  0.8518684E-01
        1   -1    0    0  501    0  0.00000000000E+00  0.00000000000E+00  0.13246608594E+04  0.13246608594E+04  0.50400001928E-02 0. -1.
       -1   -1    0    0    0  501  0.00000000000E+00  0.00000000000E+00 -0.91293112529E+03  0.91293112530E+03  0.50400001928E-02 0.  1.
    10030    2    1    2    0    0  0.00000000000E+00  0.00000000000E+00  0.41172973406E+03  0.22375919847E+04  0.21993854860E+04 0.  0.
        5    1    3    3  502    0  0.24260536152E+01 -0.69023990137E+03 -0.66508176276E+03  0.95853682680E+03  0.46999998093E+01 0.  1.
       -5    1    3    3    0  502 -0.24260536152E+01  0.69023990137E+03  0.10768114968E+04  0.12790551579E+04  0.46999998093E+01 0. -1.
</event>
<event>
 5   0  0.2284329E-05  0.2196288E+04  0.7818609E-02  0.8519975E-01
       -2   -1    0    0    0  501  0.00000000000E+00  0.00000000000E+00  0.11965097732E+04  0.11965097732E+04  0.25500000920E-02 0.  1.
        2   -1    0    0  501    0  0.00000000000E+00  0.00000000000E+00 -0.10078647931E+04  0.10078647931E+04  0.25500000920E-02 0. -1.
    10030    2    1    2    0    0  0.00000000000E+00  0.00000000000E+00  0.18864498016E+03  0.22043745663E+04  0.21962878454E+04 0.  0.
        2    1    3    3  502    0 -0.39395041382E+03  0.23993703168E+03  0.10945626627E+04  0.11877853890E+04  0.25500000920E-02 0.  1.
       -2    1    3    3    0  502  0.39395041382E+03 -0.23993703168E+03 -0.90591768257E+03  0.10165891773E+04  0.25500000920E-02 0. -1.
</event>
<event>
 5   0  0.2284329E-05  0.2194311E+04  0.7818609E-02  0.8520800E-01
        2   -1    0    0  501    0  0.00000000000E+00  0.00000000000E+00  0.22587377730E+04  0.22587377730E+04  0.25500000920E-02 0.  1.
       -2   -1    0    0    0  501  0.00000000000E+00  0.00000000000E+00 -0.53293069321E+03  0.53293069322E+03  0.25500000920E-02 0. -1.
    10030    2    1    2    0    0  0.00000000000E+00  0.00000000000E+00  0.17258070798E+04  0.27916684662E+04  0.21943114521E+04 0.  0.
        2    1    3    3  502    0 -0.99291178395E+03  0.39254643425E+03  0.11842119085E+04  0.15944667943E+04  0.25500000920E-02 0.  1.
       -2    1    3    3    0  502  0.99291178395E+03 -0.39254643425E+03  0.54159517128E+03  0.11972016719E+04  0.25500000920E-02 0. -1.
</event>
<event>
 5   0  0.1005538E-05  0.2263051E+04  0.7818609E-02  0.8492634E-01
       -1   -1    0    0    0  501  0.00000000000E+00  0.00000000000E+00  0.75017255410E+03  0.75017255412E+03  0.50400001928E-02 0. -1.
        1   -1    0    0  501    0  0.00000000000E+00  0.00000000000E+00 -0.17067399974E+04  0.17067399974E+04  0.50400001928E-02 0.  1.
    10030    2    1    2    0    0  0.00000000000E+00  0.00000000000E+00 -0.95656744331E+03  0.24569125515E+04  0.22630505987E+04 0.  0.
        3    1    3    3  502    0 -0.26709644152E+03 -0.68167294254E+03 -0.14149361928E+04  0.15931299224E+04  0.10100000352E+00 0.  1.
       -3    1    3    3    0  502  0.26709644152E+03  0.68167294254E+03  0.45836874952E+03  0.86378262914E+03  0.10100000352E+00 0. -1.
</event>
<event>
 5   0  0.1049198E-05  0.2199660E+04  0.7818609E-02  0.8518570E-01
        1   -1    0    0  501    0  0.00000000000E+00  0.00000000000E+00  0.93506311050E+03  0.93506311052E+03  0.50400001928E-02 0.  1.
       -1   -1    0    0    0  501  0.00000000000E+00  0.00000000000E+00 -0.12936305803E+04  0.12936305803E+04  0.50400001928E-02 0. -1.
    10030    2    1    2    0    0  0.00000000000E+00  0.00000000000E+00 -0.35856746982E+03  0.22286936908E+04  0.21996601868E+04 0.  0.
        1    1    3    3  502    0  0.99825434542E+03 -0.54147877922E+02  0.28522412775E+03  0.10396136465E+04  0.50400001928E-02 0.  1.
       -1    1    3    3    0  502 -0.99825434542E+03  0.54147877922E+02 -0.64379159756E+03  0.11890800444E+04  0.50400001928E-02 0. -1.
</event>
<event>
 5   0  0.2229552E-05  0.2189459E+04  0.7818609E-02  0.8522828E-01
        2   -1    0    0  501    0  0.00000000000E+00  0.00000000000E+00  0.88346966515E+03  0.88346966516E+03  0.25500000920E-02 0. -1.
       -2   -1    0    0    0  501  0.00000000000E+00  0.00000000000E+00 -0.13565068085E+04  0.13565068085E+04  0.25500000920E-02 0.  1.
    10030    2    1    2    0    0  0.00000000000E+00  0.00000000000E+00 -0.47303714335E+03  0.22399764737E+04  0.21894589431E+04 0.  0.
        1    1    3    3  502    0  0.28318452389E+03  0.25718336513E+03  0.81286511061E+03  0.89837990068E+03  0.50400001928E-02 0. -1.
       -1    1    3    3    0  502 -0.28318452389E+03 -0.25718336513E+03 -0.12859022540E+04  0.13415965730E+04  0.50400001928E-02 0.  1.
</event>
<event>
 5   0  0.2289708E-05  0.2198661E+04  0.7818609E-02  0.8518986E-01
       -2   -1    0    0    0  501  0.00000000000E+00  0.00000000000E+00  0.93305999462E+03  0.93305999462E+03  0.25500000920E-02 0.  1.
        2   -1    0    0  501    0  0.00000000000E+00  0.00000000000E+00 -0.12952306437E+04  0.12952306437E+04  0.25500000920E-02 0. -1.
    10030    2    1    2    0    0  0.00000000000E+00  0.00000000000E+00 -0.36217064906E+03  0.22282906383E+04  0.21986613176E+04 0.  0.
        5    1    3    3  502    0  0.10344185283E+04  0.95466709276E+02  0.18344248306E+03  0.10548975395E+04  0.46999998093E+01 0.  1.
       -5    1    3    3    0  502 -0.10344185283E+04 -0.95466709276E+02 -0.54561313213E+03  0.11733930988E+04  0.46999998093E+01 0. -1.
</event>
<event>
 5   0  0.1007682E-05  0.2201027E+04  0.7818609E-02  0.8518001E-01
       -1   -1    0    0    0  501  0.00000000000E+00  0.00000000000E+00  0.90486213632E+03  0.90486213633E+03  0.50400001928E-02 0.  1.
        1   -1    0    0  501    0  0.00000000000E+00  0.00000000000E+00 -0.13384685973E+04  0.13384685973E+04  0.50400001928E-02 0. -1.
    10030    2    1    2    0    0  0.00000000000E+00  0.00000000000E+00 -0.43360646099E+03  0.22433307337E+04  0.22010266281E+04 0.  0.
        2    1    3    3  502    0  0.54834225930E+02 -0.64229087531E+03 -0.11259025978E+04  0.12973823725E+04  0.25500000920E-02 0. -1.
       -2    1    3    3    0  502 -0.54834225930E+02  0.64229087531E+03  0.69229613681E+03  0.94594836111E+03  0.25500000920E-02 0.  1.
</event>
<event>
 5   0  0.1007682E-05  0.2198604E+04  0.7818609E-02  0.8519009E-01
        1   -1    0    0  501    0  0.00000000000E+00  0.00000000000E+00  0.13041781593E+04  0.13041781593E+04  0.50400001928E-02 0.  1.
       -1   -1    0    0    0  501  0.00000000000E+00  0.00000000000E+00 -0.92661030953E+03  0.92661030954E+03  0.50400001928E-02 0. -1.
    10030    2    1    2    0    0  0.00000000000E+00  0.00000000000E+00  0.37756784981E+03  0.22307884689E+04  0.21986040371E+04 0.  0.
        2    1    3    3  502    0 -0.80332156217E+03 -0.60285935348E+03 -0.26463578788E+03  0.10386515453E+04  0.25500000920E-02 0. -1.
       -2    1    3    3    0  502  0.80332156217E+03  0.60285935348E+03  0.64220363769E+03  0.11921369236E+04  0.25500000920E-02 0.  1.
</event>
<event>
 5   0  0.1005538E-05  0.2191215E+04  0.7818609E-02  0.8522094E-01
        1   -1    0    0  501    0  0.00000000000E+00  0.00000000000E+00  0.24089744390E+04  0.24089744391E+04  0.50400001928E-02 0. -1.
       -1   -1    0    0    0  501  0.00000000000E+00  0.00000000000E+00 -0.49828499570E+03  0.49828499573E+03  0.50400001928E-02 0.  1.
    10030    2    1    2    0    0  0.00000000000E+00  0.00000000000E+00  0.19106894433E+04  0.29072594348E+04  0.21912150219E+04 0.  0.
        3    1    3    3  502    0 -0.31017732610E+03  0.16281573611E+03  0.23326652262E+04  0.23588230127E+04  0.10100000352E+00 0. -1.
       -3    1    3    3    0  502  0.31017732610E+03 -0.16281573611E+03 -0.42197578285E+03  0.54843642208E+03  0.10100000352E+00 0.  1.
</event>
<event>
 5   0  0.2319707E-05  0.2221166E+04  0.7818609E-02  0.8509670E-01
       -2   -1    0    0    0  501  0.00000000000E+00  0.00000000000E+00  0.90832156136E+03  0.90832156136E+03  0.25500000920E-02 0.  1.
        2   -1    0    0  501    0  0.00000000000E+00  0.00000000000E+00 -0.13578826820E+04  0.13578826820E+04  0.25500000920E-02 0. -1.
    10030    2    1    2    0    0  0.00000000000E+00  0.00000000000E+00 -0.44956112067E+03  0.22662042434E+04  0.22211655660E+04 0.  0.
        3    1    3    3  502    0  0.75743534910E+03  0.48029232413E+03  0.44348539282E+03  0.10005340217E+04  0.10100000352E+00 0.  1.
       -3    1    3    3    0  502 -0.75743534910E+03 -0.48029232413E+03 -0.89304651349E+03  0.12656702217E+04  0.10100000352E+00 0. -1.
</event>
<event>
 5   0  0.1033733E-05  0.2193480E+04  0.7818609E-02  0.8521147E-01
        1   -1    0    0  501    0  0.00000000000E+00  0.00000000000E+00  0.20982687714E+04  0.20982687714E+04  0.50400001928E-02 0.  1.
       -1   -1    0    0    0  501  0.00000000000E+00  0.00000000000E+00 -0.57325301491E+03  0.57325301493E+03  0.50400001928E-02 0. -1.
    10030    2    1    2    0    0  0.00000000000E+00  0.00000000000E+00  0.15250157565E+04  0.26715217863E+04  0.21934802478E+04 0.  0.
        5    1    3    3  502    0 -0.20441265005E+03 -0.17946410060E+03 -0.53150406694E+03  0.59708505096E+03  0.46999998093E+01 0. -1.
       -5    1    3    3    0  502  0.20441265005E+03  0.17946410060E+03  0.20565198234E+04  0.20744367354E+04  0.46999998093E+01 0.  1.
</event>
<event>
 5   0  0.1007682E-05  0.2193164E+04  0.7818609E-02  0.8521279E-01
       -1   -1    0    0    0  501  0.00000000000E+00  0.00000000000E+00  0.14433376949E+04  0.14433376950E+04  0.50400001928E-02 0.  1.
        1   -1    0    0  501    0  0.00000000000E+00  0.00000000000E+00 -0.83313312313E+03  0.83313312314E+03  0.50400001928E-02 0. -1.
    10030    2    1    2    0    0  0.00000000000E+00  0.00000000000E+00  0.61020457182E+03  0.22764708181E+04  0.21931643272E+04 0.  0.
        2    1    3    3  502    0 -0.77317805468E+03 -0.63525447789E+03 -0.16041950357E+03  0.10134529950E+04  0.25500000920E-02 0. -1.
       -2    1    3    3    0  502  0.77317805468E+03  0.63525447789E+03  0.77062407539E+03  0.12630178231E+04  0.25500000920E-02 0.  1.
</event>
<event>
 5   0  0.2319707E-05  0.2209966E+04  0.7818609E-02  0.8514292E-01
        2   -1    0    0  501    0  0.00000000000E+00  0.00000000000E+00  0.93015193106E+03  0.93015193107E+03  0.25500000920E-02 0. -1.
       -2   -1    0    0    0  501  0.00000000000E+00  0.00000000000E+00 -0.13126747581E+04  0.13126747581E+04  0.25500000920E-02 0.  1.
    10030    2    1    2    0    0  0.00000000000E+00  0.00000000000E+00 -0.38252282701E+03  0.22428266891E+04  0.22099655754E+04 0.  0.
        3    1    3    3  502    0  0.77413727073E+03  0.63883001863E+03 -0.66029655888E+03  0.12014091154E+04  0.10100000352E+00 0. -1.
       -3    1    3    3    0  502 -0.77413727073E+03 -0.63883001863E+03  0.27777373187E+03  0.10414175738E+04  0.10100000352E+00 0.  1.
</event>
<event>
 5   0  0.2289708E-05  0.2194760E+04  0.7818609E-02  0.8520612E-01
        2   -1    0    0  501    0  0.00000000000E+00  0.00000000000E+00  0.17687902267E+04  0.17687902267E+04  0.25500000920E-02 0. -1.
       -2   -1    0    0    0  501  0.00000000000E+00  0.00000000000E+00 -0.68082880696E+03  0.68082880696E+03  0.25500000920E-02 0.  1.
    10030    2    1    2    0    0  0.00000000000E+00  0.00000000000E+00  0.10879614198E+04  0.24496190337E+04  0.21947604332E+04 0.  0.
        5    1    3    3  502    0  0.36156651470E+03  0.69716169061E+03  0.13994398599E+04  0.16047488211E+04  0.46999998093E+01 0. -1.
       -5    1    3    3    0  502 -0.36156651470E+03 -0.69716169061E+03 -0.31147844015E+03  0.84487021256E+03  0.46999998093E+01 0.  1.
</event>
<event>
 5   0  0.2289708E-05  0.2158335E+04  0.7818609E-02  0.8535973E-01
       -2   -1    0    0    0  501  0.00000000000E+00  0.00000000000E+00  0.57941020642E+03  0.57941020643E+03  0.25500000920E-02 0. -1.
        2   -1    0    0  501    0  0.00000000000E+00  0.00000000000E+00 -0.20099786768E+04  0.20099786768E+04  0.25500000920E-02 0.  1.
    10030    2    1    2    0    0  0.00000000000E+00  0.00000000000E+00 -0.14305684704E+04  0.25893888832E+04  0.21583346914E+04 0.  0.
        5    1    3    3  502    0 -0.57087080082E+03  0.82754798271E+03 -0.11858589178E+04  0.15546744346E+04  0.46999998093E+01 0.  1.
       -5    1    3    3    0  502  0.57087080082E+03 -0.82754798271E+03 -0.24470955259E+03  0.10347144486E+04  0.46999998093E+01 0. -1.
</event>
<event>
 5   0  0.2289708E-05  0.2245041E+04  0.7818609E-02  0.8499912E-01
        2   -1    0    0  501    0  0.00000000000E+00  0.00000000000E+00  0.27929045870E+04  0.27929045870E+04  0.25500000920E-02 0. -1.
       -2   -1    0    0    0  501  0.00000000000E+00  0.00000000000E+00 -0.45116182304E+03  0.45116182304E+03  0.25500000920E-02 0.  1.
    10030    2    1    2    0    0  0.00000000000E+00  0.00000000000E+00  0.23417427640E+04  0.32440664101E+04  0.22450406901E+04 0.  0.
        5    1    3    3  502    0 -0.36890744355E+03 -0.98074268692E+03  0.17526147750E+04  0.20419670809E+04  0.46999998093E+01 0. -1.
       -5    1    3    3    0  502  0.36890744355E+03  0.98074268692E+03  0.58912798901E+03  0.12020993292E+04  0.46999998093E+01 0.  1.
</event>
<event>
 5   0  0.2284329E-05  0.2183662E+04  0.7818609E-02  0.8525259E-01
       -2   -1    0    0    0  501  0.00000000000E+00  0.00000000000E+00  0.81637665938E+03  0.81637665939E+03  0.25500000920E-02 0.  1.
        2   -1    0    0  501    0  0.00000000000E+00  0.00000000000E+00 -0.14602268255E+04  0.14602268255E+04  0.25500000920E-02 0. -1.
    10030    2    1    2    0    0  0.00000000000E+00  0.00000000000E+00 -0.64385016607E+03  0.22766034848E+04  0.21836621513E+04 0.  0.
        2    1    3    3  502    0  0.53617475200E+03  0.61779328837E+03 -0.10758519217E+04  0.13515210946E+04  0.25500000920E-02 0. -1.
       -2    1    3    3    0  502 -0.53617475200E+03 -0.61779328837E+03  0.43200175561E+03  0.92508239022E+03  0.25500000920E-02 0.  1.
</event>
<event>
 5   0  0.2298329E-05  0.2193377E+04  0.7818609E-02  0.8521190E-01
       -2   -1    0    0    0  501  0.00000000000E+00  0.00000000000E+00  0.13573760732E+04  0.13573760733E+04  0.25500000920E-02 0.  1.
        2   -1    0    0  501    0  0.00000000000E+00  0.00000000000E+00 -0.88606698662E+03  0.88606698662E+03  0.25500000920E-02 0. -1.
    10030    2    1    2    0    0  0.00000000000E+00  0.00000000000E+00  0.47130908663E+03  0.22434430599E+04  0.21933774203E+04 0.  0.
        4    1    3    3  502    0 -0.30237278686E+03  0.64977735394E+03  0.10847137113E+04  0.13000943659E+04  0.12699999809E+01 0.  1.
       -4    1    3    3    0  502  0.30237278686E+03 -0.64977735394E+03 -0.61340462467E+03  0.94334869395E+03  0.12699999809E+01 0. -1.
</event>
<event>
 5   0  0.2319707E-05  0.2198317E+04  0.7818609E-02  0.8519129E-01
        2   -1    0    0  501    0  0.00000000000E+00  0.00000000000E+00  0.25302872564E+04  0.25302872564E+04  0.25500000920E-02 0. -1.
       -2   -1    0    0    0  501  0.00000000000E+00  0.00000000000E+00 -0.47747534232E+03  0.47747534233E+03  0.25500000920E-02 0.  1.
    10030    2    1    2    0    0  0.00000000000E+00  0.00000000000E+00  0.20528119141E+04  0.30077625987E+04  0.21983173328E+04 0.  0.
        3    1    3    3  502    0 -0.10407592609E+04  0.14190707787E+03  0.58340900334E+03  0.12015338253E+04  0.10100000352E+00 0.  1.
       -3    1    3    3    0  502  0.10407592609E+04 -0.14190707787E+03  0.14694029108E+04  0.18062287735E+04  0.10100000352E+00 0. -1.
</event>
<event>
 5   0  0.2289708E-05  0.2199143E+04  0.7818609E-02  0.8518785E-01
       -2   -1    0    0    0  501  0.00000000000E+00  0.00000000000E+00  0.85619329883E+03  0.85619329883E+03  0.25500000920E-02 0.  1.
        2   -1    0    0  501    0  0.00000000000E+00  0.00000000000E+00 -0.14121312264E+04  0.14121312265E+04  0.25500000920E-02 0. -1.
    10030    2    1    2    0    0  0.00000000000E+00  0.00000000000E+00 -0.55593792762E+03  0.22683245253E+04  0.21991428268E+04 0.  0.
        5    1    3    3  502    0  0.10562017497E+04  0.33623326796E+02  0.35469765435E+02  0.10573423563E+04  0.46999998093E+01 0. -1.
       -5    1    3    3    0  502 -0.10562017497E+04 -0.33623326796E+02 -0.59140769305E+03  0.12109821690E+04  0.46999998093E+01 0.  1.
</event>
<event>
 5   0  0.2229552E-05  0.2189170E+04  0.7818609E-02  0.8522949E-01
       -2   -1    0    0    0  501  0.00000000000E+00  0.00000000000E+00  0.55326126583E+03  0.55326126584E+03  0.25500000920E-02 0.  1.
        2   -1    0    0  501    0  0.00000000000E+00  0.00000000000E+00 -0.21655521281E+04  0.21655521281E+04  0.25500000920E-02 0. -1.
    10030    2    1    2    0    0  0.00000000000E+00  0.00000000000E+00 -0.16122908623E+04  0.27188133940E+04  0.21891698076E+04 0.  0.
        1    1    3    3  502    0 -0.27816877267E+03 -0.21414183510E+03 -0.20937432996E+04  0.21229685811E+04  0.50400001928E-02 0. -1.
       -1    1    3    3    0  502  0.27816877267E+03  0.21414183510E+03  0.48145243730E+03  0.59584481288E+03  0.50400001928E-02 0.  1.
</event>
<event>
 5   0  0.8003875E-06  0.2199208E+04  0.7818609E-02  0.8518758E-01
        3   -1    0    0  501    0  0.00000000000E+00  0.00000000000E+00  0.14514344234E+04  0.14514344269E+04  0.10100000352E+00 0.  1.
       -3   -1    0    0    0  501  0.00000000000E+00  0.00000000000E+00 -0.83305819170E+03  0.83305819782E+03  0.10100000352E+00 0. -1.
    10030    2    1    2    0    0  0.00000000000E+00  0.00000000000E+00  0.61837623165E+03  0.22844926247E+04  0.21992083549E+04 0.  0.
        5    1    3    3  502    0 -0.87055858543E+03 -0.67701785108E+02  0.10034251376E+04  0.13301653578E+04  0.46999998093E+01 0.  1.
       -5    1    3    3    0  502  0.87055858543E+03  0.67701785108E+02 -0.38504890593E+03  0.95432726689E+03  0.46999998093E+01 0. -1.
</event>
<event>
 5   0  0.2229552E-05  0.2177700E+04  0.7818609E-02  0.8527768E-01
        2   -1    0    0  501    0  0.00000000000E+00  0.00000000000E+00  0.16289302719E+04  0.16289302719E+04  0.25500000920E-02 0. -1.
       -2   -1    0    0    0  501  0.00000000000E+00  0.00000000000E+00 -0.72783609052E+03  0.72783609052E+03  0.25500000920E-02 0.  1.
    10030    2    1    2    0    0  0.00000000000E+00  0.00000000000E+00  0.90109418142E+03  0.23567663625E+04  0.21776999250E+04 0.  0.
        1    1    3    3  502    0  0.78496487654E+03  0.29493632056E+03 -0.30114291583E+03  0.89097943094E+03  0.50400001928E-02 0.  1.
       -1    1    3    3    0  502 -0.78496487654E+03 -0.29493632056E+03  0.12022370973E+04  0.14657869315E+04  0.50400001928E-02 0. -1.
</event>
<event>
 5   0  0.1007682E-05  0.2212091E+04  0.7818609E-02  0.8513412E-01
        1   -1    0    0  501    0  0.00000000000E+00  0.00000000000E+00  0.30137901211E+04  0.30137901211E+04  0.50400001928E-02 0.  1.
       -1   -1    0    0    0  501  0.00000000000E+00  0.00000000000E+00 -0.40591299646E+03  0.40591299649E+03  0.50400001928E-02 0. -1.
    10030    2    1    2    0    0  0.00000000000E+00  0.00000000000E+00  0.26078771247E+04  0.34197031176E+04  0.22120909374E+04 0.  0.
        2    1    3    3  502    0  0.13408888360E+03 -0.88504018788E+03  0.23082602521E+04  0.24757506648E+04  0.25500000920E-02 0.  1.
       -2    1    3    3    0  502 -0.13408888360E+03  0.88504018788E+03  0.29961687258E+03  0.94395245283E+03  0.25500000920E-02 0. -1.
</event>
<event>
 5   0  0.2319707E-05  0.2191142E+04  0.7818609E-02  0.8522124E-01
       -2   -1    0    0    0  501  0.00000000000E+00  0.00000000000E+00  0.70443704886E+03  0.70443704887E+03  0.25500000920E-02 0.  1.
        2   -1    0    0  501    0  0.00000000000E+00  0.00000000000E+00 -0.17038801464E+04  0.17038801464E+04  0.25500000920E-02 0. -1.
    10030    2    1    2    0    0  0.00000000000E+00  0.00000000000E+00 -0.99944309758E+03  0.24083171953E+04  0.21911424436E+04 0.  0.
        3    1    3    3  502    0 -0.76761470562E+03 -0.44301552862E+03 -0.12075900791E+04  0.14979215280E+04  0.10100000352E+00 0. -1.
       -3    1    3    3    0  502  0.76761470562E+03  0.44301552862E+03  0.20814698149E+03  0.91039566727E+03  0.10100000352E+00 0.  1.
</event>
<event>
 5   0  0.1071208E-05  0.2206329E+04  0.7818609E-02  0.8515799E-01
        1   -1    0    0  501    0  0.00000000000E+00  0.00000000000E+00  0.10439645055E+04  0.10439645056E+04  0.50400001928E-02 0.  1.
       -1   -1    0    0    0  501  0.00000000000E+00  0.00000000000E+00 -0.11657212231E+04  0.11657212231E+04  0.50400001928E-02 0. -1.
    10030    2    1    2    0    0  0.00000000000E+00  0.00000000000E+00 -0.12175671756E+03  0.22096857287E+04  0.22063286975E+04 0.  0.
        4    1    3    3  502    0  0.43888830094E+02 -0.10547145732E+04 -0.38171075990E+03  0.11225211701E+04  0.12699999809E+01 0. -1.
       -4    1    3    3    0  502 -0.43888830094E+02  0.10547145732E+04  0.25995404234E+03  0.10871645585E+04  0.12699999809E+01 0.  1.
</event>
<event>
 5   0  0.1049198E-05  0.2201798E+04  0.7818609E-02  0.8517680E-01
        1   -1    0    0  501    0  0.00000000000E+00  0.00000000000E+00  0.16506119416E+04  0.16506119416E+04  0.50400001928E-02 0. -1.
       -1   -1    0    0    0  501  0.00000000000E+00  0.00000000000E+00 -0.73426021416E+03  0.73426021418E+03  0.50400001928E-02 0.  1.
    10030    2    1    2    0    0  0.00000000000E+00  0.00000000000E+00  0.91635172741E+03  0.23848721558E+04  0.22017980632E+04 0.  0.
        1    1    3    3  502    0  0.38201776755E+03  0.41070929831E+03  0.14842310577E+04  0.15866825565E+04  0.50400001928E-02 0. -1.
       -1    1    3    3    0  502 -0.38201776755E+03 -0.41070929831E+03 -0.56787933034E+03  0.79818959921E+03  0.50400001928E-02 0.  1.
</event>
<event>
 5   0  0.1033733E-05  0.2185483E+04  0.7818609E-02  0.8524495E-01
        1   -1    0    0  501    0  0.00000000000E+00  0.00000000000E+00  0.11110175528E+04  0.11110175528E+04  0.50400001928E-02 0. -1.
       -1   -1    0    0    0  501  0.00000000000E+00  0.00000000000E+00 -0.10747660127E+04  0.10747660127E+04  0.50400001928E-02 0.  1.
    10030    2    1    2    0    0  0.00000000000E+00  0.00000000000E+00  0.36251540122E+02  0.21857835655E+04  0.21854829262E+04 0.  0.
        5    1    3    3  502    0  0.79422620883E+03  0.22343003248E+03  0.73470570860E+03  0.11047763658E+04  0.46999998093E+01 0. -1.
       -5    1    3    3    0  502 -0.79422620883E+03 -0.22343003248E+03 -0.69845416848E+03  0.10810071996E+04  0.46999998093E+01 0.  1.
</event>
<event>
 5   0  0.2298329E-05  0.2196926E+04  0.7818609E-02  0.8519709E-01
       -2   -1    0    0    0  501  0.00000000000E+00  0.00000000000E+00  0.62401414545E+03  0.62401414545E+03  0.25500000920E-02 0.  1.
        2   -1    0    0  501    0  0.00000000000E+00  0.00000000000E+00 -0.19336432382E+04  0.19336432382E+04  0.25500000920E-02 0. -1.
    10030    2    1    2    0    0  0.00000000000E+00  0.00000000000E+00 -0.13096290927E+04  0.25576573836E+04  0.21969257911E+04 0.  0.
        4    1    3    3  502    0  0.97581330418E+02  0.10564192307E+04 -0.98630541103E+03  0.14485660785E+04  0.12699999809E+01 0. -1.
       -4    1    3    3    0  502 -0.97581330418E+02 -0.10564192307E+04 -0.32332368171E+03  0.11090913051E+04  0.12699999809E+01 0.  1.
</event>
<event>
 5   0  0.1007682E-05  0.2182504E+04  0.7818609E-02  0.8525746E-01
        1   -1    0    0  501    0  0.00000000000E+00  0.00000000000E+00  0.21782019515E+04  0.21782019515E+04  0.50400001928E-02 0. -1.
       -1   -1    0    0    0  501  0.00000000000E+00  0.00000000000E+00 -0.54670358895E+03  0.54670358897E+03  0.50400001928E-02 0.  1.
    10030    2    1    2    0    0  0.00000000000E+00  0.00000000000E+00  0.16314983626E+04  0.27249055405E+04  0.21825039055E+04 0.  0.
        2    1    3    3  502    0 -0.17627712462E+03 -0.10596480192E+04  0.10555931919E+04  0.15060559538E+04  0.25500000920E-02 0.  1.
       -2    1    3    3    0  502  0.17627712462E+03  0.10596480192E+04  0.57590517070E+03  0.12188495867E+04  0.25500000920E-02 0. -1.
</event>
<event>
 5   0  0.2284329E-05  0.2198823E+04  0.7818609E-02  0.8518918E-01
        2   -1    0    0  501    0  0.00000000000E+00  0.00000000000E+00  0.67464824228E+03  0.67464824228E+03  0.25500000920E-02 0.  1.
       -2   -1    0    0    0  501  0.00000000000E+00  0.00000000000E+00 -0.17916094234E+04  0.17916094234E+04  0.25500000920E-02 0. -1.
    10030    2    1    2    0    0  0.00000000000E+00  0.00000000000E+00 -0.11169611811E+04  0.24662576657E+04  0.21988234566E+04 0.  0.
        2    1    3    3  502    0 -0.27357482784E+03 -0.85489127207E+03 -0.12705354816E+04  0.15556164963E+04  0.25500000920E-02 0. -1.
       -2    1    3    3    0  502  0.27357482784E+03  0.85489127207E+03  0.15357430056E+03  0.91064116933E+03  0.25500000920E-02 0.  1.
</event>
<event>
 5   0  0.2229552E-05  0.2195932E+04  0.7818609E-02  0.8520123E-01
        2   -1    0    0  501    0  0.00000000000E+00  0.00000000000E+00  0.21928976214E+04  0.21928976214E+04  0.25500000920E-02 0.  1.
       -2   -1    0    0    0  501  0.00000000000E+00  0.00000000000E+00 -0.54974243884E+03  0.54974243885E+03  0.25500000920E-02 0. -1.
    10030    2    1    2    0    0  0.00000000000E+00  0.00000000000E+00  0.16431551825E+04  0.27426400602E+04  0.21959315896E+04 0.  0.
        1    1    3    3  502    0 -0.91240895244E+02  0.63942851065E+03 -0.28735579472E+03  0.70694205843E+03  0.50400001928E-02 0. -1.
       -1    1    3    3    0  502  0.91240895244E+02 -0.63942851065E+03  0.19305109773E+04  0.20356980018E+04  0.50400001928E-02 0.  1.
</event>
<event>
 5   0  0.2289708E-05  0.2148930E+04  0.7818609E-02  0.8539990E-01
        2   -1    0    0  501    0  0.00000000000E+00  0.00000000000E+00  0.10529854669E+04  0.10529854669E+04  0.25500000920E-02 0. -1.
       -2   -1    0    0    0  501  0.00000000000E+00  0.00000000000E+00 -0.10963824831E+04  0.10963824831E+04  0.25500000920E-02 0.  1.
    10030    2    1    2    0    0  0.00000000000E+00  0.00000000000E+00 -0.43397016204E+02  0.21493679500E+04  0.21489297996E+04 0.  0.
        5    1    3    3  502    0  0.28265107560E+03  0.58744566858E+02 -0.10568540535E+04  0.10955843806E+04  0.46999998093E+01 0.  1.
       -5    1    3    3    0  502 -0.28265107560E+03 -0.58744566858E+02  0.10134570373E+04  0.10537835694E+04  0.46999998093E+01 0. -1.
</event>
<event>
 5   0  0.1007682E-05  0.2181639E+04  0.7818609E-02  0.8526109E-01
        1   -1    0    0  501    0  0.00000000000E+00  0.00000000000E+00  0.89979410626E+03  0.89979410627E+03  0.50400001928E-02 0.  1.
       -1   -1    0    0    0  501  0.00000000000E+00  0.00000000000E+00 -0.13223996463E+04  0.13223996463E+04  0.50400001928E-02 0. -1.
    10030    2    1    2    0    0  0.00000000000E+00  0.00000000000E+00 -0.42260554005E+03  0.22221937526E+04  0.21816392075E+04 0.  0.
        2    1    3    3  502    0  0.98485329784E+03  0.28104408758E+03 -0.59373596393E+03  0.11838260819E+04  0.25500000920E-02 0. -1.
       -2    1    3    3    0  502 -0.98485329784E+03 -0.28104408758E+03  0.17113042388E+03  0.10383676706E+04  0.25500000920E-02 0.  1.
</event>
<event>
 5   0  0.1071208E-05  0.2170386E+04  0.7818609E-02  0.8530856E-01
       -1   -1    0    0    0  501  0.00000000000E+00  0.00000000000E+00  0.10445336731E+04  0.10445336731E+04  0.50400001928E-02 0.  1.
        1   -1    0    0  501    0  0.00000000000E+00  0.00000000000E+00 -0.11274348708E+04  0.11274348708E+04  0.50400001928E-02 0. -1.
    10030    2    1    2    0    0  0.00000000000E+00  0.00000000000E+00 -0.82901197722E+02  0.21719685439E+04  0.21703858522E+04 0.  0.
        4    1    3    3  502    0 -0.76621851278E+03 -0.62968088114E+03 -0.48228659022E+03  0.11028104050E+04  0.12699999809E+01 0. -1.
       -4    1    3    3    0  502  0.76621851278E+03  0.62968088114E+03  0.39938539249E+03  0.10691581389E+04  0.12699999809E+01 0.  1.
</event>
<event>
 5   0  0.2298329E-05  0.2199356E+04  0.7818609E-02  0.8518696E-01
       -2   -1    0    0    0  501  0.00000000000E+00  0.00000000000E+00  0.12789491901E+04  0.12789491901E+04  0.25500000920E-02 0.  1.
        2   -1    0    0  501    0  0.00000000000E+00  0.00000000000E+00 -0.94553495349E+03  0.94553495349E+03  0.25500000920E-02 0. -1.
    10030    2    1    2    0    0  0.00000000000E+00  0.00000000000E+00  0.33341423658E+03  0.22244841436E+04  0.21993555083E+04 0.  0.
        4    1    3    3  502    0  0.42042686701E+03 -0.96360712552E+03 -0.15945541251E+03  0.10633555776E+04  0.12699999809E+01 0. -1.
       -4    1    3    3    0  502 -0.42042686701E+03  0.96360712552E+03  0.49286964908E+03  0.11611285660E+04  0.12699999809E+01 0.  1.
</event>
<event>
 5   0  0.2319707E-05  0.2222778E+04  0.7818609E-02  0.8509007E-01
       -2   -1    0    0    0  501  0.00000000000E+00  0.00000000000E+00  0.11259599956E+04  0.11259599956E+04  0.25500000920E-02 0.  1.
        2   -1    0    0  501    0  0.00000000000E+00  0.00000000000E+00 -0.10970065474E+04  0.10970065474E+04  0.25500000920E-02 0. -1.
    10030    2    1    2    0    0  0.00000000000E+00  0.00000000000E+00  0.28953448284E+02  0.22229665430E+04  0.22227779802E+04 0.  0.
        3    1    3    3  502    0  0.36526714436E+03 -0.81595746097E+03 -0.64586620595E+03  0.11028825101E+04  0.10100000352E+00 0. -1.
       -3    1    3    3    0  502 -0.36526714436E+03  0.81595746097E+03  0.67481965424E+03  0.11200840329E+04  0.10100000352E+00 0.  1.
</event>
<event>
 5   0  0.1049198E-05  0.2199049E+04  0.7818609E-02  0.8518824E-01
        1   -1    0    0  501    0  0.00000000000E+00  0.00000000000E+00  0.12392527293E+04  0.12392527294E+04  0.50400001928E-02 0. -1.
       -1   -1    0    0    0  501  0.00000000000E+00  0.00000000000E+00 -0.97555101305E+03  0.97555101306E+03  0.50400001928E-02 0.  1.
    10030    2    1    2    0    0  0.00000000000E+00  0.00000000000E+00  0.26370171630E+03  0.22148037424E+04  0.21990491177E+04 0.  0.
        1    1    3    3  502    0 -0.44929303738E+03  0.40787281175E+03 -0.79163135992E+03  0.99744908342E+03  0.50400001928E-02 0.  1.
       -1    1    3    3    0  502  0.44929303738E+03 -0.40787281175E+03  0.10553330762E+04  0.12173546590E+04  0.50400001928E-02 0. -1.
</event>
<event>
 5   0  0.1005538E-05  0.2207207E+04  0.7818609E-02  0.8515434E-01
        1   -1    0    0  501    0  0.00000000000E+00  0.00000000000E+00  0.17880069025E+04  0.17880069025E+04  0.50400001928E-02 0.  1.
       -1   -1    0    0    0  501  0.00000000000E+00  0.00000000000E+00 -0.68117226382E+03  0.68117226384E+03  0.50400001928E-02 0. -1.
    10030    2    1    2    0    0  0.00000000000E+00  0.00000000000E+00  0.11068346386E+04  0.24691791663E+04  0.22072070220E+04 0.  0.
        3    1    3    3  502    0  0.52163832066E+02 -0.10166909978E+04  0.76746589750E+02  0.10209170875E+04  0.10100000352E+00 0. -1.
       -3    1    3    3    0  502 -0.52163832066E+02  0.10166909978E+04  0.10300880489E+04  0.14482620788E+04  0.10100000352E+00 0.  1.
</event>
<event>
 5   0  0.1007682E-05  0.2201598E+04  0.7818609E-02  0.8517763E-01
       -1   -1    0    0    0  501  0.00000000000E+00  0.00000000000E+00  0.86173822976E+03  0.86173822978E+03  0.50400001928E-02 0.  1.
        1   -1    0    0  501    0  0.00000000000E+00  0.00000000000E+00 -0.14061796262E+04  0.14061796262E+04  0.50400001928E-02 0. -1.
    10030    2    1    2    0    0  0.00000000000E+00  0.00000000000E+00 -0.54444139643E+03  0.22679178560E+04  0.22015982756E+04 0.  0.
        2    1    3    3  502    0 -0.97968249825E+03 -0.28960992433E+02  0.24401626310E+03  0.10100299367E+04  0.25500000920E-02 0.  1.
       -2    1    3    3    0  502  0.97968249825E+03  0.28960992433E+02 -0.78845765953E+03  0.12578879192E+04  0.25500000920E-02 0. -1.
</event>
<event>
 5   0  0.1007682E-05  0.2201925E+04  0.7818609E-02  0.8517627E-01
       -1   -1    0    0    0  501  0.00000000000E+00  0.00000000000E+00  0.13961146832E+04  0.13961146832E+04  0.50400001928E-02 0.  1.
        1   -1    0    0  501    0  0.00000000000E+00  0.00000000000E+00 -0.86820811086E+03  0.86820811088E+03  0.50400001928E-02 0. -1.
    10030    2    1    2    0    0  0.00000000000E+00  0.00000000000E+00  0.52790657235E+03  0.22643227941E+04  0.22019246960E+04 0.  0.
        2    1    3    3  502    0 -0.20200431789E+03  0.10320465975E+04  0.59905922096E+03  0.12102883434E+04  0.25500000920E-02 0.  1.
       -2    1    3    3    0  502  0.20200431789E+03 -0.10320465975E+04 -0.71152648613E+02  0.10540344507E+04  0.25500000920E-02 0. -1.
</event>
<event>
 5   0  0.2289708E-05  0.2194517E+04  0.7818609E-02  0.8520714E-01
        2   -1    0    0  501    0  0.00000000000E+00  0.00000000000E+00  0.98302418566E+03  0.98302418567E+03  0.25500000920E-02 0. -1.
       -2   -1    0    0    0  501  0.00000000000E+00  0.00000000000E+00 -0.12247676624E+04  0.12247676624E+04  0.25500000920E-02 0.  1.
    10030    2    1    2    0    0  0.00000000000E+00  0.00000000000E+00 -0.24174347671E+03  0.22077918480E+04  0.21945170165E+04 0.  0.
        5    1    3    3  502    0 -0.19096486118E+03  0.30588624936E+03  0.92169813682E+03  0.98973911773E+03  0.46999998093E+01 0. -1.
       -5    1    3    3    0  502  0.19096486118E+03 -0.30588624936E+03 -0.11634416135E+04  0.12180527303E+04  0.46999998093E+01 0.  1.
</event>
<event>
 5   0  0.1033733E-05  0.2216106E+04  0.7818609E-02  0.8511754E-01
       -1   -1    0    0    0  501  0.00000000000E+00  0.00000000000E+00  0.90376806942E+03  0.90376806943E+03  0.50400001928E-02 0.  1.
        1   -1    0    0  501    0  0.00000000000E+00  0.00000000000E+00 -0.13585133027E+04  0.13585133027E+04  0.50400001928E-02 0. -1.
    10030    2    1    2    0    0  0.00000000000E+00  0.00000000000E+00 -0.45474523324E+03  0.22622813721E+04  0.22161055434E+04 0.  0.
        5    1    3    3  502    0  0.19584497649E+03 -0.53435212118E+03  0.74315859007E+03  0.93605246873E+03  0.46999998093E+01 0.  1.
       -5    1    3    3    0  502 -0.19584497649E+03  0.53435212118E+03 -0.11979038233E+04  0.13262289034E+04  0.46999998093E+01 0. -1.
</event>
<event>
 5   0  0.1005538E-05  0.2200346E+04  0.7818609E-02  0.8518284E-01
       -1   -1    0    0    0  501  0.00000000000E+00  0.00000000000E+00  0.12801898978E+04  0.12801898978E+04  0.50400001928E-02 0.  1.
        1   -1    0    0  501    0  0.00000000000E+00  0.00000000000E+00 -0.94546996450E+03  0.94546996451E+03  0.50400001928E-02 0. -1.
    10030    2    1    2    0    0  0.00000000000E+00  0.00000000000E+00  0.33471993327E+03  0.22256598623E+04  0.22003464247E+04 0.  0.
        3    1    3    3  502    0  0.48218819532E+03 -0.79303899540E+03  0.76488833984E+03  0.12026930143E+04  0.10100000352E+00 0.  1.
       -3    1    3    3    0  502 -0.48218819532E+03  0.79303899540E+03 -0.43016840658E+03  0.10229668480E+04  0.10100000352E+00 0. -1.
</event>
<event>
 5   0  0.1033733E-05  0.2204291E+04  0.7818609E-02  0.8516644E-01
        1   -1    0    0  501    0  0.00000000000E+00  0.00000000000E+00  0.20113582684E+04  0.20113582684E+04  0.50400001928E-02 0. -1.
       -1   -1    0    0    0  501  0.00000000000E+00  0.00000000000E+00 -0.60393240405E+03  0.60393240407E+03  0.50400001928E-02 0.  1.
    10030    2    1    2    0    0  0.00000000000E+00  0.00000000000E+00  0.14074258643E+04  0.26152906725E+04  0.22042907562E+04 0.  0.
        5    1    3    3  502    0  0.48984724304E+02  0.34027667356E+03 -0.53867807758E+03  0.63904919924E+03  0.46999998093E+01 0.  1.
       -5    1    3    3    0  502 -0.48984724304E+02 -0.34027667356E+03  0.19461039419E+04  0.19762414732E+04  0.46999998093E+01 0. -1.
</event>
<event>
 5   0  0.1049198E-05  0.2189117E+04  0.7818609E-02  0.8522972E-01
        1   -1    0    0  501    0  0.00000000000E+00  0.00000000000E+00  0.12050942468E+04  0.12050942468E+04  0.50400001928E-02 0. -1.
       -1   -1    0    0    0  501  0.00000000000E+00  0.00000000000E+00 -0.99416155764E+03  0.99416155766E+03  0.50400001928E-02 0.  1.
    10030    2    1    2    0    0  0.00000000000E+00  0.00000000000E+00  0.21093268912E+03  0.21992558044E+04  0.21891170581E+04 0.  0.
        1    1    3    3  502    0  0.55773702473E+03  0.43621721661E+03  0.94401910237E+03  0.11800542846E+04  0.50400001928E-02 0. -1.
       -1    1    3    3    0  502 -0.55773702473E+03 -0.43621721661E+03 -0.73308641325E+03  0.10192015199E+04  0.50400001928E-02 0.  1.
</event>
<event>
 5   0  0.2284329E-05  0.2201994E+04  0.7818609E-02  0.8517599E-01
        2   -1    0    0  501    0  0.00000000000E+00  0.00000000000E+00  0.16587089888E+04  0.16587089888E+04  0.25500000920E-02 0.  1.
       -2   -1    0    0    0  501  0.00000000000E+00  0.00000000000E+00 -0.73080596518E+03  0.73080596519E+03  0.25500000920E-02 0. -1.
    10030    2    1    2    0    0  0.00000000000E+00  0.00000000000E+00  0.92790302364E+03  0.23895149540E+04  0.22019940268E+04 0.  0.
        2    1    3    3  502    0 -0.18622742125E+03 -0.10440250487E+04  0.78499276268E+03  0.13194250991E+04  0.25500000920E-02 0. -1.
       -2    1    3    3    0  502  0.18622742125E+03  0.10440250487E+04  0.14291026096E+03  0.10700898549E+04  0.25500000920E-02 0.  1.
</event>
<event>
 5   0  0.2229552E-05  0.2196081E+04  0.7818609E-02  0.8520061E-01
       -2   -1    0    0    0  501  0.00000000000E+00  0.00000000000E+00  0.56283363816E+03  0.56283363817E+03  0.25500000920E-02 0. -1.
        2   -1    0    0  501    0  0.00000000000E+00  0.00000000000E+00 -0.21421843534E+04  0.21421843534E+04  0.25500000920E-02 0.  1.
    10030    2    1    2    0    0  0.00000000000E+00  0.00000000000E+00 -0.15793507152E+04  0.27050179915E+04  0.21960814313E+04 0.  0.
        1    1    3    3  502    0  0.15841658439E+03 -0.21064287927E+03 -0.21026438503E+04  0.21190982512E+04  0.50400001928E-02 0.  1.
       -1    1    3    3    0  502 -0.15841658439E+03  0.21064287927E+03  0.52329313515E+03  0.58591974034E+03  0.50400001928E-02 0. -1.
</event>
<event>
 5   0  0.1033733E-05  0.2201218E+04  0.7818609E-02  0.8517921E-01
        1   -1    0    0  501    0  0.00000000000E+00  0.00000000000E+00  0.12381144508E+04  0.12381144508E+04  0.50400001928E-02 0. -1.
       -1   -1    0    0    0  501  0.00000000000E+00  0.00000000000E+00 -0.97837527149E+03  0.97837527150E+03  0.50400001928E-02 0.  1.
    10030    2    1    2    0    0  0.00000000000E+00  0.00000000000E+00  0.25973917930E+03  0.22164897223E+04  0.22012183553E+04 0.  0.
        5    1    3    3  502    0  0.38407400902E+03 -0.22524052595E+03 -0.88362824163E+03  0.98947819498E+03  0.46999998093E+01 0.  1.
       -5    1    3    3    0  502 -0.38407400902E+03  0.22524052595E+03  0.11433674209E+04  0.12270115273E+04  0.46999998093E+01 0. -1.
</event>
<event>
 5   0  0.1007682E-05  0.2195378E+04  0.7818609E-02  0.8520355E-01
       -1   -1    0    0    0  501  0.00000000000E+00  0.00000000000E+00  0.64023957172E+03  0.64023957174E+03  0.50400001928E-02 0.  1.
        1   -1    0    0  501    0  0.00000000000E+00  0.00000000000E+00 -0.18819840128E+04  0.18819840128E+04  0.50400001928E-02 0. -1.
    10030    2    1    2    0    0  0.00000000000E+00  0.00000000000E+00 -0.12417444411E+04  0.25222235846E+04  0.21953775424E+04 0.  0.
        2    1    3    3  502    0 -0.89051924345E+02  0.10499464983E+04 -0.97423941746E+03  0.14350819966E+04  0.25500000920E-02 0. -1.
       -2    1    3    3    0  502  0.89051924345E+02 -0.10499464983E+04 -0.26750502366E+03  0.10871415879E+04  0.25500000920E-02 0.  1.
</event>
<event>
 5   0  0.1005538E-05  0.2195346E+04  0.7818609E-02  0.8520368E-01
        1   -1    0    0  501    0  0.00000000000E+00  0.00000000000E+00  0.16728060690E+04  0.16728060690E+04  0.50400001928E-02 0. -1.
       -1   -1    0    0    0  501  0.00000000000E+00  0.00000000000E+00 -0.72027826906E+03  0.72027826908E+03  0.50400001928E-02 0.  1.
    10030    2    1    2    0    0  0.00000000000E+00  0.00000000000E+00  0.95252779990E+03  0.23930843381E+04  0.21953458587E+04 0.  0.
        3    1    3    3  502    0 -0.14984832397E+02 -0.10212045056E+04  0.37785821002E+02  0.10220131927E+04  0.10100000352E+00 0. -1.
       -3    1    3    3    0  502  0.14984832397E+02  0.10212045056E+04  0.91474197890E+03  0.13710711454E+04  0.10100000352E+00 0.  1.
</event>
<event>
 5   0  0.2284329E-05  0.2199005E+04  0.7818609E-02  0.8518843E-01
       -2   -1    0    0    0  501  0.00000000000E+00  0.00000000000E+00  0.73677252039E+03  0.73677252040E+03  0.25500000920E-02 0. -1.
        2   -1    0    0  501    0  0.00000000000E+00  0.00000000000E+00 -0.16408122190E+04  0.16408122190E+04  0.25500000920E-02 0.  1.
    10030    2    1    2    0    0  0.00000000000E+00  0.00000000000E+00 -0.90403969857E+03  0.23775847394E+04  0.21990046422E+04 0.  0.
        2    1    3    3  502    0  0.63713616797E+03  0.60654126268E+03 -0.11651843283E+04  0.14599620950E+04  0.25500000920E-02 0.  1.
       -2    1    3    3    0  502 -0.63713616797E+03 -0.60654126268E+03  0.26114462971E+03  0.91762264439E+03  0.25500000920E-02 0. -1.
</event>
<event>
 5   0  0.2229552E-05  0.2192513E+04  0.7818609E-02  0.8521551E-01
       -2   -1    0    0    0  501  0.00000000000E+00  0.00000000000E+00  0.77722546991E+03  0.77722546991E+03  0.25500000920E-02 0.  1.
        2   -1    0    0  501    0  0.00000000000E+00  0.00000000000E+00 -0.15462417798E+04  0.15462417798E+04  0.25500000920E-02 0. -1.
    10030    2    1    2    0    0  0.00000000000E+00  0.00000000000E+00 -0.76901630986E+03  0.23234672497E+04  0.21925131643E+04 0.  0.
        1    1    3    3  502    0  0.10660461623E+04 -0.39330044406E+02 -0.65213343967E+03  0.12503116794E+04  0.50400001928E-02 0. -1.
       -1    1    3    3    0  502 -0.10660461623E+04  0.39330044406E+02 -0.11688287019E+03  0.10731555702E+04  0.50400001928E-02 0.  1.
</event>
<event>
 5   0  0.1049198E-05  0.2201715E+04  0.7818609E-02  0.8517715E-01
        1   -1    0    0  501    0  0.00000000000E+00  0.00000000000E+00  0.95610705252E+03  0.95610705254E+03  0.50400001928E-02 0.  1.
       -1   -1    0    0    0  501  0.00000000000E+00  0.00000000000E+00 -0.12675224520E+04  0.12675224520E+04  0.50400001928E-02 0. -1.
    10030    2    1    2    0    0  0.00000000000E+00  0.00000000000E+00 -0.31141539947E+03  0.22236295045E+04  0.22017149276E+04 0.  0.
        1    1    3    3  502    0 -0.54639319536E+03  0.56490000999E+03 -0.93424331603E+03  0.12208472954E+04  0.50400001928E-02 0. -1.
       -1    1    3    3    0  502  0.54639319536E+03 -0.56490000999E+03  0.62282791655E+03  0.10027822091E+04  0.50400001928E-02 0.  1.
</event>
<event>
 5   0  0.2284329E-05  0.2203185E+04  0.7818609E-02  0.8517104E-01
        2   -1    0    0  501    0  0.00000000000E+00  0.00000000000E+00  0.13112092093E+04  0.13112092093E+04  0.25500000920E-02 0.  1.
       -2   -1    0    0    0  501  0.00000000000E+00  0.00000000000E+00 -0.92548630121E+03  0.92548630121E+03  0.25500000920E-02 0. -1.
    10030    2    1    2    0    0  0.00000000000E+00  0.00000000000E+00  0.38572290809E+03  0.22366955105E+04  0.22031851136E+04 0.  0.
        2    1    3    3  502    0  0.22908204999E+03 -0.94279194275E+03  0.72249653677E+03  0.12096844541E+04  0.25500000920E-02 0.  1.
       -2    1    3    3    0  502 -0.22908204999E+03  0.94279194275E+03 -0.33677362868E+03  0.10270110564E+04  0.25500000920E-02 0. -1.
</event>
<event>
 5   0  0.1071208E-05  0.2183562E+04  0.7818609E-02  0.8525301E-01
        1   -1    0    0  501    0  0.00000000000E+00  0.00000000000E+00  0.16365951886E+04  0.16365951886E+04  0.50400001928E-02 0.  1.
       -1   -1    0    0    0  501  0.00000000000E+00  0.00000000000E+00 -0.72833274701E+03  0.72833274703E+03  0.50400001928E-02 0. -1.
    10030    2    1    2    0    0  0.00000000000E+00  0.00000000000E+00  0.90826244158E+03  0.23649279356E+04  0.21835621076E+04 0.  0.
        4    1    3    3  502    0 -0.26304854056E+03  0.10592180960E+04  0.42261535912E+03  0.11703601430E+04  0.12699999809E+01 0.  1.
       -4    1    3    3    0  502  0.26304854056E+03 -0.10592180960E+04  0.48564708246E+03  0.11945677926E+04  0.12699999809E+01 0. -1.
</event>
<event>
 5   0  0.1005538E-05  0.2201877E+04  0.7818609E-02  0.8517647E-01
       -1   -1    0    0    0  501  0.00000000000E+00  0.00000000000E+00  0.75672381016E+03  0.75672381017E+03  0.50400001928E-02 0. -1.
        1   -1    0    0  501    0  0.00000000000E+00  0.00000000000E+00 -0.16017282179E+04  0.16017282179E+04  0.50400001928E-02 0.  1.
    10030    2    1    2    0    0  0.00000000000E+00  0.00000000000E+00 -0.84500440776E+03  0.23584520281E+04  0.22018772717E+04 0.  0.
        3    1    3    3  502    0 -0.10934760811E+04 -0.12709006027E+03 -0.40646964525E+03  0.11734817451E+04  0.10100000352E+00 0. -1.
       -3    1    3    3    0  502  0.10934760811E+04  0.12709006027E+03 -0.43853476251E+03  0.11849702830E+04  0.10100000352E+00 0.  1.
</event>
<event>
 5   0  0.2289708E-05  0.2204116E+04  0.7818609E-02  0.8516717E-01
       -2   -1    0    0    0  501  0.00000000000E+00  0.00000000000E+00  0.13485034559E+04  0.13485034559E+04  0.25500000920E-02 0.  1.
        2   -1    0    0  501    0  0.00000000000E+00  0.00000000000E+00 -0.90065183065E+03  0.90065183065E+03  0.25500000920E-02 0. -1.
    10030    2    1    2    0    0  0.00000000000E+00  0.00000000000E+00  0.44785162522E+03  0.22491552865E+04  0.22041162457E+04 0.  0.
        5    1    3    3  502    0  0.60057077182E+03 -0.60763158904E+03  0.93428910470E+03  0.12660251266E+04  0.46999998093E+01 0.  1.
       -5    1    3    3    0  502 -0.60057077182E+03  0.60763158904E+03 -0.48643747948E+03  0.98313015995E+03  0.46999998093E+01 0. -1.
</event>
<event>
 5   0  0.2284329E-05  0.2198366E+04  0.7818609E-02  0.8519109E-01
       -2   -1    0    0    0  501  0.00000000000E+00  0.00000000000E+00  0.11430063856E+04  0.11430063856E+04  0.25500000920E-02 0. -1.
        2   -1    0    0  501    0  0.00000000000E+00  0.00000000000E+00 -0.10570395467E+04  0.10570395467E+04  0.25500000920E-02 0.  1.
    10030    2    1    2    0    0  0.00000000000E+00  0.00000000000E+00  0.85966838885E+02  0.22000459322E+04  0.21983657126E+04 0.  0.
        2    1    3    3  502    0 -0.75783153280E+02  0.30056055757E+03  0.10983619613E+04  0.11412619038E+04  0.25500000920E-02 0. -1.
       -2    1    3    3    0  502  0.75783153280E+02 -0.30056055757E+03 -0.10123951224E+04  0.10587840284E+04  0.25500000920E-02 0.  1.
</event>
<event>
 5   0  0.8003875E-06  0.2201712E+04  0.7818609E-02  0.8517716E-01
        3   -1    0    0  501    0  0.00000000000E+00  0.00000000000E+00  0.10111276223E+04  0.10111276273E+04  0.10100000352E+00 0.  1.
       -3   -1    0    0    0  501  0.00000000000E+00  0.00000000000E+00 -0.11985469243E+04  0.11985469285E+04  0.10100000352E+00 0. -1.
    10030    2    1    2    0    0  0.00000000000E+00  0.00000000000E+00 -0.18741930198E+03  0.22096745559E+04  0.22017119812E+04 0.  0.
        1    1    3    3  502    0  0.11904727685E+03  0.33165756361E+03 -0.11404171886E+04  0.11936165036E+04  0.50400001928E-02 0. -1.
       -1    1    3    3    0  502 -0.11904727685E+03 -0.33165756361E+03  0.95299788662E+03  0.10160580523E+04  0.50400001928E-02 0.  1.
</event>
<event>
 5   0  0.1033733E-05  0.2198994E+04  0.7818609E-02  0.8518847E-01
       -1   -1    0    0    0  501  0.00000000000E+00  0.00000000000E+00  0.10012964461E+04  0.10012964461E+04  0.50400001928E-02 0. -1.
        1   -1    0    0  501    0  0.00000000000E+00  0.00000000000E+00 -0.12073289312E+04  0.12073289313E+04  0.50400001928E-02 0.  1.
    10030    2    1    2    0    0  0.00000000000E+00  0.00000000000E+00 -0.20603248517E+03  0.22086253774E+04  0.21989944685E+04 0.  0.
        5    1    3    3  502    0 -0.37990891303E+03  0.52056225513E+03 -0.99773547957E+03  0.11877769239E+04  0.46999998093E+01 0.  1.
       -5    1    3    3    0  502  0.37990891303E+03 -0.52056225513E+03  0.79170299440E+03  0.10208484535E+04  0.46999998093E+01 0. -1.
</event>
<event>
 5   0  0.1007682E-05  0.2181026E+04  0.7818609E-02  0.8526367E-01
        1   -1    0    0  501    0  0.00000000000E+00  0.00000000000E+00  0.14699807353E+04  0.14699807353E+04  0.50400001928E-02 0.  1.
       -1   -1    0    0    0  501  0.00000000000E+00  0.00000000000E+00 -0.80900275118E+03  0.80900275119E+03  0.50400001928E-02 0. -1.
    10030    2    1    2    0    0  0.00000000000E+00  0.00000000000E+00  0.66097798409E+03  0.22789834865E+04  0.21810258678E+04 0.  0.
        2    1    3    3  502    0  0.33834411890E+03 -0.10347555937E+04  0.39676137360E+03  0.11587128501E+04  0.25500000920E-02 0. -1.
       -2    1    3    3    0  502 -0.33834411890E+03  0.10347555937E+04  0.26421661049E+03  0.11202706364E+04  0.25500000920E-02 0.  1.
</event>
<event>
 5   0  0.1049198E-05  0.2205703E+04  0.7818609E-02  0.8516058E-01
        1   -1    0    0  501    0  0.00000000000E+00  0.00000000000E+00  0.14521169175E+04  0.14521169175E+04  0.50400001928E-02 0.  1.
       -1   -1    0    0    0  501  0.00000000000E+00  0.00000000000E+00 -0.83759227133E+03  0.83759227134E+03  0.50400001928E-02 0. -1.
    10030    2    1    2    0    0  0.00000000000E+00  0.00000000000E+00  0.61452464618E+03  0.22897091889E+04  0.22057034317E+04 0.  0.
        1    1    3    3  502    0 -0.51617817669E+03  0.93539206630E+03  0.23191391360E+02  0.10686140877E+04  0.50400001928E-02 0. -1.
       -1    1    3    3    0  502  0.51617817669E+03 -0.93539206630E+03  0.59133325482E+03  0.12210951012E+04  0.50400001928E-02 0.  1.
</event>
<event>
 5   0  0.2284329E-05  0.2162803E+04  0.7818609E-02  0.8534072E-01
        2   -1    0    0  501    0  0.00000000000E+00  0.00000000000E+00  0.24085774881E+04  0.24085774882E+04  0.25500000920E-02 0. -1.
       -2   -1    0    0    0  501  0.00000000000E+00  0.00000000000E+00 -0.48552694221E+03  0.48552694222E+03  0.25500000920E-02 0.  1.
    10030    2    1    2    0    0  0.00000000000E+00  0.00000000000E+00  0.19230505459E+04  0.28941044304E+04  0.21628030543E+04 0.  0.
        2    1    3    3  502    0 -0.63171597601E+03 -0.69823776366E+03  0.24988815962E+03  0.97418947915E+03  0.25500000920E-02 0.  1.
       -2    1    3    3    0  502  0.63171597601E+03  0.69823776366E+03  0.16731623863E+04  0.19199149512E+04  0.25500000920E-02 0. -1.
</event>
<event>
 5   0  0.1049198E-05  0.2200997E+04  0.7818609E-02  0.8518013E-01
       -1   -1    0    0    0  501  0.00000000000E+00  0.00000000000E+00  0.15369263267E+04  0.15369263267E+04  0.50400001928E-02 0. -1.
        1   -1    0    0  501    0  0.00000000000E+00  0.00000000000E+00 -0.78799958675E+03  0.78799958676E+03  0.50400001928E-02 0.  1.
    10030    2    1    2    0    0  0.00000000000E+00  0.00000000000E+00  0.74892673991E+03  0.23249259134E+04  0.22009973288E+04 0.  0.
        1    1    3    3  502    0  0.35144137873E+03  0.71558513875E+03  0.11758117970E+04  0.14206007587E+04  0.50400001928E-02 0. -1.
       -1    1    3    3    0  502 -0.35144137873E+03 -0.71558513875E+03 -0.42688505713E+03  0.90432515475E+03  0.50400001928E-02 0.  1.
</event>
<event>
 5   0  0.2289708E-05  0.2200523E+04  0.7818609E-02  0.8518211E-01
        2   -1    0    0  501    0  0.00000000000E+00  0.00000000000E+00  0.72927060091E+03  0.72927060092E+03  0.25500000920E-02 0.  1.
       -2   -1    0    0    0  501  0.00000000000E+00  0.00000000000E+00 -0.16599807092E+04  0.16599807092E+04  0.25500000920E-02 0. -1.
    10030    2    1    2    0    0  0.00000000000E+00  0.00000000000E+00 -0.93071010827E+03  0.23892513101E+04  0.22005227827E+04 0.  0.
        5    1    3    3  502    0  0.17164533296E+03  0.64699127469E+03 -0.14134546330E+04  0.15639488225E+04  0.46999998093E+01 0. -1.
       -5    1    3    3    0  502 -0.17164533296E+03 -0.64699127469E+03  0.48274452474E+03  0.82530248759E+03  0.46999998093E+01 0.  1.
</event>
<event>
 5   0  0.1005538E-05  0.2189654E+04  0.7818609E-02  0.8522747E-01
        1   -1    0    0  501    0  0.00000000000E+00  0.00000000000E+00  0.16322740766E+04  0.16322740766E+04  0.50400001928E-02 0. -1.
       -1   -1    0    0    0  501  0.00000000000E+00  0.00000000000E+00 -0.73434141859E+03  0.73434141861E+03  0.50400001928E-02 0.  1.
    10030    2    1    2    0    0  0.00000000000E+00  0.00000000000E+00  0.89793265799E+03  0.23666154952E+04  0.21896542750E+04 0.  0.
        3    1    3    3  502    0  0.90221418113E+03  0.21088087366E+03  0.10793571961E+04  0.14224883614E+04  0.10100000352E+00 0. -1.
       -3    1    3    3    0  502 -0.90221418113E+03 -0.21088087366E+03 -0.18142453808E+03  0.94412713377E+03  0.10100000352E+00 0.  1.
</event>
<event>
 5   0  0.8003875E-06  0.2204014E+04  0.7818609E-02  0.8516759E-01
        3   -1    0    0  501    0  0.00000000000E+00  0.00000000000E+00  0.15025650854E+04  0.15025650888E+04  0.10100000352E+00 0. -1.
       -3   -1    0    0    0  501  0.00000000000E+00  0.00000000000E+00 -0.80823061769E+03  0.80823062400E+03  0.10100000352E+00 0.  1.
    10030    2    1    2    0    0  0.00000000000E+00  0.00000000000E+00  0.69433446770E+03  0.23107957128E+04  0.22040137189E+04 0.  0.
        4    1    3    3  502    0  0.29340453337E+03 -0.62885780680E+02 -0.76457261161E+03  0.82134872797E+03  0.12699999809E+01 0.  1.
       -4    1    3    3    0  502 -0.29340453337E+03  0.62885780680E+02  0.14589070793E+04  0.14894469848E+04  0.12699999809E+01 0. -1.
</event>
<event>
 5   0  0.1033733E-05  0.2200674E+04  0.7818609E-02  0.8518147E-01
        1   -1    0    0  501    0  0.00000000000E+00  0.00000000000E+00  0.15913288495E+04  0.15913288495E+04  0.50400001928E-02 0.  1.
       -1   -1    0    0    0  501  0.00000000000E+00  0.00000000000E+00 -0.76083707113E+03  0.76083707115E+03  0.50400001928E-02 0. -1.
    10030    2    1    2    0    0  0.00000000000E+00  0.00000000000E+00  0.83049177835E+03  0.23521659206E+04  0.22006744249E+04 0.  0.
        5    1    3    3  502    0 -0.18432437355E+03  0.28661408321E+01 -0.74420328164E+03  0.76671005200E+03  0.46999998093E+01 0. -1.
       -5    1    3    3    0  502  0.18432437355E+03 -0.28661408321E+01  0.15746950600E+04  0.15854558686E+04  0.46999998093E+01 0.  1.
</event>
<event>
 5   0  0.2284329E-05  0.2201582E+04  0.7818609E-02  0.8517770E-01
       -2   -1    0    0    0  501  0.00000000000E+00  0.00000000000E+00  0.85021620294E+03  0.85021620294E+03  0.25500000920E-02 0. -1.
        2   -1    0    0  501    0  0.00000000000E+00  0.00000000000E+00 -0.14252149437E+04  0.14252149437E+04  0.25500000920E-02 0.  1.
    10030    2    1    2    0    0  0.00000000000E+00  0.00000000000E+00 -0.57499874080E+03  0.22754311467E+04  0.22015820110E+04 0.  0.
        2    1    3    3  502    0  0.25211002572E+03  0.10469822555E+04 -0.51793557698E+02  0.10781529952E+04  0.25500000920E-02 0.  1.
       -2    1    3    3    0  502 -0.25211002572E+03 -0.10469822555E+04 -0.52320518310E+03  0.11972781515E+04  0.25500000920E-02 0. -1.
</event>
<event>
 5   0  0.8003875E-06  0.2192139E+04  0.7818609E-02  0.8521707E-01
        3   -1    0    0  501    0  0.00000000000E+00  0.00000000000E+00  0.89606697941E+03  0.89606698510E+03  0.10100000352E+00 0. -1.
       -3   -1    0    0    0  501  0.00000000000E+00  0.00000000000E+00 -0.13407124593E+04  0.13407124631E+04  0.10100000352E+00 0.  1.
    10030    2    1    2    0    0  0.00000000000E+00  0.00000000000E+00 -0.44464547993E+03  0.22367794482E+04  0.21921388408E+04 0.  0.
        1    1    3    3  502    0  0.94189170881E+01 -0.63537650475E+03 -0.11335803906E+04  0.12995370410E+04  0.50400001928E-02 0.  1.
       -1    1    3    3    0  502 -0.94189170881E+01  0.63537650475E+03  0.68893491071E+03  0.93724240728E+03  0.50400001928E-02 0. -1.
</event>
<event>
 5   0  0.1049198E-05  0.2199490E+04  0.7818609E-02  0.8518640E-01
        1   -1    0    0  501    0  0.00000000000E+00  0.00000000000E+00  0.13324480403E+04  0.13324480403E+04  0.50400001928E-02 0. -1.
       -1   -1    0    0    0  501  0.00000000000E+00  0.00000000000E+00 -0.90768200853E+03  0.90768200854E+03  0.50400001928E-02 0.  1.
    10030    2    1    2    0    0  0.00000000000E+00  0.00000000000E+00  0.42476603177E+03  0.22401300488E+04  0.21994900441E+04 0.  0.
        1    1    3    3  502    0  0.86009430415E+03  0.63494837695E+03 -0.50292177022E+02  0.10702574254E+04  0.50400001928E-02 0.  1.
       -1    1    3    3    0  502 -0.86009430415E+03 -0.63494837695E+03  0.47505820879E+03  0.11698726235E+04  0.50400001928E-02 0. -1.
</event>
<event>
 5   0  0.2284329E-05  0.2197452E+04  0.7818609E-02  0.8519490E-01
        2   -1    0    0  501    0  0.00000000000E+00  0.00000000000E+00  0.17666291698E+04  0.17666291698E+04  0.25500000920E-02 0. -1.
       -2   -1    0    0    0  501  0.00000000000E+00  0.00000000000E+00 -0.68333436794E+03  0.68333436794E+03  0.25500000920E-02 0.  1.
    10030    2    1    2    0    0  0.00000000000E+00  0.00000000000E+00  0.10832948019E+04  0.24499635378E+04  0.21974516396E+04 0.  0.
        2    1    3    3  502    0 -0.94578072833E+03 -0.47059448801E+03  0.87841347737E+03  0.13738888585E+04  0.25500000920E-02 0.  1.
       -2    1    3    3    0  502  0.94578072833E+03  0.47059448801E+03  0.20488132449E+03  0.10760746793E+04  0.25500000920E-02 0. -1.
</event>
<event>
 5   0  0.1007682E-05  0.2197650E+04  0.7818609E-02  0.8519407E-01
       -1   -1    0    0    0  501  0.00000000000E+00  0.00000000000E+00  0.51257130019E+03  0.51257130021E+03  0.50400001928E-02 0.  1.
        1   -1    0    0  501    0  0.00000000000E+00  0.00000000000E+00 -0.23556075568E+04  0.23556075568E+04  0.50400001928E-02 0. -1.
    10030    2    1    2    0    0  0.00000000000E+00  0.00000000000E+00 -0.18430362566E+04  0.28681788570E+04  0.21976504073E+04 0.  0.
        2    1    3    3  502    0 -0.60858333835E+03  0.58065651052E+03 -0.18442616587E+04  0.20270265732E+04  0.25500000920E-02 0. -1.
       -2    1    3    3    0  502  0.60858333835E+03 -0.58065651052E+03  0.12254020410E+01  0.84115228380E+03  0.25500000920E-02 0.  1.
</event>
<event>
 5   0  0.1007682E-05  0.2199846E+04  0.7818609E-02  0.8518492E-01
        1   -1    0    0  501    0  0.00000000000E+00  0.00000000000E+00  0.52130061469E+03  0.52130061471E+03  0.50400001928E-02 0.  1.
       -1   -1    0    0    0  501  0.00000000000E+00  0.00000000000E+00 -0.23207922662E+04  0.23207922662E+04  0.50400001928E-02 0. -1.
    10030    2    1    2    0    0  0.00000000000E+00  0.00000000000E+00 -0.17994916515E+04  0.28420928809E+04  0.21998458446E+04 0.  0.
        2    1    3    3  502    0  0.73524323777E+03 -0.39416496413E+03  0.26396293394E+02  0.83465286314E+03  0.25500000920E-02 0.  1.
       -2    1    3    3    0  502 -0.73524323777E+03  0.39416496413E+03 -0.18258879449E+04  0.20074400178E+04  0.25500000920E-02 0. -1.
</event>
<event>
 5   0  0.1071208E-05  0.2188126E+04  0.7818609E-02  0.8523387E-01
        1   -1    0    0  501    0  0.00000000000E+00  0.00000000000E+00  0.11851009730E+04  0.11851009731E+04  0.50400001928E-02 0.  1.
       -1   -1    0    0    0  501  0.00000000000E+00  0.00000000000E+00 -0.10100186514E+04  0.10100186514E+04  0.50400001928E-02 0. -1.
    10030    2    1    2    0    0  0.00000000000E+00  0.00000000000E+00  0.17508232163E+03  0.21951196245E+04  0.21881262181E+04 0.  0.
        4    1    3    3  502    0  0.46121172942E+03  0.97666816736E+03  0.26238389023E+03  0.11115052349E+04  0.12699999809E+01 0.  1.
       -4    1    3    3    0  502 -0.46121172942E+03 -0.97666816736E+03 -0.87301568597E+02  0.10836143896E+04  0.12699999809E+01 0. -1.
</event>
<event>
 5   0  0.1071208E-05  0.2203008E+04  0.7818609E-02  0.8517177E-01
        1   -1    0    0  501    0  0.00000000000E+00  0.00000000000E+00  0.18339829880E+04  0.18339829880E+04  0.50400001928E-02 0. -1.
       -1   -1    0    0    0  501  0.00000000000E+00  0.00000000000E+00 -0.66157170772E+03  0.66157170774E+03  0.50400001928E-02 0.  1.
    10030    2    1    2    0    0  0.00000000000E+00  0.00000000000E+00  0.11724112803E+04  0.24955546958E+04  0.22030081773E+04 0.  0.
        4    1    3    3  502    0  0.86978871430E+03  0.66747804807E+03  0.70635816080E+03  0.13042249869E+04  0.12699999809E+01 0.  1.
       -4    1    3    3    0  502 -0.86978871430E+03 -0.66747804807E+03  0.46605311952E+03  0.11913297089E+04  0.12699999809E+01 0. -1.
</event>
<event>
 5   0  0.1033733E-05  0.2207321E+04  0.7818609E-02  0.8515387E-01
       -1   -1    0    0    0  501  0.00000000000E+00  0.00000000000E+00  0.42580575908E+03  0.42580575911E+03  0.50400001928E-02 0. -1.
        1   -1    0    0  501    0  0.00000000000E+00  0.00000000000E+00 -0.28606159387E+04  0.28606159387E+04  0.50400001928E-02 0.  1.
    10030    2    1    2    0    0  0.00000000000E+00  0.00000000000E+00 -0.24348101796E+04  0.32864216978E+04  0.22073212193E+04 0.  0.
        5    1    3    3  502    0  0.25777174699E+02  0.59934580713E+03 -0.25966554225E+04  0.26650555965E+04  0.46999998093E+01 0.  1.
       -5    1    3    3    0  502 -0.25777174699E+02 -0.59934580713E+03  0.16184524286E+03  0.62136610134E+03  0.46999998093E+01 0. -1.
</event>
<event>
 5   0  0.1005538E-05  0.2215125E+04  0.7818609E-02  0.8512159E-01
       -1   -1    0    0    0  501  0.00000000000E+00  0.00000000000E+00  0.16836393256E+04  0.16836393256E+04  0.50400001928E-02 0.  1.
        1   -1    0    0  501    0  0.00000000000E+00  0.00000000000E+00 -0.72859711783E+03  0.72859711785E+03  0.50400001928E-02 0. -1.
    10030    2    1    2    0    0  0.00000000000E+00  0.00000000000E+00  0.95504220778E+03  0.24122364435E+04  0.22151250621E+04 0.  0.
        3    1    3    3  502    0  0.68089721880E+03 -0.54975690130E+03  0.12167811159E+04  0.14988028447E+04  0.10100000352E+00 0. -1.
       -3    1    3    3    0  502 -0.68089721880E+03  0.54975690130E+03 -0.26173890812E+03  0.91343359875E+03  0.10100000352E+00 0.  1.
</event>
<event>
 5   0  0.2289708E-05  0.2206803E+04  0.7818609E-02  0.8515602E-01
        2   -1    0    0  501    0  0.00000000000E+00  0.00000000000E+00  0.15852622739E+04  0.15852622739E+04  0.25500000920E-02 0. -1.
       -2   -1    0    0    0  501  0.00000000000E+00  0.00000000000E+00 -0.76800853927E+03  0.76800853928E+03  0.25500000920E-02 0.  1.
    10030    2    1    2    0    0  0.00000000000E+00  0.00000000000E+00  0.81725373463E+03  0.23532708132E+04  0.22068030844E+04 0.  0.
        5    1    3    3  502    0 -0.50677726870E+02 -0.66673639007E+03 -0.52733299670E+03  0.85159134874E+03  0.46999998093E+01 0.  1.
       -5    1    3    3    0  502  0.50677726870E+02  0.66673639007E+03  0.13445867313E+04  0.15016794644E+04  0.46999998093E+01 0. -1.
</event>
<event>
 5   0  0.1033733E-05  0.2230336E+04  0.7818609E-02  0.8505907E-01
        1   -1    0    0  501    0  0.00000000000E+00  0.00000000000E+00  0.25422401845E+04  0.25422401845E+04  0.50400001928E-02 0. -1.
       -1   -1    0    0    0  501  0.00000000000E+00  0.00000000000E+00 -0.48917490279E+03  0.48917490281E+03  0.50400001928E-02 0.  1.
    10030    2    1    2    0    0  0.00000000000E+00  0.00000000000E+00  0.20530652817E+04  0.30314150873E+04  0.22303363829E+04 0.  0.
        5    1    3    3  502    0 -0.54383900550E+03 -0.69252836008E+03  0.19565707973E+04  0.21455879772E+04  0.46999998093E+01 0. -1.
       -5    1    3    3    0  502  0.54383900550E+03  0.69252836008E+03  0.96494484464E+02  0.88582711008E+03  0.46999998093E+01 0.  1.
</event>
<event>
 5   0  0.2229552E-05  0.2186987E+04  0.7818609E-02  0.8523864E-01
        2   -1    0    0  501    0  0.00000000000E+00  0.00000000000E+00  0.21275542963E+04  0.21275542963E+04  0.25500000920E-02 0.  1.
       -2   -1    0    0    0  501  0.00000000000E+00  0.00000000000E+00 -0.56202007646E+03  0.56202007647E+03  0.25500000920E-02 0. -1.
    10030    2    1    2    0    0  0.00000000000E+00  0.00000000000E+00  0.15655342199E+04  0.26895743728E+04  0.21869871772E+04 0.  0.
        1    1    3    3  502    0 -0.61073344597E+03 -0.23648552605E+03  0.18596797942E+04  0.19716312239E+04  0.50400001928E-02 0.  1.
       -1    1    3    3    0  502  0.61073344597E+03  0.23648552605E+03 -0.29414557437E+03  0.71794314887E+03  0.50400001928E-02 0. -1.
</event>
<event>
 5   0  0.1005538E-05  0.2193203E+04  0.7818609E-02  0.8521263E-01
        1   -1    0    0  501    0  0.00000000000E+00  0.00000000000E+00  0.19664789542E+04  0.19664789542E+04  0.50400001928E-02 0.  1.
       -1   -1    0    0    0  501  0.00000000000E+00  0.00000000000E+00 -0.61151670351E+03  0.61151670353E+03  0.50400001928E-02 0. -1.
    10030    2    1    2    0    0  0.00000000000E+00  0.00000000000E+00  0.13549622507E+04  0.25779956577E+04  0.21932028886E+04 0.  0.
        3    1    3    3  502    0 -0.12154472024E+03  0.40314075363E+03 -0.51270794910E+03  0.66344934812E+03  0.10100000352E+00 0. -1.
       -3    1    3    3    0  502  0.12154472024E+03 -0.40314075363E+03  0.18676701998E+04  0.19145463096E+04  0.10100000352E+00 0.  1.
</event>
<event>
 5   0  0.1071208E-05  0.2196961E+04  0.7818609E-02  0.8519694E-01
        1   -1    0    0  501    0  0.00000000000E+00  0.00000000000E+00  0.16834052403E+04  0.16834052403E+04  0.50400001928E-02 0.  1.
       -1   -1    0    0    0  501  0.00000000000E+00  0.00000000000E+00 -0.71679681347E+03  0.71679681349E+03  0.50400001928E-02 0. -1.
    10030    2    1    2    0    0  0.00000000000E+00  0.00000000000E+00  0.96660842686E+03  0.24002020538E+04  0.21969610939E+04 0.  0.
        4    1    3    3  502    0 -0.10480804743E+04  0.23407059647E+03  0.23085122921E+03  0.10984332604E+04  0.12699999809E+01 0. -1.
       -4    1    3    3    0  502  0.10480804743E+04 -0.23407059647E+03  0.73575719765E+03  0.13017687934E+04  0.12699999809E+01 0.  1.
</event>
<event>
 5   0  0.2229552E-05  0.2191561E+04  0.7818609E-02  0.8521949E-01
        2   -1    0    0  501    0  0.00000000000E+00  0.00000000000E+00  0.12170271434E+04  0.12170271434E+04  0.25500000920E-02 0. -1.
       -2   -1    0    0    0  501  0.00000000000E+00  0.00000000000E+00 -0.98661350516E+03  0.98661350516E+03  0.25500000920E-02 0.  1.
    10030    2    1    2    0    0  0.00000000000E+00  0.00000000000E+00  0.23041363823E+03  0.22036406486E+04  0.21915614669E+04 0.  0.
        1    1    3    3  502    0 -0.66695555662E+03 -0.75134246908E+03  0.55509972877E+03  0.11478157209E+04  0.50400001928E-02 0. -1.
       -1    1    3    3    0  502  0.66695555662E+03  0.75134246908E+03 -0.32468609054E+03  0.10558249276E+04  0.50400001928E-02 0.  1.
</event>
<event>
 5   0  0.2319707E-05  0.2177969E+04  0.7818609E-02  0.8527654E-01
       -2   -1    0    0    0  501  0.00000000000E+00  0.00000000000E+00  0.17803330799E+04  0.17803330799E+04  0.25500000920E-02 0. -1.
        2   -1    0    0  501    0  0.00000000000E+00  0.00000000000E+00 -0.66610438346E+03  0.66610438347E+03  0.25500000920E-02 0.  1.
    10030    2    1    2    0    0  0.00000000000E+00  0.00000000000E+00  0.11142286965E+04  0.24464374634E+04  0.21779693924E+04 0.  0.
        3    1    3    3  502    0  0.38466046742E+03  0.99478448370E+03  0.80404836609E+03  0.13356847043E+04  0.10100000352E+00 0. -1.
       -3    1    3    3    0  502 -0.38466046742E+03 -0.99478448370E+03  0.31018033039E+03  0.11107527591E+04  0.10100000352E+00 0.  1.
</event>
<event>
 5   0  0.2229552E-05  0.2200226E+04  0.7818609E-02  0.8518334E-01
        2   -1    0    0  501    0  0.00000000000E+00  0.00000000000E+00  0.11814465344E+04  0.11814465344E+04  0.25500000920E-02 0. -1.
       -2   -1    0    0    0  501  0.00000000000E+00  0.00000000000E+00 -0.10243790516E+04  0.10243790516E+04  0.25500000920E-02 0.  1.
    10030    2    1    2    0    0  0.00000000000E+00  0.00000000000E+00  0.15706748273E+03  0.22058255860E+04  0.22002264251E+04 0.  0.
        1    1    3    3  502    0  0.91387930460E+03  0.40383332028E+03  0.54013170533E+03  0.11357812259E+04  0.50400001928E-02 0.  1.
       -1    1    3    3    0  502 -0.91387930460E+03 -0.40383332028E+03 -0.38306422260E+03  0.10700443601E+04  0.50400001928E-02 0. -1.
</event>
<event>
 5   0  0.2319707E-05  0.2199959E+04  0.7818609E-02  0.8518445E-01
       -2   -1    0    0    0  501  0.00000000000E+00  0.00000000000E+00  0.46292240940E+03  0.46292240941E+03  0.25500000920E-02 0. -1.
        2   -1    0    0  501    0  0.00000000000E+00  0.00000000000E+00 -0.26137311575E+04  0.26137311575E+04  0.25500000920E-02 0.  1.
    10030    2    1    2    0    0  0.00000000000E+00  0.00000000000E+00 -0.21508087481E+04  0.30766535669E+04  0.21999588405E+04 0.  0.
        3    1    3    3  502    0 -0.55739113653E+03  0.84986476299E+03 -0.48703463016E+03  0.11270127487E+04  0.10100000352E+00 0. -1.
       -3    1    3    3    0  502  0.55739113653E+03 -0.84986476299E+03 -0.16637741179E+04  0.19496408182E+04  0.10100000352E+00 0.  1.
</event>
<event>
 5   0  0.2284329E-05  0.2204737E+04  0.7818609E-02  0.8516459E-01
        2   -1    0    0  501    0  0.00000000000E+00  0.00000000000E+00  0.10205677184E+04  0.10205677184E+04  0.25500000920E-02 0. -1.
       -2   -1    0    0    0  501  0.00000000000E+00  0.00000000000E+00 -0.11907260525E+04  0.11907260525E+04  0.25500000920E-02 0.  1.
    10030    2    1    2    0    0  0.00000000000E+00  0.00000000000E+00 -0.17015833407E+03  0.22112937709E+04  0.22047372366E+04 0.  0.
        2    1    3    3  502    0 -0.76620190982E+03 -0.72340260831E+02 -0.87667787613E+03  0.11665601478E+04  0.25500000920E-02 0.  1.
       -2    1    3    3    0  502  0.76620190982E+03  0.72340260831E+02  0.70651954206E+03  0.10447336231E+04  0.25500000920E-02 0. -1.
</event>
<event>
 5   0  0.2229552E-05  0.2191582E+04  0.7818609E-02  0.8521940E-01
       -2   -1    0    0    0  501  0.00000000000E+00  0.00000000000E+00  0.66112963984E+03  0.66112963984E+03  0.25500000920E-02 0.  1.
        2   -1    0    0  501    0  0.00000000000E+00  0.00000000000E+00 -0.18162216074E+04  0.18162216074E+04  0.25500000920E-02 0. -1.
    10030    2    1    2    0    0  0.00000000000E+00  0.00000000000E+00 -0.11550919675E+04  0.24773512472E+04  0.21915820196E+04 0.  0.
        1    1    3    3  502    0  0.38828202198E+03 -0.38582118531E+03  0.49551714909E+03  0.73834826518E+03  0.50400001928E-02 0.  1.
       -1    1    3    3    0  502 -0.38828202198E+03  0.38582118531E+03 -0.16506091166E+04  0.17390029820E+04  0.50400001928E-02 0. -1.
</event>
<event>
 5   0  0.1033733E-05  0.2207808E+04  0.7818609E-02  0.8515185E-01
        1   -1    0    0  501    0  0.00000000000E+00  0.00000000000E+00  0.14018157010E+04  0.14018157010E+04  0.50400001928E-02 0. -1.
       -1   -1    0    0    0  501  0.00000000000E+00  0.00000000000E+00 -0.86930397594E+03  0.86930397595E+03  0.50400001928E-02 0.  1.
    10030    2    1    2    0    0  0.00000000000E+00  0.00000000000E+00  0.53251172505E+03  0.22711196769E+04  0.22078079286E+04 0.  0.
        5    1    3    3  502    0 -0.10651358933E+04 -0.70467631807E+02  0.55557134744E+03  0.12033959325E+04  0.46999998093E+01 0. -1.
       -5    1    3    3    0  502  0.10651358933E+04  0.70467631807E+02 -0.23059622392E+02  0.10677237444E+04  0.46999998093E+01 0.  1.
</event>
<event>
 5   0  0.1033733E-05  0.2181830E+04  0.7818609E-02  0.8526029E-01
       -1   -1    0    0    0  501  0.00000000000E+00  0.00000000000E+00  0.13687880844E+04  0.13687880845E+04  0.50400001928E-02 0. -1.
        1   -1    0    0  501    0  0.00000000000E+00  0.00000000000E+00 -0.86945237563E+03  0.86945237564E+03  0.50400001928E-02 0.  1.
    10030    2    1    2    0    0  0.00000000000E+00  0.00000000000E+00  0.49933570882E+03  0.22382404601E+04  0.21818304717E+04 0.  0.
        5    1    3    3  502    0 -0.79945541085E+03  0.66964847974E+03  0.57812703038E+03  0.11923971627E+04  0.46999998093E+01 0. -1.
       -5    1    3    3    0  502  0.79945541085E+03 -0.66964847974E+03 -0.78791321563E+02  0.10458432974E+04  0.46999998093E+01 0.  1.
</event>
<event>
 5   0  0.2284329E-05  0.2196932E+04  0.7818609E-02  0.8519706E-01
       -2   -1    0    0    0  501  0.00000000000E+00  0.00000000000E+00  0.11472808972E+04  0.11472808972E+04  0.25500000920E-02 0. -1.
        2   -1    0    0  501    0  0.00000000000E+00  0.00000000000E+00 -0.10517279699E+04  0.10517279699E+04  0.25500000920E-02 0.  1.
    10030    2    1    2    0    0  0.00000000000E+00  0.00000000000E+00  0.95552927217E+02  0.21990088671E+04  0.21969318687E+04 0.  0.
        2    1    3    3  502    0  0.34535593029E+03 -0.68339748050E+03  0.83612793908E+03  0.11337604533E+04  0.25500000920E-02 0. -1.
       -2    1    3    3    0  502 -0.34535593029E+03  0.68339748050E+03 -0.74057501186E+03  0.10652484138E+04  0.25500000920E-02 0.  1.
</event>
<event>
 5   0  0.1005538E-05  0.2195849E+04  0.7818609E-02  0.8520158E-01
       -1   -1    0    0    0  501  0.00000000000E+00  0.00000000000E+00  0.11825185144E+04  0.11825185144E+04  0.50400001928E-02 0.  1.
        1   -1    0    0  501    0  0.00000000000E+00  0.00000000000E+00 -0.10193819570E+04  0.10193819570E+04  0.50400001928E-02 0. -1.
    10030    2    1    2    0    0  0.00000000000E+00  0.00000000000E+00  0.16313655743E+03  0.22019004714E+04  0.21958488449E+04 0.  0.
        3    1    3    3  502    0 -0.78162415316E+03  0.61771253505E+03  0.54428656477E+03  0.11352325610E+04  0.10100000352E+00 0. -1.
       -3    1    3    3    0  502  0.78162415316E+03 -0.61771253505E+03 -0.38115000734E+03  0.10666679104E+04  0.10100000352E+00 0.  1.
</event>
<event>
 5   0  0.1033733E-05  0.2215974E+04  0.7818609E-02  0.8511809E-01
        1   -1    0    0  501    0  0.00000000000E+00  0.00000000000E+00  0.13343406623E+04  0.13343406623E+04  0.50400001928E-02 0.  1.
       -1   -1    0    0    0  501  0.00000000000E+00  0.00000000000E+00 -0.92003091812E+03  0.92003091813E+03  0.50400001928E-02 0. -1.
    10030    2    1    2    0    0  0.00000000000E+00  0.00000000000E+00  0.41430974421E+03  0.22543715805E+04  0.22159735239E+04 0.  0.
        5    1    3    3  502    0 -0.38256362276E+03  0.77440129279E+03  0.91312490423E+03  0.12569293808E+04  0.46999998093E+01 0.  1.
       -5    1    3    3    0  502  0.38256362276E+03 -0.77440129279E+03 -0.49881516002E+03  0.99744219962E+03  0.46999998093E+01 0. -1.
</event>
<event>
 5   0  0.2289708E-05  0.2204060E+04  0.7818609E-02  0.8516740E-01
       -2   -1    0    0    0  501  0.00000000000E+00  0.00000000000E+00  0.64366057119E+03  0.64366057119E+03  0.25500000920E-02 0. -1.
        2   -1    0    0  501    0  0.00000000000E+00  0.00000000000E+00 -0.18868168422E+04  0.18868168422E+04  0.25500000920E-02 0.  1.
    10030    2    1    2    0    0  0.00000000000E+00  0.00000000000E+00 -0.12431562710E+04  0.25304774134E+04  0.22040595331E+04 0.  0.
        5    1    3    3  502    0 -0.60719787953E+03  0.47275615180E+03 -0.15272378337E+04  0.17101652361E+04  0.46999998093E+01 0.  1.
       -5    1    3    3    0  502  0.60719787953E+03 -0.47275615180E+03  0.28408156270E+03  0.82031217731E+03  0.46999998093E+01 0. -1.
</event>
<event>
 5   0  0.2319707E-05  0.2214437E+04  0.7818609E-02  0.8512443E-01
        2   -1    0    0  501    0  0.00000000000E+00  0.00000000000E+00  0.19093389933E+04  0.19093389933E+04  0.25500000920E-02 0.  1.
       -2   -1    0    0    0  501  0.00000000000E+00  0.00000000000E+00 -0.64207202843E+03  0.64207202844E+03  0.25500000920E-02 0. -1.
    10030    2    1    2    0    0  0.00000000000E+00  0.00000000000E+00  0.12672669649E+04  0.25514110218E+04  0.22144373194E+04 0.  0.
        3    1    3    3  502    0  0.42930060153E+03 -0.73316537495E+03  0.14516772442E+04  0.16820217909E+04  0.10100000352E+00 0.  1.
       -3    1    3    3    0  502 -0.42930060153E+03  0.73316537495E+03 -0.18441027927E+03  0.86938923090E+03  0.10100000352E+00 0. -1.
</event>
<event>
 5   0  0.1033733E-05  0.2201539E+04  0.7818609E-02  0.8517788E-01
        1   -1    0    0  501    0  0.00000000000E+00  0.00000000000E+00  0.79092732459E+03  0.79092732460E+03  0.50400001928E-02 0. -1.
       -1   -1    0    0    0  501  0.00000000000E+00  0.00000000000E+00 -0.15319912417E+04  0.15319912417E+04  0.50400001928E-02 0.  1.
    10030    2    1    2    0    0  0.00000000000E+00  0.00000000000E+00 -0.74106391712E+03  0.23229185663E+04  0.22015392198E+04 0.  0.
        5    1    3    3  502    0 -0.21153169787E+03 -0.92167473284E+03 -0.96501507813E+03  0.13511129351E+04  0.46999998093E+01 0.  1.
       -5    1    3    3    0  502  0.21153169787E+03  0.92167473284E+03  0.22395116101E+03  0.97180563123E+03  0.46999998093E+01 0. -1.
</event>
<event>
 5   0  0.2284329E-05  0.2201233E+04  0.7818609E-02  0.8517915E-01
       -2   -1    0    0    0  501  0.00000000000E+00  0.00000000000E+00  0.90914624937E+03  0.90914624937E+03  0.25500000920E-02 0.  1.
        2   -1    0    0  501    0  0.00000000000E+00  0.00000000000E+00 -0.13324118316E+04  0.13324118316E+04  0.25500000920E-02 0. -1.
    10030    2    1    2    0    0  0.00000000000E+00  0.00000000000E+00 -0.42326558221E+03  0.22415580810E+04  0.22012334899E+04 0.  0.
        2    1    3    3  502    0 -0.91447422484E+02  0.10790734143E+04 -0.41168819113E+03  0.11585548028E+04  0.25500000920E-02 0. -1.
       -2    1    3    3    0  502  0.91447422484E+02 -0.10790734143E+04 -0.11577391081E+02  0.10830032781E+04  0.25500000920E-02 0.  1.
</event>
<event>
 5   0  0.1049198E-05  0.2196133E+04  0.7818609E-02  0.8520039E-01
        1   -1    0    0  501    0  0.00000000000E+00  0.00000000000E+00  0.11988987302E+04  0.11988987302E+04  0.50400001928E-02 0. -1.
       -1   -1    0    0    0  501  0.00000000000E+00  0.00000000000E+00 -0.10057144032E+04  0.10057144032E+04  0.50400001928E-02 0.  1.
    10030    2    1    2    0    0  0.00000000000E+00  0.00000000000E+00  0.19318432699E+03  0.22046131334E+04  0.21961327108E+04 0.  0.
        1    1    3    3  502    0 -0.79152574943E+03  0.74854297510E+03  0.23467375713E+03  0.11144062858E+04  0.50400001928E-02 0.  1.
       -1    1    3    3    0  502  0.79152574943E+03 -0.74854297510E+03 -0.41489430136E+02  0.10902068475E+04  0.50400001928E-02 0. -1.
</event>
<event>
 5   0  0.2229552E-05  0.2197058E+04  0.7818609E-02  0.8519654E-01
        2   -1    0    0  501    0  0.00000000000E+00  0.00000000000E+00  0.92327269415E+03  0.92327269415E+03  0.25500000920E-02 0. -1.
       -2   -1    0    0    0  501  0.00000000000E+00  0.00000000000E+00 -0.13070523818E+04  0.13070523818E+04  0.25500000920E-02 0.  1.
    10030    2    1    2    0    0  0.00000000000E+00  0.00000000000E+00 -0.38377968765E+03  0.22303250760E+04  0.21970578271E+04 0.  0.
        1    1    3    3  502    0 -0.30802821685E+03  0.10498729623E+04 -0.29161766140E+03  0.11323230457E+04  0.50400001928E-02 0.  1.
       -1    1    3    3    0  502  0.30802821685E+03 -0.10498729623E+04 -0.92162026256E+02  0.10980020303E+04  0.50400001928E-02 0. -1.
</event>
<event>
 5   0  0.1007682E-05  0.2197473E+04  0.7818609E-02  0.8519481E-01
        1   -1    0    0  501    0  0.00000000000E+00  0.00000000000E+00  0.11793925179E+04  0.11793925179E+04  0.50400001928E-02 0. -1.
       -1   -1    0    0    0  501  0.00000000000E+00  0.00000000000E+00 -0.10235966633E+04  0.10235966633E+04  0.50400001928E-02 0.  1.
    10030    2    1    2    0    0  0.00000000000E+00  0.00000000000E+00  0.15579585462E+03  0.22029891811E+04  0.21974733181E+04 0.  0.
        2    1    3    3  502    0 -0.70519550350E+03 -0.12165212666E+03 -0.75793478994E+03  0.10423843264E+04  0.25500000920E-02 0.  1.
       -2    1    3    3    0  502  0.70519550350E+03  0.12165212666E+03  0.91373064456E+03  0.11606048548E+04  0.25500000920E-02 0. -1.
</event>
<event>
 5   0  0.1005538E-05  0.2162896E+04  0.7818609E-02  0.8534032E-01
       -1   -1    0    0    0  501  0.00000000000E+00  0.00000000000E+00  0.11944145315E+04  0.11944145316E+04  0.50400001928E-02 0.  1.
        1   -1    0    0  501    0  0.00000000000E+00  0.00000000000E+00 -0.97916596501E+03  0.97916596502E+03  0.50400001928E-02 0. -1.
    10030    2    1    2    0    0  0.00000000000E+00  0.00000000000E+00  0.21524856654E+03  0.21735804966E+04  0.21628962596E+04 0.  0.
        3    1    3    3  502    0 -0.72875812570E+03  0.69598881204E+03 -0.28679533335E+03  0.10477310751E+04  0.10100000352E+00 0. -1.
       -3    1    3    3    0  502  0.72875812570E+03 -0.69598881204E+03  0.50204389988E+03  0.11258494215E+04  0.10100000352E+00 0.  1.
</event>
<event>
 5   0  0.1033733E-05  0.2195606E+04  0.7818609E-02  0.8520259E-01
       -1   -1    0    0    0  501  0.00000000000E+00  0.00000000000E+00  0.13864168382E+04  0.13864168382E+04  0.50400001928E-02 0.  1.
        1   -1    0    0  501    0  0.00000000000E+00  0.00000000000E+00 -0.86927065185E+03  0.86927065187E+03  0.50400001928E-02 0. -1.
    10030    2    1    2    0    0  0.00000000000E+00  0.00000000000E+00  0.51714618638E+03  0.22556874901E+04  0.21956060382E+04 0.  0.
        5    1    3    3  502    0 -0.59831617605E+03 -0.39091523834E+02 -0.68617715056E+03  0.91124725827E+03  0.46999998093E+01 0. -1.
       -5    1    3    3    0  502  0.59831617605E+03  0.39091523834E+02  0.12033233369E+04  0.13444402318E+04  0.46999998093E+01 0.  1.
</event>
<event>
 5   0  0.1007682E-05  0.2197497E+04  0.7818609E-02  0.8519470E-01
        1   -1    0    0  501    0  0.00000000000E+00  0.00000000000E+00  0.80723808480E+03  0.80723808481E+03  0.50400001928E-02 0. -1.
       -1   -1    0    0    0  501  0.00000000000E+00  0.00000000000E+00 -0.14955299692E+04  0.14955299692E+04  0.50400001928E-02 0.  1.
    10030    2    1    2    0    0  0.00000000000E+00  0.00000000000E+00 -0.68829188440E+03  0.23027680540E+04  0.21974974386E+04 0.  0.
        2    1    3    3  502    0  0.36053359191E+03 -0.28617262954E+03 -0.13896217401E+04  0.14638742519E+04  0.25500000920E-02 0.  1.
       -2    1    3    3    0  502 -0.36053359191E+03  0.28617262954E+03  0.70132985568E+03  0.83889380214E+03  0.25500000920E-02 0. -1.
</event>
<event>
 5   0  0.2298329E-05  0.2204168E+04  0.7818609E-02  0.8516695E-01
       -2   -1    0    0    0  501  0.00000000000E+00  0.00000000000E+00  0.64917509146E+03  0.64917509146E+03  0.25500000920E-02 0.  1.
        2   -1    0    0  501    0  0.00000000000E+00  0.00000000000E+00 -0.18709723368E+04  0.18709723368E+04  0.25500000920E-02 0. -1.
    10030    2    1    2    0    0  0.00000000000E+00  0.00000000000E+00 -0.12217972454E+04  0.25201474283E+04  0.22041675416E+04 0.  0.
        4    1    3    3  502    0 -0.12221009135E+03 -0.50133393600E+03 -0.17243157169E+04  0.17998714750E+04  0.12699999809E+01 0. -1.
       -4    1    3    3    0  502  0.12221009135E+03  0.50133393600E+03  0.50251847155E+03  0.72027595334E+03  0.12699999809E+01 0.  1.
</event>
<event>
 5   0  0.1071208E-05  0.2201247E+04  0.7818609E-02  0.8517909E-01
       -1   -1    0    0    0  501  0.00000000000E+00  0.00000000000E+00  0.88949563690E+03  0.88949563692E+03  0.50400001928E-02 0.  1.
        1   -1    0    0  501    0  0.00000000000E+00  0.00000000000E+00 -0.13618638796E+04  0.13618638796E+04  0.50400001928E-02 0. -1.
    10030    2    1    2    0    0  0.00000000000E+00  0.00000000000E+00 -0.47236824266E+03  0.22513595165E+04  0.22012469002E+04 0.  0.
        4    1    3    3  502    0 -0.28423240490E+03 -0.48847666381E+03  0.72975980029E+03  0.92301055796E+03  0.12699999809E+01 0.  1.
       -4    1    3    3    0  502  0.28423240490E+03  0.48847666381E+03 -0.12021280430E+04  0.13283489585E+04  0.12699999809E+01 0. -1.
</event>
<event>
 5   0  0.1033733E-05  0.2192269E+04  0.7818609E-02  0.8521653E-01
       -1   -1    0    0    0  501  0.00000000000E+00  0.00000000000E+00  0.11537060614E+04  0.11537060614E+04  0.50400001928E-02 0.  1.
        1   -1    0    0  501    0  0.00000000000E+00  0.00000000000E+00 -0.10414360931E+04  0.10414360931E+04  0.50400001928E-02 0. -1.
    10030    2    1    2    0    0  0.00000000000E+00  0.00000000000E+00  0.11226996830E+03  0.21951421545E+04  0.21922692656E+04 0.  0.
        5    1    3    3  502    0 -0.38267713688E+03 -0.10191548324E+04  0.18425061188E+03  0.11041235173E+04  0.46999998093E+01 0.  1.
       -5    1    3    3    0  502  0.38267713688E+03  0.10191548324E+04 -0.71980643571E+02  0.10910186372E+04  0.46999998093E+01 0. -1.
</event>
<event>
 5   0  0.1007682E-05  0.2172472E+04  0.7818609E-02  0.8529974E-01
        1   -1    0    0  501    0  0.00000000000E+00  0.00000000000E+00  0.13253398634E+04  0.13253398634E+04  0.50400001928E-02 0.  1.
       -1   -1    0    0    0  501  0.00000000000E+00  0.00000000000E+00 -0.89026839746E+03  0.89026839747E+03  0.50400001928E-02 0. -1.
    10030    2    1    2    0    0  0.00000000000E+00  0.00000000000E+00  0.43507146598E+03  0.22156082609E+04  0.21724715845E+04 0.  0.
        2    1    3    3  502    0  0.19139254182E+03  0.58575004772E+03 -0.69475041700E+03  0.92866159896E+03  0.25500000920E-02 0. -1.
       -2    1    3    3    0  502 -0.19139254182E+03 -0.58575004772E+03  0.11298218830E+04  0.12869466620E+04  0.25500000920E-02 0.  1.
</event>
<event>
 5   0  0.2229552E-05  0.2195931E+04  0.7818609E-02  0.8520124E-01
        2   -1    0    0  501    0  0.00000000000E+00  0.00000000000E+00  0.16684838801E+04  0.16684838801E+04  0.25500000920E-02 0.  1.
       -2   -1    0    0    0  501  0.00000000000E+00  0.00000000000E+00 -0.72252887249E+03  0.72252887249E+03  0.25500000920E-02 0. -1.
    10030    2    1    2    0    0  0.00000000000E+00  0.00000000000E+00  0.94595500764E+03  0.23910127526E+04  0.21959305788E+04 0.  0.
        1    1    3    3  502    0  0.29924314103E+03 -0.33261283665E+03 -0.61876930599E+03  0.76357921044E+03  0.50400001928E-02 0. -1.
       -1    1    3    3    0  502 -0.29924314103E+03  0.33261283665E+03  0.15647243136E+04  0.16274335422E+04  0.50400001928E-02 0.  1.
</event>
<event>
 5   0  0.2319707E-05  0.2174639E+04  0.7818609E-02  0.8529058E-01
       -2   -1    0    0    0  501  0.00000000000E+00  0.00000000000E+00  0.95625815879E+03  0.95625815880E+03  0.25500000920E-02 0.  1.
        2   -1    0    0  501    0  0.00000000000E+00  0.00000000000E+00 -0.12363441437E+04  0.12363441437E+04  0.25500000920E-02 0. -1.
    10030    2    1    2    0    0  0.00000000000E+00  0.00000000000E+00 -0.28008598490E+03  0.21926023025E+04  0.21746394409E+04 0.  0.
        3    1    3    3  502    0 -0.62026084986E+03  0.49705747727E+03  0.60802523744E+03  0.10007419034E+04  0.10100000352E+00 0.  1.
       -3    1    3    3    0  502  0.62026084986E+03 -0.49705747727E+03 -0.88811122234E+03  0.11918603991E+04  0.10100000352E+00 0. -1.
</event>
<event>
 5   0  0.2319707E-05  0.2202090E+04  0.7818609E-02  0.8517559E-01
        2   -1    0    0  501    0  0.00000000000E+00  0.00000000000E+00  0.82789887233E+03  0.82789887234E+03  0.25500000920E-02 0. -1.
       -2   -1    0    0    0  501  0.00000000000E+00  0.00000000000E+00 -0.14643087844E+04  0.14643087844E+04  0.25500000920E-02 0.  1.
    10030    2    1    2    0    0  0.00000000000E+00  0.00000000000E+00 -0.63640991204E+03  0.22922076567E+04  0.22020895453E+04 0.  0.
        3    1    3    3  502    0  0.15367786986E+03  0.80853607733E+03  0.44313116362E+03  0.93472601033E+03  0.10100000352E+00 0. -1.
       -3    1    3    3    0  502 -0.15367786986E+03 -0.80853607733E+03 -0.10795410757E+04  0.13574816464E+04  0.10100000352E+00 0.  1.
</event>
<event>
 5   0  0.1071208E-05  0.2209722E+04  0.7818609E-02  0.8514393E-01
        1   -1    0    0  501    0  0.00000000000E+00  0.00000000000E+00  0.82801840854E+03  0.82801840855E+03  0.50400001928E-02 0.  1.
       -1   -1    0    0    0  501  0.00000000000E+00  0.00000000000E+00 -0.14742634713E+04  0.14742634714E+04  0.50400001928E-02 0. -1.
    10030    2    1    2    0    0  0.00000000000E+00  0.00000000000E+00 -0.64624506281E+03  0.23022818799E+04  0.22097215149E+04 0.  0.
        4    1    3    3  502    0 -0.18287914312E+03  0.84918652149E+03  0.38823062581E+03  0.95146579601E+03  0.12699999809E+01 0.  1.
       -4    1    3    3    0  502  0.18287914312E+03 -0.84918652149E+03 -0.10344756886E+04  0.13508160839E+04  0.12699999809E+01 0. -1.
</event>
<event>
 5   0  0.2229552E-05  0.2199143E+04  0.7818609E-02  0.8518785E-01
        2   -1    0    0  501    0  0.00000000000E+00  0.00000000000E+00  0.15333962336E+04  0.15333962336E+04  0.25500000920E-02 0.  1.
       -2   -1    0    0    0  501  0.00000000000E+00  0.00000000000E+00 -0.78848369704E+03  0.78848369704E+03  0.25500000920E-02 0. -1.
    10030    2    1    2    0    0  0.00000000000E+00  0.00000000000E+00  0.74491253652E+03  0.23218799306E+04  0.21991434071E+04 0.  0.
        1    1    3    3  502    0  0.99303029179E+03 -0.60746325724E+02  0.86684046455E+03  0.13195497973E+04  0.50400001928E-02 0.  1.
       -1    1    3    3    0  502 -0.99303029179E+03  0.60746325724E+02 -0.12192792802E+03  0.10023301333E+04  0.50400001928E-02 0. -1.
</event>
<event>
 5   0  0.1007682E-05  0.2198408E+04  0.7818609E-02  0.8519091E-01
       -1   -1    0    0    0  501  0.00000000000E+00  0.00000000000E+00  0.64881663942E+03  0.64881663944E+03  0.50400001928E-02 0.  1.
        1   -1    0    0  501    0  0.00000000000E+00  0.00000000000E+00 -0.18622363629E+04  0.18622363629E+04  0.50400001928E-02 0. -1.
    10030    2    1    2    0    0  0.00000000000E+00  0.00000000000E+00 -0.12134197235E+04  0.25110530023E+04  0.21984084596E+04 0.  0.
        2    1    3    3  502    0  0.29439562010E+03 -0.11833189235E+03 -0.18087938014E+04  0.18364112377E+04  0.25500000920E-02 0. -1.
       -2    1    3    3    0  502 -0.29439562010E+03  0.11833189235E+03  0.59537407795E+03  0.67464176463E+03  0.25500000920E-02 0.  1.
</event>
<event>
 5   0  0.1049198E-05  0.2202498E+04  0.7818609E-02  0.8517389E-01
       -1   -1    0    0    0  501  0.00000000000E+00  0.00000000000E+00  0.10325492739E+04  0.10325492739E+04  0.50400001928E-02 0.  1.
        1   -1    0    0  501    0  0.00000000000E+00  0.00000000000E+00 -0.11745192839E+04  0.11745192839E+04  0.50400001928E-02 0. -1.
    10030    2    1    2    0    0  0.00000000000E+00  0.00000000000E+00 -0.14197000997E+03  0.22070685578E+04  0.22024977038E+04 0.  0.
        1    1    3    3  502    0  0.89557084011E+03  0.47744390841E+03  0.35739394659E+03  0.10759787398E+04  0.50400001928E-02 0. -1.
       -1    1    3    3    0  502 -0.89557084011E+03 -0.47744390841E+03 -0.49936395656E+03  0.11310898180E+04  0.50400001928E-02 0.  1.
</event>
<event>
 5   0  0.1033733E-05  0.2211491E+04  0.7818609E-02  0.8513661E-01
       -1   -1    0    0    0  501  0.00000000000E+00  0.00000000000E+00  0.12735032015E+04  0.12735032015E+04  0.50400001928E-02 0. -1.
        1   -1    0    0  501    0  0.00000000000E+00  0.00000000000E+00 -0.96008602184E+03  0.96008602185E+03  0.50400001928E-02 0.  1.
    10030    2    1    2    0    0  0.00000000000E+00  0.00000000000E+00  0.31341717963E+03  0.22335892233E+04  0.22114905585E+04 0.  0.
        5    1    3    3  502    0 -0.62396945257E+03  0.46514010630E+03  0.95002380244E+03  0.12281125809E+04  0.46999998093E+01 0. -1.
       -5    1    3    3    0  502  0.62396945257E+03 -0.46514010630E+03 -0.63660662280E+03  0.10054766424E+04  0.46999998093E+01 0.  1.
</event>
<event>
 5   0  0.2284329E-05  0.2196674E+04  0.7818609E-02  0.8519814E-01
       -2   -1    0    0    0  501  0.00000000000E+00  0.00000000000E+00  0.12335712246E+04  0.12335712246E+04  0.25500000920E-02 0. -1.
        2   -1    0    0  501    0  0.00000000000E+00  0.00000000000E+00 -0.97792852837E+03  0.97792852838E+03  0.25500000920E-02 0.  1.
    10030    2    1    2    0    0  0.00000000000E+00  0.00000000000E+00  0.25564269621E+03  0.22114997530E+04  0.21966742975E+04 0.  0.
        2    1    3    3  502    0  0.10930371108E+04  0.69975356339E+02  0.21033680098E+03  0.11152884138E+04  0.25500000920E-02 0.  1.
       -2    1    3    3    0  502 -0.10930371108E+04 -0.69975356339E+02  0.45305895226E+02  0.10962113392E+04  0.25500000920E-02 0. -1.
</event>
<event>
 5   0  0.2229552E-05  0.2213027E+04  0.7818609E-02  0.8513025E-01
        2   -1    0    0  501    0  0.00000000000E+00  0.00000000000E+00  0.68518062367E+03  0.68518062368E+03  0.25500000920E-02 0. -1.
       -2   -1    0    0    0  501  0.00000000000E+00  0.00000000000E+00 -0.17869338934E+04  0.17869338934E+04  0.25500000920E-02 0.  1.
    10030    2    1    2    0    0  0.00000000000E+00  0.00000000000E+00 -0.11017532697E+04  0.24721145171E+04  0.22130273198E+04 0.  0.
        1    1    3    3  502    0 -0.10765236217E+04  0.17869554508E+03 -0.75544839741E+03  0.13272292519E+04  0.50400001928E-02 0.  1.
       -1    1    3    3    0  502  0.10765236217E+04 -0.17869554508E+03 -0.34630487231E+03  0.11448852652E+04  0.50400001928E-02 0. -1.
</event>
<event>
 5   0  0.2289708E-05  0.2219559E+04  0.7818609E-02  0.8510331E-01
        2   -1    0    0  501    0  0.00000000000E+00  0.00000000000E+00  0.18048518849E+04  0.18048518849E+04  0.25500000920E-02 0. -1.
       -2   -1    0    0    0  501  0.00000000000E+00  0.00000000000E+00 -0.68238862452E+03  0.68238862452E+03  0.25500000920E-02 0.  1.
    10030    2    1    2    0    0  0.00000000000E+00  0.00000000000E+00  0.11224632604E+04  0.24872405094E+04  0.22195588708E+04 0.  0.
        5    1    3    3  502    0  0.15151030904E+03  0.57519438785E+03 -0.48866134532E+03  0.76981553503E+03  0.46999998093E+01 0.  1.
       -5    1    3    3    0  502 -0.15151030904E+03 -0.57519438785E+03  0.16111246057E+04  0.17174249744E+04  0.46999998093E+01 0. -1.
</event>
<event>
 5   0  0.8003875E-06  0.2245573E+04  0.7818609E-02  0.8499695E-01
       -3   -1    0    0    0  501  0.00000000000E+00  0.00000000000E+00  0.15796212256E+04  0.15796212289E+04  0.10100000352E+00 0. -1.
        3   -1    0    0  501    0  0.00000000000E+00  0.00000000000E+00 -0.79807105869E+03  0.79807106508E+03  0.10100000352E+00 0.  1.
    10030    2    1    2    0    0  0.00000000000E+00  0.00000000000E+00  0.78155016694E+03  0.23776922939E+04  0.22455734192E+04 0.  0.
        5    1    3    3  502    0  0.49798095462E+03  0.78780964982E+03 -0.27215965422E+03  0.97093874312E+03  0.46999998093E+01 0.  1.
       -5    1    3    3    0  502 -0.49798095462E+03 -0.78780964982E+03  0.10537098212E+04  0.14067535508E+04  0.46999998093E+01 0. -1.
</event>
<event>
 5   0  0.8003875E-06  0.2198932E+04  0.7818609E-02  0.8518873E-01
       -4   -1    0    0    0  501  0.00000000000E+00  0.00000000000E+00  0.10595892230E+04  0.10595899841E+04  0.12699999809E+01 0. -1.
        4   -1    0    0  501    0  0.00000000000E+00  0.00000000000E+00 -0.11408417166E+04  0.11408424235E+04  0.12699999809E+01 0.  1.
    10030    2    1    2    0    0  0.00000000000E+00  0.00000000000E+00 -0.81252493554E+02  0.22004324076E+04  0.21989317435E+04 0.  0.
        5    1    3    3  502    0  0.57479017946E+03  0.20831929227E+03  0.87379299437E+03  0.10664506388E+04  0.46999998093E+01 0. -1.
       -5    1    3    3    0  502 -0.57479017946E+03 -0.20831929227E+03 -0.95504548793E+03  0.11339817688E+04  0.46999998093E+01 0.  1.
</event>
<event>
 5   0  0.2298329E-05  0.2193086E+04  0.7818609E-02  0.8521311E-01
        2   -1    0    0  501    0  0.00000000000E+00  0.00000000000E+00  0.11044007990E+04  0.11044007990E+04  0.25500000920E-02 0.  1.
       -2   -1    0    0    0  501  0.00000000000E+00  0.00000000000E+00 -0.10887411066E+04  0.10887411066E+04  0.25500000920E-02 0. -1.
    10030    2    1    2    0    0  0.00000000000E+00  0.00000000000E+00  0.15659692486E+02  0.21931419056E+04  0.21930859974E+04 0.  0.
        4    1    3    3  502    0 -0.33495116780E+03  0.66279668501E+03  0.81464233527E+03  0.11023318365E+04  0.12699999809E+01 0.  1.
       -4    1    3    3    0  502  0.33495116780E+03 -0.66279668501E+03 -0.79898264278E+03  0.10908100691E+04  0.12699999809E+01 0. -1.
</event>
<event>
 5   0  0.2229552E-05  0.2196579E+04  0.7818609E-02  0.8519853E-01
        2   -1    0    0  501    0  0.00000000000E+00  0.00000000000E+00  0.93112654823E+03  0.93112654823E+03  0.25500000920E-02 0.  1.
       -2   -1    0    0    0  501  0.00000000000E+00  0.00000000000E+00 -0.12954629577E+04  0.12954629577E+04  0.25500000920E-02 0. -1.
    10030    2    1    2    0    0  0.00000000000E+00  0.00000000000E+00 -0.36433640950E+03  0.22265895060E+04  0.21965791151E+04 0.  0.
        1    1    3    3  502    0 -0.92541908412E+03  0.55246472870E+03  0.31957482610E+02  0.10782574082E+04  0.50400001928E-02 0.  1.
       -1    1    3    3    0  502  0.92541908412E+03 -0.55246472870E+03 -0.39629389210E+03  0.11483320977E+04  0.50400001928E-02 0. -1.
</event>
<event>
 5   0  0.1049198E-05  0.2203686E+04  0.7818609E-02  0.8516895E-01
        1   -1    0    0  501    0  0.00000000000E+00  0.00000000000E+00  0.12472965552E+04  0.12472965552E+04  0.50400001928E-02 0.  1.
       -1   -1    0    0    0  501  0.00000000000E+00  0.00000000000E+00 -0.97335185867E+03  0.97335185868E+03  0.50400001928E-02 0. -1.
    10030    2    1    2    0    0  0.00000000000E+00  0.00000000000E+00  0.27394469650E+03  0.22206484139E+04  0.22036863845E+04 0.  0.
        1    1    3    3  502    0  0.72371457620E+02  0.80888569698E+03  0.88736828162E+03  0.12028949106E+04  0.50400001928E-02 0.  1.
       -1    1    3    3    0  502 -0.72371457620E+02 -0.80888569698E+03 -0.61342358511E+03  0.10177535033E+04  0.50400001928E-02 0. -1.
</event>
<event>
 5   0  0.1033733E-05  0.2194306E+04  0.7818609E-02  0.8520802E-01
       -1   -1    0    0    0  501  0.00000000000E+00  0.00000000000E+00  0.57905251727E+03  0.57905251729E+03  0.50400001928E-02 0. -1.
        1   -1    0    0  501    0  0.00000000000E+00  0.00000000000E+00 -0.20788183031E+04  0.20788183031E+04  0.50400001928E-02 0.  1.
    10030    2    1    2    0    0  0.00000000000E+00  0.00000000000E+00 -0.14997657859E+04  0.26578708204E+04  0.21943062424E+04 0.  0.
        5    1    3    3  502    0 -0.80350133825E+02 -0.52276630239E+03 -0.19141923278E+04  0.19859242455E+04  0.46999998093E+01 0.  1.
       -5    1    3    3    0  502  0.80350133825E+02  0.52276630239E+03  0.41442654195E+03  0.67194657495E+03  0.46999998093E+01 0. -1.
</event>
<event>
 5   0  0.2289708E-05  0.2197919E+04  0.7818609E-02  0.8519295E-01
        2   -1    0    0  501    0  0.00000000000E+00  0.00000000000E+00  0.12902565457E+04  0.12902565457E+04  0.25500000920E-02 0. -1.
       -2   -1    0    0    0  501  0.00000000000E+00  0.00000000000E+00 -0.93602496983E+03  0.93602496983E+03  0.25500000920E-02 0.  1.
    10030    2    1    2    0    0  0.00000000000E+00  0.00000000000E+00  0.35423157586E+03  0.22262815155E+04  0.21979193291E+04 0.  0.
        5    1    3    3  502    0 -0.97756887772E+03  0.47319345285E+03  0.34702211070E+03  0.11401751575E+04  0.46999998093E+01 0. -1.
       -5    1    3    3    0  502  0.97756887772E+03 -0.47319345285E+03  0.72094651570E+01  0.10861063580E+04  0.46999998093E+01 0.  1.
</event>
<event>
 5   0  0.2289708E-05  0.2195762E+04  0.7818609E-02  0.8520194E-01
        2   -1    0    0  501    0  0.00000000000E+00  0.00000000000E+00  0.56702216454E+03  0.56702216454E+03  0.25500000920E-02 0.  1.
       -2   -1    0    0    0  501  0.00000000000E+00  0.00000000000E+00 -0.21257408395E+04  0.21257408395E+04  0.25500000920E-02 0. -1.
    10030    2    1    2    0    0  0.00000000000E+00  0.00000000000E+00 -0.15587186750E+04  0.26927630041E+04  0.21957615281E+04 0.  0.
        5    1    3    3  502    0 -0.75997737407E+03 -0.64058890276E+03 -0.20756077331E+03  0.10153931830E+04  0.46999998093E+01 0.  1.
       -5    1    3    3    0  502  0.75997737407E+03  0.64058890276E+03 -0.13511579017E+04  0.16773698211E+04  0.46999998093E+01 0. -1.
</event>
<event>
 5   0  0.2289708E-05  0.2202368E+04  0.7818609E-02  0.8517443E-01
       -2   -1    0    0    0  501  0.00000000000E+00  0.00000000000E+00  0.70069298636E+03  0.70069298637E+03  0.25500000920E-02 0.  1.
        2   -1    0    0  501    0  0.00000000000E+00  0.00000000000E+00 -0.17305815505E+04  0.17305815505E+04  0.25500000920E-02 0. -1.
    10030    2    1    2    0    0  0.00000000000E+00  0.00000000000E+00 -0.10298885642E+04  0.24312745369E+04  0.22023681389E+04 0.  0.
        5    1    3    3  502    0  0.10948433278E+04  0.62797383251E+02 -0.62511051129E+03  0.12623037135E+04  0.46999998093E+01 0. -1.
       -5    1    3    3    0  502 -0.10948433278E+04 -0.62797383251E+02 -0.40477805289E+03  0.11689708234E+04  0.46999998093E+01 0.  1.
</event>
<event>
 5   0  0.2298329E-05  0.2228078E+04  0.7818609E-02  0.8506832E-01
        2   -1    0    0  501    0  0.00000000000E+00  0.00000000000E+00  0.18679215734E+04  0.18679215734E+04  0.25500000920E-02 0. -1.
       -2   -1    0    0    0  501  0.00000000000E+00  0.00000000000E+00 -0.66441911880E+03  0.66441911880E+03  0.25500000920E-02 0.  1.
    10030    2    1    2    0    0  0.00000000000E+00  0.00000000000E+00  0.12035024546E+04  0.25323406922E+04  0.22280779213E+04 0.  0.
        4    1    3    3  502    0 -0.99322341163E+02  0.81239592861E+03  0.14607586730E+04  0.16744161926E+04  0.12699999809E+01 0. -1.
       -4    1    3    3    0  502  0.99322341163E+02 -0.81239592861E+03 -0.25725621840E+03  0.85792449964E+03  0.12699999809E+01 0.  1.
</event>
<event>
 5   0  0.2298329E-05  0.2205142E+04  0.7818609E-02  0.8516291E-01
       -2   -1    0    0    0  501  0.00000000000E+00  0.00000000000E+00  0.15686125532E+04  0.15686125532E+04  0.25500000920E-02 0. -1.
        2   -1    0    0  501    0  0.00000000000E+00  0.00000000000E+00 -0.77499222455E+03  0.77499222455E+03  0.25500000920E-02 0.  1.
    10030    2    1    2    0    0  0.00000000000E+00  0.00000000000E+00  0.79362032869E+03  0.23436047778E+04  0.22051417479E+04 0.  0.
        4    1    3    3  502    0 -0.12063659259E+03 -0.77189715353E+03  0.12236605398E+04  0.14518006518E+04  0.12699999809E+01 0.  1.
       -4    1    3    3    0  502  0.12063659259E+03  0.77189715353E+03 -0.43004021106E+03  0.89180412599E+03  0.12699999809E+01 0. -1.
</event>
<event>
 5   0  0.1033733E-05  0.2198716E+04  0.7818609E-02  0.8518963E-01
       -1   -1    0    0    0  501  0.00000000000E+00  0.00000000000E+00  0.86249798480E+03  0.86249798481E+03  0.50400001928E-02 0.  1.
        1   -1    0    0  501    0  0.00000000000E+00  0.00000000000E+00 -0.14012641718E+04  0.14012641718E+04  0.50400001928E-02 0. -1.
    10030    2    1    2    0    0  0.00000000000E+00  0.00000000000E+00 -0.53876618703E+03  0.22637621566E+04  0.21987155563E+04 0.  0.
        5    1    3    3  502    0 -0.75936143189E+03  0.79132636720E+03 -0.19139096919E+03  0.11133192699E+04  0.46999998093E+01 0. -1.
       -5    1    3    3    0  502  0.75936143189E+03 -0.79132636720E+03 -0.34737521784E+03  0.11504428867E+04  0.46999998093E+01 0.  1.
</event>
<event>
 5   0  0.2319707E-05  0.2202997E+04  0.7818609E-02  0.8517182E-01
        2   -1    0    0  501    0  0.00000000000E+00  0.00000000000E+00  0.11078224136E+04  0.11078224136E+04  0.25500000920E-02 0.  1.
       -2   -1    0    0    0  501  0.00000000000E+00  0.00000000000E+00 -0.10952102219E+04  0.10952102219E+04  0.25500000920E-02 0. -1.
    10030    2    1    2    0    0  0.00000000000E+00  0.00000000000E+00  0.12612191664E+02  0.22030326355E+04  0.22029965333E+04 0.  0.
        3    1    3    3  502    0 -0.61575021467E+03  0.72560986230E+03 -0.54835641887E+03  0.10983409177E+04  0.10100000352E+00 0. -1.
       -3    1    3    3    0  502  0.61575021467E+03 -0.72560986230E+03  0.56096861053E+03  0.11046917178E+04  0.10100000352E+00 0.  1.
</event>
<event>
 5   0  0.2284329E-05  0.2199089E+04  0.7818609E-02  0.8518807E-01
       -2   -1    0    0    0  501  0.00000000000E+00  0.00000000000E+00  0.18069619720E+04  0.18069619720E+04  0.25500000920E-02 0.  1.
        2   -1    0    0  501    0  0.00000000000E+00  0.00000000000E+00 -0.66907767627E+03  0.66907767627E+03  0.25500000920E-02 0. -1.
    10030    2    1    2    0    0  0.00000000000E+00  0.00000000000E+00  0.11378842957E+04  0.24760396483E+04  0.21990888271E+04 0.  0.
        2    1    3    3  502    0  0.37491127090E+03  0.60660870514E+03  0.15112832766E+04  0.16710804063E+04  0.25500000920E-02 0.  1.
       -2    1    3    3    0  502 -0.37491127090E+03 -0.60660870514E+03 -0.37339898092E+03  0.80495924192E+03  0.25500000920E-02 0. -1.
</event>
<event>
 5   0  0.1005538E-05  0.2197972E+04  0.7818609E-02  0.8519273E-01
        1   -1    0    0  501    0  0.00000000000E+00  0.00000000000E+00  0.10214199039E+04  0.10214199040E+04  0.50400001928E-02 0.  1.
       -1   -1    0    0    0  501  0.00000000000E+00  0.00000000000E+00 -0.11824419649E+04  0.11824419649E+04  0.50400001928E-02 0. -1.
    10030    2    1    2    0    0  0.00000000000E+00  0.00000000000E+00 -0.16102206091E+03  0.22038618688E+04  0.21979715723E+04 0.  0.
        3    1    3    3  502    0  0.43142766978E+03 -0.19251133384E+03  0.91440779872E+03  0.10292385926E+04  0.10100000352E+00 0.  1.
       -3    1    3    3    0  502 -0.43142766978E+03  0.19251133384E+03 -0.10754298596E+04  0.11746232762E+04  0.10100000352E+00 0. -1.
</event>
<event>
 5   0  0.2289708E-05  0.2223122E+04  0.7818609E-02  0.8508865E-01
       -2   -1    0    0    0  501  0.00000000000E+00  0.00000000000E+00  0.10341970396E+04  0.10341970396E+04  0.25500000920E-02 0. -1.
        2   -1    0    0  501    0  0.00000000000E+00  0.00000000000E+00 -0.11947127366E+04  0.11947127367E+04  0.25500000920E-02 0.  1.
    10030    2    1    2    0    0  0.00000000000E+00  0.00000000000E+00 -0.16051569705E+03  0.22289097763E+04  0.22231224666E+04 0.  0.
        5    1    3    3  502    0  0.47448100195E+03  0.33292245508E+03 -0.10311870878E+04  0.11829363813E+04  0.46999998093E+01 0.  1.
       -5    1    3    3    0  502 -0.47448100195E+03 -0.33292245508E+03  0.87067139071E+03  0.10459733949E+04  0.46999998093E+01 0. -1.
</event>
<event>
 5   0  0.2284329E-05  0.2203298E+04  0.7818609E-02  0.8517057E-01
       -2   -1    0    0    0  501  0.00000000000E+00  0.00000000000E+00  0.11444648503E+04  0.11444648503E+04  0.25500000920E-02 0. -1.
        2   -1    0    0  501    0  0.00000000000E+00  0.00000000000E+00 -0.10604344858E+04  0.10604344858E+04  0.25500000920E-02 0.  1.
    10030    2    1    2    0    0  0.00000000000E+00  0.00000000000E+00  0.84030364490E+02  0.22048993360E+04  0.22032975242E+04 0.  0.
        2    1    3    3  502    0 -0.23188142548E+03  0.33490127243E+03  0.10663325470E+04  0.11414871697E+04  0.25500000920E-02 0. -1.
       -2    1    3    3    0  502  0.23188142548E+03 -0.33490127243E+03 -0.98230218252E+03  0.10634121664E+04  0.25500000920E-02 0.  1.
</event>
<event>
 5   0  0.1049198E-05  0.2198767E+04  0.7818609E-02  0.8518941E-01
        1   -1    0    0  501    0  0.00000000000E+00  0.00000000000E+00  0.13479694200E+04  0.13479694200E+04  0.50400001928E-02 0.  1.
       -1   -1    0    0    0  501  0.00000000000E+00  0.00000000000E+00 -0.89664055540E+03  0.89664055541E+03  0.50400001928E-02 0. -1.
    10030    2    1    2    0    0  0.00000000000E+00  0.00000000000E+00  0.45132886457E+03  0.22446099754E+04  0.21987669721E+04 0.  0.
        1    1    3    3  502    0 -0.10937266177E+04 -0.65723687008E+02  0.31746446652E+03  0.11407634307E+04  0.50400001928E-02 0. -1.
       -1    1    3    3    0  502  0.10937266177E+04  0.65723687008E+02  0.13386439805E+03  0.11038465447E+04  0.50400001928E-02 0.  1.
</event>
<event>
 5   0  0.2289708E-05  0.2189397E+04  0.7818609E-02  0.8522854E-01
       -2   -1    0    0    0  501  0.00000000000E+00  0.00000000000E+00  0.54786578744E+03  0.54786578745E+03  0.25500000920E-02 0.  1.
        2   -1    0    0  501    0  0.00000000000E+00  0.00000000000E+00 -0.21873332876E+04  0.21873332876E+04  0.25500000920E-02 0. -1.
    10030    2    1    2    0    0  0.00000000000E+00  0.00000000000E+00 -0.16394675002E+04  0.27351990751E+04  0.21893972449E+04 0.  0.
        5    1    3    3  502    0  0.53906972391E+03 -0.21167405631E+03 -0.19802598259E+04  0.20632142742E+04  0.46999998093E+01 0. -1.
       -5    1    3    3    0  502 -0.53906972391E+03  0.21167405631E+03  0.34079232569E+03  0.67198480087E+03  0.46999998093E+01 0.  1.
</event>
<event>
 5   0  0.2289708E-05  0.2198028E+04  0.7818609E-02  0.8519249E-01
       -2   -1    0    0    0  501  0.00000000000E+00  0.00000000000E+00  0.95604210557E+03  0.95604210558E+03  0.25500000920E-02 0.  1.
        2   -1    0    0  501    0  0.00000000000E+00  0.00000000000E+00 -0.12633668431E+04  0.12633668431E+04  0.25500000920E-02 0. -1.
    10030    2    1    2    0    0  0.00000000000E+00  0.00000000000E+00 -0.30732473750E+03  0.22194089486E+04  0.21980281133E+04 0.  0.
        5    1    3    3  502    0 -0.54359216900E+03  0.28018144175E+03 -0.10756797949E+04  0.12373775486E+04  0.46999998093E+01 0. -1.
       -5    1    3    3    0  502  0.54359216900E+03 -0.28018144175E+03  0.76835505742E+03  0.98203140009E+03  0.46999998093E+01 0.  1.
</event>
<event>
 5   0  0.2319707E-05  0.2196956E+04  0.7818609E-02  0.8519696E-01
        2   -1    0    0  501    0  0.00000000000E+00  0.00000000000E+00  0.15385652225E+04  0.15385652225E+04  0.25500000920E-02 0.  1.
       -2   -1    0    0    0  501  0.00000000000E+00  0.00000000000E+00 -0.78427184635E+03  0.78427184636E+03  0.25500000920E-02 0. -1.
    10030    2    1    2    0    0  0.00000000000E+00  0.00000000000E+00  0.75429337612E+03  0.23228370688E+04  0.21969555187E+04 0.  0.
        3    1    3    3  502    0  0.49881093496E+03 -0.93643828948E+03  0.67791848980E+03  0.12590879667E+04  0.10100000352E+00 0.  1.
       -3    1    3    3    0  502 -0.49881093496E+03  0.93643828948E+03  0.76374886320E+02  0.10637491021E+04  0.10100000352E+00 0. -1.
</event>
<event>
 5   0  0.1007682E-05  0.2177243E+04  0.7818609E-02  0.8527960E-01
       -1   -1    0    0    0  501  0.00000000000E+00  0.00000000000E+00  0.53386996762E+03  0.53386996764E+03  0.50400001928E-02 0. -1.
        1   -1    0    0  501    0  0.00000000000E+00  0.00000000000E+00 -0.22198223384E+04  0.22198223384E+04  0.50400001928E-02 0.  1.
    10030    2    1    2    0    0  0.00000000000E+00  0.00000000000E+00 -0.16859523708E+04  0.27536923061E+04  0.21772427333E+04 0.  0.
        2    1    3    3  502    0  0.78873173936E+03  0.63352326293E+03 -0.13514778560E+04  0.16881770868E+04  0.25500000920E-02 0.  1.
       -2    1    3    3    0  502 -0.78873173936E+03 -0.63352326293E+03 -0.33447451486E+03  0.10655152192E+04  0.25500000920E-02 0. -1.
</event>
<event>
 5   0  0.1033733E-05  0.2195730E+04  0.7818609E-02  0.8520208E-01
        1   -1    0    0  501    0  0.00000000000E+00  0.00000000000E+00  0.79253182054E+03  0.79253182055E+03  0.50400001928E-02 0.  1.
       -1   -1    0    0    0  501  0.00000000000E+00  0.00000000000E+00 -0.15208311993E+04  0.15208311994E+04  0.50400001928E-02 0. -1.
    10030    2    1    2    0    0  0.00000000000E+00  0.00000000000E+00 -0.72829937881E+03  0.23133630199E+04  0.21957296001E+04 0.  0.
        5    1    3    3  502    0  0.22562236472E+03  0.24140513802E+03 -0.14671881173E+04  0.15039431351E+04  0.46999998093E+01 0. -1.
       -5    1    3    3    0  502 -0.22562236472E+03 -0.24140513802E+03  0.73888873846E+03  0.80941988482E+03  0.46999998093E+01 0.  1.
</event>
<event>
 5   0  0.2284329E-05  0.2208610E+04  0.7818609E-02  0.8514853E-01
       -2   -1    0    0    0  501  0.00000000000E+00  0.00000000000E+00  0.12626816289E+04  0.12626816289E+04  0.25500000920E-02 0.  1.
        2   -1    0    0  501    0  0.00000000000E+00  0.00000000000E+00 -0.96579315814E+03  0.96579315815E+03  0.25500000920E-02 0. -1.
    10030    2    1    2    0    0  0.00000000000E+00  0.00000000000E+00  0.29688847073E+03  0.22284747870E+04  0.22086097691E+04 0.  0.
        2    1    3    3  502    0 -0.11984539865E+03 -0.28229300208E+03  0.12188522058E+04  0.12568424556E+04  0.25500000920E-02 0.  1.
       -2    1    3    3    0  502  0.11984539865E+03  0.28229300208E+03 -0.92196373509E+03  0.97163233141E+03  0.25500000920E-02 0. -1.
</event>
<event>
 5   0  0.2229552E-05  0.2207499E+04  0.7818609E-02  0.8515313E-01
        2   -1    0    0  501    0  0.00000000000E+00  0.00000000000E+00  0.14438331381E+04  0.14438331381E+04  0.25500000920E-02 0.  1.
       -2   -1    0    0    0  501  0.00000000000E+00  0.00000000000E+00 -0.84376970130E+03  0.84376970130E+03  0.25500000920E-02 0. -1.
    10030    2    1    2    0    0  0.00000000000E+00  0.00000000000E+00  0.60006343676E+03  0.22876028394E+04  0.22074987254E+04 0.  0.
        1    1    3    3  502    0  0.19459182878E+03  0.47735645075E+03 -0.71135891127E+03  0.87850251085E+03  0.50400001928E-02 0. -1.
       -1    1    3    3    0  502 -0.19459182878E+03 -0.47735645075E+03  0.13114223480E+04  0.14091003285E+04  0.50400001928E-02 0.  1.
</event>
<event>
 5   0  0.1007682E-05  0.2204913E+04  0.7818609E-02  0.8516386E-01
       -1   -1    0    0    0  501  0.00000000000E+00  0.00000000000E+00  0.77918225628E+03  0.77918225630E+03  0.50400001928E-02 0. -1.
        1   -1    0    0  501    0  0.00000000000E+00  0.00000000000E+00 -0.15598543830E+04  0.15598543830E+04  0.50400001928E-02 0.  1.
    10030    2    1    2    0    0  0.00000000000E+00  0.00000000000E+00 -0.78067212674E+03  0.23390366393E+04  0.22049134746E+04 0.  0.
        2    1    3    3  502    0 -0.55571041815E+03 -0.36856985091E+03  0.54099288077E+03  0.85867985938E+03  0.25500000920E-02 0. -1.
       -2    1    3    3    0  502  0.55571041815E+03  0.36856985091E+03 -0.13216650075E+04  0.14803567799E+04  0.25500000920E-02 0.  1.
</event>
<event>
 5   0  0.1005538E-05  0.2204252E+04  0.7818609E-02  0.8516660E-01
        1   -1    0    0  501    0  0.00000000000E+00  0.00000000000E+00  0.88792632846E+03  0.88792632847E+03  0.50400001928E-02 0. -1.
       -1   -1    0    0    0  501  0.00000000000E+00  0.00000000000E+00 -0.13679984241E+04  0.13679984241E+04  0.50400001928E-02 0.  1.
    10030    2    1    2    0    0  0.00000000000E+00  0.00000000000E+00 -0.48007209568E+03  0.22559247526E+04  0.22042520891E+04 0.  0.
        3    1    3    3  502    0  0.23542006402E+01  0.97909877051E+03  0.27783166818E+03  0.10177575304E+04  0.10100000352E+00 0. -1.
       -3    1    3    3    0  502 -0.23542006402E+01 -0.97909877051E+03 -0.75790376385E+03  0.12381672222E+04  0.10100000352E+00 0.  1.
</event>
<event>
 5   0  0.2284329E-05  0.2200234E+04  0.7818609E-02  0.8518331E-01
       -2   -1    0    0    0  501  0.00000000000E+00  0.00000000000E+00  0.11242806434E+04  0.11242806434E+04  0.25500000920E-02 0. -1.
        2   -1    0    0  501    0  0.00000000000E+00  0.00000000000E+00 -0.10764728925E+04  0.10764728925E+04  0.25500000920E-02 0.  1.
    10030    2    1    2    0    0  0.00000000000E+00  0.00000000000E+00  0.47807750891E+02  0.22007535359E+04  0.22002342023E+04 0.  0.
        2    1    3    3  502    0  0.31740156449E+03 -0.10268303602E+04 -0.21095634763E+03  0.10952748159E+04  0.25500000920E-02 0. -1.
       -2    1    3    3    0  502 -0.31740156449E+03  0.10268303602E+04  0.25876409852E+03  0.11054787200E+04  0.25500000920E-02 0.  1.
</event>
<event>
 5   0  0.1049198E-05  0.2182998E+04  0.7818609E-02  0.8525538E-01
       -1   -1    0    0    0  501  0.00000000000E+00  0.00000000000E+00  0.66789617249E+03  0.66789617251E+03  0.50400001928E-02 0.  1.
        1   -1    0    0  501    0  0.00000000000E+00  0.00000000000E+00 -0.17837655860E+04  0.17837655860E+04  0.50400001928E-02 0. -1.
    10030    2    1    2    0    0  0.00000000000E+00  0.00000000000E+00 -0.11158694135E+04  0.24516617585E+04  0.21829981288E+04 0.  0.
        1    1    3    3  502    0  0.48511395722E+03  0.97700011964E+03 -0.60150960222E+03  0.12456639141E+04  0.50400001928E-02 0. -1.
       -1    1    3    3    0  502 -0.48511395722E+03 -0.97700011964E+03 -0.51435981130E+03  0.12059978444E+04  0.50400001928E-02 0.  1.
</event>
<event>
 5   0  0.1049198E-05  0.2205986E+04  0.7818609E-02  0.8515941E-01
        1   -1    0    0  501    0  0.00000000000E+00  0.00000000000E+00  0.13104614076E+04  0.13104614076E+04  0.50400001928E-02 0. -1.
       -1   -1    0    0    0  501  0.00000000000E+00  0.00000000000E+00 -0.92837059837E+03  0.92837059838E+03  0.50400001928E-02 0.  1.
    10030    2    1    2    0    0  0.00000000000E+00  0.00000000000E+00  0.38209080920E+03  0.22388320060E+04  0.22059862566E+04 0.  0.
        1    1    3    3  502    0 -0.41043682489E+02 -0.71953387759E+03  0.10384508379E+04  0.12640386575E+04  0.50400001928E-02 0. -1.
       -1    1    3    3    0  502  0.41043682489E+02  0.71953387759E+03 -0.65636002872E+03  0.97479334846E+03  0.50400001928E-02 0.  1.
</event>
<event>
 5   0  0.1007682E-05  0.2219009E+04  0.7818609E-02  0.8510558E-01
        1   -1    0    0  501    0  0.00000000000E+00  0.00000000000E+00  0.19259728508E+04  0.19259728508E+04  0.50400001928E-02 0. -1.
       -1   -1    0    0    0  501  0.00000000000E+00  0.00000000000E+00 -0.63915772193E+03  0.63915772195E+03  0.50400001928E-02 0.  1.
    10030    2    1    2    0    0  0.00000000000E+00  0.00000000000E+00  0.12868151288E+04  0.25651305727E+04  0.22190091661E+04 0.  0.
        2    1    3    3  502    0 -0.17771098403E+03  0.95918121171E+03  0.32386336744E+02  0.97604234824E+03  0.25500000920E-02 0.  1.
       -2    1    3    3    0  502  0.17771098403E+03 -0.95918121171E+03  0.12544287921E+04  0.15890882245E+04  0.25500000920E-02 0. -1.
</event>
<event>
 5   0  0.2298329E-05  0.2209746E+04  0.7818609E-02  0.8514382E-01
       -2   -1    0    0    0  501  0.00000000000E+00  0.00000000000E+00  0.89642370180E+03  0.89642370180E+03  0.25500000920E-02 0.  1.
        2   -1    0    0  501    0  0.00000000000E+00  0.00000000000E+00 -0.13617942459E+04  0.13617942459E+04  0.25500000920E-02 0. -1.
    10030    2    1    2    0    0  0.00000000000E+00  0.00000000000E+00 -0.46537054407E+03  0.22582179477E+04  0.22097462651E+04 0.  0.
        4    1    3    3  502    0 -0.10772212862E+04 -0.19511431375E+03 -0.38518231843E+03  0.11605353619E+04  0.12699999809E+01 0.  1.
       -4    1    3    3    0  502  0.10772212862E+04  0.19511431375E+03 -0.80188225641E+02  0.10976825858E+04  0.12699999809E+01 0. -1.
</event>
<event>
 5   0  0.8003875E-06  0.2200925E+04  0.7818609E-02  0.8518043E-01
       -4   -1    0    0    0  501  0.00000000000E+00  0.00000000000E+00  0.72902981715E+03  0.72903092334E+03  0.12699999809E+01 0.  1.
        4   -1    0    0  501    0  0.00000000000E+00  0.00000000000E+00 -0.16611327250E+04  0.16611332105E+04  0.12699999809E+01 0. -1.
    10030    2    1    2    0    0  0.00000000000E+00  0.00000000000E+00 -0.93210290786E+03  0.23901641338E+04  0.22009245230E+04 0.  0.
        4    1    3    3  502    0  0.92403971282E+03  0.40704718713E+03 -0.94125852391E+03  0.13804006756E+04  0.12699999809E+01 0.  1.
       -4    1    3    3    0  502 -0.92403971282E+03 -0.40704718713E+03  0.91556160546E+01  0.10097634583E+04  0.12699999809E+01 0. -1.
</event>
<event>
 5   0  0.2298329E-05  0.2202372E+04  0.7818609E-02  0.8517442E-01
        2   -1    0    0  501    0  0.00000000000E+00  0.00000000000E+00  0.15925724600E+04  0.15925724600E+04  0.25500000920E-02 0.  1.
       -2   -1    0    0    0  501  0.00000000000E+00  0.00000000000E+00 -0.76141613089E+03  0.76141613090E+03  0.25500000920E-02 0. -1.
    10030    2    1    2    0    0  0.00000000000E+00  0.00000000000E+00  0.83115632908E+03  0.23539885909E+04  0.22023717766E+04 0.  0.
        4    1    3    3  502    0  0.18195771529E+03  0.10617957920E+04  0.17163412767E+03  0.10908614947E+04  0.12699999809E+01 0.  1.
       -4    1    3    3    0  502 -0.18195771529E+03 -0.10617957920E+04  0.65952220141E+03  0.12631270962E+04  0.12699999809E+01 0. -1.
</event>
<event>
 5   0  0.2229552E-05  0.2195270E+04  0.7818609E-02  0.8520399E-01
        2   -1    0    0  501    0  0.00000000000E+00  0.00000000000E+00  0.57352533938E+03  0.57352533938E+03  0.25500000920E-02 0. -1.
       -2   -1    0    0    0  501  0.00000000000E+00  0.00000000000E+00 -0.21006971105E+04  0.21006971105E+04  0.25500000920E-02 0.  1.
    10030    2    1    2    0    0  0.00000000000E+00  0.00000000000E+00 -0.15271717711E+04  0.26742224498E+04  0.21952703917E+04 0.  0.
        1    1    3    3  502    0 -0.47546890431E+02  0.65393812480E+03  0.30875871935E+03  0.72472596521E+03  0.50400001928E-02 0. -1.
       -1    1    3    3    0  502  0.47546890431E+02 -0.65393812480E+03 -0.18359304904E+04  0.19494964846E+04  0.50400001928E-02 0.  1.
</event>
<event>
 5   0  0.2289708E-05  0.2193995E+04  0.7818609E-02  0.8520931E-01
       -2   -1    0    0    0  501  0.00000000000E+00  0.00000000000E+00  0.11742066967E+04  0.11742066967E+04  0.25500000920E-02 0.  1.
        2   -1    0    0  501    0  0.00000000000E+00  0.00000000000E+00 -0.10248655885E+04  0.10248655885E+04  0.25500000920E-02 0. -1.
    10030    2    1    2    0    0  0.00000000000E+00  0.00000000000E+00  0.14934110821E+03  0.21990722853E+04  0.21939954761E+04 0.  0.
        5    1    3    3  502    0 -0.49210059509E+03 -0.11693622296E+03  0.10503421686E+04  0.11657949378E+04  0.46999998093E+01 0.  1.
       -5    1    3    3    0  502  0.49210059509E+03  0.11693622296E+03 -0.90100106040E+03  0.10332773475E+04  0.46999998093E+01 0. -1.
</event>
<event>
 5   0  0.2319707E-05  0.2201337E+04  0.7818609E-02  0.8517872E-01
       -2   -1    0    0    0  501  0.00000000000E+00  0.00000000000E+00  0.48192358111E+03  0.48192358112E+03  0.25500000920E-02 0. -1.
        2   -1    0    0  501    0  0.00000000000E+00  0.00000000000E+00 -0.25138252820E+04  0.25138252820E+04  0.25500000920E-02 0.  1.
    10030    2    1    2    0    0  0.00000000000E+00  0.00000000000E+00 -0.20319017009E+04  0.29957488631E+04  0.22013374863E+04 0.  0.
        3    1    3    3  502    0 -0.63704205184E+03  0.22432626015E+03  0.16678082583E+03  0.69567284040E+03  0.10100000352E+00 0. -1.
       -3    1    3    3    0  502  0.63704205184E+03 -0.22432626015E+03 -0.21986825267E+04  0.23000760227E+04  0.10100000352E+00 0.  1.
</event>
<event>
 5   0  0.2298329E-05  0.2183332E+04  0.7818609E-02  0.8525398E-01
       -2   -1    0    0    0  501  0.00000000000E+00  0.00000000000E+00  0.80055299859E+03  0.80055299859E+03  0.25500000920E-02 0.  1.
        2   -1    0    0  501    0  0.00000000000E+00  0.00000000000E+00 -0.14886388640E+04  0.14886388640E+04  0.25500000920E-02 0. -1.
    10030    2    1    2    0    0  0.00000000000E+00  0.00000000000E+00 -0.68808586540E+03  0.22891918626E+04  0.21833316802E+04 0.  0.
        4    1    3    3  502    0  0.61258770321E+01 -0.55463180947E+03  0.64180049691E+03  0.84827086545E+03  0.12699999809E+01 0.  1.
       -4    1    3    3    0  502 -0.61258770321E+01  0.55463180947E+03 -0.13298863623E+04  0.14409209971E+04  0.12699999809E+01 0. -1.
</event>
<event>
 5   0  0.1005538E-05  0.2213170E+04  0.7818609E-02  0.8512966E-01
        1   -1    0    0  501    0  0.00000000000E+00  0.00000000000E+00  0.37479909095E+03  0.37479909098E+03  0.50400001928E-02 0. -1.
       -1   -1    0    0    0  501  0.00000000000E+00  0.00000000000E+00 -0.32671656873E+04  0.32671656873E+04  0.50400001928E-02 0.  1.
    10030    2    1    2    0    0  0.00000000000E+00  0.00000000000E+00 -0.28923665964E+04  0.36419647783E+04  0.22131703320E+04 0.  0.
        3    1    3    3  502    0 -0.12649736913E+03  0.66506783137E+03 -0.28866257726E+04  0.29649494373E+04  0.10100000352E+00 0.  1.
       -3    1    3    3    0  502  0.12649736913E+03 -0.66506783137E+03 -0.57408238324E+01  0.67701534102E+03  0.10100000352E+00 0. -1.
</event>
<event>
 5   0  0.1007682E-05  0.2192676E+04  0.7818609E-02  0.8521483E-01
        1   -1    0    0  501    0  0.00000000000E+00  0.00000000000E+00  0.47607263594E+03  0.47607263596E+03  0.50400001928E-02 0. -1.
       -1   -1    0    0    0  501  0.00000000000E+00  0.00000000000E+00 -0.25247350442E+04  0.25247350442E+04  0.50400001928E-02 0.  1.
    10030    2    1    2    0    0  0.00000000000E+00  0.00000000000E+00 -0.20486624083E+04  0.30008076802E+04  0.21926762347E+04 0.  0.
        2    1    3    3  502    0  0.86352362731E+03  0.60052703668E+03 -0.14475934431E+04  0.17893665228E+04  0.25500000920E-02 0.  1.
       -2    1    3    3    0  502 -0.86352362731E+03 -0.60052703668E+03 -0.60106896521E+03  0.12114411573E+04  0.25500000920E-02 0. -1.
</event>
<event>
 5   0  0.1033733E-05  0.2209736E+04  0.7818609E-02  0.8514387E-01
       -1   -1    0    0    0  501  0.00000000000E+00  0.00000000000E+00  0.91066051484E+03  0.91066051485E+03  0.50400001928E-02 0.  1.
        1   -1    0    0  501    0  0.00000000000E+00  0.00000000000E+00 -0.13404925299E+04  0.13404925299E+04  0.50400001928E-02 0. -1.
    10030    2    1    2    0    0  0.00000000000E+00  0.00000000000E+00 -0.42983201507E+03  0.22511530448E+04  0.22097362896E+04 0.  0.
        5    1    3    3  502    0 -0.86258057664E+03 -0.46910122719E+02 -0.91664107692E+03  0.12595629261E+04  0.46999998093E+01 0. -1.
       -5    1    3    3    0  502  0.86258057664E+03  0.46910122719E+02  0.48680906186E+03  0.99159011870E+03  0.46999998093E+01 0.  1.
</event>
<event>
 5   0  0.2298329E-05  0.2197735E+04  0.7818609E-02  0.8519371E-01
        2   -1    0    0  501    0  0.00000000000E+00  0.00000000000E+00  0.24293636665E+04  0.24293636665E+04  0.25500000920E-02 0. -1.
       -2   -1    0    0    0  501  0.00000000000E+00  0.00000000000E+00 -0.49704773582E+03  0.49704773582E+03  0.25500000920E-02 0.  1.
    10030    2    1    2    0    0  0.00000000000E+00  0.00000000000E+00  0.19323159306E+04  0.29264114023E+04  0.21977349339E+04 0.  0.
        4    1    3    3  502    0  0.10377549333E+02  0.85633741683E+03  0.18829881932E+04  0.20685907313E+04  0.12699999809E+01 0. -1.
       -4    1    3    3    0  502 -0.10377549333E+02 -0.85633741683E+03  0.49327737443E+02  0.85782067099E+03  0.12699999809E+01 0.  1.
</event>
<event>
 5   0  0.1049198E-05  0.2204577E+04  0.7818609E-02  0.8516526E-01
       -1   -1    0    0    0  501  0.00000000000E+00  0.00000000000E+00  0.61584002329E+03  0.61584002331E+03  0.50400001928E-02 0. -1.
        1   -1    0    0  501    0  0.00000000000E+00  0.00000000000E+00 -0.19729796661E+04  0.19729796661E+04  0.50400001928E-02 0.  1.
    10030    2    1    2    0    0  0.00000000000E+00  0.00000000000E+00 -0.13571396428E+04  0.25888196894E+04  0.22045769150E+04 0.  0.
        1    1    3    3  502    0 -0.96311999138E+03  0.40841030835E+03 -0.27069813910E+03  0.10805908478E+04  0.50400001928E-02 0. -1.
       -1    1    3    3    0  502  0.96311999138E+03 -0.40841030835E+03 -0.10864415037E+04  0.15082288416E+04  0.50400001928E-02 0.  1.
</event>
<event>
 5   0  0.1033733E-05  0.2211012E+04  0.7818609E-02  0.8513859E-01
       -1   -1    0    0    0  501  0.00000000000E+00  0.00000000000E+00  0.64678636571E+03  0.64678636573E+03  0.50400001928E-02 0.  1.
        1   -1    0    0  501    0  0.00000000000E+00  0.00000000000E+00 -0.18895620554E+04  0.18895620554E+04  0.50400001928E-02 0. -1.
    10030    2    1    2    0    0  0.00000000000E+00  0.00000000000E+00 -0.12427756897E+04  0.25363484211E+04  0.22110115102E+04 0.  0.
        5    1    3    3  502    0  0.10007633584E+04 -0.94860840771E+02 -0.11490678230E+04  0.15267301106E+04  0.46999998093E+01 0. -1.
       -5    1    3    3    0  502 -0.10007633584E+04  0.94860840771E+02 -0.93707866606E+02  0.10096183105E+04  0.46999998093E+01 0.  1.
</event>
<event>
 5   0  0.1049198E-05  0.2186861E+04  0.7818609E-02  0.8523917E-01
       -1   -1    0    0    0  501  0.00000000000E+00  0.00000000000E+00  0.47761186884E+03  0.47761186887E+03  0.50400001928E-02 0. -1.
        1   -1    0    0  501    0  0.00000000000E+00  0.00000000000E+00 -0.25032674632E+04  0.25032674632E+04  0.50400001928E-02 0.  1.
    10030    2    1    2    0    0  0.00000000000E+00  0.00000000000E+00 -0.20256555944E+04  0.29808793321E+04  0.21868609936E+04 0.  0.
        1    1    3    3  502    0  0.10845236383E+04 -0.12758938032E+03 -0.93669387572E+03  0.14387028841E+04  0.50400001928E-02 0.  1.
       -1    1    3    3    0  502 -0.10845236383E+04  0.12758938032E+03 -0.10889617187E+04  0.15421764480E+04  0.50400001928E-02 0. -1.
</event>
<event>
 5   0  0.1007682E-05  0.2196896E+04  0.7818609E-02  0.8519721E-01
        1   -1    0    0  501    0  0.00000000000E+00  0.00000000000E+00  0.22433196511E+04  0.22433196511E+04  0.50400001928E-02 0. -1.
       -1   -1    0    0    0  501  0.00000000000E+00  0.00000000000E+00 -0.53785807502E+03  0.53785807505E+03  0.50400001928E-02 0.  1.
    10030    2    1    2    0    0  0.00000000000E+00  0.00000000000E+00  0.17054615761E+04  0.27811777262E+04  0.21968956181E+04 0.  0.
        2    1    3    3  502    0 -0.66246306430E+02  0.10203149196E+04  0.34452078650E+03  0.10789465606E+04  0.25500000920E-02 0.  1.
       -2    1    3    3    0  502  0.66246306430E+02 -0.10203149196E+04  0.13609407896E+04  0.17022311656E+04  0.25500000920E-02 0. -1.
</event>
<event>
 5   0  0.2289708E-05  0.2204026E+04  0.7818609E-02  0.8516754E-01
       -2   -1    0    0    0  501  0.00000000000E+00  0.00000000000E+00  0.91489515595E+03  0.91489515595E+03  0.25500000920E-02 0.  1.
        2   -1    0    0  501    0  0.00000000000E+00  0.00000000000E+00 -0.13274014013E+04  0.13274014013E+04  0.25500000920E-02 0. -1.
    10030    2    1    2    0    0  0.00000000000E+00  0.00000000000E+00 -0.41250624535E+03  0.22422965573E+04  0.22040264173E+04 0.  0.
        5    1    3    3  502    0 -0.51158681123E+03 -0.27502867798E+03  0.74651721657E+03  0.94587096571E+03  0.46999998093E+01 0.  1.
       -5    1    3    3    0  502  0.51158681123E+03  0.27502867798E+03 -0.11590234619E+04  0.12964255915E+04  0.46999998093E+01 0. -1.
</event>
<event>
 5   0  0.2298329E-05  0.2209353E+04  0.7818609E-02  0.8514545E-01
       -2   -1    0    0    0  501  0.00000000000E+00  0.00000000000E+00  0.10997895757E+04  0.10997895757E+04  0.25500000920E-02 0. -1.
        2   -1    0    0  501    0  0.00000000000E+00  0.00000000000E+00 -0.11095855879E+04  0.11095855879E+04  0.25500000920E-02 0.  1.
    10030    2    1    2    0    0  0.00000000000E+00  0.00000000000E+00 -0.97960121979E+01  0.22093751636E+04  0.22093534465E+04 0.  0.
        4    1    3    3  502    0 -0.47847969277E+03 -0.49046017129E+02 -0.99937282432E+03  0.11090969223E+04  0.12699999809E+01 0.  1.
       -4    1    3    3    0  502  0.47847969277E+03  0.49046017129E+02  0.98957681213E+03  0.11002782413E+04  0.12699999809E+01 0. -1.
</event>
<event>
 5   0  0.1005538E-05  0.2206041E+04  0.7818609E-02  0.8515918E-01
       -1   -1    0    0    0  501  0.00000000000E+00  0.00000000000E+00  0.61605721835E+03  0.61605721837E+03  0.50400001928E-02 0. -1.
        1   -1    0    0  501    0  0.00000000000E+00  0.00000000000E+00 -0.19749044164E+04  0.19749044164E+04  0.50400001928E-02 0.  1.
    10030    2    1    2    0    0  0.00000000000E+00  0.00000000000E+00 -0.13588471981E+04  0.25909616348E+04  0.22060409074E+04 0.  0.
        3    1    3    3  502    0  0.62925050861E+03 -0.62748049564E+03  0.88015879698E+02  0.89299203819E+03  0.10100000352E+00 0. -1.
       -3    1    3    3    0  502 -0.62925050861E+03  0.62748049564E+03 -0.14468630778E+04  0.16979695966E+04  0.10100000352E+00 0.  1.
</event>
<event>
 5   0  0.1007682E-05  0.2207084E+04  0.7818609E-02  0.8515485E-01
        1   -1    0    0  501    0  0.00000000000E+00  0.00000000000E+00  0.14719332252E+04  0.14719332252E+04  0.50400001928E-02 0. -1.
       -1   -1    0    0    0  501  0.00000000000E+00  0.00000000000E+00 -0.82735099412E+03  0.82735099414E+03  0.50400001928E-02 0.  1.
    10030    2    1    2    0    0  0.00000000000E+00  0.00000000000E+00  0.64458223104E+03  0.22992842193E+04  0.22070844272E+04 0.  0.
        2    1    3    3  502    0 -0.61256765031E+03 -0.68146437782E+03 -0.31835579729E+03  0.97004290530E+03  0.25500000920E-02 0.  1.
       -2    1    3    3    0  502  0.61256765031E+03  0.68146437782E+03  0.96293802834E+03  0.13292413140E+04  0.25500000920E-02 0. -1.
</event>
<event>
 5   0  0.2298329E-05  0.2198502E+04  0.7818609E-02  0.8519052E-01
       -2   -1    0    0    0  501  0.00000000000E+00  0.00000000000E+00  0.62194698474E+03  0.62194698475E+03  0.25500000920E-02 0.  1.
        2   -1    0    0  501    0  0.00000000000E+00  0.00000000000E+00 -0.19428550056E+04  0.19428550056E+04  0.25500000920E-02 0. -1.
    10030    2    1    2    0    0  0.00000000000E+00  0.00000000000E+00 -0.13209080208E+04  0.25648019903E+04  0.21985020469E+04 0.  0.
        4    1    3    3  502    0 -0.65112520854E+03 -0.80500356210E+03 -0.10912431786E+04  0.15042632947E+04  0.12699999809E+01 0. -1.
       -4    1    3    3    0  502  0.65112520854E+03  0.80500356210E+03 -0.22966484226E+03  0.10605386956E+04  0.12699999809E+01 0.  1.
</event>
<event>
 5   0  0.1049198E-05  0.2193213E+04  0.7818609E-02  0.8521258E-01
       -1   -1    0    0    0  501  0.00000000000E+00  0.00000000000E+00  0.75330520193E+03  0.75330520194E+03  0.50400001928E-02 0.  1.
        1   -1    0    0  501    0  0.00000000000E+00  0.00000000000E+00 -0.15963587585E+04  0.15963587585E+04  0.50400001928E-02 0. -1.
    10030    2    1    2    0    0  0.00000000000E+00  0.00000000000E+00 -0.84305355653E+03  0.23496639604E+04  0.21932125815E+04 0.  0.
        1    1    3    3  502    0  0.51509862114E+03 -0.12377878411E+03  0.60712022343E+03  0.80575600687E+03  0.50400001928E-02 0.  1.
       -1    1    3    3    0  502 -0.51509862114E+03  0.12377878411E+03 -0.14501737800E+04  0.15439079535E+04  0.50400001928E-02 0. -1.
</event>
<event>
 5   0  0.2229552E-05  0.2206306E+04  0.7818609E-02  0.8515808E-01
       -2   -1    0    0    0  501  0.00000000000E+00  0.00000000000E+00  0.87681137447E+03  0.87681137447E+03  0.25500000920E-02 0. -1.
        2   -1    0    0  501    0  0.00000000000E+00  0.00000000000E+00 -0.13879222665E+04  0.13879222665E+04  0.25500000920E-02 0.  1.
    10030    2    1    2    0    0  0.00000000000E+00  0.00000000000E+00 -0.51111089199E+03  0.22647336409E+04  0.22063055365E+04 0.  0.
        1    1    3    3  502    0 -0.93031119559E+03 -0.34809900199E+03 -0.74815381687E+03  0.12435376832E+04  0.50400001928E-02 0.  1.
       -1    1    3    3    0  502  0.93031119559E+03  0.34809900199E+03  0.23704292488E+03  0.10211959577E+04  0.50400001928E-02 0. -1.
</event>
<event>
 5   0  0.1049198E-05  0.2187010E+04  0.7818609E-02  0.8523854E-01
        1   -1    0    0  501    0  0.00000000000E+00  0.00000000000E+00  0.12233644035E+04  0.12233644035E+04  0.50400001928E-02 0.  1.
       -1   -1    0    0    0  501  0.00000000000E+00  0.00000000000E+00 -0.97743028159E+03  0.97743028160E+03  0.50400001928E-02 0. -1.
    10030    2    1    2    0    0  0.00000000000E+00  0.00000000000E+00  0.24593412191E+03  0.22007946851E+04  0.21870102089E+04 0.  0.
        1    1    3    3  502    0  0.76457877760E+03  0.44200806075E+03  0.77185811405E+03  0.11729095366E+04  0.50400001928E-02 0.  1.
       -1    1    3    3    0  502 -0.76457877760E+03 -0.44200806075E+03 -0.52592399213E+03  0.10278851485E+04  0.50400001928E-02 0. -1.
</event>
<event>
 5   0  0.1049198E-05  0.2129296E+04  0.7818609E-02  0.8548447E-01
        1   -1    0    0  501    0  0.00000000000E+00  0.00000000000E+00  0.18840884733E+04  0.18840884733E+04  0.50400001928E-02 0.  1.
       -1   -1    0    0    0  501  0.00000000000E+00  0.00000000000E+00 -0.60160382960E+03  0.60160382962E+03  0.50400001928E-02 0. -1.
    10030    2    1    2    0    0  0.00000000000E+00  0.00000000000E+00  0.12824846437E+04  0.24856923029E+04  0.21292955087E+04 0.  0.
        1    1    3    3  502    0  0.11664227874E+03 -0.18132735484E+01  0.18766050229E+04  0.18802274120E+04  0.50400001928E-02 0.  1.
       -1    1    3    3    0  502 -0.11664227874E+03  0.18132735484E+01 -0.59412037915E+03  0.60546489089E+03  0.50400001928E-02 0. -1.
</event>
<event>
 5   0  0.2319707E-05  0.2204207E+04  0.7818609E-02  0.8516679E-01
        2   -1    0    0  501    0  0.00000000000E+00  0.00000000000E+00  0.11438188195E+04  0.11438188195E+04  0.25500000920E-02 0.  1.
       -2   -1    0    0    0  501  0.00000000000E+00  0.00000000000E+00 -0.10619098518E+04  0.10619098518E+04  0.25500000920E-02 0. -1.
    10030    2    1    2    0    0  0.00000000000E+00  0.00000000000E+00  0.81908967727E+02  0.22057286713E+04  0.22042073161E+04 0.  0.
        3    1    3    3  502    0 -0.42311340701E+03  0.10146051219E+04 -0.37737915484E+02  0.10999421207E+04  0.10100000352E+00 0. -1.
       -3    1    3    3    0  502  0.42311340701E+03 -0.10146051219E+04  0.11964688321E+03  0.11057865506E+04  0.10100000352E+00 0.  1.
</event>
<event>
 5   0  0.1033733E-05  0.2182497E+04  0.7818609E-02  0.8525749E-01
       -1   -1    0    0    0  501  0.00000000000E+00  0.00000000000E+00  0.67252173268E+03  0.67252173270E+03  0.50400001928E-02 0.  1.
        1   -1    0    0  501    0  0.00000000000E+00  0.00000000000E+00 -0.17706842288E+04  0.17706842288E+04  0.50400001928E-02 0. -1.
    10030    2    1    2    0    0  0.00000000000E+00  0.00000000000E+00 -0.10981624962E+04  0.24432059616E+04  0.21824973087E+04 0.  0.
        5    1    3    3  502    0  0.36909775982E+03 -0.51921873741E+03 -0.15409078137E+04  0.16674052399E+04  0.46999998093E+01 0. -1.
       -5    1    3    3    0  502 -0.36909775982E+03  0.51921873741E+03  0.44274531754E+03  0.77580072169E+03  0.46999998093E+01 0.  1.
</event>
<event>
 5   0  0.2319707E-05  0.2196723E+04  0.7818609E-02  0.8519793E-01
        2   -1    0    0  501    0  0.00000000000E+00  0.00000000000E+00  0.11867977938E+04  0.11867977938E+04  0.25500000920E-02 0.  1.
       -2   -1    0    0    0  501  0.00000000000E+00  0.00000000000E+00 -0.10165147672E+04  0.10165147672E+04  0.25500000920E-02 0. -1.
    10030    2    1    2    0    0  0.00000000000E+00  0.00000000000E+00  0.17028302665E+03  0.22033125610E+04  0.21967225433E+04 0.  0.
        3    1    3    3  502    0  0.81525396020E+03  0.97618876057E+02  0.81687035621E+03  0.11582079492E+04  0.10100000352E+00 0.  1.
       -3    1    3    3    0  502 -0.81525396020E+03 -0.97618876057E+02 -0.64658732956E+03  0.10451046118E+04  0.10100000352E+00 0. -1.
</event>
<event>
 5   0  0.2298329E-05  0.2192818E+04  0.7818609E-02  0.8521423E-01
       -2   -1    0    0    0  501  0.00000000000E+00  0.00000000000E+00  0.62762466350E+03  0.62762466350E+03  0.25500000920E-02 0.  1.
        2   -1    0    0  501    0  0.00000000000E+00  0.00000000000E+00 -0.19153365886E+04  0.19153365886E+04  0.25500000920E-02 0. -1.
    10030    2    1    2    0    0  0.00000000000E+00  0.00000000000E+00 -0.12877119251E+04  0.25429612521E+04  0.21928178054E+04 0.  0.
        4    1    3    3  502    0 -0.36286581665E+03  0.22610349772E+03 -0.18146802314E+04  0.18643659372E+04  0.12699999809E+01 0. -1.
       -4    1    3    3    0  502  0.36286581665E+03 -0.22610349772E+03  0.52696830635E+03  0.67859531488E+03  0.12699999809E+01 0.  1.
</event>
<event>
 5   0  0.2319707E-05  0.2202633E+04  0.7818609E-02  0.8517333E-01
       -2   -1    0    0    0  501  0.00000000000E+00  0.00000000000E+00  0.63274623363E+03  0.63274623363E+03  0.25500000920E-02 0.  1.
        2   -1    0    0  501    0  0.00000000000E+00  0.00000000000E+00 -0.19168790856E+04  0.19168790856E+04  0.25500000920E-02 0. -1.
    10030    2    1    2    0    0  0.00000000000E+00  0.00000000000E+00 -0.12841328520E+04  0.25496253192E+04  0.22026329896E+04 0.  0.
        3    1    3    3  502    0  0.67312297785E+03  0.25265403680E+03 -0.16077376681E+04  0.17611783059E+04  0.10100000352E+00 0. -1.
       -3    1    3    3    0  502 -0.67312297785E+03 -0.25265403680E+03  0.32360481611E+03  0.78844701333E+03  0.10100000352E+00 0.  1.
</event>
<event>
 5   0  0.2229552E-05  0.2199190E+04  0.7818609E-02  0.8518765E-01
       -2   -1    0    0    0  501  0.00000000000E+00  0.00000000000E+00  0.98451145471E+03  0.98451145471E+03  0.25500000920E-02 0.  1.
        2   -1    0    0  501    0  0.00000000000E+00  0.00000000000E+00 -0.12281313962E+04  0.12281313962E+04  0.25500000920E-02 0. -1.
    10030    2    1    2    0    0  0.00000000000E+00  0.00000000000E+00 -0.24361994145E+03  0.22126428509E+04  0.21991902395E+04 0.  0.
        1    1    3    3  502    0  0.48598518543E+03  0.24095841440E+03 -0.10841476042E+04  0.12122782624E+04  0.50400001928E-02 0. -1.
       -1    1    3    3    0  502 -0.48598518543E+03 -0.24095841440E+03  0.84052766274E+03  0.10003645884E+04  0.50400001928E-02 0.  1.
</event>
<event>
 5   0  0.1007682E-05  0.2198929E+04  0.7818609E-02  0.8518874E-01
       -1   -1    0    0    0  501  0.00000000000E+00  0.00000000000E+00  0.13194250713E+04  0.13194250713E+04  0.50400001928E-02 0.  1.
        1   -1    0    0  501    0  0.00000000000E+00  0.00000000000E+00 -0.91617357581E+03  0.91617357583E+03  0.50400001928E-02 0. -1.
    10030    2    1    2    0    0  0.00000000000E+00  0.00000000000E+00  0.40325149548E+03  0.22355986471E+04  0.21989291809E+04 0.  0.
        2    1    3    3  502    0  0.49633366367E+03  0.74882772954E+03 -0.44276749442E+03  0.10015653390E+04  0.25500000920E-02 0. -1.
       -2    1    3    3    0  502 -0.49633366367E+03 -0.74882772954E+03  0.84601898990E+03  0.12340333081E+04  0.25500000920E-02 0.  1.
</event>
<event>
 5   0  0.1071208E-05  0.2200754E+04  0.7818609E-02  0.8518114E-01
       -1   -1    0    0    0  501  0.00000000000E+00  0.00000000000E+00  0.11414070579E+04  0.11414070579E+04  0.50400001928E-02 0. -1.
        1   -1    0    0  501    0  0.00000000000E+00  0.00000000000E+00 -0.10608219666E+04  0.10608219666E+04  0.50400001928E-02 0.  1.
    10030    2    1    2    0    0  0.00000000000E+00  0.00000000000E+00  0.80585091313E+02  0.22022290245E+04  0.22007541251E+04 0.  0.
        4    1    3    3  502    0 -0.35661634876E+03 -0.90117267938E+03 -0.48115230507E+03  0.10820335354E+04  0.12699999809E+01 0. -1.
       -4    1    3    3    0  502  0.35661634876E+03  0.90117267938E+03  0.56173739638E+03  0.11201954890E+04  0.12699999809E+01 0.  1.
</event>
<event>
 5   0  0.2289708E-05  0.2104423E+04  0.7818609E-02  0.8559297E-01
        2   -1    0    0  501    0  0.00000000000E+00  0.00000000000E+00  0.94217502223E+03  0.94217502224E+03  0.25500000920E-02 0. -1.
       -2   -1    0    0    0  501  0.00000000000E+00  0.00000000000E+00 -0.11750996079E+04  0.11750996079E+04  0.25500000920E-02 0.  1.
    10030    2    1    2    0    0  0.00000000000E+00  0.00000000000E+00 -0.23292458567E+03  0.21172746301E+04  0.21044234357E+04 0.  0.
        5    1    3    3  502    0 -0.18114731409E+03  0.83558632334E+03  0.50055973779E+03  0.99075778788E+03  0.46999998093E+01 0. -1.
       -5    1    3    3    0  502  0.18114731409E+03 -0.83558632334E+03 -0.73348432346E+03  0.11265168423E+04  0.46999998093E+01 0.  1.
</event>
<event>
 5   0  0.1049198E-05  0.2205386E+04  0.7818609E-02  0.8516190E-01
       -1   -1    0    0    0  501  0.00000000000E+00  0.00000000000E+00  0.95146104053E+03  0.95146104055E+03  0.50400001928E-02 0. -1.
        1   -1    0    0  501    0  0.00000000000E+00  0.00000000000E+00 -0.12779623281E+04  0.12779623281E+04  0.50400001928E-02 0.  1.
    10030    2    1    2    0    0  0.00000000000E+00  0.00000000000E+00 -0.32650128753E+03  0.22294233686E+04  0.22053855594E+04 0.  0.
        1    1    3    3  502    0 -0.18017846213E+03 -0.51695851019E+03  0.80437671749E+03  0.97300168712E+03  0.50400001928E-02 0. -1.
       -1    1    3    3    0  502  0.18017846213E+03  0.51695851019E+03 -0.11308780050E+04  0.12564216815E+04  0.50400001928E-02 0.  1.
</event>
<event>
 5   0  0.1071208E-05  0.2195494E+04  0.7818609E-02  0.8520306E-01
       -1   -1    0    0    0  501  0.00000000000E+00  0.00000000000E+00  0.67943653124E+03  0.67943653125E+03  0.50400001928E-02 0.  1.
        1   -1    0    0  501    0  0.00000000000E+00  0.00000000000E+00 -0.17735999638E+04  0.17735999638E+04  0.50400001928E-02 0. -1.
    10030    2    1    2    0    0  0.00000000000E+00  0.00000000000E+00 -0.10941634325E+04  0.24530364950E+04  0.21954941195E+04 0.  0.
        4    1    3    3  502    0 -0.34794396635E+03 -0.93770844436E+03 -0.10525740757E+04  0.14519903334E+04  0.12699999809E+01 0. -1.
       -4    1    3    3    0  502  0.34794396635E+03  0.93770844436E+03 -0.41589356818E+02  0.10010461617E+04  0.12699999809E+01 0.  1.
</event>
<event>
 5   0  0.1033733E-05  0.2198591E+04  0.7818609E-02  0.8519015E-01
       -1   -1    0    0    0  501  0.00000000000E+00  0.00000000000E+00  0.80083782755E+03  0.80083782757E+03  0.50400001928E-02 0.  1.
        1   -1    0    0  501    0  0.00000000000E+00  0.00000000000E+00 -0.15089824716E+04  0.15089824716E+04  0.50400001928E-02 0. -1.
    10030    2    1    2    0    0  0.00000000000E+00  0.00000000000E+00 -0.70814464403E+03  0.23098202992E+04  0.21985906799E+04 0.  0.
        5    1    3    3  502    0 -0.43903013872E+03 -0.25712140563E+03  0.66968527574E+03  0.84104657331E+03  0.46999998093E+01 0.  1.
       -5    1    3    3    0  502  0.43903013872E+03  0.25712140563E+03 -0.13778299198E+04  0.14687737258E+04  0.46999998093E+01 0. -1.
</event>
<event>
 5   0  0.2298329E-05  0.2194225E+04  0.7818609E-02  0.8520836E-01
        2   -1    0    0  501    0  0.00000000000E+00  0.00000000000E+00  0.85427480535E+03  0.85427480535E+03  0.25500000920E-02 0.  1.
       -2   -1    0    0    0  501  0.00000000000E+00  0.00000000000E+00 -0.14089790488E+04  0.14089790488E+04  0.25500000920E-02 0. -1.
    10030    2    1    2    0    0  0.00000000000E+00  0.00000000000E+00 -0.55470424344E+03  0.22632538541E+04  0.21942245123E+04 0.  0.
        4    1    3    3  502    0  0.60248210841E+03  0.91598023816E+03 -0.23546416813E+03  0.11213605464E+04  0.12699999809E+01 0. -1.
       -4    1    3    3    0  502 -0.60248210841E+03 -0.91598023816E+03 -0.31924007531E+03  0.11418933077E+04  0.12699999809E+01 0.  1.
</event>
<event>
 5   0  0.1049198E-05  0.2203841E+04  0.7818609E-02  0.8516831E-01
       -1   -1    0    0    0  501  0.00000000000E+00  0.00000000000E+00  0.74574328748E+03  0.74574328749E+03  0.50400001928E-02 0.  1.
        1   -1    0    0  501    0  0.00000000000E+00  0.00000000000E+00 -0.16282132614E+04  0.16282132614E+04  0.50400001928E-02 0. -1.
    10030    2    1    2    0    0  0.00000000000E+00  0.00000000000E+00 -0.88246997395E+03  0.23739565489E+04  0.22038412922E+04 0.  0.
        1    1    3    3  502    0  0.19176996636E+03  0.24429688815E+03  0.69762187968E+03  0.76363144029E+03  0.50400001928E-02 0.  1.
       -1    1    3    3    0  502 -0.19176996636E+03 -0.24429688815E+03 -0.15800918536E+04  0.16103251086E+04  0.50400001928E-02 0. -1.
</event>
<event>
 5   0  0.2284329E-05  0.2228854E+04  0.7818609E-02  0.8506513E-01
        2   -1    0    0  501    0  0.00000000000E+00  0.00000000000E+00  0.14270387507E+04  0.14270387507E+04  0.25500000920E-02 0. -1.
       -2   -1    0    0    0  501  0.00000000000E+00  0.00000000000E+00 -0.87029735905E+03  0.87029735906E+03  0.25500000920E-02 0.  1.
    10030    2    1    2    0    0  0.00000000000E+00  0.00000000000E+00  0.55674139166E+03  0.22973361098E+04  0.22288544645E+04 0.  0.
        2    1    3    3  502    0  0.38045820271E+03  0.83632616994E+03  0.92842908969E+03  0.13062046092E+04  0.25500000920E-02 0.  1.
       -2    1    3    3    0  502 -0.38045820271E+03 -0.83632616994E+03 -0.37168769803E+03  0.99113150056E+03  0.25500000920E-02 0. -1.
</event>
<event>
 5   0  0.2289708E-05  0.2201016E+04  0.7818609E-02  0.8518006E-01
       -2   -1    0    0    0  501  0.00000000000E+00  0.00000000000E+00  0.10211649701E+04  0.10211649701E+04  0.25500000920E-02 0.  1.
        2   -1    0    0  501    0  0.00000000000E+00  0.00000000000E+00 -0.11860153667E+04  0.11860153667E+04  0.25500000920E-02 0. -1.
    10030    2    1    2    0    0  0.00000000000E+00  0.00000000000E+00 -0.16485039663E+03  0.22071803369E+04  0.22010155352E+04 0.  0.
        5    1    3    3  502    0 -0.73521336036E+03 -0.21022634290E+03  0.71122151684E+03  0.10443140986E+04  0.46999998093E+01 0.  1.
       -5    1    3    3    0  502  0.73521336036E+03  0.21022634290E+03 -0.87607191347E+03  0.11628662383E+04  0.46999998093E+01 0. -1.
</event>
<event>
 5   0  0.1005538E-05  0.2221688E+04  0.7818609E-02  0.8509455E-01
        1   -1    0    0  501    0  0.00000000000E+00  0.00000000000E+00  0.15186485964E+04  0.15186485964E+04  0.50400001928E-02 0. -1.
       -1   -1    0    0    0  501  0.00000000000E+00  0.00000000000E+00 -0.81254774998E+03  0.81254775000E+03  0.50400001928E-02 0.  1.
    10030    2    1    2    0    0  0.00000000000E+00  0.00000000000E+00  0.70610084644E+03  0.23311963464E+04  0.22216880970E+04 0.  0.
        3    1    3    3  502    0 -0.12657427326E+03 -0.76158989349E+03  0.11911270614E+04  0.14194449264E+04  0.10100000352E+00 0. -1.
       -3    1    3    3    0  502  0.12657427326E+03  0.76158989349E+03 -0.48502621495E+03  0.91175142002E+03  0.10100000352E+00 0.  1.
</event>
<event>
 5   0  0.1033733E-05  0.2199226E+04  0.7818609E-02  0.8518750E-01
       -1   -1    0    0    0  501  0.00000000000E+00  0.00000000000E+00  0.13595983414E+04  0.13595983415E+04  0.50400001928E-02 0.  1.
        1   -1    0    0  501    0  0.00000000000E+00  0.00000000000E+00 -0.88934230172E+03  0.88934230173E+03  0.50400001928E-02 0. -1.
    10030    2    1    2    0    0  0.00000000000E+00  0.00000000000E+00  0.47025603973E+03  0.22489406432E+04  0.21992256077E+04 0.  0.
        5    1    3    3  502    0 -0.39353798622E+03  0.60285513452E+03 -0.61481651911E+03  0.94674595430E+03  0.46999998093E+01 0. -1.
       -5    1    3    3    0  502  0.39353798622E+03 -0.60285513452E+03  0.10850725588E+04  0.13021946889E+04  0.46999998093E+01 0.  1.
</event>
<event>
 5   0  0.2284329E-05  0.2202054E+04  0.7818609E-02  0.8517574E-01
       -2   -1    0    0    0  501  0.00000000000E+00  0.00000000000E+00  0.63942825052E+03  0.63942825053E+03  0.25500000920E-02 0. -1.
        2   -1    0    0  501    0  0.00000000000E+00  0.00000000000E+00 -0.18958506477E+04  0.18958506477E+04  0.25500000920E-02 0.  1.
    10030    2    1    2    0    0  0.00000000000E+00  0.00000000000E+00 -0.12564223972E+04  0.25352788982E+04  0.22020540074E+04 0.  0.
        2    1    3    3  502    0 -0.26294540260E+03  0.93944934906E+03 -0.12159002007E+04  0.15588837873E+04  0.25500000920E-02 0.  1.
       -2    1    3    3    0  502  0.26294540260E+03 -0.93944934906E+03 -0.40522196423E+02  0.97639511091E+03  0.25500000920E-02 0. -1.
</event>
<event>
 5   0  0.1071208E-05  0.2201008E+04  0.7818609E-02  0.8518009E-01
       -1   -1    0    0    0  501  0.00000000000E+00  0.00000000000E+00  0.11294354345E+04  0.11294354345E+04  0.50400001928E-02 0. -1.
        1   -1    0    0  501    0  0.00000000000E+00  0.00000000000E+00 -0.10723134399E+04  0.10723134400E+04  0.50400001928E-02 0.  1.
    10030    2    1    2    0    0  0.00000000000E+00  0.00000000000E+00  0.57121994541E+02  0.22017488745E+04  0.22010077655E+04 0.  0.
        4    1    3    3  502    0  0.59040193721E+03 -0.31289309552E+03 -0.84616504895E+03  0.10781806155E+04  0.12699999809E+01 0.  1.
       -4    1    3    3    0  502 -0.59040193721E+03  0.31289309552E+03  0.90328704349E+03  0.11235682590E+04  0.12699999809E+01 0. -1.
</event>
<event>
 5   0  0.2319707E-05  0.2159122E+04  0.7818609E-02  0.8535638E-01
        2   -1    0    0  501    0  0.00000000000E+00  0.00000000000E+00  0.68275804929E+03  0.68275804929E+03  0.25500000920E-02 0. -1.
       -2   -1    0    0    0  501  0.00000000000E+00  0.00000000000E+00 -0.17069771023E+04  0.17069771023E+04  0.25500000920E-02 0.  1.
    10030    2    1    2    0    0  0.00000000000E+00  0.00000000000E+00 -0.10242190530E+04  0.23897351515E+04  0.21591223740E+04 0.  0.
        3    1    3    3  502    0  0.62188772231E+03 -0.53838049715E+03  0.26175029584E+03  0.86319819650E+03  0.10100000352E+00 0. -1.
       -3    1    3    3    0  502 -0.62188772231E+03  0.53838049715E+03 -0.12859693488E+04  0.15265369550E+04  0.10100000352E+00 0.  1.
</event>
<event>
 5   0  0.2289708E-05  0.2196993E+04  0.7818609E-02  0.8519681E-01
       -2   -1    0    0    0  501  0.00000000000E+00  0.00000000000E+00  0.54029752133E+03  0.54029752134E+03  0.25500000920E-02 0.  1.
        2   -1    0    0  501    0  0.00000000000E+00  0.00000000000E+00 -0.22333890816E+04  0.22333890816E+04  0.25500000920E-02 0. -1.
    10030    2    1    2    0    0  0.00000000000E+00  0.00000000000E+00 -0.16930915603E+04  0.27736866030E+04  0.21969930223E+04 0.  0.
        5    1    3    3  502    0  0.42743046951E+03 -0.67894114289E+03 -0.17938479780E+04  0.19650879216E+04  0.46999998093E+01 0. -1.
       -5    1    3    3    0  502 -0.42743046951E+03  0.67894114289E+03  0.10075641765E+03  0.80859868134E+03  0.46999998093E+01 0.  1.
</event>
<event>
 5   0  0.2229552E-05  0.2203542E+04  0.7818609E-02  0.8516955E-01
        2   -1    0    0  501    0  0.00000000000E+00  0.00000000000E+00  0.10091297933E+04  0.10091297933E+04  0.25500000920E-02 0. -1.
       -2   -1    0    0    0  501  0.00000000000E+00  0.00000000000E+00 -0.12029170618E+04  0.12029170618E+04  0.25500000920E-02 0.  1.
    10030    2    1    2    0    0  0.00000000000E+00  0.00000000000E+00 -0.19378726852E+03  0.22120468550E+04  0.22035420993E+04 0.  0.
        1    1    3    3  502    0  0.30521953937E+03 -0.88803479241E+03  0.48164196282E+03  0.10553405802E+04  0.50400001928E-02 0. -1.
       -1    1    3    3    0  502 -0.30521953937E+03  0.88803479241E+03 -0.67542923134E+03  0.11567062749E+04  0.50400001928E-02 0.  1.
</event>
<event>
 5   0  0.1071208E-05  0.2192338E+04  0.7818609E-02  0.8521624E-01
       -1   -1    0    0    0  501  0.00000000000E+00  0.00000000000E+00  0.11812415356E+04  0.11812415356E+04  0.50400001928E-02 0. -1.
        1   -1    0    0  501    0  0.00000000000E+00  0.00000000000E+00 -0.10172229531E+04  0.10172229531E+04  0.50400001928E-02 0.  1.
    10030    2    1    2    0    0  0.00000000000E+00  0.00000000000E+00  0.16401858250E+03  0.21984644887E+04  0.21923375681E+04 0.  0.
        4    1    3    3  502    0  0.34394234139E+03  0.40778369858E+03  0.10422869342E+04  0.11708746923E+04  0.12699999809E+01 0. -1.
       -4    1    3    3    0  502 -0.34394234139E+03 -0.40778369858E+03 -0.87826835170E+03  0.10275897963E+04  0.12699999809E+01 0.  1.
</event>
<event>
 5   0  0.2229552E-05  0.2197458E+04  0.7818609E-02  0.8519487E-01
       -2   -1    0    0    0  501  0.00000000000E+00  0.00000000000E+00  0.68857560515E+03  0.68857560516E+03  0.25500000920E-02 0.  1.
        2   -1    0    0  501    0  0.00000000000E+00  0.00000000000E+00 -0.17531923767E+04  0.17531923767E+04  0.25500000920E-02 0. -1.
    10030    2    1    2    0    0  0.00000000000E+00  0.00000000000E+00 -0.10646167716E+04  0.24417679819E+04  0.21974580786E+04 0.  0.
        1    1    3    3  502    0  0.24557087633E+03  0.11209527955E+03  0.65115405762E+03  0.70489149078E+03  0.50400001928E-02 0.  1.
       -1    1    3    3    0  502 -0.24557087633E+03 -0.11209527955E+03 -0.17157708292E+04  0.17368764911E+04  0.50400001928E-02 0. -1.
</event>
<event>
 5   0  0.1049198E-05  0.2259678E+04  0.7818609E-02  0.8493991E-01
       -1   -1    0    0    0  501  0.00000000000E+00  0.00000000000E+00  0.10400143730E+04  0.10400143730E+04  0.50400001928E-02 0.  1.
        1   -1    0    0  501    0  0.00000000000E+00  0.00000000000E+00 -0.12274216805E+04  0.12274216805E+04  0.50400001928E-02 0. -1.
    10030    2    1    2    0    0  0.00000000000E+00  0.00000000000E+00 -0.18740730752E+03  0.22674360535E+04  0.22596780208E+04 0.  0.
        1    1    3    3  502    0  0.31884018134E+00 -0.66890603940E+03 -0.10073795189E+04  0.12092348351E+04  0.50400001928E-02 0. -1.
       -1    1    3    3    0  502 -0.31884018134E+00  0.66890603940E+03  0.81997221140E+03  0.10582012184E+04  0.50400001928E-02 0.  1.
</event>
<event>
 5   0  0.2298329E-05  0.2199703E+04  0.7818609E-02  0.8518552E-01
       -2   -1    0    0    0  501  0.00000000000E+00  0.00000000000E+00  0.77576831847E+03  0.77576831848E+03  0.25500000920E-02 0. -1.
        2   -1    0    0  501    0  0.00000000000E+00  0.00000000000E+00 -0.15593235794E+04  0.15593235794E+04  0.25500000920E-02 0.  1.
    10030    2    1    2    0    0  0.00000000000E+00  0.00000000000E+00 -0.78355526091E+03  0.23350918979E+04  0.21997034629E+04 0.  0.
        4    1    3    3  502    0 -0.15409307364E+03  0.93412719614E+02 -0.15435463024E+04  0.15540294116E+04  0.12699999809E+01 0.  1.
       -4    1    3    3    0  502  0.15409307364E+03 -0.93412719614E+02  0.75999104146E+03  0.78106248631E+03  0.12699999809E+01 0. -1.
</event>
<event>
 5   0  0.1049198E-05  0.2199106E+04  0.7818609E-02  0.8518800E-01
       -1   -1    0    0    0  501  0.00000000000E+00  0.00000000000E+00  0.79981305668E+03  0.79981305670E+03  0.50400001928E-02 0.  1.
        1   -1    0    0  501    0  0.00000000000E+00  0.00000000000E+00 -0.15116246399E+04  0.15116246399E+04  0.50400001928E-02 0. -1.
    10030    2    1    2    0    0  0.00000000000E+00  0.00000000000E+00 -0.71181158321E+03  0.23114376966E+04  0.21991062947E+04 0.  0.
        1    1    3    3  502    0 -0.77600057435E+03 -0.13587175855E+03 -0.11621462502E+04  0.14040021129E+04  0.50400001928E-02 0. -1.
       -1    1    3    3    0  502  0.77600057435E+03  0.13587175855E+03  0.45033466702E+03  0.90743558367E+03  0.50400001928E-02 0.  1.
</event>
<event>
 5   0  0.2289708E-05  0.2199870E+04  0.7818609E-02  0.8518482E-01
       -2   -1    0    0    0  501  0.00000000000E+00  0.00000000000E+00  0.92029016670E+03  0.92029016670E+03  0.25500000920E-02 0. -1.
        2   -1    0    0  501    0  0.00000000000E+00  0.00000000000E+00 -0.13146471081E+04  0.13146471081E+04  0.25500000920E-02 0.  1.
    10030    2    1    2    0    0  0.00000000000E+00  0.00000000000E+00 -0.39435694141E+03  0.22349372748E+04  0.21998698200E+04 0.  0.
        5    1    3    3  502    0 -0.54562394892E+03  0.33219876168E+03 -0.11068699489E+04  0.12779846183E+04  0.46999998093E+01 0.  1.
       -5    1    3    3    0  502  0.54562394892E+03 -0.33219876168E+03  0.71251300750E+03  0.95695265648E+03  0.46999998093E+01 0. -1.
</event>
<event>
 5   0  0.2289708E-05  0.2198348E+04  0.7818609E-02  0.8519116E-01
       -2   -1    0    0    0  501  0.00000000000E+00  0.00000000000E+00  0.11844462063E+04  0.11844462063E+04  0.25500000920E-02 0. -1.
        2   -1    0    0  501    0  0.00000000000E+00  0.00000000000E+00 -0.10200406188E+04  0.10200406188E+04  0.25500000920E-02 0.  1.
    10030    2    1    2    0    0  0.00000000000E+00  0.00000000000E+00  0.16440558753E+03  0.22044868251E+04  0.21983477807E+04 0.  0.
        5    1    3    3  502    0 -0.77588118892E+03 -0.12538109491E+02  0.86284465772E+03  0.11604618981E+04  0.46999998093E+01 0. -1.
       -5    1    3    3    0  502  0.77588118892E+03  0.12538109491E+02 -0.69843907020E+03  0.10440249270E+04  0.46999998093E+01 0.  1.
</event>
<event>
 5   0  0.2284329E-05  0.2199913E+04  0.7818609E-02  0.8518464E-01
        2   -1    0    0  501    0  0.00000000000E+00  0.00000000000E+00  0.13739975030E+04  0.13739975030E+04  0.25500000920E-02 0.  1.
       -2   -1    0    0    0  501  0.00000000000E+00  0.00000000000E+00 -0.88057252452E+03  0.88057252453E+03  0.25500000920E-02 0. -1.
    10030    2    1    2    0    0  0.00000000000E+00  0.00000000000E+00  0.49342497845E+03  0.22545700275E+04  0.21999131345E+04 0.  0.
        2    1    3    3  502    0 -0.10798322413E+04 -0.11377835881E+03  0.42692578406E+03  0.11667256787E+04  0.25500000920E-02 0.  1.
       -2    1    3    3    0  502  0.10798322413E+04  0.11377835881E+03  0.66499194387E+02  0.10878443488E+04  0.25500000920E-02 0. -1.
</event>
<event>
 5   0  0.2284329E-05  0.2210912E+04  0.7818609E-02  0.8513900E-01
        2   -1    0    0  501    0  0.00000000000E+00  0.00000000000E+00  0.27575011652E+04  0.27575011652E+04  0.25500000920E-02 0. -1.
       -2   -1    0    0    0  501  0.00000000000E+00  0.00000000000E+00 -0.44316667812E+03  0.44316667813E+03  0.25500000920E-02 0.  1.
    10030    2    1    2    0    0  0.00000000000E+00  0.00000000000E+00  0.23143344871E+04  0.32006678433E+04  0.22109116955E+04 0.  0.
        2    1    3    3  502    0  0.84224037005E+03 -0.67079928745E+03  0.15196402252E+04  0.18624303850E+04  0.25500000920E-02 0. -1.
       -2    1    3    3    0  502 -0.84224037005E+03  0.67079928745E+03  0.79469426191E+03  0.13382374583E+04  0.25500000920E-02 0.  1.
</event>
<event>
 5   0  0.2229552E-05  0.2197491E+04  0.7818609E-02  0.8519473E-01
       -2   -1    0    0    0  501  0.00000000000E+00  0.00000000000E+00  0.70742492382E+03  0.70742492382E+03  0.25500000920E-02 0.  1.
        2   -1    0    0  501    0  0.00000000000E+00  0.00000000000E+00 -0.17065294589E+04  0.17065294589E+04  0.25500000920E-02 0. -1.
    10030    2    1    2    0    0  0.00000000000E+00  0.00000000000E+00 -0.99910453513E+03  0.24139543828E+04  0.21974908168E+04 0.  0.
        1    1    3    3  502    0 -0.36059293368E+03  0.72398919011E+03  0.31737934919E+03  0.86885974848E+03  0.50400001928E-02 0.  1.
       -1    1    3    3    0  502  0.36059293368E+03 -0.72398919011E+03 -0.13164838843E+04  0.15450946343E+04  0.50400001928E-02 0. -1.
</event>
<event>
 5   0  0.1033733E-05  0.2206931E+04  0.7818609E-02  0.8515549E-01
       -1   -1    0    0    0  501  0.00000000000E+00  0.00000000000E+00  0.12931953106E+04  0.12931953106E+04  0.50400001928E-02 0.  1.
        1   -1    0    0  501    0  0.00000000000E+00  0.00000000000E+00 -0.94157144479E+03  0.94157144480E+03  0.50400001928E-02 0. -1.
    10030    2    1    2    0    0  0.00000000000E+00  0.00000000000E+00  0.35162386577E+03  0.22347667554E+04  0.22069306985E+04 0.  0.
        5    1    3    3  502    0 -0.23617240858E+03  0.88971610669E+03 -0.44033752724E+03  0.10204368599E+04  0.46999998093E+01 0. -1.
       -5    1    3    3    0  502  0.23617240858E+03 -0.88971610669E+03  0.79196139301E+03  0.12143298955E+04  0.46999998093E+01 0.  1.
</event>
<event>
 5   0  0.1005538E-05  0.2352474E+04  0.7818609E-02  0.8457514E-01
       -1   -1    0    0    0  501  0.00000000000E+00  0.00000000000E+00  0.84609362366E+03  0.84609362367E+03  0.50400001928E-02 0. -1.
        1   -1    0    0  501    0  0.00000000000E+00  0.00000000000E+00 -0.16352012437E+04  0.16352012437E+04  0.50400001928E-02 0.  1.
    10030    2    1    2    0    0  0.00000000000E+00  0.00000000000E+00 -0.78910762007E+03  0.24812948674E+04  0.23524738857E+04 0.  0.
        3    1    3    3  502    0  0.20588072164E+03 -0.66682895763E+03  0.60412360013E+03  0.92304553773E+03  0.10100000352E+00 0. -1.
       -3    1    3    3    0  502 -0.20588072164E+03  0.66682895763E+03 -0.13932312202E+04  0.15582493297E+04  0.10100000352E+00 0.  1.
</event>
<event>
 5   0  0.2319707E-05  0.2205209E+04  0.7818609E-02  0.8516263E-01
        2   -1    0    0  501    0  0.00000000000E+00  0.00000000000E+00  0.22298543701E+04  0.22298543701E+04  0.25500000920E-02 0.  1.
       -2   -1    0    0    0  501  0.00000000000E+00  0.00000000000E+00 -0.54520905942E+03  0.54520905943E+03  0.25500000920E-02 0. -1.
    10030    2    1    2    0    0  0.00000000000E+00  0.00000000000E+00  0.16846453107E+04  0.27750634295E+04  0.22052091092E+04 0.  0.
        3    1    3    3  502    0 -0.84202292310E+03 -0.19684308503E+03  0.17031975178E+04  0.19101391567E+04  0.10100000352E+00 0.  1.
       -3    1    3    3    0  502  0.84202292310E+03  0.19684308503E+03 -0.18552207103E+02  0.86492427283E+03  0.10100000352E+00 0. -1.
</event>
<event>
 5   0  0.1049198E-05  0.2212839E+04  0.7818609E-02  0.8513103E-01
       -1   -1    0    0    0  501  0.00000000000E+00  0.00000000000E+00  0.11754987306E+04  0.11754987306E+04  0.50400001928E-02 0. -1.
        1   -1    0    0  501    0  0.00000000000E+00  0.00000000000E+00 -0.10413997605E+04  0.10413997606E+04  0.50400001928E-02 0.  1.
    10030    2    1    2    0    0  0.00000000000E+00  0.00000000000E+00  0.13409897006E+03  0.22168984912E+04  0.22128389879E+04 0.  0.
        1    1    3    3  502    0  0.62233038448E+03  0.85586734705E+03 -0.25659125162E+03  0.10888723955E+04  0.50400001928E-02 0. -1.
       -1    1    3    3    0  502 -0.62233038448E+03 -0.85586734705E+03  0.39069022168E+03  0.11280260957E+04  0.50400001928E-02 0.  1.
</event>
<event>
 5   0  0.2284329E-05  0.2196914E+04  0.7818609E-02  0.8519714E-01
        2   -1    0    0  501    0  0.00000000000E+00  0.00000000000E+00  0.16722043261E+04  0.16722043261E+04  0.25500000920E-02 0.  1.
       -2   -1    0    0    0  501  0.00000000000E+00  0.00000000000E+00 -0.72156738097E+03  0.72156738097E+03  0.25500000920E-02 0. -1.
    10030    2    1    2    0    0  0.00000000000E+00  0.00000000000E+00  0.95063694510E+03  0.23937717070E+04  0.21969142869E+04 0.  0.
        2    1    3    3  502    0  0.87478597562E+03 -0.64405689810E+03  0.65285512002E+03  0.12673908627E+04  0.25500000920E-02 0.  1.
       -2    1    3    3    0  502 -0.87478597562E+03  0.64405689810E+03  0.29778182508E+03  0.11263808443E+04  0.25500000920E-02 0. -1.
</event>
<event>
 5   0  0.1071208E-05  0.2197626E+04  0.7818609E-02  0.8519417E-01
        1   -1    0    0  501    0  0.00000000000E+00  0.00000000000E+00  0.21297903049E+04  0.21297903049E+04  0.50400001928E-02 0.  1.
       -1   -1    0    0    0  501  0.00000000000E+00  0.00000000000E+00 -0.56690546438E+03  0.56690546440E+03  0.50400001928E-02 0. -1.
    10030    2    1    2    0    0  0.00000000000E+00  0.00000000000E+00  0.15628848405E+04  0.26966957693E+04  0.21976257751E+04 0.  0.
        4    1    3    3  502    0  0.53427231923E+03  0.82809695293E+03  0.18507336152E+03  0.10027189220E+04  0.12699999809E+01 0. -1.
       -4    1    3    3    0  502 -0.53427231923E+03 -0.82809695293E+03  0.13778114790E+04  0.16939768473E+04  0.12699999809E+01 0.  1.
</event>
<event>
 5   0  0.1049198E-05  0.2200386E+04  0.7818609E-02  0.8518268E-01
       -1   -1    0    0    0  501  0.00000000000E+00  0.00000000000E+00  0.11117200050E+04  0.11117200051E+04  0.50400001928E-02 0. -1.
        1   -1    0    0  501    0  0.00000000000E+00  0.00000000000E+00 -0.10887853095E+04  0.10887853095E+04  0.50400001928E-02 0.  1.
    10030    2    1    2    0    0  0.00000000000E+00  0.00000000000E+00  0.22934695538E+02  0.22005053146E+04  0.22003857933E+04 0.  0.
        1    1    3    3  502    0 -0.45167986897E+03  0.10026880989E+04 -0.20570029730E+02  0.10999187488E+04  0.50400001928E-02 0.  1.
       -1    1    3    3    0  502  0.45167986897E+03 -0.10026880989E+04  0.43504725268E+02  0.11005865658E+04  0.50400001928E-02 0. -1.
</event>
<event>
 5   0  0.1007682E-05  0.2198196E+04  0.7818609E-02  0.8519179E-01
       -1   -1    0    0    0  501  0.00000000000E+00  0.00000000000E+00  0.81662361661E+03  0.81662361663E+03  0.50400001928E-02 0. -1.
        1   -1    0    0  501    0  0.00000000000E+00  0.00000000000E+00 -0.14792821685E+04  0.14792821685E+04  0.50400001928E-02 0.  1.
    10030    2    1    2    0    0  0.00000000000E+00  0.00000000000E+00 -0.66265855187E+03  0.22959057851E+04  0.21981963101E+04 0.  0.
        2    1    3    3  502    0  0.74333618043E+03 -0.63607420533E+03 -0.85447008841E+03  0.12989450349E+04  0.25500000920E-02 0.  1.
       -2    1    3    3    0  502 -0.74333618043E+03  0.63607420533E+03  0.19181153654E+03  0.99696075017E+03  0.25500000920E-02 0. -1.
</event>
<event>
 5   0  0.1005538E-05  0.2193713E+04  0.7818609E-02  0.8521049E-01
       -1   -1    0    0    0  501  0.00000000000E+00  0.00000000000E+00  0.11916097779E+04  0.11916097779E+04  0.50400001928E-02 0. -1.
        1   -1    0    0  501    0  0.00000000000E+00  0.00000000000E+00 -0.10096381133E+04  0.10096381133E+04  0.50400001928E-02 0.  1.
    10030    2    1    2    0    0  0.00000000000E+00  0.00000000000E+00  0.18197166462E+03  0.22012478912E+04  0.21937134252E+04 0.  0.
        3    1    3    3  502    0  0.73661310363E+03  0.72966841675E+03 -0.26812568809E+03  0.10709370932E+04  0.10100000352E+00 0. -1.
       -3    1    3    3    0  502 -0.73661310363E+03 -0.72966841675E+03  0.45009735271E+03  0.11303107980E+04  0.10100000352E+00 0.  1.
</event>
<event>
 5   0  0.2298329E-05  0.2201248E+04  0.7818609E-02  0.8517909E-01
        2   -1    0    0  501    0  0.00000000000E+00  0.00000000000E+00  0.22442952823E+04  0.22442952823E+04  0.25500000920E-02 0.  1.
       -2   -1    0    0    0  501  0.00000000000E+00  0.00000000000E+00 -0.53975659308E+03  0.53975659309E+03  0.25500000920E-02 0. -1.
    10030    2    1    2    0    0  0.00000000000E+00  0.00000000000E+00  0.17045386892E+04  0.27840518754E+04  0.22012479874E+04 0.  0.
        4    1    3    3  502    0 -0.33309470367E+02 -0.10799972462E+04  0.11171695037E+04  0.15542113387E+04  0.12699999809E+01 0. -1.
       -4    1    3    3    0  502  0.33309470367E+02  0.10799972462E+04  0.58736918556E+03  0.12298405367E+04  0.12699999809E+01 0.  1.
</event>
<event>
 5   0  0.2298329E-05  0.2185806E+04  0.7818609E-02  0.8524359E-01
        2   -1    0    0  501    0  0.00000000000E+00  0.00000000000E+00  0.13234798095E+04  0.13234798095E+04  0.25500000920E-02 0.  1.
       -2   -1    0    0    0  501  0.00000000000E+00  0.00000000000E+00 -0.90249691743E+03  0.90249691744E+03  0.25500000920E-02 0. -1.
    10030    2    1    2    0    0  0.00000000000E+00  0.00000000000E+00  0.42098289209E+03  0.22259767270E+04  0.21858055251E+04 0.  0.
        4    1    3    3  502    0 -0.13350031912E+03 -0.31640729498E+03  0.12671043251E+04  0.13128179216E+04  0.12699999809E+01 0.  1.
       -4    1    3    3    0  502  0.13350031912E+03  0.31640729498E+03 -0.84612143304E+03  0.91315880540E+03  0.12699999809E+01 0. -1.
</event>
<event>
 5   0  0.1007682E-05  0.2211894E+04  0.7818609E-02  0.8513494E-01
       -1   -1    0    0    0  501  0.00000000000E+00  0.00000000000E+00  0.80305116086E+03  0.80305116088E+03  0.50400001928E-02 0.  1.
        1   -1    0    0  501    0  0.00000000000E+00  0.00000000000E+00 -0.15230891115E+04  0.15230891115E+04  0.50400001928E-02 0. -1.
    10030    2    1    2    0    0  0.00000000000E+00  0.00000000000E+00 -0.72003795060E+03  0.23261402723E+04  0.22118937398E+04 0.  0.
        2    1    3    3  502    0  0.56059831320E+03  0.70108342421E+03  0.31935900350E+03  0.95277416505E+03  0.25500000920E-02 0.  1.
       -2    1    3    3    0  502 -0.56059831320E+03 -0.70108342421E+03 -0.10393969541E+04  0.13733661073E+04  0.25500000920E-02 0. -1.
</event>
<event>
 5   0  0.2298329E-05  0.2194798E+04  0.7818609E-02  0.8520596E-01
        2   -1    0    0  501    0  0.00000000000E+00  0.00000000000E+00  0.15168958590E+04  0.15168958590E+04  0.25500000920E-02 0. -1.
       -2   -1    0    0    0  501  0.00000000000E+00  0.00000000000E+00 -0.79391371815E+03  0.79391371815E+03  0.25500000920E-02 0.  1.
    10030    2    1    2    0    0  0.00000000000E+00  0.00000000000E+00  0.72298214084E+03  0.23108095772E+04  0.21947978781E+04 0.  0.
        4    1    3    3  502    0 -0.10755575617E+04 -0.12251071613E+03  0.17183089961E+03  0.10960658808E+04  0.12699999809E+01 0. -1.
       -4    1    3    3    0  502  0.10755575617E+04  0.12251071613E+03  0.55115124123E+03  0.12147436963E+04  0.12699999809E+01 0.  1.
</event>
<event>
 5   0  0.2229552E-05  0.2196824E+04  0.7818609E-02  0.8519751E-01
        2   -1    0    0  501    0  0.00000000000E+00  0.00000000000E+00  0.13213582271E+04  0.13213582271E+04  0.25500000920E-02 0.  1.
       -2   -1    0    0    0  501  0.00000000000E+00  0.00000000000E+00 -0.91308200514E+03  0.91308200514E+03  0.25500000920E-02 0. -1.
    10030    2    1    2    0    0  0.00000000000E+00  0.00000000000E+00  0.40827622199E+03  0.22344402323E+04  0.21968235428E+04 0.  0.
        1    1    3    3  502    0  0.10964172267E+04  0.49436447010E+02  0.15941102403E+03  0.11090475968E+04  0.50400001928E-02 0. -1.
       -1    1    3    3    0  502 -0.10964172267E+04 -0.49436447010E+02  0.24886519796E+03  0.11253926355E+04  0.50400001928E-02 0.  1.
</event>
<event>
 5   0  0.2298329E-05  0.2203914E+04  0.7818609E-02  0.8516801E-01
       -2   -1    0    0    0  501  0.00000000000E+00  0.00000000000E+00  0.14902859695E+04  0.14902859695E+04  0.25500000920E-02 0. -1.
        2   -1    0    0  501    0  0.00000000000E+00  0.00000000000E+00 -0.81481657362E+03  0.81481657363E+03  0.25500000920E-02 0.  1.
    10030    2    1    2    0    0  0.00000000000E+00  0.00000000000E+00  0.67546939584E+03  0.23051025431E+04  0.22039144333E+04 0.  0.
        4    1    3    3  502    0  0.96809483442E+03  0.52174540632E+03  0.41081562713E+03  0.11739663410E+04  0.12699999809E+01 0.  1.
       -4    1    3    3    0  502 -0.96809483442E+03 -0.52174540632E+03  0.26465376872E+03  0.11311362021E+04  0.12699999809E+01 0. -1.
</event>
<event>
 5   0  0.1033733E-05  0.2207155E+04  0.7818609E-02  0.8515456E-01
        1   -1    0    0  501    0  0.00000000000E+00  0.00000000000E+00  0.16521968882E+04  0.16521968882E+04  0.50400001928E-02 0.  1.
       -1   -1    0    0    0  501  0.00000000000E+00  0.00000000000E+00 -0.73712969526E+03  0.73712969528E+03  0.50400001928E-02 0. -1.
    10030    2    1    2    0    0  0.00000000000E+00  0.00000000000E+00  0.91506719293E+03  0.23893265835E+04  0.22071550818E+04 0.  0.
        5    1    3    3  502    0  0.30123346806E+03  0.20650116366E+03 -0.66980099169E+03  0.76291532384E+03  0.46999998093E+01 0. -1.
       -5    1    3    3    0  502 -0.30123346806E+03 -0.20650116366E+03  0.15848681846E+04  0.16264112596E+04  0.46999998093E+01 0.  1.
</event>
<event>
 5   0  0.2289708E-05  0.2253896E+04  0.7818609E-02  0.8496324E-01
       -2   -1    0    0    0  501  0.00000000000E+00  0.00000000000E+00  0.41361225371E+03  0.41361225372E+03  0.25500000920E-02 0. -1.
        2   -1    0    0  501    0  0.00000000000E+00  0.00000000000E+00 -0.30705377171E+04  0.30705377171E+04  0.25500000920E-02 0.  1.
    10030    2    1    2    0    0  0.00000000000E+00  0.00000000000E+00 -0.26569254633E+04  0.34841499708E+04  0.22538962046E+04 0.  0.
        5    1    3    3  502    0  0.43507980652E+03 -0.78525297644E+03 -0.23815302100E+04  0.25451178571E+04  0.46999998093E+01 0.  1.
       -5    1    3    3    0  502 -0.43507980652E+03  0.78525297644E+03 -0.27539525331E+03  0.93903211372E+03  0.46999998093E+01 0. -1.
</event>
<event>
 5   0  0.1033733E-05  0.2198137E+04  0.7818609E-02  0.8519204E-01
        1   -1    0    0  501    0  0.00000000000E+00  0.00000000000E+00  0.20606441824E+04  0.20606441825E+04  0.50400001928E-02 0. -1.
       -1   -1    0    0    0  501  0.00000000000E+00  0.00000000000E+00 -0.58620085065E+03  0.58620085068E+03  0.50400001928E-02 0.  1.
    10030    2    1    2    0    0  0.00000000000E+00  0.00000000000E+00  0.14744433318E+04  0.26468450331E+04  0.21981368226E+04 0.  0.
        5    1    3    3  502    0  0.72986134038E+02 -0.37036729734E+03 -0.50567874059E+03  0.63105624899E+03  0.46999998093E+01 0.  1.
       -5    1    3    3    0  502 -0.72986134038E+02  0.37036729734E+03  0.19801220724E+04  0.20157887841E+04  0.46999998093E+01 0. -1.
</event>
<event>
 5   0  0.1005538E-05  0.2208154E+04  0.7818609E-02  0.8515042E-01
       -1   -1    0    0    0  501  0.00000000000E+00  0.00000000000E+00  0.67608755762E+03  0.67608755764E+03  0.50400001928E-02 0.  1.
        1   -1    0    0  501    0  0.00000000000E+00  0.00000000000E+00 -0.18030001240E+04  0.18030001240E+04  0.50400001928E-02 0. -1.
    10030    2    1    2    0    0  0.00000000000E+00  0.00000000000E+00 -0.11269125664E+04  0.24790876816E+04  0.22081539351E+04 0.  0.
        3    1    3    3  502    0  0.13946177992E+03  0.28198113044E+03  0.62470668125E+03  0.69944363160E+03  0.10100000352E+00 0.  1.
       -3    1    3    3    0  502 -0.13946177992E+03 -0.28198113044E+03 -0.17516192476E+04  0.17796440500E+04  0.10100000352E+00 0. -1.
</event>
<event>
 5   0  0.2319707E-05  0.2194572E+04  0.7818609E-02  0.8520691E-01
       -2   -1    0    0    0  501  0.00000000000E+00  0.00000000000E+00  0.12230918713E+04  0.12230918713E+04  0.25500000920E-02 0.  1.
        2   -1    0    0  501    0  0.00000000000E+00  0.00000000000E+00 -0.98442065802E+03  0.98442065803E+03  0.25500000920E-02 0. -1.
    10030    2    1    2    0    0  0.00000000000E+00  0.00000000000E+00  0.23867121329E+03  0.22075125293E+04  0.21945723089E+04 0.  0.
        3    1    3    3  502    0 -0.60038740226E+03  0.71990991006E+03 -0.45437961247E+03  0.10417274854E+04  0.10100000352E+00 0. -1.
       -3    1    3    3    0  502  0.60038740226E+03 -0.71990991006E+03  0.69305082576E+03  0.11657850439E+04  0.10100000352E+00 0.  1.
</event>
<event>
 5   0  0.1049198E-05  0.2198258E+04  0.7818609E-02  0.8519154E-01
       -1   -1    0    0    0  501  0.00000000000E+00  0.00000000000E+00  0.77564637385E+03  0.77564637387E+03  0.50400001928E-02 0. -1.
        1   -1    0    0  501    0  0.00000000000E+00  0.00000000000E+00 -0.15575195663E+04  0.15575195663E+04  0.50400001928E-02 0.  1.
    10030    2    1    2    0    0  0.00000000000E+00  0.00000000000E+00 -0.78187319243E+03  0.23331659402E+04  0.21982578591E+04 0.  0.
        1    1    3    3  502    0  0.54483287297E+03 -0.67122378163E+03  0.32946751741E+03  0.92516650909E+03  0.50400001928E-02 0. -1.
       -1    1    3    3    0  502 -0.54483287297E+03  0.67122378163E+03 -0.11113407098E+04  0.14079994311E+04  0.50400001928E-02 0.  1.
</event>
<event>
 5   0  0.1071208E-05  0.2199845E+04  0.7818609E-02  0.8518493E-01
        1   -1    0    0  501    0  0.00000000000E+00  0.00000000000E+00  0.12727112543E+04  0.12727112543E+04  0.50400001928E-02 0. -1.
       -1   -1    0    0    0  501  0.00000000000E+00  0.00000000000E+00 -0.95059250800E+03  0.95059250801E+03  0.50400001928E-02 0.  1.
    10030    2    1    2    0    0  0.00000000000E+00  0.00000000000E+00  0.32211874633E+03  0.22233037624E+04  0.21998452520E+04 0.  0.
        4    1    3    3  502    0 -0.40935655200E+03  0.22097574036E+02  0.11926134182E+04  0.12611064458E+04  0.12699999809E+01 0. -1.
       -4    1    3    3    0  502  0.40935655200E+03 -0.22097574036E+02 -0.87049467184E+03  0.96219731659E+03  0.12699999809E+01 0.  1.
</event>
<event>
 5   0  0.1033733E-05  0.2201166E+04  0.7818609E-02  0.8517943E-01
        1   -1    0    0  501    0  0.00000000000E+00  0.00000000000E+00  0.94680057130E+03  0.94680057131E+03  0.50400001928E-02 0. -1.
       -1   -1    0    0    0  501  0.00000000000E+00  0.00000000000E+00 -0.12793437198E+04  0.12793437198E+04  0.50400001928E-02 0.  1.
    10030    2    1    2    0    0  0.00000000000E+00  0.00000000000E+00 -0.33254314854E+03  0.22261442912E+04  0.22011663861E+04 0.  0.
        5    1    3    3  502    0  0.59509316420E+03 -0.92258489026E+03 -0.88177982024E+02  0.11014064646E+04  0.46999998093E+01 0. -1.
       -5    1    3    3    0  502 -0.59509316420E+03  0.92258489026E+03 -0.24436516652E+03  0.11247378265E+04  0.46999998093E+01 0.  1.
</event>
<event>
 5   0  0.1049198E-05  0.2190782E+04  0.7818609E-02  0.8522275E-01
        1   -1    0    0  501    0  0.00000000000E+00  0.00000000000E+00  0.10450680724E+04  0.10450680724E+04  0.50400001928E-02 0. -1.
       -1   -1    0    0    0  501  0.00000000000E+00  0.00000000000E+00 -0.11481368916E+04  0.11481368916E+04  0.50400001928E-02 0.  1.
    10030    2    1    2    0    0  0.00000000000E+00  0.00000000000E+00 -0.10306881916E+03  0.21932049640E+04  0.21907817857E+04 0.  0.
        1    1    3    3  502    0  0.17644519661E+02  0.10621737598E+04  0.21588795823E+03  0.10840350712E+04  0.50400001928E-02 0. -1.
       -1    1    3    3    0  502 -0.17644519661E+02 -0.10621737598E+04 -0.31895677739E+03  0.11091698928E+04  0.50400001928E-02 0.  1.
</event>
<event>
 5   0  0.1049198E-05  0.2190958E+04  0.7818609E-02  0.8522201E-01
       -1   -1    0    0    0  501  0.00000000000E+00  0.00000000000E+00  0.69342032017E+03  0.69342032018E+03  0.50400001928E-02 0.  1.
        1   -1    0    0  501    0  0.00000000000E+00  0.00000000000E+00 -0.17306589395E+04  0.17306589395E+04  0.50400001928E-02 0. -1.
    10030    2    1    2    0    0  0.00000000000E+00  0.00000000000E+00 -0.10372386193E+04  0.24240792597E+04  0.21909578507E+04 0.  0.
        1    1    3    3  502    0  0.26220703286E+03 -0.14316362971E+03  0.64748058738E+03  0.71307746003E+03  0.50400001928E-02 0.  1.
       -1    1    3    3    0  502 -0.26220703286E+03  0.14316362971E+03 -0.16847192067E+04  0.17110017996E+04  0.50400001928E-02 0. -1.
</event>
<event>
 5   0  0.2298329E-05  0.2194073E+04  0.7818609E-02  0.8520899E-01
       -2   -1    0    0    0  501  0.00000000000E+00  0.00000000000E+00  0.56662880118E+03  0.56662880119E+03  0.25500000920E-02 0.  1.
        2   -1    0    0  501    0  0.00000000000E+00  0.00000000000E+00 -0.21239460934E+04  0.21239460934E+04  0.25500000920E-02 0. -1.
    10030    2    1    2    0    0  0.00000000000E+00  0.00000000000E+00 -0.15573172922E+04  0.26905748946E+04  0.21940729511E+04 0.  0.
        4    1    3    3  502    0 -0.23701979415E+03 -0.80017215164E+03  0.94538636089E+02  0.83987678959E+03  0.12699999809E+01 0.  1.
       -4    1    3    3    0  502  0.23701979415E+03  0.80017215164E+03 -0.16518559283E+04  0.18506981050E+04  0.12699999809E+01 0. -1.
</event>
<event>
 5   0  0.1071208E-05  0.2200068E+04  0.7818609E-02  0.8518400E-01
       -1   -1    0    0    0  501  0.00000000000E+00  0.00000000000E+00  0.10893967870E+04  0.10893967870E+04  0.50400001928E-02 0.  1.
        1   -1    0    0  501    0  0.00000000000E+00  0.00000000000E+00 -0.11107752253E+04  0.11107752253E+04  0.50400001928E-02 0. -1.
    10030    2    1    2    0    0  0.00000000000E+00  0.00000000000E+00 -0.21378438335E+02  0.22001720123E+04  0.22000681458E+04 0.  0.
        4    1    3    3  502    0 -0.71839500945E+03 -0.66216812391E+03 -0.51619833019E+03  0.11049978927E+04  0.12699999809E+01 0. -1.
       -4    1    3    3    0  502  0.71839500945E+03  0.66216812391E+03  0.49481989186E+03  0.10951741196E+04  0.12699999809E+01 0.  1.
</event>
<event>
 5   0  0.1049198E-05  0.2199223E+04  0.7818609E-02  0.8518752E-01
       -1   -1    0    0    0  501  0.00000000000E+00  0.00000000000E+00  0.10819439239E+04  0.10819439239E+04  0.50400001928E-02 0.  1.
        1   -1    0    0  501    0  0.00000000000E+00  0.00000000000E+00 -0.11175671409E+04  0.11175671409E+04  0.50400001928E-02 0. -1.
    10030    2    1    2    0    0  0.00000000000E+00  0.00000000000E+00 -0.35623217066E+02  0.21995110648E+04  0.21992225696E+04 0.  0.
        1    1    3    3  502    0 -0.16908205110E+03 -0.57275390552E+03 -0.94124697783E+03  0.11147114647E+04  0.50400001928E-02 0. -1.
       -1    1    3    3    0  502  0.16908205110E+03  0.57275390552E+03  0.90562376076E+03  0.10847996001E+04  0.50400001928E-02 0.  1.
</event>
<event>
 5   0  0.1005538E-05  0.2198873E+04  0.7818609E-02  0.8518897E-01
        1   -1    0    0  501    0  0.00000000000E+00  0.00000000000E+00  0.14812645642E+04  0.14812645642E+04  0.50400001928E-02 0.  1.
       -1   -1    0    0    0  501  0.00000000000E+00  0.00000000000E+00 -0.81603304918E+03  0.81603304920E+03  0.50400001928E-02 0. -1.
    10030    2    1    2    0    0  0.00000000000E+00  0.00000000000E+00  0.66523151506E+03  0.22972976134E+04  0.21988732015E+04 0.  0.
        3    1    3    3  502    0  0.10334394001E+04 -0.33617194767E+03  0.15856888337E+03  0.10982498227E+04  0.10100000352E+00 0. -1.
       -3    1    3    3    0  502 -0.10334394001E+04  0.33617194767E+03  0.50666263169E+03  0.11990477908E+04  0.10100000352E+00 0.  1.
</event>
<event>
 5   0  0.1005538E-05  0.2193389E+04  0.7818609E-02  0.8521185E-01
        1   -1    0    0  501    0  0.00000000000E+00  0.00000000000E+00  0.19004707506E+04  0.19004707506E+04  0.50400001928E-02 0. -1.
       -1   -1    0    0    0  501  0.00000000000E+00  0.00000000000E+00 -0.63286347500E+03  0.63286347502E+03  0.50400001928E-02 0.  1.
    10030    2    1    2    0    0  0.00000000000E+00  0.00000000000E+00  0.12676072756E+04  0.25333342257E+04  0.21933887238E+04 0.  0.
        3    1    3    3  502    0  0.76420179271E+03  0.43813985519E+03 -0.12071957381E+03  0.88912549080E+03  0.10100000352E+00 0.  1.
       -3    1    3    3    0  502 -0.76420179271E+03 -0.43813985519E+03  0.13883268495E+04  0.16442087349E+04  0.10100000352E+00 0. -1.
</event>
<event>
 5   0  0.2298329E-05  0.2206859E+04  0.7818609E-02  0.8515579E-01
       -2   -1    0    0    0  501  0.00000000000E+00  0.00000000000E+00  0.11402566027E+04  0.11402566027E+04  0.25500000920E-02 0.  1.
        2   -1    0    0  501    0  0.00000000000E+00  0.00000000000E+00 -0.10677915242E+04  0.10677915242E+04  0.25500000920E-02 0. -1.
    10030    2    1    2    0    0  0.00000000000E+00  0.00000000000E+00  0.72465078415E+02  0.22080481269E+04  0.22068587048E+04 0.  0.
        4    1    3    3  502    0  0.58139559969E+03  0.47215982113E+03 -0.77451214488E+03  0.10774165469E+04  0.12699999809E+01 0. -1.
       -4    1    3    3    0  502 -0.58139559969E+03 -0.47215982113E+03  0.84697722330E+03  0.11306315800E+04  0.12699999809E+01 0.  1.
</event>
<event>
 5   0  0.1007682E-05  0.2216595E+04  0.7818609E-02  0.8511553E-01
        1   -1    0    0  501    0  0.00000000000E+00  0.00000000000E+00  0.16347529945E+04  0.16347529945E+04  0.50400001928E-02 0.  1.
       -1   -1    0    0    0  501  0.00000000000E+00  0.00000000000E+00 -0.75138162238E+03  0.75138162240E+03  0.50400001928E-02 0. -1.
    10030    2    1    2    0    0  0.00000000000E+00  0.00000000000E+00  0.88337137208E+03  0.23861346169E+04  0.22165950078E+04 0.  0.
        2    1    3    3  502    0 -0.17054401281E+03 -0.64203260811E+03 -0.51331756169E+03  0.83951536575E+03  0.25500000920E-02 0. -1.
       -2    1    3    3    0  502  0.17054401281E+03  0.64203260811E+03  0.13966889338E+04  0.15466192511E+04  0.25500000920E-02 0.  1.
</event>
<event>
 5   0  0.1071208E-05  0.2191193E+04  0.7818609E-02  0.8522103E-01
        1   -1    0    0  501    0  0.00000000000E+00  0.00000000000E+00  0.10448220074E+04  0.10448220074E+04  0.50400001928E-02 0. -1.
       -1   -1    0    0    0  501  0.00000000000E+00  0.00000000000E+00 -0.11488384198E+04  0.11488384198E+04  0.50400001928E-02 0.  1.
    10030    2    1    2    0    0  0.00000000000E+00  0.00000000000E+00 -0.10401641239E+03  0.21936604272E+04  0.21911929755E+04 0.  0.
        4    1    3    3  502    0  0.10881858673E+04  0.44299428460E+02  0.67370064652E+02  0.10911696750E+04  0.12699999809E+01 0. -1.
       -4    1    3    3    0  502 -0.10881858673E+04 -0.44299428460E+02 -0.17138647704E+03  0.11024907522E+04  0.12699999809E+01 0.  1.
</event>
<event>
 5   0  0.2298329E-05  0.2188861E+04  0.7818609E-02  0.8523079E-01
       -2   -1    0    0    0  501  0.00000000000E+00  0.00000000000E+00  0.61106990780E+03  0.61106990781E+03  0.25500000920E-02 0. -1.
        2   -1    0    0  501    0  0.00000000000E+00  0.00000000000E+00 -0.19601329740E+04  0.19601329740E+04  0.25500000920E-02 0.  1.
    10030    2    1    2    0    0  0.00000000000E+00  0.00000000000E+00 -0.13490630662E+04  0.25712028818E+04  0.21888611429E+04 0.  0.
        4    1    3    3  502    0 -0.64059072594E+03 -0.25228999638E+03  0.32482028325E+03  0.76125984378E+03  0.12699999809E+01 0. -1.
       -4    1    3    3    0  502  0.64059072594E+03  0.25228999638E+03 -0.16738833494E+04  0.18099430380E+04  0.12699999809E+01 0.  1.
</event>
<event>
 5   0  0.2289708E-05  0.2165599E+04  0.7818609E-02  0.8532885E-01
        2   -1    0    0  501    0  0.00000000000E+00  0.00000000000E+00  0.12602211919E+04  0.12602211919E+04  0.25500000920E-02 0.  1.
       -2   -1    0    0    0  501  0.00000000000E+00  0.00000000000E+00 -0.93035615321E+03  0.93035615322E+03  0.25500000920E-02 0. -1.
    10030    2    1    2    0    0  0.00000000000E+00  0.00000000000E+00  0.32986503872E+03  0.21905773452E+04  0.21655987997E+04 0.  0.
        5    1    3    3  502    0 -0.64913682892E+03 -0.70602729088E+03  0.67330198887E+03  0.11718407811E+04  0.46999998093E+01 0. -1.
       -5    1    3    3    0  502  0.64913682892E+03  0.70602729088E+03 -0.34343695015E+03  0.10187365640E+04  0.46999998093E+01 0.  1.
</event>
<event>
 5   0  0.1071208E-05  0.2198806E+04  0.7818609E-02  0.8518925E-01
        1   -1    0    0  501    0  0.00000000000E+00  0.00000000000E+00  0.10457778864E+04  0.10457778864E+04  0.50400001928E-02 0.  1.
       -1   -1    0    0    0  501  0.00000000000E+00  0.00000000000E+00 -0.11557780254E+04  0.11557780254E+04  0.50400001928E-02 0. -1.
    10030    2    1    2    0    0  0.00000000000E+00  0.00000000000E+00 -0.11000013902E+03  0.22015559118E+04  0.21988061311E+04 0.  0.
        4    1    3    3  502    0 -0.62730233220E+03  0.77283891920E+03 -0.52237851674E+03  0.11241303922E+04  0.12699999809E+01 0. -1.
       -4    1    3    3    0  502  0.62730233220E+03 -0.77283891920E+03  0.41237837773E+03  0.10774255196E+04  0.12699999809E+01 0.  1.
</event>
<event>
 5   0  0.2298329E-05  0.2189224E+04  0.7818609E-02  0.8522927E-01
       -2   -1    0    0    0  501  0.00000000000E+00  0.00000000000E+00  0.55449713698E+03  0.55449713699E+03  0.25500000920E-02 0.  1.
        2   -1    0    0  501    0  0.00000000000E+00  0.00000000000E+00 -0.21608317050E+04  0.21608317050E+04  0.25500000920E-02 0. -1.
    10030    2    1    2    0    0  0.00000000000E+00  0.00000000000E+00 -0.16063345680E+04  0.27153288420E+04  0.21892236011E+04 0.  0.
        4    1    3    3  502    0 -0.89066620160E+03 -0.60394033510E+03 -0.10516740077E+04  0.15046760589E+04  0.12699999809E+01 0.  1.
       -4    1    3    3    0  502  0.89066620160E+03  0.60394033510E+03 -0.55466056038E+03  0.12106527831E+04  0.12699999809E+01 0. -1.
</event>
<event>
 5   0  0.2319707E-05  0.2217381E+04  0.7818609E-02  0.8511229E-01
        2   -1    0    0  501    0  0.00000000000E+00  0.00000000000E+00  0.12890497737E+04  0.12890497737E+04  0.25500000920E-02 0. -1.
       -2   -1    0    0    0  501  0.00000000000E+00  0.00000000000E+00 -0.95356626075E+03  0.95356626076E+03  0.25500000920E-02 0.  1.
    10030    2    1    2    0    0  0.00000000000E+00  0.00000000000E+00  0.33548351299E+03  0.22426160345E+04  0.22173807726E+04 0.  0.
        3    1    3    3  502    0  0.18966333831E+03 -0.10057551414E+04  0.59883056028E+03  0.11857966252E+04  0.10100000352E+00 0.  1.
       -3    1    3    3    0  502 -0.18966333831E+03  0.10057551414E+04 -0.26334704730E+03  0.10568194093E+04  0.10100000352E+00 0. -1.
</event>
<event>
 5   0  0.1033733E-05  0.2217079E+04  0.7818609E-02  0.8511353E-01
       -1   -1    0    0    0  501  0.00000000000E+00  0.00000000000E+00  0.76295777179E+03  0.76295777181E+03  0.50400001928E-02 0.  1.
        1   -1    0    0  501    0  0.00000000000E+00  0.00000000000E+00 -0.16106524443E+04  0.16106524443E+04  0.50400001928E-02 0. -1.
    10030    2    1    2    0    0  0.00000000000E+00  0.00000000000E+00 -0.84769467248E+03  0.23736102161E+04  0.22170789792E+04 0.  0.
        5    1    3    3  502    0  0.15704404918E+03  0.50106274886E+03 -0.14690487266E+04  0.15600810757E+04  0.46999998093E+01 0. -1.
       -5    1    3    3    0  502 -0.15704404918E+03 -0.50106274886E+03  0.62135405411E+03  0.81352914038E+03  0.46999998093E+01 0.  1.
</event>
<event>
 5   0  0.2284329E-05  0.2196165E+04  0.7818609E-02  0.8520026E-01
        2   -1    0    0  501    0  0.00000000000E+00  0.00000000000E+00  0.15211375798E+04  0.15211375798E+04  0.25500000920E-02 0. -1.
       -2   -1    0    0    0  501  0.00000000000E+00  0.00000000000E+00 -0.79268637745E+03  0.79268637746E+03  0.25500000920E-02 0.  1.
    10030    2    1    2    0    0  0.00000000000E+00  0.00000000000E+00  0.72845120236E+03  0.23138239573E+04  0.21961648734E+04 0.  0.
        2    1    3    3  502    0  0.99017193194E+03 -0.32951916991E+03  0.72423644024E+03  0.12702526361E+04  0.25500000920E-02 0. -1.
       -2    1    3    3    0  502 -0.99017193194E+03  0.32951916991E+03  0.42147621133E+01  0.10435713212E+04  0.25500000920E-02 0.  1.
</event>
<event>
 5   0  0.8003875E-06  0.2208724E+04  0.7818609E-02  0.8514806E-01
       -3   -1    0    0    0  501  0.00000000000E+00  0.00000000000E+00  0.89822459478E+03  0.89822460046E+03  0.10100000352E+00 0.  1.
        3   -1    0    0  501    0  0.00000000000E+00  0.00000000000E+00 -0.13578073516E+04  0.13578073553E+04  0.10100000352E+00 0. -1.
    10030    2    1    2    0    0  0.00000000000E+00  0.00000000000E+00 -0.45958275679E+03  0.22560319558E+04  0.22087244906E+04 0.  0.
        2    1    3    3  502    0  0.78038860130E+03 -0.45072747639E+03  0.42220198520E+03  0.99519653503E+03  0.25500000920E-02 0.  1.
       -2    1    3    3    0  502 -0.78038860130E+03  0.45072747639E+03 -0.88178474199E+03  0.12608354208E+04  0.25500000920E-02 0. -1.
</event>
<event>
 5   0  0.2284329E-05  0.2189374E+04  0.7818609E-02  0.8522864E-01
        2   -1    0    0  501    0  0.00000000000E+00  0.00000000000E+00  0.11126704190E+04  0.11126704190E+04  0.25500000920E-02 0.  1.
       -2   -1    0    0    0  501  0.00000000000E+00  0.00000000000E+00 -0.10769946374E+04  0.10769946374E+04  0.25500000920E-02 0. -1.
    10030    2    1    2    0    0  0.00000000000E+00  0.00000000000E+00  0.35675781646E+02  0.21896650564E+04  0.21893744079E+04 0.  0.
        2    1    3    3  502    0 -0.40169043714E+02  0.57849650608E+03 -0.91076170874E+03  0.10797030378E+04  0.25500000920E-02 0. -1.
       -2    1    3    3    0  502  0.40169043714E+02 -0.57849650608E+03  0.94643749039E+03  0.11099620186E+04  0.25500000920E-02 0.  1.
</event>
<event>
 5   0  0.1005538E-05  0.2156693E+04  0.7818609E-02  0.8536673E-01
        1   -1    0    0  501    0  0.00000000000E+00  0.00000000000E+00  0.19481011156E+04  0.19481011156E+04  0.50400001928E-02 0. -1.
       -1   -1    0    0    0  501  0.00000000000E+00  0.00000000000E+00 -0.59690476646E+03  0.59690476648E+03  0.50400001928E-02 0.  1.
    10030    2    1    2    0    0  0.00000000000E+00  0.00000000000E+00  0.13511963491E+04  0.25450058821E+04  0.21566926916E+04 0.  0.
        3    1    3    3  502    0  0.26271290922E+03 -0.10275223882E+03 -0.55259257490E+03  0.62043102702E+03  0.10100000352E+00 0.  1.
       -3    1    3    3    0  502 -0.26271290922E+03  0.10275223882E+03  0.19037889240E+04  0.19245748550E+04  0.10100000352E+00 0. -1.
</event>
<event>
 5   0  0.2319707E-05  0.2197834E+04  0.7818609E-02  0.8519330E-01
        2   -1    0    0  501    0  0.00000000000E+00  0.00000000000E+00  0.20964551695E+04  0.20964551695E+04  0.25500000920E-02 0. -1.
       -2   -1    0    0    0  501  0.00000000000E+00  0.00000000000E+00 -0.57602886934E+03  0.57602886934E+03  0.25500000920E-02 0.  1.
    10030    2    1    2    0    0  0.00000000000E+00  0.00000000000E+00  0.15204263001E+04  0.26724840388E+04  0.21978341165E+04 0.  0.
        3    1    3    3  502    0  0.15876061527E+02  0.50443207215E+03  0.19472037354E+04  0.20115432290E+04  0.10100000352E+00 0. -1.
       -3    1    3    3    0  502 -0.15876061527E+02 -0.50443207215E+03 -0.42677743522E+03  0.66094080987E+03  0.10100000352E+00 0.  1.
</event>
<event>
 5   0  0.1071208E-05  0.2203160E+04  0.7818609E-02  0.8517114E-01
        1   -1    0    0  501    0  0.00000000000E+00  0.00000000000E+00  0.14534161918E+04  0.14534161919E+04  0.50400001928E-02 0. -1.
       -1   -1    0    0    0  501  0.00000000000E+00  0.00000000000E+00 -0.83491491840E+03  0.83491491842E+03  0.50400001928E-02 0.  1.
    10030    2    1    2    0    0  0.00000000000E+00  0.00000000000E+00  0.61850127344E+03  0.22883311103E+04  0.22031603312E+04 0.  0.
        4    1    3    3  502    0  0.88647617606E+03 -0.78136506686E+02  0.98360472842E+03  0.13264332622E+04  0.12699999809E+01 0. -1.
       -4    1    3    3    0  502 -0.88647617606E+03  0.78136506686E+02 -0.36510345498E+03  0.96189784807E+03  0.12699999809E+01 0.  1.
</event>
<event>
 5   0  0.1049198E-05  0.2203822E+04  0.7818609E-02  0.8516839E-01
        1   -1    0    0  501    0  0.00000000000E+00  0.00000000000E+00  0.20777291147E+04  0.20777291148E+04  0.50400001928E-02 0. -1.
       -1   -1    0    0    0  501  0.00000000000E+00  0.00000000000E+00 -0.58439190942E+03  0.58439190944E+03  0.50400001928E-02 0.  1.
    10030    2    1    2    0    0  0.00000000000E+00  0.00000000000E+00  0.14933372053E+04  0.26621210242E+04  0.22038222112E+04 0.  0.
        1    1    3    3  502    0  0.92943349641E+03  0.29951327175E+03  0.13633812010E+04  0.16770101739E+04  0.50400001928E-02 0.  1.
       -1    1    3    3    0  502 -0.92943349641E+03 -0.29951327175E+03  0.12995600433E+03  0.98511085025E+03  0.50400001928E-02 0. -1.
</event>
<event>
 5   0  0.2284329E-05  0.2200411E+04  0.7818609E-02  0.8518257E-01
        2   -1    0    0  501    0  0.00000000000E+00  0.00000000000E+00  0.26571748654E+04  0.26571748654E+04  0.25500000920E-02 0. -1.
       -2   -1    0    0    0  501  0.00000000000E+00  0.00000000000E+00 -0.45554111959E+03  0.45554111960E+03  0.25500000920E-02 0.  1.
    10030    2    1    2    0    0  0.00000000000E+00  0.00000000000E+00  0.22016337459E+04  0.31127159850E+04  0.22004112463E+04 0.  0.
        2    1    3    3  502    0  0.34916329590E+03 -0.95851265712E+03  0.51791851066E+03  0.11440721589E+04  0.25500000920E-02 0.  1.
       -2    1    3    3    0  502 -0.34916329590E+03  0.95851265712E+03  0.16837152352E+04  0.19686438262E+04  0.25500000920E-02 0. -1.
</event>
<event>
 5   0  0.1005538E-05  0.2190466E+04  0.7818609E-02  0.8522407E-01
        1   -1    0    0  501    0  0.00000000000E+00  0.00000000000E+00  0.12352713204E+04  0.12352713204E+04  0.50400001928E-02 0. -1.
       -1   -1    0    0    0  501  0.00000000000E+00  0.00000000000E+00 -0.97107009019E+03  0.97107009021E+03  0.50400001928E-02 0.  1.
    10030    2    1    2    0    0  0.00000000000E+00  0.00000000000E+00  0.26420123020E+03  0.22063414106E+04  0.21904657336E+04 0.  0.
        3    1    3    3  502    0  0.28966654923E+03  0.60727704962E+03 -0.73836351640E+03  0.99893584243E+03  0.10100000352E+00 0.  1.
       -3    1    3    3    0  502 -0.28966654923E+03 -0.60727704962E+03  0.10025647466E+04  0.12074055682E+04  0.10100000352E+00 0. -1.
</event>
<event>
 5   0  0.2298329E-05  0.2199645E+04  0.7818609E-02  0.8518576E-01
       -2   -1    0    0    0  501  0.00000000000E+00  0.00000000000E+00  0.98864053080E+03  0.98864053080E+03  0.25500000920E-02 0.  1.
        2   -1    0    0  501    0  0.00000000000E+00  0.00000000000E+00 -0.12235076483E+04  0.12235076483E+04  0.25500000920E-02 0. -1.
    10030    2    1    2    0    0  0.00000000000E+00  0.00000000000E+00 -0.23486711749E+03  0.22121481791E+04  0.21996447448E+04 0.  0.
        4    1    3    3  502    0 -0.10713222871E+04 -0.21277353247E+03  0.12153922650E+02  0.10923155907E+04  0.12699999809E+01 0.  1.
       -4    1    3    3    0  502  0.10713222871E+04  0.21277353247E+03 -0.24702104014E+03  0.11198325884E+04  0.12699999809E+01 0. -1.
</event>
<event>
 5   0  0.2319707E-05  0.2195470E+04  0.7818609E-02  0.8520316E-01
       -2   -1    0    0    0  501  0.00000000000E+00  0.00000000000E+00  0.86941018167E+03  0.86941018167E+03  0.25500000920E-02 0.  1.
        2   -1    0    0  501    0  0.00000000000E+00  0.00000000000E+00 -0.13860224608E+04  0.13860224608E+04  0.25500000920E-02 0. -1.
    10030    2    1    2    0    0  0.00000000000E+00  0.00000000000E+00 -0.51661227912E+03  0.22554326425E+04  0.21954699173E+04 0.  0.
        3    1    3    3  502    0 -0.63801144150E+03  0.89285046466E+03 -0.22958771478E+03  0.11211382969E+04  0.10100000352E+00 0.  1.
       -3    1    3    3    0  502  0.63801144150E+03 -0.89285046466E+03 -0.28702456435E+03  0.11342943456E+04  0.10100000352E+00 0. -1.
</event>
<event>
 5   0  0.2289708E-05  0.2206585E+04  0.7818609E-02  0.8515692E-01
       -2   -1    0    0    0  501  0.00000000000E+00  0.00000000000E+00  0.72483740303E+03  0.72483740304E+03  0.25500000920E-02 0.  1.
        2   -1    0    0  501    0  0.00000000000E+00  0.00000000000E+00 -0.16793484039E+04  0.16793484039E+04  0.25500000920E-02 0. -1.
    10030    2    1    2    0    0  0.00000000000E+00  0.00000000000E+00 -0.95451100085E+03  0.24041858069E+04  0.22065851770E+04 0.  0.
        5    1    3    3  502    0 -0.37151882847E+03 -0.10189042423E+04 -0.69798118179E+03  0.12897255192E+04  0.46999998093E+01 0.  1.
       -5    1    3    3    0  502  0.37151882847E+03  0.10189042423E+04 -0.25652981906E+03  0.11144602877E+04  0.46999998093E+01 0. -1.
</event>
<event>
 5   0  0.1071208E-05  0.2206367E+04  0.7818609E-02  0.8515783E-01
       -1   -1    0    0    0  501  0.00000000000E+00  0.00000000000E+00  0.68445945443E+03  0.68445945445E+03  0.50400001928E-02 0. -1.
        1   -1    0    0  501    0  0.00000000000E+00  0.00000000000E+00 -0.17780656452E+04  0.17780656452E+04  0.50400001928E-02 0.  1.
    10030    2    1    2    0    0  0.00000000000E+00  0.00000000000E+00 -0.10936061908E+04  0.24625250996E+04  0.22063670062E+04 0.  0.
        4    1    3    3  502    0 -0.41855002284E+03  0.21250358870E+03  0.56743672900E+03  0.73642918950E+03  0.12699999809E+01 0. -1.
       -4    1    3    3    0  502  0.41855002284E+03 -0.21250358870E+03 -0.16610429198E+04  0.17260959101E+04  0.12699999809E+01 0.  1.
</event>
<event>
 5   0  0.1005538E-05  0.2200309E+04  0.7818609E-02  0.8518299E-01
        1   -1    0    0  501    0  0.00000000000E+00  0.00000000000E+00  0.17567703007E+04  0.17567703007E+04  0.50400001928E-02 0. -1.
       -1   -1    0    0    0  501  0.00000000000E+00  0.00000000000E+00 -0.68895750997E+03  0.68895750999E+03  0.50400001928E-02 0.  1.
    10030    2    1    2    0    0  0.00000000000E+00  0.00000000000E+00  0.10678127907E+04  0.24457278107E+04  0.22003091528E+04 0.  0.
        3    1    3    3  502    0 -0.96103449188E+03  0.10609513092E+03 -0.49515261885E+02  0.96814009459E+03  0.10100000352E+00 0.  1.
       -3    1    3    3    0  502  0.96103449188E+03 -0.10609513092E+03  0.11173280526E+04  0.14775877161E+04  0.10100000352E+00 0. -1.
</event>
<event>
 5   0  0.1033733E-05  0.2197387E+04  0.7818609E-02  0.8519516E-01
       -1   -1    0    0    0  501  0.00000000000E+00  0.00000000000E+00  0.85507347894E+03  0.85507347895E+03  0.50400001928E-02 0.  1.
        1   -1    0    0  501    0  0.00000000000E+00  0.00000000000E+00 -0.14117238414E+04  0.14117238414E+04  0.50400001928E-02 0. -1.
    10030    2    1    2    0    0  0.00000000000E+00  0.00000000000E+00 -0.55665036247E+03  0.22667973204E+04  0.21973871906E+04 0.  0.
        5    1    3    3  502    0  0.37081180851E+03  0.41618756097E+03  0.69836112456E+03  0.89355684404E+03  0.46999998093E+01 0.  1.
       -5    1    3    3    0  502 -0.37081180851E+03 -0.41618756097E+03 -0.12550114870E+04  0.13732404763E+04  0.46999998093E+01 0. -1.
</event>
<event>
 5   0  0.2298329E-05  0.2279959E+04  0.7818609E-02  0.8485865E-01
       -2   -1    0    0    0  501  0.00000000000E+00  0.00000000000E+00  0.13417068684E+04  0.13417068684E+04  0.25500000920E-02 0.  1.
        2   -1    0    0  501    0  0.00000000000E+00  0.00000000000E+00 -0.96858179953E+03  0.96858179953E+03  0.25500000920E-02 0. -1.
    10030    2    1    2    0    0  0.00000000000E+00  0.00000000000E+00  0.37312506885E+03  0.23102886679E+04  0.22799586426E+04 0.  0.
        4    1    3    3  502    0 -0.21626863750E+02  0.97967086732E+03 -0.40370575718E+03  0.10598125687E+04  0.12699999809E+01 0. -1.
       -4    1    3    3    0  502  0.21626863750E+02 -0.97967086732E+03  0.77683082603E+03  0.12504760992E+04  0.12699999809E+01 0.  1.
</event>
<event>
 5   0  0.2229552E-05  0.2216085E+04  0.7818609E-02  0.8511763E-01
        2   -1    0    0  501    0  0.00000000000E+00  0.00000000000E+00  0.11973283255E+04  0.11973283255E+04  0.25500000920E-02 0. -1.
       -2   -1    0    0    0  501  0.00000000000E+00  0.00000000000E+00 -0.10254150801E+04  0.10254150802E+04  0.25500000920E-02 0.  1.
    10030    2    1    2    0    0  0.00000000000E+00  0.00000000000E+00  0.17191324533E+03  0.22227434056E+04  0.22160853060E+04 0.  0.
        1    1    3    3  502    0 -0.26686920878E+03 -0.50667592233E+03 -0.86548117633E+03  0.10377848194E+04  0.50400001928E-02 0.  1.
       -1    1    3    3    0  502  0.26686920878E+03  0.50667592233E+03  0.10373944217E+04  0.11849585862E+04  0.50400001928E-02 0. -1.
</event>
<event>
 5   0  0.2289708E-05  0.2197227E+04  0.7818609E-02  0.8519583E-01
        2   -1    0    0  501    0  0.00000000000E+00  0.00000000000E+00  0.19394051449E+04  0.19394051449E+04  0.25500000920E-02 0.  1.
       -2   -1    0    0    0  501  0.00000000000E+00  0.00000000000E+00 -0.62233085246E+03  0.62233085246E+03  0.25500000920E-02 0. -1.
    10030    2    1    2    0    0  0.00000000000E+00  0.00000000000E+00  0.13170742924E+04  0.25617359974E+04  0.21972270316E+04 0.  0.
        5    1    3    3  502    0 -0.79035465607E+03 -0.28639415684E+03 -0.16607910379E+03  0.85690516054E+03  0.46999998093E+01 0.  1.
       -5    1    3    3    0  502  0.79035465607E+03  0.28639415684E+03  0.14831533962E+04  0.17048308368E+04  0.46999998093E+01 0. -1.
</event>
<event>
 5   0  0.2298329E-05  0.2072338E+04  0.7818609E-02  0.8573528E-01
        2   -1    0    0  501    0  0.00000000000E+00  0.00000000000E+00  0.88226245380E+03  0.88226245380E+03  0.25500000920E-02 0.  1.
       -2   -1    0    0    0  501  0.00000000000E+00  0.00000000000E+00 -0.12169236880E+04  0.12169236880E+04  0.25500000920E-02 0. -1.
    10030    2    1    2    0    0  0.00000000000E+00  0.00000000000E+00 -0.33466123423E+03  0.20991861418E+04  0.20723378866E+04 0.  0.
        4    1    3    3  502    0 -0.61601654040E+03  0.78432128587E+02 -0.10075444111E+04  0.11835435481E+04  0.12699999809E+01 0. -1.
       -4    1    3    3    0  502  0.61601654040E+03 -0.78432128587E+02  0.67288317692E+03  0.91564259376E+03  0.12699999809E+01 0.  1.
</event>
<event>
 5   0  0.2284329E-05  0.2201012E+04  0.7818609E-02  0.8518007E-01
       -2   -1    0    0    0  501  0.00000000000E+00  0.00000000000E+00  0.56485498242E+03  0.56485498242E+03  0.25500000920E-02 0.  1.
        2   -1    0    0  501    0  0.00000000000E+00  0.00000000000E+00 -0.21441131972E+04  0.21441131972E+04  0.25500000920E-02 0. -1.
    10030    2    1    2    0    0  0.00000000000E+00  0.00000000000E+00 -0.15792582148E+04  0.27089681796E+04  0.22010116059E+04 0.  0.
        2    1    3    3  502    0 -0.23813202480E+03 -0.25979385915E+03 -0.20727838250E+04  0.21025300225E+04  0.25500000920E-02 0. -1.
       -2    1    3    3    0  502  0.23813202480E+03  0.25979385915E+03  0.49352561019E+03  0.60643815712E+03  0.25500000920E-02 0.  1.
</event>
<event>
 5   0  0.2289708E-05  0.2200687E+04  0.7818609E-02  0.8518142E-01
        2   -1    0    0  501    0  0.00000000000E+00  0.00000000000E+00  0.18178403033E+04  0.18178403033E+04  0.25500000920E-02 0.  1.
       -2   -1    0    0    0  501  0.00000000000E+00  0.00000000000E+00 -0.66604107739E+03  0.66604107739E+03  0.25500000920E-02 0. -1.
    10030    2    1    2    0    0  0.00000000000E+00  0.00000000000E+00  0.11517992260E+04  0.24838813807E+04  0.22006874509E+04 0.  0.
        5    1    3    3  502    0 -0.45288204600E+03  0.77950725356E+03 -0.13615663875E+03  0.91175348983E+03  0.46999998093E+01 0. -1.
       -5    1    3    3    0  502  0.45288204600E+03 -0.77950725356E+03  0.12879558647E+04  0.15721278909E+04  0.46999998093E+01 0.  1.
</event>
<event>
 5   0  0.2289708E-05  0.2198487E+04  0.7818609E-02  0.8519058E-01
        2   -1    0    0  501    0  0.00000000000E+00  0.00000000000E+00  0.12097449199E+04  0.12097449199E+04  0.25500000920E-02 0. -1.
       -2   -1    0    0    0  501  0.00000000000E+00  0.00000000000E+00 -0.99883555231E+03  0.99883555231E+03  0.25500000920E-02 0.  1.
    10030    2    1    2    0    0  0.00000000000E+00  0.00000000000E+00  0.21090936755E+03  0.22085804722E+04  0.21984869662E+04 0.  0.
        5    1    3    3  502    0 -0.24808176467E+03  0.88021672468E+03  0.71816311510E+03  0.11628010983E+04  0.46999998093E+01 0. -1.
       -5    1    3    3    0  502  0.24808176467E+03 -0.88021672468E+03 -0.50725374755E+03  0.10457793739E+04  0.46999998093E+01 0.  1.
</event>
<event>
 5   0  0.1007682E-05  0.2202214E+04  0.7818609E-02  0.8517507E-01
       -1   -1    0    0    0  501  0.00000000000E+00  0.00000000000E+00  0.11595748421E+04  0.11595748422E+04  0.50400001928E-02 0.  1.
        1   -1    0    0  501    0  0.00000000000E+00  0.00000000000E+00 -0.10455874641E+04  0.10455874641E+04  0.50400001928E-02 0. -1.
    10030    2    1    2    0    0  0.00000000000E+00  0.00000000000E+00  0.11398737807E+03  0.22051623062E+04  0.22022142663E+04 0.  0.
        2    1    3    3  502    0  0.39848415283E+03 -0.60712645890E+03  0.88577598130E+03  0.11454218639E+04  0.25500000920E-02 0.  1.
       -2    1    3    3    0  502 -0.39848415283E+03  0.60712645890E+03 -0.77178860323E+03  0.10597404424E+04  0.25500000920E-02 0. -1.
</event>
<event>
 5   0  0.1007682E-05  0.2203822E+04  0.7818609E-02  0.8516839E-01
       -1   -1    0    0    0  501  0.00000000000E+00  0.00000000000E+00  0.12739968451E+04  0.12739968451E+04  0.50400001928E-02 0. -1.
        1   -1    0    0  501    0  0.00000000000E+00  0.00000000000E+00 -0.95306940310E+03  0.95306940311E+03  0.50400001928E-02 0.  1.
    10030    2    1    2    0    0  0.00000000000E+00  0.00000000000E+00  0.32092744202E+03  0.22270662482E+04  0.22038216014E+04 0.  0.
        2    1    3    3  502    0 -0.26542201846E+03  0.35041166073E+03  0.11815518814E+04  0.12606752272E+04  0.25500000920E-02 0. -1.
       -2    1    3    3    0  502  0.26542201846E+03 -0.35041166073E+03 -0.86062443942E+03  0.96639102107E+03  0.25500000920E-02 0.  1.
</event>
<event>
 5   0  0.1007682E-05  0.2202087E+04  0.7818609E-02  0.8517560E-01
       -1   -1    0    0    0  501  0.00000000000E+00  0.00000000000E+00  0.10723248272E+04  0.10723248272E+04  0.50400001928E-02 0. -1.
        1   -1    0    0  501    0  0.00000000000E+00  0.00000000000E+00 -0.11305310680E+04  0.11305310680E+04  0.50400001928E-02 0.  1.
    10030    2    1    2    0    0  0.00000000000E+00  0.00000000000E+00 -0.58206240848E+02  0.22028558953E+04  0.22020867669E+04 0.  0.
        2    1    3    3  502    0 -0.26973525880E+03  0.70840573529E+03  0.76973746257E+03  0.10803201178E+04  0.25500000920E-02 0. -1.
       -2    1    3    3    0  502  0.26973525880E+03 -0.70840573529E+03 -0.82794370342E+03  0.11225357775E+04  0.25500000920E-02 0.  1.
</event>
<event>
 5   0  0.1033733E-05  0.2199799E+04  0.7818609E-02  0.8518512E-01
        1   -1    0    0  501    0  0.00000000000E+00  0.00000000000E+00  0.17873970091E+04  0.17873970091E+04  0.50400001928E-02 0.  1.
       -1   -1    0    0    0  501  0.00000000000E+00  0.00000000000E+00 -0.67683848101E+03  0.67683848103E+03  0.50400001928E-02 0. -1.
    10030    2    1    2    0    0  0.00000000000E+00  0.00000000000E+00  0.11105585281E+04  0.24642354902E+04  0.21997991514E+04 0.  0.
        5    1    3    3  502    0  0.10663976077E+04  0.73112534218E+02  0.84568731389E+03  0.13629961200E+04  0.46999998093E+01 0. -1.
       -5    1    3    3    0  502 -0.10663976077E+04 -0.73112534218E+02  0.26487121422E+03  0.11012393702E+04  0.46999998093E+01 0.  1.
</event>
<event>
 5   0  0.2319707E-05  0.2192455E+04  0.7818609E-02  0.8521575E-01
        2   -1    0    0  501    0  0.00000000000E+00  0.00000000000E+00  0.13818795775E+04  0.13818795775E+04  0.25500000920E-02 0.  1.
       -2   -1    0    0    0  501  0.00000000000E+00  0.00000000000E+00 -0.86962338071E+03  0.86962338071E+03  0.25500000920E-02 0. -1.
    10030    2    1    2    0    0  0.00000000000E+00  0.00000000000E+00  0.51225619678E+03  0.22515029582E+04  0.21924550531E+04 0.  0.
        3    1    3    3  502    0 -0.57171550060E+02 -0.27302167425E+03 -0.83256806924E+03  0.87805411044E+03  0.10100000352E+00 0. -1.
       -3    1    3    3    0  502  0.57171550060E+02  0.27302167425E+03  0.13448242660E+04  0.13734488478E+04  0.10100000352E+00 0.  1.
</event>
<event>
 5   0  0.1049198E-05  0.2199363E+04  0.7818609E-02  0.8518693E-01
        1   -1    0    0  501    0  0.00000000000E+00  0.00000000000E+00  0.86826607957E+03  0.86826607959E+03  0.50400001928E-02 0.  1.
       -1   -1    0    0    0  501  0.00000000000E+00  0.00000000000E+00 -0.13927749623E+04  0.13927749623E+04  0.50400001928E-02 0. -1.
    10030    2    1    2    0    0  0.00000000000E+00  0.00000000000E+00 -0.52450888271E+03  0.22610410419E+04  0.21993628680E+04 0.  0.
        1    1    3    3  502    0  0.48085323245E+03  0.87927330094E+03  0.20316430816E+03  0.10225542064E+04  0.50400001928E-02 0.  1.
       -1    1    3    3    0  502 -0.48085323245E+03 -0.87927330094E+03 -0.72767319088E+03  0.12384868355E+04  0.50400001928E-02 0. -1.
</event>
<event>
 5   0  0.1007682E-05  0.2188351E+04  0.7818609E-02  0.8523292E-01
        1   -1    0    0  501    0  0.00000000000E+00  0.00000000000E+00  0.20168715046E+04  0.20168715046E+04  0.50400001928E-02 0. -1.
       -1   -1    0    0    0  501  0.00000000000E+00  0.00000000000E+00 -0.59360254360E+03  0.59360254363E+03  0.50400001928E-02 0.  1.
    10030    2    1    2    0    0  0.00000000000E+00  0.00000000000E+00  0.14232689610E+04  0.26104740482E+04  0.21883510279E+04 0.  0.
        2    1    3    3  502    0  0.78825505020E+03  0.59022010007E+03  0.14264176254E+03  0.99501380047E+03  0.25500000920E-02 0.  1.
       -2    1    3    3    0  502 -0.78825505020E+03 -0.59022010007E+03  0.12806271984E+04  0.16154602478E+04  0.25500000920E-02 0. -1.
</event>
<event>
 5   0  0.1033733E-05  0.2221241E+04  0.7818609E-02  0.8509639E-01
        1   -1    0    0  501    0  0.00000000000E+00  0.00000000000E+00  0.12394039599E+04  0.12394039599E+04  0.50400001928E-02 0. -1.
       -1   -1    0    0    0  501  0.00000000000E+00  0.00000000000E+00 -0.99521819606E+03  0.99521819607E+03  0.50400001928E-02 0.  1.
    10030    2    1    2    0    0  0.00000000000E+00  0.00000000000E+00  0.24418576383E+03  0.22346221560E+04  0.22212405301E+04 0.  0.
        5    1    3    3  502    0  0.65435613752E+03  0.24680792552E+02  0.10245277092E+04  0.12159236049E+04  0.46999998093E+01 0. -1.
       -5    1    3    3    0  502 -0.65435613752E+03 -0.24680792552E+02 -0.78034194533E+03  0.10186985510E+04  0.46999998093E+01 0.  1.
</event>
<event>
 5   0  0.2284329E-05  0.2255378E+04  0.7818609E-02  0.8495726E-01
        2   -1    0    0  501    0  0.00000000000E+00  0.00000000000E+00  0.25329556058E+04  0.25329556058E+04  0.25500000920E-02 0. -1.
       -2   -1    0    0    0  501  0.00000000000E+00  0.00000000000E+00 -0.50205483592E+03  0.50205483593E+03  0.25500000920E-02 0.  1.
    10030    2    1    2    0    0  0.00000000000E+00  0.00000000000E+00  0.20309007699E+04  0.30350104418E+04  0.22553781156E+04 0.  0.
        2    1    3    3  502    0  0.18864109150E+03  0.14870791482E+03 -0.46722865787E+03  0.52535904301E+03  0.25500000920E-02 0.  1.
       -2    1    3    3    0  502 -0.18864109150E+03 -0.14870791482E+03  0.24981294278E+04  0.25096513988E+04  0.25500000920E-02 0. -1.
</event>
<event>
 5   0  0.2298329E-05  0.2231692E+04  0.7818609E-02  0.8505352E-01
       -2   -1    0    0    0  501  0.00000000000E+00  0.00000000000E+00  0.80340802199E+03  0.80340802200E+03  0.25500000920E-02 0.  1.
        2   -1    0    0  501    0  0.00000000000E+00  0.00000000000E+00 -0.15497882690E+04  0.15497882690E+04  0.25500000920E-02 0. -1.
    10030    2    1    2    0    0  0.00000000000E+00  0.00000000000E+00 -0.74638024696E+03  0.23531962909E+04  0.22316920286E+04 0.  0.
        4    1    3    3  502    0 -0.10088851302E+03  0.85583413615E+03 -0.11206421949E+04  0.14136729122E+04  0.12699999809E+01 0. -1.
       -4    1    3    3    0  502  0.10088851302E+03 -0.85583413615E+03  0.37426194797E+03  0.93952337877E+03  0.12699999809E+01 0.  1.
</event>
<event>
 5   0  0.1005538E-05  0.2150360E+04  0.7818609E-02  0.8539378E-01
       -1   -1    0    0    0  501  0.00000000000E+00  0.00000000000E+00  0.66313929056E+03  0.66313929058E+03  0.50400001928E-02 0. -1.
        1   -1    0    0  501    0  0.00000000000E+00  0.00000000000E+00 -0.17432414025E+04  0.17432414025E+04  0.50400001928E-02 0.  1.
    10030    2    1    2    0    0  0.00000000000E+00  0.00000000000E+00 -0.10801021120E+04  0.24063806931E+04  0.21503598462E+04 0.  0.
        3    1    3    3  502    0  0.12208725898E+03  0.25124417005E+03  0.62182321214E+03  0.68168398041E+03  0.10100000352E+00 0. -1.
       -3    1    3    3    0  502 -0.12208725898E+03 -0.25124417005E+03 -0.17019253241E+04  0.17246967127E+04  0.10100000352E+00 0.  1.
</event>
<event>
 5   0  0.2284329E-05  0.2188816E+04  0.7818609E-02  0.8523098E-01
       -2   -1    0    0    0  501  0.00000000000E+00  0.00000000000E+00  0.28206830304E+04  0.28206830304E+04  0.25500000920E-02 0.  1.
        2   -1    0    0  501    0  0.00000000000E+00  0.00000000000E+00 -0.42462368835E+03  0.42462368835E+03  0.25500000920E-02 0. -1.
    10030    2    1    2    0    0  0.00000000000E+00  0.00000000000E+00  0.23960593420E+04  0.32453067187E+04  0.21888159649E+04 0.  0.
        2    1    3    3  502    0  0.10280431804E+04 -0.47157111348E+01  0.64161320891E+03  0.12118426171E+04  0.25500000920E-02 0. -1.
       -2    1    3    3    0  502 -0.10280431804E+04  0.47157111348E+01  0.17544461331E+04  0.20334641017E+04  0.25500000920E-02 0.  1.
</event>
<event>
 5   0  0.1033733E-05  0.2190521E+04  0.7818609E-02  0.8522384E-01
        1   -1    0    0  501    0  0.00000000000E+00  0.00000000000E+00  0.13966284606E+04  0.13966284606E+04  0.50400001928E-02 0.  1.
       -1   -1    0    0    0  501  0.00000000000E+00  0.00000000000E+00 -0.85892276346E+03  0.85892276347E+03  0.50400001928E-02 0. -1.
    10030    2    1    2    0    0  0.00000000000E+00  0.00000000000E+00  0.53770569714E+03  0.22555512241E+04  0.21905213781E+04 0.  0.
        5    1    3    3  502    0  0.92515841246E+03 -0.57350653519E+03  0.14381453949E+03  0.10979674612E+04  0.46999998093E+01 0.  1.
       -5    1    3    3    0  502 -0.92515841246E+03  0.57350653519E+03  0.39389115765E+03  0.11575837629E+04  0.46999998093E+01 0. -1.
</event>
<event>
 5   0  0.1071208E-05  0.2190763E+04  0.7818609E-02  0.8522283E-01
       -1   -1    0    0    0  501  0.00000000000E+00  0.00000000000E+00  0.77702932270E+03  0.77702932272E+03  0.50400001928E-02 0. -1.
        1   -1    0    0  501    0  0.00000000000E+00  0.00000000000E+00 -0.15441634288E+04  0.15441634288E+04  0.50400001928E-02 0.  1.
    10030    2    1    2    0    0  0.00000000000E+00  0.00000000000E+00 -0.76713410613E+03  0.23211927516E+04  0.21907626647E+04 0.  0.
        4    1    3    3  502    0  0.34677941124E+03 -0.90396497906E+03  0.15923210957E+03  0.98120595241E+03  0.12699999809E+01 0. -1.
       -4    1    3    3    0  502 -0.34677941124E+03  0.90396497906E+03 -0.92636621570E+03  0.13399867992E+04  0.12699999809E+01 0.  1.
</event>
<event>
 5   0  0.1007682E-05  0.2204095E+04  0.7818609E-02  0.8516726E-01
        1   -1    0    0  501    0  0.00000000000E+00  0.00000000000E+00  0.16388163879E+04  0.16388163879E+04  0.50400001928E-02 0. -1.
       -1   -1    0    0    0  501  0.00000000000E+00  0.00000000000E+00 -0.74108875562E+03  0.74108875564E+03  0.50400001928E-02 0.  1.
    10030    2    1    2    0    0  0.00000000000E+00  0.00000000000E+00  0.89772763231E+03  0.23799051436E+04  0.22040947327E+04 0.  0.
        2    1    3    3  502    0 -0.12395195703E+03  0.56694888712E+03  0.14604566008E+04  0.15715370218E+04  0.25500000920E-02 0. -1.
       -2    1    3    3    0  502  0.12395195703E+03 -0.56694888712E+03 -0.56272896848E+03  0.80836812173E+03  0.25500000920E-02 0.  1.
</event>
<event>
 5   0  0.1033733E-05  0.2205014E+04  0.7818609E-02  0.8516344E-01
        1   -1    0    0  501    0  0.00000000000E+00  0.00000000000E+00  0.95925302729E+03  0.95925302731E+03  0.50400001928E-02 0.  1.
       -1   -1    0    0    0  501  0.00000000000E+00  0.00000000000E+00 -0.12671541692E+04  0.12671541693E+04  0.50400001928E-02 0. -1.
    10030    2    1    2    0    0  0.00000000000E+00  0.00000000000E+00 -0.30790114195E+03  0.22264071966E+04  0.22050138076E+04 0.  0.
        5    1    3    3  502    0 -0.95819988448E+03  0.54142756859E+03 -0.21945333815E+03  0.11222623081E+04  0.46999998093E+01 0.  1.
       -5    1    3    3    0  502  0.95819988448E+03 -0.54142756859E+03 -0.88447803807E+02  0.11041448884E+04  0.46999998093E+01 0. -1.
</event>
<event>
 5   0  0.1049198E-05  0.2203070E+04  0.7818609E-02  0.8517151E-01
        1   -1    0    0  501    0  0.00000000000E+00  0.00000000000E+00  0.12848256280E+04  0.12848256280E+04  0.50400001928E-02 0.  1.
       -1   -1    0    0    0  501  0.00000000000E+00  0.00000000000E+00 -0.94439219263E+03  0.94439219264E+03  0.50400001928E-02 0. -1.
    10030    2    1    2    0    0  0.00000000000E+00  0.00000000000E+00  0.34043343537E+03  0.22292178207E+04  0.22030699417E+04 0.  0.
        1    1    3    3  502    0 -0.63712943662E+03  0.75505127310E+01  0.10794293558E+04  0.12534586804E+04  0.50400001928E-02 0.  1.
       -1    1    3    3    0  502  0.63712943662E+03 -0.75505127310E+01 -0.73899592047E+03  0.97575914023E+03  0.50400001928E-02 0. -1.
</event>
<event>
 5   0  0.2319707E-05  0.2200959E+04  0.7818609E-02  0.8518029E-01
        2   -1    0    0  501    0  0.00000000000E+00  0.00000000000E+00  0.12507963158E+04  0.12507963158E+04  0.25500000920E-02 0.  1.
       -2   -1    0    0    0  501  0.00000000000E+00  0.00000000000E+00 -0.96822762795E+03  0.96822762795E+03  0.25500000920E-02 0. -1.
    10030    2    1    2    0    0  0.00000000000E+00  0.00000000000E+00  0.28256868785E+03  0.22190239438E+04  0.22009593816E+04 0.  0.
        3    1    3    3  502    0 -0.77138930277E+03 -0.74282458110E+03 -0.11422363592E+03  0.10769757954E+04  0.10100000352E+00 0.  1.
       -3    1    3    3    0  502  0.77138930277E+03  0.74282458110E+03  0.39679232377E+03  0.11420481483E+04  0.10100000352E+00 0. -1.
</event>
<event>
 5   0  0.2319707E-05  0.2207004E+04  0.7818609E-02  0.8515519E-01
        2   -1    0    0  501    0  0.00000000000E+00  0.00000000000E+00  0.14620118820E+04  0.14620118821E+04  0.25500000920E-02 0. -1.
       -2   -1    0    0    0  501  0.00000000000E+00  0.00000000000E+00 -0.83290452464E+03  0.83290452464E+03  0.25500000920E-02 0.  1.
    10030    2    1    2    0    0  0.00000000000E+00  0.00000000000E+00  0.62910735741E+03  0.22949164067E+04  0.22070036807E+04 0.  0.
        3    1    3    3  502    0  0.10249780281E+04 -0.38210350275E+03  0.46571720929E+03  0.11888967886E+04  0.10100000352E+00 0.  1.
       -3    1    3    3    0  502 -0.10249780281E+04  0.38210350275E+03  0.16339014812E+03  0.11060196181E+04  0.10100000352E+00 0. -1.
</event>
<event>
 5   0  0.1033733E-05  0.2260369E+04  0.7818609E-02  0.8493713E-01
       -1   -1    0    0    0  501  0.00000000000E+00  0.00000000000E+00  0.55763421593E+03  0.55763421595E+03  0.50400001928E-02 0.  1.
        1   -1    0    0  501    0  0.00000000000E+00  0.00000000000E+00 -0.22906000705E+04  0.22906000705E+04  0.50400001928E-02 0. -1.
    10030    2    1    2    0    0  0.00000000000E+00  0.00000000000E+00 -0.17329658545E+04  0.28482342864E+04  0.22603689737E+04 0.  0.
        5    1    3    3  502    0 -0.60955849287E+03  0.61437388755E+03 -0.17823399027E+04  0.19813567192E+04  0.46999998093E+01 0. -1.
       -5    1    3    3    0  502  0.60955849287E+03 -0.61437388755E+03  0.49374048166E+02  0.86687756723E+03  0.46999998093E+01 0.  1.
</event>
<event>
 5   0  0.1005538E-05  0.2183866E+04  0.7818609E-02  0.8525174E-01
        1   -1    0    0  501    0  0.00000000000E+00  0.00000000000E+00  0.76522548159E+03  0.76522548161E+03  0.50400001928E-02 0.  1.
       -1   -1    0    0    0  501  0.00000000000E+00  0.00000000000E+00 -0.15581253249E+04  0.15581253249E+04  0.50400001928E-02 0. -1.
    10030    2    1    2    0    0  0.00000000000E+00  0.00000000000E+00 -0.79289984333E+03  0.23233508065E+04  0.21838655656E+04 0.  0.
        3    1    3    3  502    0  0.79151850541E+03  0.44874848168E+03 -0.10386970555E+04  0.13808578230E+04  0.10100000352E+00 0. -1.
       -3    1    3    3    0  502 -0.79151850541E+03 -0.44874848168E+03  0.24579721214E+03  0.94249298349E+03  0.10100000352E+00 0.  1.
</event>
<event>
 5   0  0.1005538E-05  0.2194672E+04  0.7818609E-02  0.8520649E-01
       -1   -1    0    0    0  501  0.00000000000E+00  0.00000000000E+00  0.75991953939E+03  0.75991953941E+03  0.50400001928E-02 0.  1.
        1   -1    0    0  501    0  0.00000000000E+00  0.00000000000E+00 -0.15845708469E+04  0.15845708469E+04  0.50400001928E-02 0. -1.
    10030    2    1    2    0    0  0.00000000000E+00  0.00000000000E+00 -0.82465130746E+03  0.23444903863E+04  0.21946720467E+04 0.  0.
        3    1    3    3  502    0  0.31391717847E+03  0.20277767903E+03 -0.15144949349E+04  0.15599223379E+04  0.10100000352E+00 0. -1.
       -3    1    3    3    0  502 -0.31391717847E+03 -0.20277767903E+03  0.68984362746E+03  0.78456804842E+03  0.10100000352E+00 0.  1.
</event>
<event>
 5   0  0.2284329E-05  0.2203558E+04  0.7818609E-02  0.8516949E-01
       -2   -1    0    0    0  501  0.00000000000E+00  0.00000000000E+00  0.50675499031E+03  0.50675499032E+03  0.25500000920E-02 0.  1.
        2   -1    0    0  501    0  0.00000000000E+00  0.00000000000E+00 -0.23954710435E+04  0.23954710435E+04  0.25500000920E-02 0. -1.
    10030    2    1    2    0    0  0.00000000000E+00  0.00000000000E+00 -0.18887160531E+04  0.29022260338E+04  0.22035579461E+04 0.  0.
        2    1    3    3  502    0  0.80735888206E+03 -0.61455048081E+03 -0.37876200172E+03  0.10830333845E+04  0.25500000920E-02 0.  1.
       -2    1    3    3    0  502 -0.80735888206E+03  0.61455048081E+03 -0.15099540514E+04  0.18191926493E+04  0.25500000920E-02 0. -1.
</event>
<event>
 5   0  0.2284329E-05  0.2203676E+04  0.7818609E-02  0.8516899E-01
       -2   -1    0    0    0  501  0.00000000000E+00  0.00000000000E+00  0.15104211919E+04  0.15104211919E+04  0.25500000920E-02 0.  1.
        2   -1    0    0  501    0  0.00000000000E+00  0.00000000000E+00 -0.80378069258E+03  0.80378069258E+03  0.25500000920E-02 0. -1.
    10030    2    1    2    0    0  0.00000000000E+00  0.00000000000E+00  0.70664049929E+03  0.23142018845E+04  0.22036763752E+04 0.  0.
        2    1    3    3  502    0  0.89558339400E+02 -0.52279854826E+03  0.13675266921E+04  0.14667884210E+04  0.25500000920E-02 0.  1.
       -2    1    3    3    0  502 -0.89558339400E+02  0.52279854826E+03 -0.66088619283E+03  0.84741346349E+03  0.25500000920E-02 0. -1.
</event>
<event>
 5   0  0.1071208E-05  0.2200854E+04  0.7818609E-02  0.8518073E-01
        1   -1    0    0  501    0  0.00000000000E+00  0.00000000000E+00  0.15515289911E+04  0.15515289911E+04  0.50400001928E-02 0. -1.
       -1   -1    0    0    0  501  0.00000000000E+00  0.00000000000E+00 -0.78048137471E+03  0.78048137473E+03  0.50400001928E-02 0.  1.
    10030    2    1    2    0    0  0.00000000000E+00  0.00000000000E+00  0.77104761642E+03  0.23320103659E+04  0.22008539070E+04 0.  0.
        4    1    3    3  502    0  0.64658258277E+01  0.38383682981E+03  0.14782751570E+04  0.15273086038E+04  0.12699999809E+01 0. -1.
       -4    1    3    3    0  502 -0.64658258277E+01 -0.38383682981E+03 -0.70722754053E+03  0.80470176203E+03  0.12699999809E+01 0.  1.
</event>
<event>
 5   0  0.2229552E-05  0.2203891E+04  0.7818609E-02  0.8516810E-01
        2   -1    0    0  501    0  0.00000000000E+00  0.00000000000E+00  0.11460637329E+04  0.11460637329E+04  0.25500000920E-02 0.  1.
       -2   -1    0    0    0  501  0.00000000000E+00  0.00000000000E+00 -0.10595256162E+04  0.10595256162E+04  0.25500000920E-02 0. -1.
    10030    2    1    2    0    0  0.00000000000E+00  0.00000000000E+00  0.86538116755E+02  0.22055893491E+04  0.22038909980E+04 0.  0.
        1    1    3    3  502    0 -0.64183618515E+03  0.17343538071E+03  0.92272402405E+03  0.11373008153E+04  0.50400001928E-02 0.  1.
       -1    1    3    3    0  502  0.64183618515E+03 -0.17343538071E+03 -0.83618590730E+03  0.10682885338E+04  0.50400001928E-02 0. -1.
</event>
<event>
 5   0  0.2289708E-05  0.2194863E+04  0.7818609E-02  0.8520569E-01
        2   -1    0    0  501    0  0.00000000000E+00  0.00000000000E+00  0.89597377660E+03  0.89597377660E+03  0.25500000920E-02 0. -1.
       -2   -1    0    0    0  501  0.00000000000E+00  0.00000000000E+00 -0.13441860820E+04  0.13441860820E+04  0.25500000920E-02 0.  1.
    10030    2    1    2    0    0  0.00000000000E+00  0.00000000000E+00 -0.44821230545E+03  0.22401598587E+04  0.21948626202E+04 0.  0.
        5    1    3    3  502    0 -0.32811603475E+01 -0.93840789955E+03 -0.80480625006E+03  0.12362666954E+04  0.46999998093E+01 0.  1.
       -5    1    3    3    0  502  0.32811603475E+01  0.93840789955E+03  0.35659394462E+03  0.10038931633E+04  0.46999998093E+01 0. -1.
</event>
<event>
 5   0  0.2289708E-05  0.2186215E+04  0.7818609E-02  0.8524188E-01
        2   -1    0    0  501    0  0.00000000000E+00  0.00000000000E+00  0.16181595371E+04  0.16181595371E+04  0.25500000920E-02 0. -1.
       -2   -1    0    0    0  501  0.00000000000E+00  0.00000000000E+00 -0.73842132626E+03  0.73842132627E+03  0.25500000920E-02 0.  1.
    10030    2    1    2    0    0  0.00000000000E+00  0.00000000000E+00  0.87973821082E+03  0.23565808634E+04  0.21862145471E+04 0.  0.
        5    1    3    3  502    0 -0.87761870211E+03 -0.11902525730E+02 -0.26244445879E+03  0.91610885836E+03  0.46999998093E+01 0.  1.
       -5    1    3    3    0  502  0.87761870211E+03  0.11902525730E+02  0.11421826696E+04  0.14404720050E+04  0.46999998093E+01 0. -1.
</event>
<event>
 5   0  0.2284329E-05  0.2197411E+04  0.7818609E-02  0.8519507E-01
       -2   -1    0    0    0  501  0.00000000000E+00  0.00000000000E+00  0.73195458354E+03  0.73195458354E+03  0.25500000920E-02 0. -1.
        2   -1    0    0  501    0  0.00000000000E+00  0.00000000000E+00 -0.16492191086E+04  0.16492191086E+04  0.25500000920E-02 0.  1.
    10030    2    1    2    0    0  0.00000000000E+00  0.00000000000E+00 -0.91726452506E+03  0.23811736921E+04  0.21974107361E+04 0.  0.
        2    1    3    3  502    0 -0.18419963113E+02 -0.78621286395E+03 -0.12900528494E+04  0.15108627723E+04  0.25500000920E-02 0.  1.
       -2    1    3    3    0  502  0.18419963113E+02  0.78621286395E+03  0.37278832431E+03  0.87031091986E+03  0.25500000920E-02 0. -1.
</event>
<event>
 5   0  0.1033733E-05  0.2200160E+04  0.7818609E-02  0.8518362E-01
        1   -1    0    0  501    0  0.00000000000E+00  0.00000000000E+00  0.12860587246E+04  0.12860587246E+04  0.50400001928E-02 0.  1.
       -1   -1    0    0    0  501  0.00000000000E+00  0.00000000000E+00 -0.94099548771E+03  0.94099548773E+03  0.50400001928E-02 0. -1.
    10030    2    1    2    0    0  0.00000000000E+00  0.00000000000E+00  0.34506323689E+03  0.22270542123E+04  0.22001595004E+04 0.  0.
        5    1    3    3  502    0 -0.99134869615E+03  0.47178217923E+03  0.24268030942E+03  0.11243960532E+04  0.46999998093E+01 0. -1.
       -5    1    3    3    0  502  0.99134869615E+03 -0.47178217923E+03  0.10238292748E+03  0.11026581591E+04  0.46999998093E+01 0.  1.
</event>
<event>
 5   0  0.2319707E-05  0.2213209E+04  0.7818609E-02  0.8512950E-01
       -2   -1    0    0    0  501  0.00000000000E+00  0.00000000000E+00  0.11758701881E+04  0.11758701881E+04  0.25500000920E-02 0.  1.
        2   -1    0    0  501    0  0.00000000000E+00  0.00000000000E+00 -0.10414193756E+04  0.10414193756E+04  0.25500000920E-02 0. -1.
    10030    2    1    2    0    0  0.00000000000E+00  0.00000000000E+00  0.13445081251E+03  0.22172895638E+04  0.22132094317E+04 0.  0.
        3    1    3    3  502    0 -0.73193724585E+03 -0.15580333772E+03 -0.74948735916E+03  0.10591213923E+04  0.10100000352E+00 0. -1.
       -3    1    3    3    0  502  0.73193724585E+03  0.15580333772E+03  0.88393817166E+03  0.11581681715E+04  0.10100000352E+00 0.  1.
</event>
<event>
 5   0  0.1005538E-05  0.2196962E+04  0.7818609E-02  0.8519694E-01
       -1   -1    0    0    0  501  0.00000000000E+00  0.00000000000E+00  0.11536559242E+04  0.11536559242E+04  0.50400001928E-02 0. -1.
        1   -1    0    0  501    0  0.00000000000E+00  0.00000000000E+00 -0.10459445337E+04  0.10459445338E+04  0.50400001928E-02 0.  1.
    10030    2    1    2    0    0  0.00000000000E+00  0.00000000000E+00  0.10771139045E+03  0.21996004580E+04  0.21969616362E+04 0.  0.
        3    1    3    3  502    0  0.86237206725E+03  0.67953724074E+03  0.88591078517E+02  0.11015011726E+04  0.10100000352E+00 0.  1.
       -3    1    3    3    0  502 -0.86237206725E+03 -0.67953724074E+03  0.19120311935E+02  0.10980992853E+04  0.10100000352E+00 0. -1.
</event>
<event>
 5   0  0.2298329E-05  0.2200319E+04  0.7818609E-02  0.8518295E-01
       -2   -1    0    0    0  501  0.00000000000E+00  0.00000000000E+00  0.96180546918E+03  0.96180546918E+03  0.25500000920E-02 0.  1.
        2   -1    0    0  501    0  0.00000000000E+00  0.00000000000E+00 -0.12584157538E+04  0.12584157538E+04  0.25500000920E-02 0. -1.
    10030    2    1    2    0    0  0.00000000000E+00  0.00000000000E+00 -0.29661028465E+03  0.22202212230E+04  0.22003192082E+04 0.  0.
        4    1    3    3  502    0 -0.67976886771E+03  0.61854770943E+03  0.46186479578E+03  0.10285950052E+04  0.12699999809E+01 0.  1.
       -4    1    3    3    0  502  0.67976886771E+03 -0.61854770943E+03 -0.75847508043E+03  0.11916262178E+04  0.12699999809E+01 0. -1.
</event>
<event>
 5   0  0.1007682E-05  0.2191281E+04  0.7818609E-02  0.8522066E-01
        1   -1    0    0  501    0  0.00000000000E+00  0.00000000000E+00  0.14078114132E+04  0.14078114132E+04  0.50400001928E-02 0. -1.
       -1   -1    0    0    0  501  0.00000000000E+00  0.00000000000E+00 -0.85269127747E+03  0.85269127748E+03  0.50400001928E-02 0.  1.
    10030    2    1    2    0    0  0.00000000000E+00  0.00000000000E+00  0.55512013569E+03  0.22605026906E+04  0.21912813716E+04 0.  0.
        2    1    3    3  502    0  0.32845677914E+02  0.92007898317E+02 -0.84818914496E+03  0.85379688307E+03  0.25500000920E-02 0.  1.
       -2    1    3    3    0  502 -0.32845677914E+02 -0.92007898317E+02  0.14033092806E+04  0.14067058076E+04  0.25500000920E-02 0. -1.
</event>
<event>
 5   0  0.1049198E-05  0.2198065E+04  0.7818609E-02  0.8519234E-01
        1   -1    0    0  501    0  0.00000000000E+00  0.00000000000E+00  0.12320169786E+04  0.12320169786E+04  0.50400001928E-02 0.  1.
       -1   -1    0    0    0  501  0.00000000000E+00  0.00000000000E+00 -0.98040282442E+03  0.98040282444E+03  0.50400001928E-02 0. -1.
    10030    2    1    2    0    0  0.00000000000E+00  0.00000000000E+00  0.25161415421E+03  0.22124198031E+04  0.21980654454E+04 0.  0.
        1    1    3    3  502    0  0.13753673432E+03 -0.33323718604E+03  0.11708113783E+04  0.12250561861E+04  0.50400001928E-02 0.  1.
       -1    1    3    3    0  502 -0.13753673432E+03  0.33323718604E+03 -0.91919722408E+03  0.98736361702E+03  0.50400001928E-02 0. -1.
</event>
<event>
 5   0  0.2289708E-05  0.2201222E+04  0.7818609E-02  0.8517920E-01
        2   -1    0    0  501    0  0.00000000000E+00  0.00000000000E+00  0.15908340500E+04  0.15908340500E+04  0.25500000920E-02 0.  1.
       -2   -1    0    0    0  501  0.00000000000E+00  0.00000000000E+00 -0.76145262242E+03  0.76145262242E+03  0.25500000920E-02 0. -1.
    10030    2    1    2    0    0  0.00000000000E+00  0.00000000000E+00  0.82938142760E+03  0.23522866724E+04  0.22012221689E+04 0.  0.
        5    1    3    3  502    0  0.29513658999E+03  0.76336819389E+03 -0.37166674671E+03  0.89888534686E+03  0.46999998093E+01 0. -1.
       -5    1    3    3    0  502 -0.29513658999E+03 -0.76336819389E+03  0.12010481743E+04  0.14534013256E+04  0.46999998093E+01 0.  1.
</event>
<event>
 5   0  0.1033733E-05  0.2125879E+04  0.7818609E-02  0.8549928E-01
        1   -1    0    0  501    0  0.00000000000E+00  0.00000000000E+00  0.98514950040E+03  0.98514950041E+03  0.50400001928E-02 0. -1.
       -1   -1    0    0    0  501  0.00000000000E+00  0.00000000000E+00 -0.11468725086E+04  0.11468725086E+04  0.50400001928E-02 0.  1.
    10030    2    1    2    0    0  0.00000000000E+00  0.00000000000E+00 -0.16172300819E+03  0.21320220090E+04  0.21258794687E+04 0.  0.
        5    1    3    3  502    0 -0.43869552864E+02 -0.14819272671E+03  0.97381066857E+03  0.98600959941E+03  0.46999998093E+01 0. -1.
       -5    1    3    3    0  502  0.43869552864E+02  0.14819272671E+03 -0.11355336768E+04  0.11460124096E+04  0.46999998093E+01 0.  1.
</event>
<event>
 5   0  0.2319707E-05  0.2043143E+04  0.7818609E-02  0.8586712E-01
        2   -1    0    0  501    0  0.00000000000E+00  0.00000000000E+00  0.46177580351E+03  0.46177580352E+03  0.25500000920E-02 0. -1.
       -2   -1    0    0    0  501  0.00000000000E+00  0.00000000000E+00 -0.22599883634E+04  0.22599883634E+04  0.25500000920E-02 0.  1.
    10030    2    1    2    0    0  0.00000000000E+00  0.00000000000E+00 -0.17982125599E+04  0.27217641670E+04  0.20431426210E+04 0.  0.
        3    1    3    3  502    0  0.46426655122E+03  0.25945134816E+03 -0.20610166995E+04  0.21285319539E+04  0.10100000352E+00 0.  1.
       -3    1    3    3    0  502 -0.46426655122E+03 -0.25945134816E+03  0.26280413962E+03  0.59323221309E+03  0.10100000352E+00 0. -1.
</event>
<event>
 5   0  0.2229552E-05  0.2199325E+04  0.7818609E-02  0.8518709E-01
       -2   -1    0    0    0  501  0.00000000000E+00  0.00000000000E+00  0.83601990143E+03  0.83601990144E+03  0.25500000920E-02 0.  1.
        2   -1    0    0  501    0  0.00000000000E+00  0.00000000000E+00 -0.14464455646E+04  0.14464455646E+04  0.25500000920E-02 0. -1.
    10030    2    1    2    0    0  0.00000000000E+00  0.00000000000E+00 -0.61042566320E+03  0.22824654661E+04  0.21993246949E+04 0.  0.
        1    1    3    3  502    0 -0.50678090153E+03  0.63992256858E+03  0.45947923653E+03  0.93672244810E+03  0.50400001928E-02 0.  1.
       -1    1    3    3    0  502  0.50678090153E+03 -0.63992256858E+03 -0.10699048997E+04  0.13457430180E+04  0.50400001928E-02 0. -1.
</event>
<event>
 5   0  0.1007682E-05  0.2209278E+04  0.7818609E-02  0.8514576E-01
       -1   -1    0    0    0  501  0.00000000000E+00  0.00000000000E+00  0.53021151726E+03  0.53021151729E+03  0.50400001928E-02 0.  1.
        1   -1    0    0  501    0  0.00000000000E+00  0.00000000000E+00 -0.23013965384E+04  0.23013965385E+04  0.50400001928E-02 0. -1.
    10030    2    1    2    0    0  0.00000000000E+00  0.00000000000E+00 -0.17711850212E+04  0.28316080557E+04  0.22092776652E+04 0.  0.
        2    1    3    3  502    0  0.14480700104E+03  0.48025834939E+03 -0.21470054066E+04  0.22048241122E+04  0.25500000920E-02 0. -1.
       -2    1    3    3    0  502 -0.14480700104E+03 -0.48025834939E+03  0.37582038546E+03  0.62678394351E+03  0.25500000920E-02 0.  1.
</event>
<event>
 5   0  0.1007682E-05  0.2199949E+04  0.7818609E-02  0.8518449E-01
        1   -1    0    0  501    0  0.00000000000E+00  0.00000000000E+00  0.10021748779E+04  0.10021748779E+04  0.50400001928E-02 0.  1.
       -1   -1    0    0    0  501  0.00000000000E+00  0.00000000000E+00 -0.12073185016E+04  0.12073185016E+04  0.50400001928E-02 0. -1.
    10030    2    1    2    0    0  0.00000000000E+00  0.00000000000E+00 -0.20514362369E+03  0.22094933796E+04  0.21999493376E+04 0.  0.
        2    1    3    3  502    0 -0.90750417687E+03 -0.14731460923E+03  0.50393448118E+03  0.10484347316E+04  0.25500000920E-02 0.  1.
       -2    1    3    3    0  502  0.90750417687E+03  0.14731460923E+03 -0.70907810487E+03  0.11610586479E+04  0.25500000920E-02 0. -1.
</event>
<event>
 5   0  0.2319707E-05  0.2200288E+04  0.7818609E-02  0.8518308E-01
       -2   -1    0    0    0  501  0.00000000000E+00  0.00000000000E+00  0.73329892340E+03  0.73329892340E+03  0.25500000920E-02 0. -1.
        2   -1    0    0  501    0  0.00000000000E+00  0.00000000000E+00 -0.16505096918E+04  0.16505096918E+04  0.25500000920E-02 0.  1.
    10030    2    1    2    0    0  0.00000000000E+00  0.00000000000E+00 -0.91721076838E+03  0.23838086152E+04  0.22002881448E+04 0.  0.
        3    1    3    3  502    0  0.49571759787E+02  0.64943096488E+03  0.50196779679E+03  0.82230749524E+03  0.10100000352E+00 0. -1.
       -3    1    3    3    0  502 -0.49571759787E+02 -0.64943096488E+03 -0.14191785652E+04  0.15615011199E+04  0.10100000352E+00 0.  1.
</event>
<event>
 5   0  0.2319707E-05  0.2195805E+04  0.7818609E-02  0.8520176E-01
        2   -1    0    0  501    0  0.00000000000E+00  0.00000000000E+00  0.16407909198E+04  0.16407909198E+04  0.25500000920E-02 0. -1.
       -2   -1    0    0    0  501  0.00000000000E+00  0.00000000000E+00 -0.73463930171E+03  0.73463930171E+03  0.25500000920E-02 0.  1.
    10030    2    1    2    0    0  0.00000000000E+00  0.00000000000E+00  0.90615161811E+03  0.23754302215E+04  0.21958046321E+04 0.  0.
        3    1    3    3  502    0  0.48483510002E+03  0.18709955015E+03  0.14993084521E+04  0.15868198261E+04  0.10100000352E+00 0. -1.
       -3    1    3    3    0  502 -0.48483510002E+03 -0.18709955015E+03 -0.59315683396E+03  0.78861039542E+03  0.10100000352E+00 0.  1.
</event>
<event>
 5   0  0.1071208E-05  0.2201699E+04  0.7818609E-02  0.8517721E-01
       -1   -1    0    0    0  501  0.00000000000E+00  0.00000000000E+00  0.18577007157E+04  0.18577007157E+04  0.50400001928E-02 0.  1.
        1   -1    0    0  501    0  0.00000000000E+00  0.00000000000E+00 -0.65234907051E+03  0.65234907053E+03  0.50400001928E-02 0. -1.
    10030    2    1    2    0    0  0.00000000000E+00  0.00000000000E+00  0.12053516452E+04  0.25100497862E+04  0.22016987398E+04 0.  0.
        4    1    3    3  502    0  0.82293994083E+02  0.58143421418E+03  0.16642281893E+04  0.17647932247E+04  0.12699999809E+01 0.  1.
       -4    1    3    3    0  502 -0.82293994083E+02 -0.58143421418E+03 -0.45887654413E+03  0.74525656155E+03  0.12699999809E+01 0. -1.
</event>
<event>
 5   0  0.1071208E-05  0.2187996E+04  0.7818609E-02  0.8523441E-01
       -1   -1    0    0    0  501  0.00000000000E+00  0.00000000000E+00  0.14229912745E+04  0.14229912745E+04  0.50400001928E-02 0. -1.
        1   -1    0    0  501    0  0.00000000000E+00  0.00000000000E+00 -0.84106734403E+03  0.84106734404E+03  0.50400001928E-02 0.  1.
    10030    2    1    2    0    0  0.00000000000E+00  0.00000000000E+00  0.58192393049E+03  0.22640586186E+04  0.21879958792E+04 0.  0.
        4    1    3    3  502    0 -0.39497232557E+03 -0.82653653903E+03  0.90980261988E+03  0.12910879940E+04  0.12699999809E+01 0. -1.
       -4    1    3    3    0  502  0.39497232557E+03  0.82653653903E+03 -0.32787868940E+03  0.97297062452E+03  0.12699999809E+01 0.  1.
</event>
<event>
 5   0  0.1049198E-05  0.2199807E+04  0.7818609E-02  0.8518509E-01
       -1   -1    0    0    0  501  0.00000000000E+00  0.00000000000E+00  0.87725549849E+03  0.87725549850E+03  0.50400001928E-02 0.  1.
        1   -1    0    0  501    0  0.00000000000E+00  0.00000000000E+00 -0.13790592169E+04  0.13790592169E+04  0.50400001928E-02 0. -1.
    10030    2    1    2    0    0  0.00000000000E+00  0.00000000000E+00 -0.50180371840E+03  0.22563147154E+04  0.21998066104E+04 0.  0.
        1    1    3    3  502    0 -0.17175759805E+03  0.31566603505E+03  0.81534068299E+03  0.89102533496E+03  0.50400001928E-02 0.  1.
       -1    1    3    3    0  502  0.17175759805E+03 -0.31566603505E+03 -0.13171444014E+04  0.13652893804E+04  0.50400001928E-02 0. -1.
</event>
<event>
 5   0  0.1049198E-05  0.2200898E+04  0.7818609E-02  0.8518054E-01
        1   -1    0    0  501    0  0.00000000000E+00  0.00000000000E+00  0.18909205470E+04  0.18909205470E+04  0.50400001928E-02 0.  1.
       -1   -1    0    0    0  501  0.00000000000E+00  0.00000000000E+00 -0.64042270258E+03  0.64042270260E+03  0.50400001928E-02 0. -1.
    10030    2    1    2    0    0  0.00000000000E+00  0.00000000000E+00  0.12504978444E+04  0.25313432496E+04  0.22008984048E+04 0.  0.
        1    1    3    3  502    0 -0.43417753962E+03 -0.44846461472E+03  0.16676077210E+04  0.17806027513E+04  0.50400001928E-02 0.  1.
       -1    1    3    3    0  502  0.43417753962E+03  0.44846461472E+03 -0.41710987665E+03  0.75074049830E+03  0.50400001928E-02 0. -1.
</event>
<event>
 5   0  0.1007682E-05  0.2202368E+04  0.7818609E-02  0.8517443E-01
       -1   -1    0    0    0  501  0.00000000000E+00  0.00000000000E+00  0.84157612017E+03  0.84157612019E+03  0.50400001928E-02 0.  1.
        1   -1    0    0  501    0  0.00000000000E+00  0.00000000000E+00 -0.14408755411E+04  0.14408755411E+04  0.50400001928E-02 0. -1.
    10030    2    1    2    0    0  0.00000000000E+00  0.00000000000E+00 -0.59929942092E+03  0.22824516613E+04  0.22023682231E+04 0.  0.
        2    1    3    3  502    0 -0.65965011076E+03 -0.19247887039E+03  0.59211595173E+03  0.90707644908E+03  0.25500000920E-02 0.  1.
       -2    1    3    3    0  502  0.65965011076E+03  0.19247887039E+03 -0.11914153726E+04  0.13753752122E+04  0.25500000920E-02 0. -1.
</event>
<event>
 5   0  0.1033733E-05  0.2201133E+04  0.7818609E-02  0.8517957E-01
        1   -1    0    0  501    0  0.00000000000E+00  0.00000000000E+00  0.12733181933E+04  0.12733181933E+04  0.50400001928E-02 0. -1.
       -1   -1    0    0    0  501  0.00000000000E+00  0.00000000000E+00 -0.95125231161E+03  0.95125231162E+03  0.50400001928E-02 0.  1.
    10030    2    1    2    0    0  0.00000000000E+00  0.00000000000E+00  0.32206588166E+03  0.22245705049E+04  0.22011332307E+04 0.  0.
        5    1    3    3  502    0  0.16192247082E+03  0.98286561774E+03 -0.31190388988E+03  0.10438150390E+04  0.46999998093E+01 0.  1.
       -5    1    3    3    0  502 -0.16192247082E+03 -0.98286561774E+03  0.63396977154E+03  0.11807554659E+04  0.46999998093E+01 0. -1.
</event>
<event>
 5   0  0.1007682E-05  0.2196817E+04  0.7818609E-02  0.8519754E-01
        1   -1    0    0  501    0  0.00000000000E+00  0.00000000000E+00  0.21374248734E+04  0.21374248734E+04  0.50400001928E-02 0. -1.
       -1   -1    0    0    0  501  0.00000000000E+00  0.00000000000E+00 -0.56446470323E+03  0.56446470325E+03  0.50400001928E-02 0.  1.
    10030    2    1    2    0    0  0.00000000000E+00  0.00000000000E+00  0.15729601702E+04  0.27018895767E+04  0.21968166941E+04 0.  0.
        2    1    3    3  502    0 -0.56909138332E+03  0.67535528232E+03  0.15897271473E+04  0.18185714621E+04  0.25500000920E-02 0. -1.
       -2    1    3    3    0  502  0.56909138332E+03 -0.67535528232E+03 -0.16766977155E+02  0.88331811453E+03  0.25500000920E-02 0.  1.
</event>
<event>
 5   0  0.2229552E-05  0.2105030E+04  0.7818609E-02  0.8559031E-01
       -2   -1    0    0    0  501  0.00000000000E+00  0.00000000000E+00  0.81585724260E+03  0.81585724260E+03  0.25500000920E-02 0.  1.
        2   -1    0    0  501    0  0.00000000000E+00  0.00000000000E+00 -0.13578204288E+04  0.13578204288E+04  0.25500000920E-02 0. -1.
    10030    2    1    2    0    0  0.00000000000E+00  0.00000000000E+00 -0.54196318616E+03  0.21736776714E+04  0.21050298154E+04 0.  0.
        1    1    3    3  502    0 -0.83075851594E+03 -0.20715882956E+03  0.36111922606E+03  0.92923709995E+03  0.50400001928E-02 0.  1.
       -1    1    3    3    0  502  0.83075851594E+03  0.20715882956E+03 -0.90308241222E+03  0.12444405714E+04  0.50400001928E-02 0. -1.
</event>
<event>
 5   0  0.2229552E-05  0.2197990E+04  0.7818609E-02  0.8519265E-01
        2   -1    0    0  501    0  0.00000000000E+00  0.00000000000E+00  0.10927619445E+04  0.10927619445E+04  0.25500000920E-02 0. -1.
       -2   -1    0    0    0  501  0.00000000000E+00  0.00000000000E+00 -0.11052639485E+04  0.11052639485E+04  0.25500000920E-02 0.  1.
    10030    2    1    2    0    0  0.00000000000E+00  0.00000000000E+00 -0.12502004041E+02  0.21980258930E+04  0.21979903380E+04 0.  0.
        1    1    3    3  502    0 -0.73814302252E+03  0.39705759379E+03 -0.71709337140E+03  0.11030560991E+04  0.50400001928E-02 0.  1.
       -1    1    3    3    0  502  0.73814302252E+03 -0.39705759379E+03  0.70459136736E+03  0.10949697939E+04  0.50400001928E-02 0. -1.
</event>
<event>
 5   0  0.2284329E-05  0.2198082E+04  0.7818609E-02  0.8519227E-01
        2   -1    0    0  501    0  0.00000000000E+00  0.00000000000E+00  0.13026745752E+04  0.13026745752E+04  0.25500000920E-02 0.  1.
       -2   -1    0    0    0  501  0.00000000000E+00  0.00000000000E+00 -0.92723962933E+03  0.92723962933E+03  0.25500000920E-02 0. -1.
    10030    2    1    2    0    0  0.00000000000E+00  0.00000000000E+00  0.37543494590E+03  0.22299142046E+04  0.21980823372E+04 0.  0.
        2    1    3    3  502    0 -0.49910577199E+02  0.10632721855E+04 -0.89836780255E+02  0.10682272479E+04  0.25500000920E-02 0. -1.
       -2    1    3    3    0  502  0.49910577199E+02 -0.10632721855E+04  0.46527172616E+03  0.11616869567E+04  0.25500000920E-02 0.  1.
</event>
<event>
 5   0  0.1071208E-05  0.2192008E+04  0.7818609E-02  0.8521762E-01
       -1   -1    0    0    0  501  0.00000000000E+00  0.00000000000E+00  0.70215594028E+03  0.70215594030E+03  0.50400001928E-02 0. -1.
        1   -1    0    0  501    0  0.00000000000E+00  0.00000000000E+00 -0.17107656869E+04  0.17107656870E+04  0.50400001928E-02 0.  1.
    10030    2    1    2    0    0  0.00000000000E+00  0.00000000000E+00 -0.10086097467E+04  0.24129216273E+04  0.21920075634E+04 0.  0.
        4    1    3    3  502    0 -0.78920062010E+03 -0.41116096347E+03  0.19996460596E+03  0.91207368846E+03  0.12699999809E+01 0. -1.
       -4    1    3    3    0  502  0.78920062010E+03  0.41116096347E+03 -0.12085743526E+04  0.15008479388E+04  0.12699999809E+01 0.  1.
</event>
<event>
 5   0  0.1071208E-05  0.2213356E+04  0.7818609E-02  0.8512890E-01
       -1   -1    0    0    0  501  0.00000000000E+00  0.00000000000E+00  0.64524158055E+03  0.64524158057E+03  0.50400001928E-02 0. -1.
        1   -1    0    0  501    0  0.00000000000E+00  0.00000000000E+00 -0.18981048928E+04  0.18981048928E+04  0.50400001928E-02 0.  1.
    10030    2    1    2    0    0  0.00000000000E+00  0.00000000000E+00 -0.12528633122E+04  0.25433464734E+04  0.22133560049E+04 0.  0.
        4    1    3    3  502    0  0.26513288484E+03 -0.45181374624E+03 -0.17466054640E+04  0.18234756285E+04  0.12699999809E+01 0.  1.
       -4    1    3    3    0  502 -0.26513288484E+03  0.45181374624E+03  0.49374215179E+03  0.71987084485E+03  0.12699999809E+01 0. -1.
</event>
<event>
 5   0  0.1049198E-05  0.2243195E+04  0.7818609E-02  0.8500661E-01
       -1   -1    0    0    0  501  0.00000000000E+00  0.00000000000E+00  0.12428955482E+04  0.12428955482E+04  0.50400001928E-02 0. -1.
        1   -1    0    0  501    0  0.00000000000E+00  0.00000000000E+00 -0.10121376273E+04  0.10121376273E+04  0.50400001928E-02 0.  1.
    10030    2    1    2    0    0  0.00000000000E+00  0.00000000000E+00  0.23075792093E+03  0.22550331755E+04  0.22431953559E+04 0.  0.
        1    1    3    3  502    0  0.45163359649E+03  0.37433551659E+03  0.10763952509E+04  0.12258575450E+04  0.50400001928E-02 0. -1.
       -1    1    3    3    0  502 -0.45163359649E+03 -0.37433551659E+03 -0.84563733000E+03  0.10291756305E+04  0.50400001928E-02 0.  1.
</event>
<event>
 5   0  0.1007682E-05  0.2197467E+04  0.7818609E-02  0.8519483E-01
        1   -1    0    0  501    0  0.00000000000E+00  0.00000000000E+00  0.23751834053E+04  0.23751834053E+04  0.50400001928E-02 0.  1.
       -1   -1    0    0    0  501  0.00000000000E+00  0.00000000000E+00 -0.50826175579E+03  0.50826175582E+03  0.50400001928E-02 0. -1.
    10030    2    1    2    0    0  0.00000000000E+00  0.00000000000E+00  0.18669216495E+04  0.28834451611E+04  0.21974666213E+04 0.  0.
        2    1    3    3  502    0 -0.57946485018E+03  0.45949165264E+03  0.19997155712E+04  0.21320821882E+04  0.25500000920E-02 0.  1.
       -2    1    3    3    0  502  0.57946485018E+03 -0.45949165264E+03 -0.13279392171E+03  0.75136297293E+03  0.25500000920E-02 0. -1.
</event>
<event>
 5   0  0.1007682E-05  0.2206104E+04  0.7818609E-02  0.8515892E-01
        1   -1    0    0  501    0  0.00000000000E+00  0.00000000000E+00  0.89400238283E+03  0.89400238284E+03  0.50400001928E-02 0. -1.
       -1   -1    0    0    0  501  0.00000000000E+00  0.00000000000E+00 -0.13609853314E+04  0.13609853314E+04  0.50400001928E-02 0.  1.
    10030    2    1    2    0    0  0.00000000000E+00  0.00000000000E+00 -0.46698294859E+03  0.22549877143E+04  0.22061043759E+04 0.  0.
        2    1    3    3  502    0  0.99487047385E+03  0.31298717936E+03  0.13362685582E+03  0.10514677222E+04  0.25500000920E-02 0. -1.
       -2    1    3    3    0  502 -0.99487047385E+03 -0.31298717936E+03 -0.60060980440E+03  0.12035199921E+04  0.25500000920E-02 0.  1.
</event>
<event>
 5   0  0.2319707E-05  0.2215909E+04  0.7818609E-02  0.8511835E-01
       -2   -1    0    0    0  501  0.00000000000E+00  0.00000000000E+00  0.76756807285E+03  0.76756807286E+03  0.25500000920E-02 0. -1.
        2   -1    0    0  501    0  0.00000000000E+00  0.00000000000E+00 -0.15992895820E+04  0.15992895820E+04  0.25500000920E-02 0.  1.
    10030    2    1    2    0    0  0.00000000000E+00  0.00000000000E+00 -0.83172150918E+03  0.23668576549E+04  0.22159094047E+04 0.  0.
        3    1    3    3  502    0  0.20659807026E+03  0.90124509807E+03 -0.10678850535E+04  0.14125522953E+04  0.10100000352E+00 0.  1.
       -3    1    3    3    0  502 -0.20659807026E+03 -0.90124509807E+03  0.23616354428E+03  0.95430535956E+03  0.10100000352E+00 0. -1.
</event>
<event>
 5   0  0.2229552E-05  0.2211579E+04  0.7818609E-02  0.8513624E-01
        2   -1    0    0  501    0  0.00000000000E+00  0.00000000000E+00  0.27757420325E+04  0.27757420325E+04  0.25500000920E-02 0.  1.
       -2   -1    0    0    0  501  0.00000000000E+00  0.00000000000E+00 -0.44052028568E+03  0.44052028569E+03  0.25500000920E-02 0. -1.
    10030    2    1    2    0    0  0.00000000000E+00  0.00000000000E+00  0.23352217468E+04  0.32162623182E+04  0.22115792305E+04 0.  0.
        1    1    3    3  502    0  0.64469538578E+03  0.19058312272E+03 -0.10919388041E+03  0.68108543565E+03  0.50400001928E-02 0. -1.
       -1    1    3    3    0  502 -0.64469538578E+03 -0.19058312272E+03  0.24444156272E+04  0.25351768826E+04  0.50400001928E-02 0.  1.
</event>
<event>
 5   0  0.2319707E-05  0.2209917E+04  0.7818609E-02  0.8514312E-01
        2   -1    0    0  501    0  0.00000000000E+00  0.00000000000E+00  0.19442308596E+04  0.19442308596E+04  0.25500000920E-02 0. -1.
       -2   -1    0    0    0  501  0.00000000000E+00  0.00000000000E+00 -0.62797776488E+03  0.62797776488E+03  0.25500000920E-02 0.  1.
    10030    2    1    2    0    0  0.00000000000E+00  0.00000000000E+00  0.13162530947E+04  0.25722086244E+04  0.22099174189E+04 0.  0.
        3    1    3    3  502    0  0.35367456847E+03  0.16667249213E+03 -0.54477383148E+03  0.67055496246E+03  0.10100000352E+00 0.  1.
       -3    1    3    3    0  502 -0.35367456847E+03 -0.16667249213E+03  0.18610269262E+04  0.19016536620E+04  0.10100000352E+00 0. -1.
</event>
<event>
 5   0  0.1049198E-05  0.2197666E+04  0.7818609E-02  0.8519400E-01
        1   -1    0    0  501    0  0.00000000000E+00  0.00000000000E+00  0.12110564719E+04  0.12110564719E+04  0.50400001928E-02 0. -1.
       -1   -1    0    0    0  501  0.00000000000E+00  0.00000000000E+00 -0.99700840317E+03  0.99700840319E+03  0.50400001928E-02 0.  1.
    10030    2    1    2    0    0  0.00000000000E+00  0.00000000000E+00  0.21404806875E+03  0.22080648751E+04  0.21976655608E+04 0.  0.
        1    1    3    3  502    0  0.73794881377E+03  0.42205237623E+03  0.80654901982E+03  0.11718438383E+04  0.50400001928E-02 0. -1.
       -1    1    3    3    0  502 -0.73794881377E+03 -0.42205237623E+03 -0.59250095107E+03  0.10362210368E+04  0.50400001928E-02 0.  1.
</event>
<event>
 5   0  0.2284329E-05  0.2189781E+04  0.7818609E-02  0.8522694E-01
       -2   -1    0    0    0  501  0.00000000000E+00  0.00000000000E+00  0.62068197586E+03  0.62068197587E+03  0.25500000920E-02 0. -1.
        2   -1    0    0  501    0  0.00000000000E+00  0.00000000000E+00 -0.19313998185E+04  0.19313998185E+04  0.25500000920E-02 0.  1.
    10030    2    1    2    0    0  0.00000000000E+00  0.00000000000E+00 -0.13107178427E+04  0.25520817944E+04  0.21897808617E+04 0.  0.
        2    1    3    3  502    0 -0.69641231855E+03  0.54541567324E+03  0.96620299751E+02  0.88983361162E+03  0.25500000920E-02 0. -1.
       -2    1    3    3    0  502  0.69641231855E+03 -0.54541567324E+03 -0.14073381424E+04  0.16622481828E+04  0.25500000920E-02 0.  1.
</event>
<event>
 5   0  0.2284329E-05  0.2263055E+04  0.7818609E-02  0.8492632E-01
        2   -1    0    0  501    0  0.00000000000E+00  0.00000000000E+00  0.12034870427E+04  0.12034870427E+04  0.25500000920E-02 0.  1.
       -2   -1    0    0    0  501  0.00000000000E+00  0.00000000000E+00 -0.10638708499E+04  0.10638708499E+04  0.25500000920E-02 0. -1.
    10030    2    1    2    0    0  0.00000000000E+00  0.00000000000E+00  0.13961619278E+03  0.22673578927E+04  0.22630552649E+04 0.  0.
        2    1    3    3  502    0  0.59518894906E+03 -0.93825928089E+03 -0.14454824763E+03  0.11204796112E+04  0.25500000920E-02 0.  1.
       -2    1    3    3    0  502 -0.59518894906E+03  0.93825928089E+03  0.28416444040E+03  0.11468782814E+04  0.25500000920E-02 0. -1.
</event>
<event>
 5   0  0.1049198E-05  0.2204292E+04  0.7818609E-02  0.8516644E-01
        1   -1    0    0  501    0  0.00000000000E+00  0.00000000000E+00  0.19475492037E+04  0.19475492037E+04  0.50400001928E-02 0.  1.
       -1   -1    0    0    0  501  0.00000000000E+00  0.00000000000E+00 -0.62372024064E+03  0.62372024066E+03  0.50400001928E-02 0. -1.
    10030    2    1    2    0    0  0.00000000000E+00  0.00000000000E+00  0.13238289630E+04  0.25712694443E+04  0.22042920478E+04 0.  0.
        1    1    3    3  502    0 -0.90004355716E+02 -0.10294141450E+04  0.21478217783E+03  0.10554267620E+04  0.50400001928E-02 0. -1.
       -1    1    3    3    0  502  0.90004355716E+02  0.10294141450E+04  0.11090467852E+04  0.15158426824E+04  0.50400001928E-02 0.  1.
</event>
<event>
 5   0  0.1071208E-05  0.2187096E+04  0.7818609E-02  0.8523818E-01
       -1   -1    0    0    0  501  0.00000000000E+00  0.00000000000E+00  0.12444644524E+04  0.12444644524E+04  0.50400001928E-02 0. -1.
        1   -1    0    0  501    0  0.00000000000E+00  0.00000000000E+00 -0.96093333752E+03  0.96093333753E+03  0.50400001928E-02 0.  1.
    10030    2    1    2    0    0  0.00000000000E+00  0.00000000000E+00  0.28353111483E+03  0.22053977899E+04  0.21870961384E+04 0.  0.
        4    1    3    3  502    0 -0.81527930695E+03 -0.48919648147E+02 -0.59148669181E+03  0.10084302652E+04  0.12699999809E+01 0.  1.
       -4    1    3    3    0  502  0.81527930695E+03  0.48919648147E+02  0.87501780664E+03  0.11969675247E+04  0.12699999809E+01 0. -1.
</event>
<event>
 5   0  0.1033733E-05  0.2183482E+04  0.7818609E-02  0.8525335E-01
       -1   -1    0    0    0  501  0.00000000000E+00  0.00000000000E+00  0.54923907963E+03  0.54923907966E+03  0.50400001928E-02 0.  1.
        1   -1    0    0  501    0  0.00000000000E+00  0.00000000000E+00 -0.21700904230E+04  0.21700904230E+04  0.50400001928E-02 0. -1.
    10030    2    1    2    0    0  0.00000000000E+00  0.00000000000E+00 -0.16208513434E+04  0.27193295027E+04  0.21834820509E+04 0.  0.
        5    1    3    3  502    0  0.10693542166E+04  0.54614382580E+02 -0.54513528659E+03  0.12015389057E+04  0.46999998093E+01 0.  1.
       -5    1    3    3    0  502 -0.10693542166E+04 -0.54614382580E+02 -0.10757160568E+04  0.15177905969E+04  0.46999998093E+01 0. -1.
</event>
<event>
 5   0  0.2298329E-05  0.2192728E+04  0.7818609E-02  0.8521461E-01
        2   -1    0    0  501    0  0.00000000000E+00  0.00000000000E+00  0.10255048646E+04  0.10255048646E+04  0.25500000920E-02 0.  1.
       -2   -1    0    0    0  501  0.00000000000E+00  0.00000000000E+00 -0.11721193655E+04  0.11721193655E+04  0.25500000920E-02 0. -1.
    10030    2    1    2    0    0  0.00000000000E+00  0.00000000000E+00 -0.14661450094E+03  0.21976242301E+04  0.21927280827E+04 0.  0.
        4    1    3    3  502    0  0.86254236760E+03  0.28144392289E+03  0.54355263354E+03  0.10576583078E+04  0.12699999809E+01 0.  1.
       -4    1    3    3    0  502 -0.86254236760E+03 -0.28144392289E+03 -0.69016713449E+03  0.11399659223E+04  0.12699999809E+01 0. -1.
</event>
<event>
 5   0  0.1033733E-05  0.2202292E+04  0.7818609E-02  0.8517475E-01
        1   -1    0    0  501    0  0.00000000000E+00  0.00000000000E+00  0.17681896966E+04  0.17681896966E+04  0.50400001928E-02 0.  1.
       -1   -1    0    0    0  501  0.00000000000E+00  0.00000000000E+00 -0.68574226704E+03  0.68574226706E+03  0.50400001928E-02 0. -1.
    10030    2    1    2    0    0  0.00000000000E+00  0.00000000000E+00  0.10824474295E+04  0.24539319637E+04  0.22022919072E+04 0.  0.
        5    1    3    3  502    0 -0.36027690648E+03  0.19880619804E+03 -0.59684013794E+03  0.72495764978E+03  0.46999998093E+01 0. -1.
       -5    1    3    3    0  502  0.36027690648E+03 -0.19880619804E+03  0.16792875675E+04  0.17289743139E+04  0.46999998093E+01 0.  1.
</event>
<event>
 5   0  0.2229552E-05  0.2196689E+04  0.7818609E-02  0.8519808E-01
        2   -1    0    0  501    0  0.00000000000E+00  0.00000000000E+00  0.10289759284E+04  0.10289759284E+04  0.25500000920E-02 0. -1.
       -2   -1    0    0    0  501  0.00000000000E+00  0.00000000000E+00 -0.11723892092E+04  0.11723892092E+04  0.25500000920E-02 0.  1.
    10030    2    1    2    0    0  0.00000000000E+00  0.00000000000E+00 -0.14341328075E+03  0.22013651376E+04  0.21966886671E+04 0.  0.
        1    1    3    3  502    0 -0.88684766227E+03 -0.54127978517E+03  0.28525061335E+03  0.10774277212E+04  0.50400001928E-02 0. -1.
       -1    1    3    3    0  502  0.88684766227E+03  0.54127978517E+03 -0.42866389411E+03  0.11239374164E+04  0.50400001928E-02 0.  1.
</event>
<event>
 5   0  0.1033733E-05  0.2196631E+04  0.7818609E-02  0.8519831E-01
       -1   -1    0    0    0  501  0.00000000000E+00  0.00000000000E+00  0.48913970683E+03  0.48913970686E+03  0.50400001928E-02 0.  1.
        1   -1    0    0  501    0  0.00000000000E+00  0.00000000000E+00 -0.24661614452E+04  0.24661614452E+04  0.50400001928E-02 0. -1.
    10030    2    1    2    0    0  0.00000000000E+00  0.00000000000E+00 -0.19770217384E+04  0.29553011521E+04  0.21966314997E+04 0.  0.
        5    1    3    3  502    0 -0.90188563333E+03  0.41919556266E+03 -0.16154526798E+04  0.18970587935E+04  0.46999998093E+01 0. -1.
       -5    1    3    3    0  502  0.90188563333E+03 -0.41919556266E+03 -0.36156905859E+03  0.10582423586E+04  0.46999998093E+01 0.  1.
</event>
<event>
 5   0  0.1005538E-05  0.2199832E+04  0.7818609E-02  0.8518498E-01
       -1   -1    0    0    0  501  0.00000000000E+00  0.00000000000E+00  0.10326320787E+04  0.10326320787E+04  0.50400001928E-02 0.  1.
        1   -1    0    0  501    0  0.00000000000E+00  0.00000000000E+00 -0.11715838016E+04  0.11715838016E+04  0.50400001928E-02 0. -1.
    10030    2    1    2    0    0  0.00000000000E+00  0.00000000000E+00 -0.13895172289E+03  0.22042158803E+04  0.21998318267E+04 0.  0.
        3    1    3    3  502    0  0.30944088783E+03  0.99238549092E+03 -0.42968134357E+03  0.11248149594E+04  0.10100000352E+00 0. -1.
       -3    1    3    3    0  502 -0.30944088783E+03 -0.99238549092E+03  0.29072962068E+03  0.10794009210E+04  0.10100000352E+00 0.  1.
</event>
<event>
 5   0  0.1005538E-05  0.2131918E+04  0.7818609E-02  0.8547312E-01
       -1   -1    0    0    0  501  0.00000000000E+00  0.00000000000E+00  0.17716076127E+04  0.17716076127E+04  0.50400001928E-02 0. -1.
        1   -1    0    0  501    0  0.00000000000E+00  0.00000000000E+00 -0.64137721734E+03  0.64137721736E+03  0.50400001928E-02 0.  1.
    10030    2    1    2    0    0  0.00000000000E+00  0.00000000000E+00  0.11302303953E+04  0.24129848300E+04  0.21319181606E+04 0.  0.
        3    1    3    3  502    0 -0.63097554174E+03  0.25989717815E+03  0.14919733415E+04  0.16406282758E+04  0.10100000352E+00 0. -1.
       -3    1    3    3    0  502  0.63097554174E+03 -0.25989717815E+03 -0.36174294619E+03  0.77235655419E+03  0.10100000352E+00 0.  1.
</event>
<event>
 5   0  0.1033733E-05  0.2201881E+04  0.7818609E-02  0.8517645E-01
        1   -1    0    0  501    0  0.00000000000E+00  0.00000000000E+00  0.21077098469E+04  0.21077098469E+04  0.50400001928E-02 0. -1.
       -1   -1    0    0    0  501  0.00000000000E+00  0.00000000000E+00 -0.57506513319E+03  0.57506513321E+03  0.50400001928E-02 0.  1.
    10030    2    1    2    0    0  0.00000000000E+00  0.00000000000E+00  0.15326447137E+04  0.26827749801E+04  0.22018814172E+04 0.  0.
        5    1    3    3  502    0  0.27491619578E+03 -0.14407289930E+03  0.20532865347E+04  0.20766183083E+04  0.46999998093E+01 0. -1.
       -5    1    3    3    0  502 -0.27491619578E+03  0.14407289930E+03 -0.52064182097E+03  0.60615667179E+03  0.46999998093E+01 0.  1.
</event>
<event>
 5   0  0.2298329E-05  0.2200677E+04  0.7818609E-02  0.8518147E-01
        2   -1    0    0  501    0  0.00000000000E+00  0.00000000000E+00  0.12527401199E+04  0.12527401199E+04  0.25500000920E-02 0.  1.
       -2   -1    0    0    0  501  0.00000000000E+00  0.00000000000E+00 -0.96647681620E+03  0.96647681620E+03  0.25500000920E-02 0. -1.
    10030    2    1    2    0    0  0.00000000000E+00  0.00000000000E+00  0.28626330373E+03  0.22192169361E+04  0.22006765166E+04 0.  0.
        4    1    3    3  502    0  0.77354565315E+03 -0.54761027453E+03  0.70685178058E+03  0.11823243814E+04  0.12699999809E+01 0.  1.
       -4    1    3    3    0  502 -0.77354565315E+03  0.54761027453E+03 -0.42058847685E+03  0.10368925547E+04  0.12699999809E+01 0. -1.
</event>
<event>
 5   0  0.2319707E-05  0.2209335E+04  0.7818609E-02  0.8514553E-01
        2   -1    0    0  501    0  0.00000000000E+00  0.00000000000E+00  0.16164072478E+04  0.16164072478E+04  0.25500000920E-02 0.  1.
       -2   -1    0    0    0  501  0.00000000000E+00  0.00000000000E+00 -0.75493988405E+03  0.75493988405E+03  0.25500000920E-02 0. -1.
    10030    2    1    2    0    0  0.00000000000E+00  0.00000000000E+00  0.86146736374E+03  0.23713471318E+04  0.22093350133E+04 0.  0.
        3    1    3    3  502    0 -0.79948647522E+03 -0.63603894528E+03 -0.20277440591E+02  0.10218294128E+04  0.10100000352E+00 0. -1.
       -3    1    3    3    0  502  0.79948647522E+03  0.63603894528E+03  0.88174480433E+03  0.13495177191E+04  0.10100000352E+00 0.  1.
</event>
<event>
 5   0  0.2284329E-05  0.2198213E+04  0.7818609E-02  0.8519172E-01
        2   -1    0    0  501    0  0.00000000000E+00  0.00000000000E+00  0.10856568741E+04  0.10856568741E+04  0.25500000920E-02 0. -1.
       -2   -1    0    0    0  501  0.00000000000E+00  0.00000000000E+00 -0.11127229334E+04  0.11127229334E+04  0.25500000920E-02 0.  1.
    10030    2    1    2    0    0  0.00000000000E+00  0.00000000000E+00 -0.27066059307E+02  0.21983798076E+04  0.21982131850E+04 0.  0.
        2    1    3    3  502    0 -0.22293491225E+03  0.10647491718E+04 -0.17053068565E+03  0.11011228309E+04  0.25500000920E-02 0.  1.
       -2    1    3    3    0  502  0.22293491225E+03 -0.10647491718E+04  0.14346462634E+03  0.10972569767E+04  0.25500000920E-02 0. -1.
</event>
<event>
 5   0  0.2229552E-05  0.2220487E+04  0.7818609E-02  0.8509949E-01
       -2   -1    0    0    0  501  0.00000000000E+00  0.00000000000E+00  0.60057577314E+03  0.60057577314E+03  0.25500000920E-02 0. -1.
        2   -1    0    0  501    0  0.00000000000E+00  0.00000000000E+00 -0.20524322330E+04  0.20524322331E+04  0.25500000920E-02 0.  1.
    10030    2    1    2    0    0  0.00000000000E+00  0.00000000000E+00 -0.14518564599E+04  0.26530080062E+04  0.22204874016E+04 0.  0.
        1    1    3    3  502    0  0.27311128141E+03  0.39899476243E+03  0.46817358550E+03  0.67303276195E+03  0.50400001928E-02 0. -1.
       -1    1    3    3    0  502 -0.27311128141E+03 -0.39899476243E+03 -0.19200300454E+04  0.19799752442E+04  0.50400001928E-02 0.  1.
</event>
<event>
 5   0  0.2289708E-05  0.2196523E+04  0.7818609E-02  0.8519877E-01
        2   -1    0    0  501    0  0.00000000000E+00  0.00000000000E+00  0.14211957001E+04  0.14211957001E+04  0.25500000920E-02 0.  1.
       -2   -1    0    0    0  501  0.00000000000E+00  0.00000000000E+00 -0.84870652599E+03  0.84870652600E+03  0.25500000920E-02 0. -1.
    10030    2    1    2    0    0  0.00000000000E+00  0.00000000000E+00  0.57248917409E+03  0.22699022261E+04  0.21965227660E+04 0.  0.
        5    1    3    3  502    0  0.80974665070E+03  0.70604460516E+03  0.52182367617E+03  0.11943662176E+04  0.46999998093E+01 0.  1.
       -5    1    3    3    0  502 -0.80974665070E+03 -0.70604460516E+03  0.50665497916E+02  0.10755360085E+04  0.46999998093E+01 0. -1.
</event>
<event>
 5   0  0.2319707E-05  0.2192095E+04  0.7818609E-02  0.8521726E-01
       -2   -1    0    0    0  501  0.00000000000E+00  0.00000000000E+00  0.82508949774E+03  0.82508949774E+03  0.25500000920E-02 0. -1.
        2   -1    0    0  501    0  0.00000000000E+00  0.00000000000E+00 -0.14559870400E+04  0.14559870400E+04  0.25500000920E-02 0.  1.
    10030    2    1    2    0    0  0.00000000000E+00  0.00000000000E+00 -0.63089754229E+03  0.22810765378E+04  0.21920945377E+04 0.  0.
        3    1    3    3  502    0 -0.18284784041E+02  0.77759684315E+03 -0.11190180631E+04  0.13627885454E+04  0.10100000352E+00 0.  1.
       -3    1    3    3    0  502  0.18284784041E+02 -0.77759684315E+03  0.48812052083E+03  0.91828799233E+03  0.10100000352E+00 0. -1.
</event>
<event>
 5   0  0.1049198E-05  0.2198036E+04  0.7818609E-02  0.8519246E-01
        1   -1    0    0  501    0  0.00000000000E+00  0.00000000000E+00  0.95788492326E+03  0.95788492327E+03  0.50400001928E-02 0.  1.
       -1   -1    0    0    0  501  0.00000000000E+00  0.00000000000E+00 -0.12609458946E+04  0.12609458947E+04  0.50400001928E-02 0. -1.
    10030    2    1    2    0    0  0.00000000000E+00  0.00000000000E+00 -0.30306097139E+03  0.22188308179E+04  0.21980364524E+04 0.  0.
        1    1    3    3  502    0 -0.52651324307E+03  0.45769655929E+03 -0.10087631435E+04  0.12265012904E+04  0.50400001928E-02 0. -1.
       -1    1    3    3    0  502  0.52651324307E+03 -0.45769655929E+03  0.70570217213E+03  0.99232952757E+03  0.50400001928E-02 0.  1.
</event>
<event>
 5   0  0.1005538E-05  0.2209570E+04  0.7818609E-02  0.8514455E-01
       -1   -1    0    0    0  501  0.00000000000E+00  0.00000000000E+00  0.11002980395E+04  0.11002980396E+04  0.50400001928E-02 0. -1.
        1   -1    0    0  501    0  0.00000000000E+00  0.00000000000E+00 -0.11092903072E+04  0.11092903072E+04  0.50400001928E-02 0.  1.
    10030    2    1    2    0    0  0.00000000000E+00  0.00000000000E+00 -0.89922676516E+01  0.22095883468E+04  0.22095700490E+04 0.  0.
        3    1    3    3  502    0 -0.26052012687E+03  0.84361248614E+03 -0.66857781616E+03  0.11074967583E+04  0.10100000352E+00 0.  1.
       -3    1    3    3    0  502  0.26052012687E+03 -0.84361248614E+03  0.65958554851E+03  0.11020915884E+04  0.10100000352E+00 0. -1.
</event>
<event>
 5   0  0.1033733E-05  0.2290306E+04  0.7818609E-02  0.8481753E-01
        1   -1    0    0  501    0  0.00000000000E+00  0.00000000000E+00  0.20719281924E+04  0.20719281924E+04  0.50400001928E-02 0.  1.
       -1   -1    0    0    0  501  0.00000000000E+00  0.00000000000E+00 -0.63292528819E+03  0.63292528821E+03  0.50400001928E-02 0. -1.
    10030    2    1    2    0    0  0.00000000000E+00  0.00000000000E+00  0.14390029042E+04  0.27048534807E+04  0.22903063099E+04 0.  0.
        5    1    3    3  502    0  0.34332560138E+03 -0.42411321161E+03 -0.46950836762E+03  0.71986434978E+03  0.46999998093E+01 0. -1.
       -5    1    3    3    0  502 -0.34332560138E+03  0.42411321161E+03  0.19085112719E+04  0.19849891309E+04  0.46999998093E+01 0.  1.
</event>
<event>
 5   0  0.1005538E-05  0.2198923E+04  0.7818609E-02  0.8518876E-01
        1   -1    0    0  501    0  0.00000000000E+00  0.00000000000E+00  0.10496035247E+04  0.10496035247E+04  0.50400001928E-02 0.  1.
       -1   -1    0    0    0  501  0.00000000000E+00  0.00000000000E+00 -0.11516881338E+04  0.11516881339E+04  0.50400001928E-02 0. -1.
    10030    2    1    2    0    0  0.00000000000E+00  0.00000000000E+00 -0.10208460916E+03  0.22012916585E+04  0.21989233044E+04 0.  0.
        3    1    3    3  502    0  0.22791324260E+03 -0.83159027462E+03 -0.73392735365E+03  0.11323145330E+04  0.10100000352E+00 0. -1.
       -3    1    3    3    0  502 -0.22791324260E+03  0.83159027462E+03  0.63184274448E+03  0.10689771256E+04  0.10100000352E+00 0.  1.
</event>
<event>
 5   0  0.2284329E-05  0.2208438E+04  0.7818609E-02  0.8514924E-01
       -2   -1    0    0    0  501  0.00000000000E+00  0.00000000000E+00  0.68160080239E+03  0.68160080239E+03  0.25500000920E-02 0.  1.
        2   -1    0    0  501    0  0.00000000000E+00  0.00000000000E+00 -0.17888761251E+04  0.17888761251E+04  0.25500000920E-02 0. -1.
    10030    2    1    2    0    0  0.00000000000E+00  0.00000000000E+00 -0.11072753227E+04  0.24704769275E+04  0.22084378210E+04 0.  0.
        2    1    3    3  502    0  0.82702766174E+03  0.14765191451E+02  0.26466845141E+03  0.86847115861E+03  0.25500000920E-02 0.  1.
       -2    1    3    3    0  502 -0.82702766174E+03 -0.14765191451E+02 -0.13719437741E+04  0.16020057689E+04  0.25500000920E-02 0. -1.
</event>
<event>
 5   0  0.2319707E-05  0.2200245E+04  0.7818609E-02  0.8518326E-01
        2   -1    0    0  501    0  0.00000000000E+00  0.00000000000E+00  0.80443557489E+03  0.80443557490E+03  0.25500000920E-02 0. -1.
       -2   -1    0    0    0  501  0.00000000000E+00  0.00000000000E+00 -0.15044947704E+04  0.15044947704E+04  0.25500000920E-02 0.  1.
    10030    2    1    2    0    0  0.00000000000E+00  0.00000000000E+00 -0.70005919551E+03  0.23089303453E+04  0.22002446369E+04 0.  0.
        3    1    3    3  502    0 -0.55137857223E+02 -0.10970255685E+04 -0.28564907084E+03  0.11349452335E+04  0.10100000352E+00 0.  1.
       -3    1    3    3    0  502  0.55137857223E+02  0.10970255685E+04 -0.41441012467E+03  0.11739851118E+04  0.10100000352E+00 0. -1.
</event>
<event>
 5   0  0.1005538E-05  0.2194676E+04  0.7818609E-02  0.8520647E-01
        1   -1    0    0  501    0  0.00000000000E+00  0.00000000000E+00  0.12526192639E+04  0.12526192639E+04  0.50400001928E-02 0.  1.
       -1   -1    0    0    0  501  0.00000000000E+00  0.00000000000E+00 -0.96130623609E+03  0.96130623610E+03  0.50400001928E-02 0. -1.
    10030    2    1    2    0    0  0.00000000000E+00  0.00000000000E+00  0.29131302777E+03  0.22139255000E+04  0.21946760215E+04 0.  0.
        3    1    3    3  502    0 -0.47750500016E+03  0.57618274352E+03 -0.66397450997E+03  0.10004297772E+04  0.10100000352E+00 0. -1.
       -3    1    3    3    0  502  0.47750500016E+03 -0.57618274352E+03  0.95528753774E+03  0.12134957227E+04  0.10100000352E+00 0.  1.
</event>
<event>
 5   0  0.1007682E-05  0.2179148E+04  0.7818609E-02  0.8527158E-01
       -1   -1    0    0    0  501  0.00000000000E+00  0.00000000000E+00  0.91243134256E+03  0.91243134258E+03  0.50400001928E-02 0.  1.
        1   -1    0    0  501    0  0.00000000000E+00  0.00000000000E+00 -0.13011078171E+04  0.13011078172E+04  0.50400001928E-02 0. -1.
    10030    2    1    2    0    0  0.00000000000E+00  0.00000000000E+00 -0.38867647459E+03  0.22135391597E+04  0.21791480468E+04 0.  0.
        2    1    3    3  502    0  0.10563876036E+04  0.26663183818E+03 -0.18301574384E+03  0.11047814574E+04  0.25500000920E-02 0.  1.
       -2    1    3    3    0  502 -0.10563876036E+04 -0.26663183818E+03 -0.20566073074E+03  0.11087577023E+04  0.25500000920E-02 0. -1.
</event>
<event>
 5   0  0.2284329E-05  0.2226011E+04  0.7818609E-02  0.8507679E-01
        2   -1    0    0  501    0  0.00000000000E+00  0.00000000000E+00  0.12845533993E+04  0.12845533993E+04  0.25500000920E-02 0.  1.
       -2   -1    0    0    0  501  0.00000000000E+00  0.00000000000E+00 -0.96436752941E+03  0.96436752941E+03  0.25500000920E-02 0. -1.
    10030    2    1    2    0    0  0.00000000000E+00  0.00000000000E+00  0.32018586991E+03  0.22489209287E+04  0.22260113100E+04 0.  0.
        2    1    3    3  502    0  0.60829385025E+03 -0.11400367498E+03  0.10946883775E+04  0.12575217254E+04  0.25500000920E-02 0.  1.
       -2    1    3    3    0  502 -0.60829385025E+03  0.11400367498E+03 -0.77450250754E+03  0.99139920332E+03  0.25500000920E-02 0. -1.
</event>
<event>
 5   0  0.1071208E-05  0.2211335E+04  0.7818609E-02  0.8513725E-01
        1   -1    0    0  501    0  0.00000000000E+00  0.00000000000E+00  0.13290328578E+04  0.13290328578E+04  0.50400001928E-02 0. -1.
       -1   -1    0    0    0  501  0.00000000000E+00  0.00000000000E+00 -0.91984267867E+03  0.91984267868E+03  0.50400001928E-02 0.  1.
    10030    2    1    2    0    0  0.00000000000E+00  0.00000000000E+00  0.40919017913E+03  0.22488755365E+04  0.22113354734E+04 0.  0.
        4    1    3    3  502    0 -0.12557787190E+03 -0.91948526660E+03  0.81586172027E+03  0.12356597092E+04  0.12699999809E+01 0. -1.
       -4    1    3    3    0  502  0.12557787190E+03  0.91948526660E+03 -0.40667154115E+03  0.10132158273E+04  0.12699999809E+01 0.  1.
</event>
<event>
 5   0  0.2229552E-05  0.2204846E+04  0.7818609E-02  0.8516414E-01
       -2   -1    0    0    0  501  0.00000000000E+00  0.00000000000E+00  0.12535904559E+04  0.12535904559E+04  0.25500000920E-02 0. -1.
        2   -1    0    0  501    0  0.00000000000E+00  0.00000000000E+00 -0.96948412639E+03  0.96948412640E+03  0.25500000920E-02 0.  1.
    10030    2    1    2    0    0  0.00000000000E+00  0.00000000000E+00  0.28410632947E+03  0.22230745823E+04  0.22048456163E+04 0.  0.
        1    1    3    3  502    0  0.45950223673E+02 -0.77988293715E+03  0.92630605822E+03  0.12117638929E+04  0.50400001928E-02 0. -1.
       -1    1    3    3    0  502 -0.45950223673E+02  0.77988293715E+03 -0.64219972875E+03  0.10113106893E+04  0.50400001928E-02 0.  1.
</event>
<event>
 5   0  0.1071208E-05  0.2224357E+04  0.7818609E-02  0.8508358E-01
       -1   -1    0    0    0  501  0.00000000000E+00  0.00000000000E+00  0.64416887731E+03  0.64416887733E+03  0.50400001928E-02 0. -1.
        1   -1    0    0  501    0  0.00000000000E+00  0.00000000000E+00 -0.19202125992E+04  0.19202125992E+04  0.50400001928E-02 0.  1.
    10030    2    1    2    0    0  0.00000000000E+00  0.00000000000E+00 -0.12760437219E+04  0.25643814765E+04  0.22243571604E+04 0.  0.
        4    1    3    3  502    0 -0.52190662183E+03  0.17765300068E+03  0.47554725708E+03  0.72807548866E+03  0.12699999809E+01 0. -1.
       -4    1    3    3    0  502  0.52190662183E+03 -0.17765300068E+03 -0.17515909789E+04  0.18363059878E+04  0.12699999809E+01 0.  1.
</event>
<event>
 5   0  0.1005538E-05  0.2173930E+04  0.7818609E-02  0.8529358E-01
        1   -1    0    0  501    0  0.00000000000E+00  0.00000000000E+00  0.13356292764E+04  0.13356292764E+04  0.50400001928E-02 0. -1.
       -1   -1    0    0    0  501  0.00000000000E+00  0.00000000000E+00 -0.88459630520E+03  0.88459630522E+03  0.50400001928E-02 0.  1.
    10030    2    1    2    0    0  0.00000000000E+00  0.00000000000E+00  0.45103297123E+03  0.22202255817E+04  0.21739298269E+04 0.  0.
        3    1    3    3  502    0  0.69832018923E+03 -0.56386048210E+03 -0.40064949249E+03  0.98290882385E+03  0.10100000352E+00 0.  1.
       -3    1    3    3    0  502 -0.69832018923E+03  0.56386048210E+03  0.85168246372E+03  0.12373167578E+04  0.10100000352E+00 0. -1.
</event>
<event>
 5   0  0.1007682E-05  0.2197804E+04  0.7818609E-02  0.8519343E-01
        1   -1    0    0  501    0  0.00000000000E+00  0.00000000000E+00  0.11032704608E+04  0.11032704609E+04  0.50400001928E-02 0.  1.
       -1   -1    0    0    0  501  0.00000000000E+00  0.00000000000E+00 -0.10945505138E+04  0.10945505138E+04  0.50400001928E-02 0. -1.
    10030    2    1    2    0    0  0.00000000000E+00  0.00000000000E+00  0.87199470674E+01  0.21978209746E+04  0.21978036762E+04 0.  0.
        2    1    3    3  502    0 -0.92900964078E+03 -0.58381089957E+03  0.65115456838E+02  0.10991515373E+04  0.25500000920E-02 0. -1.
       -2    1    3    3    0  502  0.92900964078E+03  0.58381089957E+03 -0.56395509770E+02  0.10986694374E+04  0.25500000920E-02 0.  1.
</event>
<event>
 5   0  0.2229552E-05  0.2197758E+04  0.7818609E-02  0.8519362E-01
       -2   -1    0    0    0  501  0.00000000000E+00  0.00000000000E+00  0.12300203541E+04  0.12300203541E+04  0.25500000920E-02 0.  1.
        2   -1    0    0  501    0  0.00000000000E+00  0.00000000000E+00 -0.98171966833E+03  0.98171966833E+03  0.25500000920E-02 0. -1.
    10030    2    1    2    0    0  0.00000000000E+00  0.00000000000E+00  0.24830068574E+03  0.22117400224E+04  0.21977581068E+04 0.  0.
        1    1    3    3  502    0  0.58207787462E+03 -0.13692901437E+03 -0.80365363842E+03  0.10017102264E+04  0.50400001928E-02 0. -1.
       -1    1    3    3    0  502 -0.58207787462E+03  0.13692901437E+03  0.10519543242E+04  0.12100297960E+04  0.50400001928E-02 0.  1.
</event>
<event>
 5   0  0.2289708E-05  0.2209064E+04  0.7818609E-02  0.8514665E-01
        2   -1    0    0  501    0  0.00000000000E+00  0.00000000000E+00  0.24415172476E+04  0.24415172477E+04  0.25500000920E-02 0.  1.
       -2   -1    0    0    0  501  0.00000000000E+00  0.00000000000E+00 -0.49968535541E+03  0.49968535542E+03  0.25500000920E-02 0. -1.
    10030    2    1    2    0    0  0.00000000000E+00  0.00000000000E+00  0.19418318922E+04  0.29412026031E+04  0.22090635243E+04 0.  0.
        5    1    3    3  502    0  0.12425496082E+03  0.10970302746E+04  0.92769884167E+03  0.14420686355E+04  0.46999998093E+01 0.  1.
       -5    1    3    3    0  502 -0.12425496082E+03 -0.10970302746E+04  0.10141330506E+04  0.14991339676E+04  0.46999998093E+01 0. -1.
</event>
<event>
 5   0  0.1033733E-05  0.2172795E+04  0.7818609E-02  0.8529838E-01
        1   -1    0    0  501    0  0.00000000000E+00  0.00000000000E+00  0.66477811481E+03  0.66477811483E+03  0.50400001928E-02 0.  1.
       -1   -1    0    0    0  501  0.00000000000E+00  0.00000000000E+00 -0.17754184462E+04  0.17754184462E+04  0.50400001928E-02 0. -1.
    10030    2    1    2    0    0  0.00000000000E+00  0.00000000000E+00 -0.11106403314E+04  0.24401965610E+04  0.21727948156E+04 0.  0.
        5    1    3    3  502    0 -0.92115148255E+03 -0.24077863907E+03 -0.11429143266E+04  0.14875381188E+04  0.46999998093E+01 0. -1.
       -5    1    3    3    0  502  0.92115148255E+03  0.24077863907E+03  0.32273995221E+02  0.95265844226E+03  0.46999998093E+01 0.  1.
</event>
<event>
 5   0  0.2298329E-05  0.2210239E+04  0.7818609E-02  0.8514178E-01
       -2   -1    0    0    0  501  0.00000000000E+00  0.00000000000E+00  0.95424550781E+03  0.95424550782E+03  0.25500000920E-02 0. -1.
        2   -1    0    0  501    0  0.00000000000E+00  0.00000000000E+00 -0.12798478562E+04  0.12798478562E+04  0.25500000920E-02 0.  1.
    10030    2    1    2    0    0  0.00000000000E+00  0.00000000000E+00 -0.32560234836E+03  0.22340933640E+04  0.22102389621E+04 0.  0.
        4    1    3    3  502    0  0.42638197788E+03 -0.36629057883E+03 -0.11245517257E+04  0.12572146101E+04  0.12699999809E+01 0.  1.
       -4    1    3    3    0  502 -0.42638197788E+03  0.36629057883E+03  0.79894937738E+03  0.97687875385E+03  0.12699999809E+01 0. -1.
</event>
<event>
 5   0  0.1049198E-05  0.2197019E+04  0.7818609E-02  0.8519670E-01
       -1   -1    0    0    0  501  0.00000000000E+00  0.00000000000E+00  0.61595113245E+03  0.61595113247E+03  0.50400001928E-02 0.  1.
        1   -1    0    0  501    0  0.00000000000E+00  0.00000000000E+00 -0.19591211403E+04  0.19591211403E+04  0.50400001928E-02 0. -1.
    10030    2    1    2    0    0  0.00000000000E+00  0.00000000000E+00 -0.13431700079E+04  0.25750722728E+04  0.21970187846E+04 0.  0.
        1    1    3    3  502    0  0.89646468663E+03 -0.10315811526E+02 -0.14156154057E+04  0.16756259509E+04  0.50400001928E-02 0.  1.
       -1    1    3    3    0  502 -0.89646468663E+03  0.10315811526E+02  0.72445397832E+02  0.89944632193E+03  0.50400001928E-02 0. -1.
</event>
<event>
 5   0  0.1033733E-05  0.2203519E+04  0.7818609E-02  0.8516965E-01
        1   -1    0    0  501    0  0.00000000000E+00  0.00000000000E+00  0.79380325682E+03  0.79380325683E+03  0.50400001928E-02 0. -1.
       -1   -1    0    0    0  501  0.00000000000E+00  0.00000000000E+00 -0.15291870098E+04  0.15291870098E+04  0.50400001928E-02 0.  1.
    10030    2    1    2    0    0  0.00000000000E+00  0.00000000000E+00 -0.73538375298E+03  0.23229902666E+04  0.22035186668E+04 0.  0.
        5    1    3    3  502    0  0.34476485887E+03 -0.61337183360E+03  0.52607392162E+03  0.87855772444E+03  0.46999998093E+01 0. -1.
       -5    1    3    3    0  502 -0.34476485887E+03  0.61337183360E+03 -0.12614576746E+04  0.14444325422E+04  0.46999998093E+01 0.  1.
</event>
<event>
 5   0  0.1007682E-05  0.2201614E+04  0.7818609E-02  0.8517757E-01
       -1   -1    0    0    0  501  0.00000000000E+00  0.00000000000E+00  0.88544441774E+03  0.88544441776E+03  0.50400001928E-02 0. -1.
        1   -1    0    0  501    0  0.00000000000E+00  0.00000000000E+00 -0.13685512316E+04  0.13685512316E+04  0.50400001928E-02 0.  1.
    10030    2    1    2    0    0  0.00000000000E+00  0.00000000000E+00 -0.48310681383E+03  0.22539956493E+04  0.22016139974E+04 0.  0.
        2    1    3    3  502    0  0.40601838439E+03  0.42611682400E+03  0.71082093697E+03  0.92287208247E+03  0.25500000920E-02 0. -1.
       -2    1    3    3    0  502 -0.40601838439E+03 -0.42611682400E+03 -0.11939277508E+04  0.13311235669E+04  0.25500000920E-02 0.  1.
</event>
<event>
 5   0  0.1007682E-05  0.2206012E+04  0.7818609E-02  0.8515930E-01
        1   -1    0    0  501    0  0.00000000000E+00  0.00000000000E+00  0.14066674841E+04  0.14066674841E+04  0.50400001928E-02 0.  1.
       -1   -1    0    0    0  501  0.00000000000E+00  0.00000000000E+00 -0.86489679733E+03  0.86489679734E+03  0.50400001928E-02 0. -1.
    10030    2    1    2    0    0  0.00000000000E+00  0.00000000000E+00  0.54177068680E+03  0.22715642815E+04  0.22060119691E+04 0.  0.
        2    1    3    3  502    0  0.73064439388E+03 -0.48851920267E+03 -0.41534860989E+03  0.97211455571E+03  0.25500000920E-02 0. -1.
       -2    1    3    3    0  502 -0.73064439388E+03  0.48851920267E+03  0.95711929669E+03  0.12994497258E+04  0.25500000920E-02 0.  1.
</event>
<event>
 5   0  0.1033733E-05  0.2200314E+04  0.7818609E-02  0.8518297E-01
       -1   -1    0    0    0  501  0.00000000000E+00  0.00000000000E+00  0.13047171069E+04  0.13047171069E+04  0.50400001928E-02 0. -1.
        1   -1    0    0  501    0  0.00000000000E+00  0.00000000000E+00 -0.92766927020E+03  0.92766927022E+03  0.50400001928E-02 0.  1.
    10030    2    1    2    0    0  0.00000000000E+00  0.00000000000E+00  0.37704783673E+03  0.22323863772E+04  0.22003144925E+04 0.  0.
        5    1    3    3  502    0 -0.14002334712E+03  0.45246312173E+03  0.11959700700E+04  0.12863498407E+04  0.46999998093E+01 0. -1.
       -5    1    3    3    0  502  0.14002334712E+03 -0.45246312173E+03 -0.81892223326E+03  0.94603653650E+03  0.46999998093E+01 0.  1.
</event>
<event>
 5   0  0.1033733E-05  0.2147205E+04  0.7818609E-02  0.8540729E-01
       -1   -1    0    0    0  501  0.00000000000E+00  0.00000000000E+00  0.11064580929E+04  0.11064580930E+04  0.50400001928E-02 0.  1.
        1   -1    0    0  501    0  0.00000000000E+00  0.00000000000E+00 -0.10417229287E+04  0.10417229288E+04  0.50400001928E-02 0. -1.
    10030    2    1    2    0    0  0.00000000000E+00  0.00000000000E+00  0.64735164203E+02  0.21481810217E+04  0.21472054072E+04 0.  0.
        5    1    3    3  502    0 -0.69233913901E+03  0.60936394120E+03  0.58211045433E+03  0.10906569430E+04  0.46999998093E+01 0.  1.
       -5    1    3    3    0  502  0.69233913901E+03 -0.60936394120E+03 -0.51737529013E+03  0.10575240787E+04  0.46999998093E+01 0. -1.
</event>
<event>
 5   0  0.1007682E-05  0.2200049E+04  0.7818609E-02  0.8518408E-01
       -1   -1    0    0    0  501  0.00000000000E+00  0.00000000000E+00  0.99594740985E+03  0.99594740987E+03  0.50400001928E-02 0.  1.
        1   -1    0    0  501    0  0.00000000000E+00  0.00000000000E+00 -0.12149777849E+04  0.12149777849E+04  0.50400001928E-02 0. -1.
    10030    2    1    2    0    0  0.00000000000E+00  0.00000000000E+00 -0.21903037507E+03  0.22109251948E+04  0.22000490703E+04 0.  0.
        2    1    3    3  502    0 -0.45559518892E+02 -0.33651495693E+02  0.99448103708E+03  0.99609267945E+03  0.25500000920E-02 0.  1.
       -2    1    3    3    0  502  0.45559518892E+02  0.33651495693E+02 -0.12135114122E+04  0.12148325154E+04  0.25500000920E-02 0. -1.
</event>
<event>
 5   0  0.1007682E-05  0.2203303E+04  0.7818609E-02  0.8517055E-01
       -1   -1    0    0    0  501  0.00000000000E+00  0.00000000000E+00  0.60302924038E+03  0.60302924041E+03  0.50400001928E-02 0.  1.
        1   -1    0    0  501    0  0.00000000000E+00  0.00000000000E+00 -0.20125658248E+04  0.20125658248E+04  0.50400001928E-02 0. -1.
    10030    2    1    2    0    0  0.00000000000E+00  0.00000000000E+00 -0.14095365844E+04  0.26155950652E+04  0.22033030119E+04 0.  0.
        2    1    3    3  502    0 -0.45504096352E+03 -0.10031999138E+04 -0.71995675859E+03  0.13159825530E+04  0.25500000920E-02 0. -1.
       -2    1    3    3    0  502  0.45504096352E+03  0.10031999138E+04 -0.68957982581E+03  0.12996125122E+04  0.25500000920E-02 0.  1.
</event>
<event>
 5   0  0.1007682E-05  0.2191183E+04  0.7818609E-02  0.8522107E-01
       -1   -1    0    0    0  501  0.00000000000E+00  0.00000000000E+00  0.48432155199E+03  0.48432155201E+03  0.50400001928E-02 0. -1.
        1   -1    0    0  501    0  0.00000000000E+00  0.00000000000E+00 -0.24783553146E+04  0.24783553146E+04  0.50400001928E-02 0.  1.
    10030    2    1    2    0    0  0.00000000000E+00  0.00000000000E+00 -0.19940337626E+04  0.29626768666E+04  0.21911831438E+04 0.  0.
        2    1    3    3  502    0  0.69223378530E+03  0.45969588414E+03 -0.31608534506E+02  0.83156901028E+03  0.25500000920E-02 0. -1.
       -2    1    3    3    0  502 -0.69223378530E+03 -0.45969588414E+03 -0.19624252281E+04  0.21311078563E+04  0.25500000920E-02 0.  1.
</event>
<event>
 5   0  0.2229552E-05  0.2210589E+04  0.7818609E-02  0.8514034E-01
        2   -1    0    0  501    0  0.00000000000E+00  0.00000000000E+00  0.11583060872E+04  0.11583060872E+04  0.25500000920E-02 0. -1.
       -2   -1    0    0    0  501  0.00000000000E+00  0.00000000000E+00 -0.10547091863E+04  0.10547091863E+04  0.25500000920E-02 0.  1.
    10030    2    1    2    0    0  0.00000000000E+00  0.00000000000E+00  0.10359690088E+03  0.22130152736E+04  0.22105891258E+04 0.  0.
        1    1    3    3  502    0 -0.45465706748E+03  0.29605542974E+03  0.10158268722E+04  0.11516362710E+04  0.50400001928E-02 0. -1.
       -1    1    3    3    0  502  0.45465706748E+03 -0.29605542974E+03 -0.91222997129E+03  0.10613790025E+04  0.50400001928E-02 0.  1.
</event>
<event>
 5   0  0.1033733E-05  0.2199702E+04  0.7818609E-02  0.8518552E-01
       -1   -1    0    0    0  501  0.00000000000E+00  0.00000000000E+00  0.15311043323E+04  0.15311043323E+04  0.50400001928E-02 0. -1.
        1   -1    0    0  501    0  0.00000000000E+00  0.00000000000E+00 -0.79006545218E+03  0.79006545220E+03  0.50400001928E-02 0.  1.
    10030    2    1    2    0    0  0.00000000000E+00  0.00000000000E+00  0.74103888014E+03  0.23211697845E+04  0.21997023769E+04 0.  0.
        5    1    3    3  502    0  0.61955433473E+03  0.60621700840E+03 -0.34384489900E+03  0.93252240698E+03  0.46999998093E+01 0.  1.
       -5    1    3    3    0  502 -0.61955433473E+03 -0.60621700840E+03  0.10848837791E+04  0.13886473776E+04  0.46999998093E+01 0. -1.
</event>
<event>
 5   0  0.1007682E-05  0.2138513E+04  0.7818609E-02  0.8544465E-01
        1   -1    0    0  501    0  0.00000000000E+00  0.00000000000E+00  0.15749074297E+04  0.15749074297E+04  0.50400001928E-02 0.  1.
       -1   -1    0    0    0  501  0.00000000000E+00  0.00000000000E+00 -0.72595364168E+03  0.72595364170E+03  0.50400001928E-02 0. -1.
    10030    2    1    2    0    0  0.00000000000E+00  0.00000000000E+00  0.84895378803E+03  0.23008610714E+04  0.21385133003E+04 0.  0.
        2    1    3    3  502    0  0.62036581347E+02 -0.10508378284E+04  0.22261395651E+03  0.10759487221E+04  0.25500000920E-02 0.  1.
       -2    1    3    3    0  502 -0.62036581347E+02  0.10508378284E+04  0.62633983151E+03  0.12249123493E+04  0.25500000920E-02 0. -1.
</event>
<event>
 5   0  0.1049198E-05  0.2196069E+04  0.7818609E-02  0.8520066E-01
       -1   -1    0    0    0  501  0.00000000000E+00  0.00000000000E+00  0.13096449319E+04  0.13096449319E+04  0.50400001928E-02 0.  1.
        1   -1    0    0  501    0  0.00000000000E+00  0.00000000000E+00 -0.92061556584E+03  0.92061556586E+03  0.50400001928E-02 0. -1.
    10030    2    1    2    0    0  0.00000000000E+00  0.00000000000E+00  0.38902936608E+03  0.22302604978E+04  0.21960687695E+04 0.  0.
        1    1    3    3  502    0 -0.10448311658E+03  0.95041044200E+02 -0.91135145057E+03  0.92223152637E+03  0.50400001928E-02 0. -1.
       -1    1    3    3    0  502  0.10448311658E+03 -0.95041044200E+02  0.13003808167E+04  0.13080289714E+04  0.50400001928E-02 0.  1.
</event>
<event>
 5   0  0.2289708E-05  0.2198685E+04  0.7818609E-02  0.8518976E-01
       -2   -1    0    0    0  501  0.00000000000E+00  0.00000000000E+00  0.71770700785E+03  0.71770700786E+03  0.25500000920E-02 0.  1.
        2   -1    0    0  501    0  0.00000000000E+00  0.00000000000E+00 -0.16839100550E+04  0.16839100550E+04  0.25500000920E-02 0. -1.
    10030    2    1    2    0    0  0.00000000000E+00  0.00000000000E+00 -0.96620304713E+03  0.24016170628E+04  0.21986851044E+04 0.  0.
        5    1    3    3  502    0 -0.28236748777E+03 -0.90981665518E+03  0.11620451620E+03  0.95969960080E+03  0.46999998093E+01 0.  1.
       -5    1    3    3    0  502  0.28236748777E+03  0.90981665518E+03 -0.10824075633E+04  0.14419174620E+04  0.46999998093E+01 0. -1.
</event>
<event>
 5   0  0.2289708E-05  0.2182470E+04  0.7818609E-02  0.8525760E-01
        2   -1    0    0  501    0  0.00000000000E+00  0.00000000000E+00  0.15711828901E+04  0.15711828901E+04  0.25500000920E-02 0.  1.
       -2   -1    0    0    0  501  0.00000000000E+00  0.00000000000E+00 -0.75789669075E+03  0.75789669075E+03  0.25500000920E-02 0. -1.
    10030    2    1    2    0    0  0.00000000000E+00  0.00000000000E+00  0.81328619932E+03  0.23290795808E+04  0.21824704469E+04 0.  0.
        5    1    3    3  502    0 -0.37977071946E+03  0.11060449978E+03  0.14919734860E+04  0.15435239317E+04  0.46999998093E+01 0.  1.
       -5    1    3    3    0  502  0.37977071946E+03 -0.11060449978E+03 -0.67868728670E+03  0.78555564912E+03  0.46999998093E+01 0. -1.
</event>
<event>
 5   0  0.2298329E-05  0.2199891E+04  0.7818609E-02  0.8518473E-01
       -2   -1    0    0    0  501  0.00000000000E+00  0.00000000000E+00  0.98973301392E+03  0.98973301393E+03  0.25500000920E-02 0. -1.
        2   -1    0    0  501    0  0.00000000000E+00  0.00000000000E+00 -0.12224309379E+04  0.12224309379E+04  0.25500000920E-02 0.  1.
    10030    2    1    2    0    0  0.00000000000E+00  0.00000000000E+00 -0.23269792402E+03  0.22121639519E+04  0.21998911396E+04 0.  0.
        4    1    3    3  502    0  0.53115591512E+03  0.13539633756E+03  0.84260628501E+03  0.10052093010E+04  0.12699999809E+01 0. -1.
       -4    1    3    3    0  502 -0.53115591512E+03 -0.13539633756E+03 -0.10753042090E+04  0.12069546509E+04  0.12699999809E+01 0.  1.
</event>
<event>
 5   0  0.1033733E-05  0.2199244E+04  0.7818609E-02  0.8518743E-01
        1   -1    0    0  501    0  0.00000000000E+00  0.00000000000E+00  0.22632931429E+04  0.22632931429E+04  0.50400001928E-02 0. -1.
       -1   -1    0    0    0  501  0.00000000000E+00  0.00000000000E+00 -0.53425167930E+03  0.53425167933E+03  0.50400001928E-02 0.  1.
    10030    2    1    2    0    0  0.00000000000E+00  0.00000000000E+00  0.17290414636E+04  0.27975448222E+04  0.21992436540E+04 0.  0.
        5    1    3    3  502    0  0.32506520999E+03 -0.10436524014E+04  0.10164671731E+04  0.14926839349E+04  0.46999998093E+01 0.  1.
       -5    1    3    3    0  502 -0.32506520999E+03  0.10436524014E+04  0.71257429053E+03  0.13048608873E+04  0.46999998093E+01 0. -1.
</event>
<event>
 5   0  0.2284329E-05  0.2199522E+04  0.7818609E-02  0.8518627E-01
        2   -1    0    0  501    0  0.00000000000E+00  0.00000000000E+00  0.90672200346E+03  0.90672200346E+03  0.25500000920E-02 0. -1.
       -2   -1    0    0    0  501  0.00000000000E+00  0.00000000000E+00 -0.13338975519E+04  0.13338975519E+04  0.25500000920E-02 0.  1.
    10030    2    1    2    0    0  0.00000000000E+00  0.00000000000E+00 -0.42717554845E+03  0.22406195554E+04  0.21995220032E+04 0.  0.
        2    1    3    3  502    0 -0.10238348317E+03  0.10817673315E+04 -0.38637822249E+03  0.11532523869E+04  0.25500000920E-02 0. -1.
       -2    1    3    3    0  502  0.10238348317E+03 -0.10817673315E+04 -0.40797325963E+02  0.10873671684E+04  0.25500000920E-02 0.  1.
</event>
<event>
 5   0  0.1007682E-05  0.2274817E+04  0.7818609E-02  0.8487917E-01
       -1   -1    0    0    0  501  0.00000000000E+00  0.00000000000E+00  0.91450186527E+03  0.91450186528E+03  0.50400001928E-02 0. -1.
        1   -1    0    0  501    0  0.00000000000E+00  0.00000000000E+00 -0.14146476306E+04  0.14146476306E+04  0.50400001928E-02 0.  1.
    10030    2    1    2    0    0  0.00000000000E+00  0.00000000000E+00 -0.50014576534E+03  0.23291494959E+04  0.22748168251E+04 0.  0.
        2    1    3    3  502    0 -0.98690052870E+03 -0.19003977442E+03  0.29519736375E+03  0.10474871135E+04  0.25500000920E-02 0. -1.
       -2    1    3    3    0  502  0.98690052870E+03  0.19003977442E+03 -0.79534312909E+03  0.12816623824E+04  0.25500000920E-02 0.  1.
</event>
<event>
 5   0  0.2284329E-05  0.2199692E+04  0.7818609E-02  0.8518556E-01
       -2   -1    0    0    0  501  0.00000000000E+00  0.00000000000E+00  0.95318451407E+03  0.95318451408E+03  0.25500000920E-02 0.  1.
        2   -1    0    0  501    0  0.00000000000E+00  0.00000000000E+00 -0.12690732232E+04  0.12690732232E+04  0.25500000920E-02 0. -1.
    10030    2    1    2    0    0  0.00000000000E+00  0.00000000000E+00 -0.31588870917E+03  0.22222577373E+04  0.21996917453E+04 0.  0.
        2    1    3    3  502    0  0.62586425610E+03 -0.10677055097E+03  0.74935285648E+03  0.98215870466E+03  0.25500000920E-02 0.  1.
       -2    1    3    3    0  502 -0.62586425610E+03  0.10677055097E+03 -0.10652415656E+04  0.12400990327E+04  0.25500000920E-02 0. -1.
</event>
<event>
 5   0  0.1033733E-05  0.2178786E+04  0.7818609E-02  0.8527310E-01
        1   -1    0    0  501    0  0.00000000000E+00  0.00000000000E+00  0.14669307129E+04  0.14669307129E+04  0.50400001928E-02 0. -1.
       -1   -1    0    0    0  501  0.00000000000E+00  0.00000000000E+00 -0.80902085918E+03  0.80902085919E+03  0.50400001928E-02 0.  1.
    10030    2    1    2    0    0  0.00000000000E+00  0.00000000000E+00  0.65790985373E+03  0.22759515721E+04  0.21787864014E+04 0.  0.
        5    1    3    3  502    0  0.15161758971E+03  0.10211647168E+04 -0.34393620603E+02  0.10329425364E+04  0.46999998093E+01 0.  1.
       -5    1    3    3    0  502 -0.15161758971E+03 -0.10211647168E+04  0.69230347433E+03  0.12430090357E+04  0.46999998093E+01 0. -1.
</event>
<event>
 5   0  0.2298329E-05  0.2233118E+04  0.7818609E-02  0.8504769E-01
       -2   -1    0    0    0  501  0.00000000000E+00  0.00000000000E+00  0.90289248390E+03  0.90289248390E+03  0.25500000920E-02 0. -1.
        2   -1    0    0  501    0  0.00000000000E+00  0.00000000000E+00 -0.13807886049E+04  0.13807886049E+04  0.25500000920E-02 0.  1.
    10030    2    1    2    0    0  0.00000000000E+00  0.00000000000E+00 -0.47789612103E+03  0.22836810888E+04  0.22331176890E+04 0.  0.
        4    1    3    3  502    0 -0.88074135683E+03  0.17445770406E+03  0.43982871280E+03  0.99979584799E+03  0.12699999809E+01 0. -1.
       -4    1    3    3    0  502  0.88074135683E+03 -0.17445770406E+03 -0.91772483383E+03  0.12838852408E+04  0.12699999809E+01 0.  1.
</event>
<event>
 5   0  0.1049198E-05  0.2191002E+04  0.7818609E-02  0.8522183E-01
       -1   -1    0    0    0  501  0.00000000000E+00  0.00000000000E+00  0.21249527985E+04  0.21249527985E+04  0.50400001928E-02 0.  1.
        1   -1    0    0  501    0  0.00000000000E+00  0.00000000000E+00 -0.56477593689E+03  0.56477593691E+03  0.50400001928E-02 0. -1.
    10030    2    1    2    0    0  0.00000000000E+00  0.00000000000E+00  0.15601768616E+04  0.26897287354E+04  0.21910017870E+04 0.  0.
        1    1    3    3  502    0  0.15946986521E+03 -0.43078476410E+03 -0.44083766672E+03  0.63666631709E+03  0.50400001928E-02 0. -1.
       -1    1    3    3    0  502 -0.15946986521E+03  0.43078476410E+03  0.20010145283E+04  0.20530624183E+04  0.50400001928E-02 0.  1.
</event>
<event>
 5   0  0.1033733E-05  0.2196966E+04  0.7818609E-02  0.8519692E-01
       -1   -1    0    0    0  501  0.00000000000E+00  0.00000000000E+00  0.89268457089E+03  0.89268457090E+03  0.50400001928E-02 0.  1.
        1   -1    0    0  501    0  0.00000000000E+00  0.00000000000E+00 -0.13517259820E+04  0.13517259820E+04  0.50400001928E-02 0. -1.
    10030    2    1    2    0    0  0.00000000000E+00  0.00000000000E+00 -0.45904141115E+03  0.22444105529E+04  0.21969660245E+04 0.  0.
        5    1    3    3  502    0 -0.65171777508E+03 -0.87168698835E+03 -0.38128377419E+03  0.11532448441E+04  0.46999998093E+01 0. -1.
       -5    1    3    3    0  502  0.65171777508E+03  0.87168698835E+03 -0.77757636959E+02  0.10911657088E+04  0.46999998093E+01 0.  1.
</event>
<event>
 5   0  0.1049198E-05  0.2201356E+04  0.7818609E-02  0.8517864E-01
        1   -1    0    0  501    0  0.00000000000E+00  0.00000000000E+00  0.86636920811E+03  0.86636920813E+03  0.50400001928E-02 0. -1.
       -1   -1    0    0    0  501  0.00000000000E+00  0.00000000000E+00 -0.13983556473E+04  0.13983556473E+04  0.50400001928E-02 0.  1.
    10030    2    1    2    0    0  0.00000000000E+00  0.00000000000E+00 -0.53198643917E+03  0.22647248554E+04  0.22013561955E+04 0.  0.
        1    1    3    3  502    0  0.43820933195E+03  0.75156373640E+03  0.42766872591E+03  0.96942044936E+03  0.50400001928E-02 0. -1.
       -1    1    3    3    0  502 -0.43820933195E+03 -0.75156373640E+03 -0.95965516508E+03  0.12953044061E+04  0.50400001928E-02 0.  1.
</event>
<event>
 5   0  0.2284329E-05  0.2200686E+04  0.7818609E-02  0.8518143E-01
       -2   -1    0    0    0  501  0.00000000000E+00  0.00000000000E+00  0.55695963390E+03  0.55695963390E+03  0.25500000920E-02 0. -1.
        2   -1    0    0  501    0  0.00000000000E+00  0.00000000000E+00 -0.21738636352E+04  0.21738636352E+04  0.25500000920E-02 0.  1.
    10030    2    1    2    0    0  0.00000000000E+00  0.00000000000E+00 -0.16169040013E+04  0.27308232691E+04  0.22006856153E+04 0.  0.
        2    1    3    3  502    0  0.86101251261E+03 -0.30699082963E+03 -0.48390555796E+02  0.91538383329E+03  0.25500000920E-02 0. -1.
       -2    1    3    3    0  502 -0.86101251261E+03  0.30699082963E+03 -0.15685134455E+04  0.18154394358E+04  0.25500000920E-02 0.  1.
</event>
<event>
 5   0  0.2319707E-05  0.2202465E+04  0.7818609E-02  0.8517403E-01
       -2   -1    0    0    0  501  0.00000000000E+00  0.00000000000E+00  0.10659159623E+04  0.10659159623E+04  0.25500000920E-02 0. -1.
        2   -1    0    0  501    0  0.00000000000E+00  0.00000000000E+00 -0.11377188440E+04  0.11377188440E+04  0.25500000920E-02 0.  1.
    10030    2    1    2    0    0  0.00000000000E+00  0.00000000000E+00 -0.71802881629E+02  0.22036348063E+04  0.22024646889E+04 0.  0.
        3    1    3    3  502    0 -0.55683940581E+03 -0.40626473883E+03  0.82338631215E+03  0.10738185094E+04  0.10100000352E+00 0. -1.
       -3    1    3    3    0  502  0.55683940581E+03  0.40626473883E+03 -0.89518919378E+03  0.11298162969E+04  0.10100000352E+00 0.  1.
</event>
<event>
 5   0  0.1033733E-05  0.2198641E+04  0.7818609E-02  0.8518994E-01
        1   -1    0    0  501    0  0.00000000000E+00  0.00000000000E+00  0.12778279008E+04  0.12778279008E+04  0.50400001928E-02 0.  1.
       -1   -1    0    0    0  501  0.00000000000E+00  0.00000000000E+00 -0.94575007970E+03  0.94575007972E+03  0.50400001928E-02 0. -1.
    10030    2    1    2    0    0  0.00000000000E+00  0.00000000000E+00  0.33207782109E+03  0.22235779805E+04  0.21986412523E+04 0.  0.
        5    1    3    3  502    0 -0.43957149572E+03  0.91125345287E+03  0.60088980477E+03  0.11767313214E+04  0.46999998093E+01 0.  1.
       -5    1    3    3    0  502  0.43957149572E+03 -0.91125345287E+03 -0.26881198368E+03  0.10468466592E+04  0.46999998093E+01 0. -1.
</event>
<event>
 5   0  0.2289708E-05  0.2200614E+04  0.7818609E-02  0.8518173E-01
        2   -1    0    0  501    0  0.00000000000E+00  0.00000000000E+00  0.21064674710E+04  0.21064674710E+04  0.25500000920E-02 0.  1.
       -2   -1    0    0    0  501  0.00000000000E+00  0.00000000000E+00 -0.57474206107E+03  0.57474206108E+03  0.25500000920E-02 0. -1.
    10030    2    1    2    0    0  0.00000000000E+00  0.00000000000E+00  0.15317254099E+04  0.26812095321E+04  0.22006139651E+04 0.  0.
        5    1    3    3  502    0  0.96567247906E+03  0.46156825363E+03  0.45503007836E+03  0.11630318361E+04  0.46999998093E+01 0. -1.
       -5    1    3    3    0  502 -0.96567247906E+03 -0.46156825363E+03  0.10766953316E+04  0.15181776960E+04  0.46999998093E+01 0.  1.
</event>
<event>
 5   0  0.2289708E-05  0.2202323E+04  0.7818609E-02  0.8517462E-01
        2   -1    0    0  501    0  0.00000000000E+00  0.00000000000E+00  0.24407047257E+04  0.24407047257E+04  0.25500000920E-02 0.  1.
       -2   -1    0    0    0  501  0.00000000000E+00  0.00000000000E+00 -0.49680578127E+03  0.49680578128E+03  0.25500000920E-02 0. -1.
    10030    2    1    2    0    0  0.00000000000E+00  0.00000000000E+00  0.19438989444E+04  0.29375105069E+04  0.22023226086E+04 0.  0.
        5    1    3    3  502    0  0.73179310410E+03 -0.37433674148E+03 -0.53757807168E+01  0.82200981274E+03  0.46999998093E+01 0. -1.
       -5    1    3    3    0  502 -0.73179310410E+03  0.37433674148E+03  0.19492747251E+04  0.21155006942E+04  0.46999998093E+01 0.  1.
</event>
<event>
 5   0  0.2289708E-05  0.2148336E+04  0.7818609E-02  0.8540245E-01
        2   -1    0    0  501    0  0.00000000000E+00  0.00000000000E+00  0.24680158171E+04  0.24680158171E+04  0.25500000920E-02 0.  1.
       -2   -1    0    0    0  501  0.00000000000E+00  0.00000000000E+00 -0.46751591139E+03  0.46751591140E+03  0.25500000920E-02 0. -1.
    10030    2    1    2    0    0  0.00000000000E+00  0.00000000000E+00  0.20004999057E+04  0.29355317285E+04  0.21483357876E+04 0.  0.
        5    1    3    3  502    0  0.13881091496E+03 -0.93843500379E+03  0.31175008380E+03  0.99856844092E+03  0.46999998093E+01 0. -1.
       -5    1    3    3    0  502 -0.13881091496E+03  0.93843500379E+03  0.16887498219E+04  0.19369632876E+04  0.46999998093E+01 0.  1.
</event>
<event>
 5   0  0.1049198E-05  0.2204473E+04  0.7818609E-02  0.8516569E-01
        1   -1    0    0  501    0  0.00000000000E+00  0.00000000000E+00  0.10159383710E+04  0.10159383710E+04  0.50400001928E-02 0. -1.
       -1   -1    0    0    0  501  0.00000000000E+00  0.00000000000E+00 -0.11958648280E+04  0.11958648281E+04  0.50400001928E-02 0.  1.
    10030    2    1    2    0    0  0.00000000000E+00  0.00000000000E+00 -0.17992645705E+03  0.22118031991E+04  0.22044726946E+04 0.  0.
        1    1    3    3  502    0 -0.52470236260E+03 -0.94601027188E+03 -0.30203534590E+03  0.11231533083E+04  0.50400001928E-02 0. -1.
       -1    1    3    3    0  502  0.52470236260E+03  0.94601027188E+03  0.12210888885E+03  0.10886498907E+04  0.50400001928E-02 0.  1.
</event>
<event>
 5   0  0.2298329E-05  0.2205593E+04  0.7818609E-02  0.8516104E-01
        2   -1    0    0  501    0  0.00000000000E+00  0.00000000000E+00  0.20048374531E+04  0.20048374531E+04  0.25500000920E-02 0. -1.
       -2   -1    0    0    0  501  0.00000000000E+00  0.00000000000E+00 -0.60661258987E+03  0.60661258987E+03  0.25500000920E-02 0.  1.
    10030    2    1    2    0    0  0.00000000000E+00  0.00000000000E+00  0.13982248633E+04  0.26114500430E+04  0.22055925641E+04 0.  0.
        4    1    3    3  502    0  0.68592451746E+03 -0.86315470073E+03  0.72882020442E+03  0.13216311832E+04  0.12699999809E+01 0. -1.
       -4    1    3    3    0  502 -0.68592451746E+03  0.86315470073E+03  0.66940465886E+03  0.12898188599E+04  0.12699999809E+01 0.  1.
</event>
<event>
 5   0  0.1049198E-05  0.2211856E+04  0.7818609E-02  0.8513509E-01
       -1   -1    0    0    0  501  0.00000000000E+00  0.00000000000E+00  0.79574178153E+03  0.79574178154E+03  0.50400001928E-02 0.  1.
        1   -1    0    0  501    0  0.00000000000E+00  0.00000000000E+00 -0.15370277816E+04  0.15370277816E+04  0.50400001928E-02 0. -1.
    10030    2    1    2    0    0  0.00000000000E+00  0.00000000000E+00 -0.74128600011E+03  0.23327695632E+04  0.22118564377E+04 0.  0.
        1    1    3    3  502    0 -0.52286691433E+03  0.92437387299E+03 -0.69608965343E+03  0.12698022180E+04  0.50400001928E-02 0. -1.
       -1    1    3    3    0  502  0.52286691433E+03 -0.92437387299E+03 -0.45196346679E+02  0.10629673452E+04  0.50400001928E-02 0.  1.
</event>
<event>
 5   0  0.1005538E-05  0.2213653E+04  0.7818609E-02  0.8512767E-01
       -1   -1    0    0    0  501  0.00000000000E+00  0.00000000000E+00  0.15686706903E+04  0.15686706903E+04  0.50400001928E-02 0.  1.
        1   -1    0    0  501    0  0.00000000000E+00  0.00000000000E+00 -0.78095757739E+03  0.78095757740E+03  0.50400001928E-02 0. -1.
    10030    2    1    2    0    0  0.00000000000E+00  0.00000000000E+00  0.78771311288E+03  0.23496282677E+04  0.22136533261E+04 0.  0.
        3    1    3    3  502    0  0.77728923373E+03  0.80762119706E+01 -0.44246427667E+03  0.89443749049E+03  0.10100000352E+00 0. -1.
       -3    1    3    3    0  502 -0.77728923373E+03 -0.80762119706E+01  0.12301773895E+04  0.14551907772E+04  0.10100000352E+00 0.  1.
</event>
<event>
 5   0  0.1007682E-05  0.2196259E+04  0.7818609E-02  0.8519987E-01
       -1   -1    0    0    0  501  0.00000000000E+00  0.00000000000E+00  0.83916812311E+03  0.83916812312E+03  0.50400001928E-02 0.  1.
        1   -1    0    0  501    0  0.00000000000E+00  0.00000000000E+00 -0.14370051762E+04  0.14370051762E+04  0.50400001928E-02 0. -1.
    10030    2    1    2    0    0  0.00000000000E+00  0.00000000000E+00 -0.59783705310E+03  0.22761732993E+04  0.21962594898E+04 0.  0.
        2    1    3    3  502    0  0.51514335895E+03  0.73830487695E+03 -0.95062521522E+03  0.13092574504E+04  0.25500000920E-02 0.  1.
       -2    1    3    3    0  502 -0.51514335895E+03 -0.73830487695E+03  0.35278816212E+03  0.96691584894E+03  0.25500000920E-02 0. -1.
</event>
<event>
 5   0  0.2298329E-05  0.2202682E+04  0.7818609E-02  0.8517313E-01
        2   -1    0    0  501    0  0.00000000000E+00  0.00000000000E+00  0.28354176196E+04  0.28354176196E+04  0.25500000920E-02 0.  1.
       -2   -1    0    0    0  501  0.00000000000E+00  0.00000000000E+00 -0.42778588128E+03  0.42778588129E+03  0.25500000920E-02 0. -1.
    10030    2    1    2    0    0  0.00000000000E+00  0.00000000000E+00  0.24076317383E+04  0.32632035009E+04  0.22026816613E+04 0.  0.
        4    1    3    3  502    0 -0.49232127611E+03  0.42551859680E+03  0.25201601966E+04  0.26028168097E+04  0.12699999809E+01 0.  1.
       -4    1    3    3    0  502  0.49232127611E+03 -0.42551859680E+03 -0.11252845829E+03  0.66038669123E+03  0.12699999809E+01 0. -1.
</event>
<event>
 5   0  0.1071208E-05  0.2181897E+04  0.7818609E-02  0.8526001E-01
       -1   -1    0    0    0  501  0.00000000000E+00  0.00000000000E+00  0.11785691393E+04  0.11785691393E+04  0.50400001928E-02 0.  1.
        1   -1    0    0  501    0  0.00000000000E+00  0.00000000000E+00 -0.10098420862E+04  0.10098420862E+04  0.50400001928E-02 0. -1.
    10030    2    1    2    0    0  0.00000000000E+00  0.00000000000E+00  0.16872705309E+03  0.21884112255E+04  0.21818970814E+04 0.  0.
        4    1    3    3  502    0  0.53518084536E+03 -0.94888515713E+03  0.14254988827E+03  0.10986917958E+04  0.12699999809E+01 0.  1.
       -4    1    3    3    0  502 -0.53518084536E+03  0.94888515713E+03  0.26177164816E+02  0.10897194297E+04  0.12699999809E+01 0. -1.
</event>
<event>
 5   0  0.1005538E-05  0.2202045E+04  0.7818609E-02  0.8517577E-01
       -1   -1    0    0    0  501  0.00000000000E+00  0.00000000000E+00  0.93596969326E+03  0.93596969327E+03  0.50400001928E-02 0. -1.
        1   -1    0    0  501    0  0.00000000000E+00  0.00000000000E+00 -0.12951815695E+04  0.12951815695E+04  0.50400001928E-02 0.  1.
    10030    2    1    2    0    0  0.00000000000E+00  0.00000000000E+00 -0.35921187620E+03  0.22311512627E+04  0.22020451370E+04 0.  0.
        3    1    3    3  502    0  0.10687855594E+03  0.49045632171E+03  0.81328557346E+03  0.95572164536E+03  0.10100000352E+00 0. -1.
       -3    1    3    3    0  502 -0.10687855594E+03 -0.49045632171E+03 -0.11724974497E+04  0.12754296174E+04  0.10100000352E+00 0.  1.
</event>
<event>
 5   0  0.2229552E-05  0.2161858E+04  0.7818609E-02  0.8534473E-01
        2   -1    0    0  501    0  0.00000000000E+00  0.00000000000E+00  0.22597149372E+04  0.22597149372E+04  0.25500000920E-02 0.  1.
       -2   -1    0    0    0  501  0.00000000000E+00  0.00000000000E+00 -0.51705986308E+03  0.51705986309E+03  0.25500000920E-02 0. -1.
    10030    2    1    2    0    0  0.00000000000E+00  0.00000000000E+00  0.17426550742E+04  0.27767748003E+04  0.21618583636E+04 0.  0.
        1    1    3    3  502    0  0.93531500565E+03  0.54183569086E+03  0.87491945642E+03  0.13906416256E+04  0.50400001928E-02 0.  1.
       -1    1    3    3    0  502 -0.93531500565E+03 -0.54183569086E+03  0.86773561774E+03  0.13861331747E+04  0.50400001928E-02 0. -1.
</event>
<event>
 5   0  0.2289708E-05  0.2201414E+04  0.7818609E-02  0.8517840E-01
        2   -1    0    0  501    0  0.00000000000E+00  0.00000000000E+00  0.14946371054E+04  0.14946371054E+04  0.25500000920E-02 0.  1.
       -2   -1    0    0    0  501  0.00000000000E+00  0.00000000000E+00 -0.81060229199E+03  0.81060229200E+03  0.25500000920E-02 0. -1.
    10030    2    1    2    0    0  0.00000000000E+00  0.00000000000E+00  0.68403481341E+03  0.23052393974E+04  0.22014143302E+04 0.  0.
        5    1    3    3  502    0  0.78910655238E+03 -0.16959180713E+03 -0.44166606630E+03  0.92007691862E+03  0.46999998093E+01 0. -1.
       -5    1    3    3    0  502 -0.78910655238E+03  0.16959180713E+03  0.11257008797E+04  0.13851624788E+04  0.46999998093E+01 0.  1.
</event>
<event>
 5   0  0.1071208E-05  0.2210788E+04  0.7818609E-02  0.8513951E-01
       -1   -1    0    0    0  501  0.00000000000E+00  0.00000000000E+00  0.87799542497E+03  0.87799542498E+03  0.50400001928E-02 0.  1.
        1   -1    0    0  501    0  0.00000000000E+00  0.00000000000E+00 -0.13916887677E+04  0.13916887677E+04  0.50400001928E-02 0. -1.
    10030    2    1    2    0    0  0.00000000000E+00  0.00000000000E+00 -0.51369334273E+03  0.22696841927E+04  0.22107884304E+04 0.  0.
        4    1    3    3  502    0 -0.89506522275E+03  0.24093240001E+03  0.36144695827E+03  0.99490486525E+03  0.12699999809E+01 0.  1.
       -4    1    3    3    0  502  0.89506522275E+03 -0.24093240001E+03 -0.87514030101E+03  0.12747793274E+04  0.12699999809E+01 0. -1.
</event>
<event>
 5   0  0.2298329E-05  0.2199214E+04  0.7818609E-02  0.8518755E-01
       -2   -1    0    0    0  501  0.00000000000E+00  0.00000000000E+00  0.12616970298E+04  0.12616970298E+04  0.25500000920E-02 0.  1.
        2   -1    0    0  501    0  0.00000000000E+00  0.00000000000E+00 -0.95834051278E+03  0.95834051278E+03  0.25500000920E-02 0. -1.
    10030    2    1    2    0    0  0.00000000000E+00  0.00000000000E+00  0.30335651703E+03  0.22200375426E+04  0.21992138400E+04 0.  0.
        4    1    3    3  502    0  0.79240240580E+03 -0.22794226724E+03 -0.58272289539E+03  0.10096666953E+04  0.12699999809E+01 0. -1.
       -4    1    3    3    0  502 -0.79240240580E+03  0.22794226724E+03  0.88607941243E+03  0.12103708473E+04  0.12699999809E+01 0.  1.
</event>
<event>
 5   0  0.2284329E-05  0.2198257E+04  0.7818609E-02  0.8519154E-01
        2   -1    0    0  501    0  0.00000000000E+00  0.00000000000E+00  0.84901892838E+03  0.84901892838E+03  0.25500000920E-02 0.  1.
       -2   -1    0    0    0  501  0.00000000000E+00  0.00000000000E+00 -0.14229163694E+04  0.14229163694E+04  0.25500000920E-02 0. -1.
    10030    2    1    2    0    0  0.00000000000E+00  0.00000000000E+00 -0.57389744106E+03  0.22719352978E+04  0.21982565193E+04 0.  0.
        2    1    3    3  502    0  0.72836470049E+03  0.41766865614E+03 -0.10200326126E+04  0.13211467648E+04  0.25500000920E-02 0. -1.
       -2    1    3    3    0  502 -0.72836470049E+03 -0.41766865614E+03  0.44613517157E+03  0.95078853304E+03  0.25500000920E-02 0.  1.
</event>
<event>
 5   0  0.1049198E-05  0.2211399E+04  0.7818609E-02  0.8513698E-01
       -1   -1    0    0    0  501  0.00000000000E+00  0.00000000000E+00  0.56950494362E+03  0.56950494364E+03  0.50400001928E-02 0.  1.
        1   -1    0    0  501    0  0.00000000000E+00  0.00000000000E+00 -0.21467269996E+04  0.21467269996E+04  0.50400001928E-02 0. -1.
    10030    2    1    2    0    0  0.00000000000E+00  0.00000000000E+00 -0.15772220560E+04  0.27162319433E+04  0.22113992303E+04 0.  0.
        1    1    3    3  502    0 -0.61236370360E+03  0.48245673121E+03 -0.17517144527E+04  0.19173568595E+04  0.50400001928E-02 0. -1.
       -1    1    3    3    0  502  0.61236370360E+03 -0.48245673121E+03  0.17449239664E+03  0.79887508378E+03  0.50400001928E-02 0.  1.
</event>
<event>
 5   0  0.2284329E-05  0.2209143E+04  0.7818609E-02  0.8514632E-01
       -2   -1    0    0    0  501  0.00000000000E+00  0.00000000000E+00  0.86456357216E+03  0.86456357217E+03  0.25500000920E-02 0. -1.
        2   -1    0    0  501    0  0.00000000000E+00  0.00000000000E+00 -0.14112075957E+04  0.14112075957E+04  0.25500000920E-02 0.  1.
    10030    2    1    2    0    0  0.00000000000E+00  0.00000000000E+00 -0.54664402357E+03  0.22757711679E+04  0.22091434358E+04 0.  0.
        2    1    3    3  502    0 -0.37913039089E+03  0.96677540454E+03 -0.66108406060E+03  0.12310266737E+04  0.25500000920E-02 0.  1.
       -2    1    3    3    0  502  0.37913039089E+03 -0.96677540454E+03  0.11444003703E+03  0.10447444942E+04  0.25500000920E-02 0. -1.
</event>
<event>
 5   0  0.1007682E-05  0.2204346E+04  0.7818609E-02  0.8516621E-01
        1   -1    0    0  501    0  0.00000000000E+00  0.00000000000E+00  0.64052353503E+03  0.64052353505E+03  0.50400001928E-02 0. -1.
       -1   -1    0    0    0  501  0.00000000000E+00  0.00000000000E+00 -0.18965511806E+04  0.18965511806E+04  0.50400001928E-02 0.  1.
    10030    2    1    2    0    0  0.00000000000E+00  0.00000000000E+00 -0.12560276456E+04  0.25370747156E+04  0.22043463127E+04 0.  0.
        2    1    3    3  502    0  0.74045376356E+03  0.20116285701E+03 -0.15386754534E+04  0.17193779171E+04  0.25500000920E-02 0.  1.
       -2    1    3    3    0  502 -0.74045376356E+03 -0.20116285701E+03  0.28264780785E+03  0.81769679851E+03  0.25500000920E-02 0. -1.
</event>
<event>
 5   0  0.1071208E-05  0.2211027E+04  0.7818609E-02  0.8513852E-01
        1   -1    0    0  501    0  0.00000000000E+00  0.00000000000E+00  0.73790400340E+03  0.73790400342E+03  0.50400001928E-02 0.  1.
       -1   -1    0    0    0  501  0.00000000000E+00  0.00000000000E+00 -0.16562589477E+04  0.16562589477E+04  0.50400001928E-02 0. -1.
    10030    2    1    2    0    0  0.00000000000E+00  0.00000000000E+00 -0.91835494434E+03  0.23941629512E+04  0.22110270086E+04 0.  0.
        4    1    3    3  502    0 -0.50416870788E+03  0.41257975875E+03 -0.14263259675E+04  0.15680610709E+04  0.12699999809E+01 0. -1.
       -4    1    3    3    0  502  0.50416870788E+03 -0.41257975875E+03  0.50797102320E+03  0.82610188031E+03  0.12699999809E+01 0.  1.
</event>
<event>
 5   0  0.2229552E-05  0.2198732E+04  0.7818609E-02  0.8518956E-01
        2   -1    0    0  501    0  0.00000000000E+00  0.00000000000E+00  0.14694184380E+04  0.14694184380E+04  0.25500000920E-02 0.  1.
       -2   -1    0    0    0  501  0.00000000000E+00  0.00000000000E+00 -0.82250639174E+03  0.82250639175E+03  0.25500000920E-02 0. -1.
    10030    2    1    2    0    0  0.00000000000E+00  0.00000000000E+00  0.64691204626E+03  0.22919248298E+04  0.21987324143E+04 0.  0.
        1    1    3    3  502    0  0.46582146634E+03  0.23622172914E+03  0.13318335478E+04  0.14305841265E+04  0.50400001928E-02 0.  1.
       -1    1    3    3    0  502 -0.46582146634E+03 -0.23622172914E+03 -0.68492150155E+03  0.86134070328E+03  0.50400001928E-02 0. -1.
</event>
<event>
 5   0  0.2284329E-05  0.2195003E+04  0.7818609E-02  0.8520511E-01
        2   -1    0    0  501    0  0.00000000000E+00  0.00000000000E+00  0.11984073775E+04  0.11984073775E+04  0.25500000920E-02 0.  1.
       -2   -1    0    0    0  501  0.00000000000E+00  0.00000000000E+00 -0.10050916809E+04  0.10050916809E+04  0.25500000920E-02 0. -1.
    10030    2    1    2    0    0  0.00000000000E+00  0.00000000000E+00  0.19331569658E+03  0.22034990585E+04  0.21950027659E+04 0.  0.
        2    1    3    3  502    0 -0.85849553030E+02  0.95235508214E+03  0.63740690864E+03  0.11491901128E+04  0.25500000920E-02 0.  1.
       -2    1    3    3    0  502  0.85849553030E+02 -0.95235508214E+03 -0.44409121206E+03  0.10543089456E+04  0.25500000920E-02 0. -1.
</event>
<event>
 5   0  0.1049198E-05  0.2183831E+04  0.7818609E-02  0.8525188E-01
       -1   -1    0    0    0  501  0.00000000000E+00  0.00000000000E+00  0.60879624346E+03  0.60879624348E+03  0.50400001928E-02 0.  1.
        1   -1    0    0  501    0  0.00000000000E+00  0.00000000000E+00 -0.19584211853E+04  0.19584211853E+04  0.50400001928E-02 0. -1.
    10030    2    1    2    0    0  0.00000000000E+00  0.00000000000E+00 -0.13496249418E+04  0.25672174287E+04  0.21838310015E+04 0.  0.
        1    1    3    3  502    0 -0.28297217348E+03  0.10545789668E+04 -0.66501841984E+03  0.12784598339E+04  0.50400001928E-02 0.  1.
       -1    1    3    3    0  502  0.28297217348E+03 -0.10545789668E+04 -0.68460652196E+03  0.12887575948E+04  0.50400001928E-02 0. -1.
</event>
<event>
 5   0  0.1007682E-05  0.2205860E+04  0.7818609E-02  0.8515993E-01
        1   -1    0    0  501    0  0.00000000000E+00  0.00000000000E+00  0.17234793079E+04  0.17234793079E+04  0.50400001928E-02 0. -1.
       -1   -1    0    0    0  501  0.00000000000E+00  0.00000000000E+00 -0.70581312409E+03  0.70581312411E+03  0.50400001928E-02 0.  1.
    10030    2    1    2    0    0  0.00000000000E+00  0.00000000000E+00  0.10176661838E+04  0.24292924320E+04  0.22058597550E+04 0.  0.
        2    1    3    3  502    0 -0.10071488505E+04  0.41288083874E+03  0.31295526657E+03  0.11325901258E+04  0.25500000920E-02 0. -1.
       -2    1    3    3    0  502  0.10071488505E+04 -0.41288083874E+03  0.70471091726E+03  0.12967023063E+04  0.25500000920E-02 0.  1.
</event>
<event>
 5   0  0.2229552E-05  0.2188136E+04  0.7818609E-02  0.8523382E-01
       -2   -1    0    0    0  501  0.00000000000E+00  0.00000000000E+00  0.12866868628E+04  0.12866868628E+04  0.25500000920E-02 0.  1.
        2   -1    0    0  501    0  0.00000000000E+00  0.00000000000E+00 -0.93028458322E+03  0.93028458322E+03  0.25500000920E-02 0. -1.
    10030    2    1    2    0    0  0.00000000000E+00  0.00000000000E+00  0.35640227957E+03  0.22169714460E+04  0.21881361492E+04 0.  0.
        1    1    3    3  502    0 -0.68498970749E+03 -0.40864561362E+03 -0.58052161080E+03  0.98651278630E+03  0.50400001928E-02 0.  1.
       -1    1    3    3    0  502  0.68498970749E+03  0.40864561362E+03  0.93692389037E+03  0.12304586597E+04  0.50400001928E-02 0. -1.
</event>
<event>
 5   0  0.1007682E-05  0.2195149E+04  0.7818609E-02  0.8520450E-01
        1   -1    0    0  501    0  0.00000000000E+00  0.00000000000E+00  0.11903528608E+04  0.11903528608E+04  0.50400001928E-02 0.  1.
       -1   -1    0    0    0  501  0.00000000000E+00  0.00000000000E+00 -0.10120271089E+04  0.10120271089E+04  0.50400001928E-02 0. -1.
    10030    2    1    2    0    0  0.00000000000E+00  0.00000000000E+00  0.17832575195E+03  0.22023799697E+04  0.21951486185E+04 0.  0.
        2    1    3    3  502    0  0.46654623414E+03  0.69267108404E+03 -0.62537053782E+03  0.10433345239E+04  0.25500000920E-02 0. -1.
       -2    1    3    3    0  502 -0.46654623414E+03 -0.69267108404E+03  0.80369628977E+03  0.11590454458E+04  0.25500000920E-02 0.  1.
</event>
<event>
 5   0  0.1005538E-05  0.2204989E+04  0.7818609E-02  0.8516354E-01
        1   -1    0    0  501    0  0.00000000000E+00  0.00000000000E+00  0.15046512939E+04  0.15046512940E+04  0.50400001928E-02 0. -1.
       -1   -1    0    0    0  501  0.00000000000E+00  0.00000000000E+00 -0.80782477031E+03  0.80782477032E+03  0.50400001928E-02 0.  1.
    10030    2    1    2    0    0  0.00000000000E+00  0.00000000000E+00  0.69682652364E+03  0.23124760643E+04  0.22049894203E+04 0.  0.
        3    1    3    3  502    0 -0.14052347160E+03 -0.88276911350E+03  0.10252138570E+04  0.13601807294E+04  0.10100000352E+00 0. -1.
       -3    1    3    3    0  502  0.14052347160E+03  0.88276911350E+03 -0.32838733341E+03  0.95229533485E+03  0.10100000352E+00 0.  1.
</event>
<event>
 5   0  0.2298329E-05  0.2194172E+04  0.7818609E-02  0.8520858E-01
        2   -1    0    0  501    0  0.00000000000E+00  0.00000000000E+00  0.12573149684E+04  0.12573149684E+04  0.25500000920E-02 0. -1.
       -2   -1    0    0    0  501  0.00000000000E+00  0.00000000000E+00 -0.95727638724E+03  0.95727638724E+03  0.25500000920E-02 0.  1.
    10030    2    1    2    0    0  0.00000000000E+00  0.00000000000E+00  0.30003858117E+03  0.22145913557E+04  0.21941722180E+04 0.  0.
        4    1    3    3  502    0 -0.84228587617E+03 -0.18677034070E+03  0.83401884877E+03  0.11999657122E+04  0.12699999809E+01 0. -1.
       -4    1    3    3    0  502  0.84228587617E+03  0.18677034070E+03 -0.53398026760E+03  0.10146256435E+04  0.12699999809E+01 0.  1.
</event>
<event>
 5   0  0.2298329E-05  0.2215861E+04  0.7818609E-02  0.8511855E-01
        2   -1    0    0  501    0  0.00000000000E+00  0.00000000000E+00  0.12734268724E+04  0.12734268724E+04  0.25500000920E-02 0. -1.
       -2   -1    0    0    0  501  0.00000000000E+00  0.00000000000E+00 -0.96394192286E+03  0.96394192286E+03  0.25500000920E-02 0.  1.
    10030    2    1    2    0    0  0.00000000000E+00  0.00000000000E+00  0.30948494956E+03  0.22373687953E+04  0.22158605985E+04 0.  0.
        4    1    3    3  502    0  0.20884515272E+03  0.10818646453E+04  0.37596824452E+02  0.11024801779E+04  0.12699999809E+01 0.  1.
       -4    1    3    3    0  502 -0.20884515272E+03 -0.10818646453E+04  0.27188812511E+03  0.11348886174E+04  0.12699999809E+01 0. -1.
</event>
<event>
 5   0  0.2298329E-05  0.2198358E+04  0.7818609E-02  0.8519112E-01
        2   -1    0    0  501    0  0.00000000000E+00  0.00000000000E+00  0.21344753646E+04  0.21344753646E+04  0.25500000920E-02 0. -1.
       -2   -1    0    0    0  501  0.00000000000E+00  0.00000000000E+00 -0.56603839852E+03  0.56603839852E+03  0.25500000920E-02 0.  1.
    10030    2    1    2    0    0  0.00000000000E+00  0.00000000000E+00  0.15684369661E+04  0.27005137631E+04  0.21983584940E+04 0.  0.
        4    1    3    3  502    0  0.75523780386E+03  0.64319306565E+03  0.20267742712E+03  0.10125024506E+04  0.12699999809E+01 0.  1.
       -4    1    3    3    0  502 -0.75523780386E+03 -0.64319306565E+03  0.13657595390E+04  0.16880113125E+04  0.12699999809E+01 0. -1.
</event>
<event>
 5   0  0.2319707E-05  0.2183593E+04  0.7818609E-02  0.8525288E-01
       -2   -1    0    0    0  501  0.00000000000E+00  0.00000000000E+00  0.16638623294E+04  0.16638623295E+04  0.25500000920E-02 0.  1.
        2   -1    0    0  501    0  0.00000000000E+00  0.00000000000E+00 -0.71641717865E+03  0.71641717866E+03  0.25500000920E-02 0. -1.
    10030    2    1    2    0    0  0.00000000000E+00  0.00000000000E+00  0.94744515080E+03  0.23802795081E+04  0.21835929618E+04 0.  0.
        3    1    3    3  502    0  0.24106988271E+03  0.80505988365E+03 -0.28603952450E+03  0.88772446423E+03  0.10100000352E+00 0. -1.
       -3    1    3    3    0  502 -0.24106988271E+03 -0.80505988365E+03  0.12334846753E+04  0.14925550439E+04  0.10100000352E+00 0.  1.
</event>
<event>
 5   0  0.1049198E-05  0.2193958E+04  0.7818609E-02  0.8520947E-01
        1   -1    0    0  501    0  0.00000000000E+00  0.00000000000E+00  0.92591820824E+03  0.92591820825E+03  0.50400001928E-02 0.  1.
       -1   -1    0    0    0  501  0.00000000000E+00  0.00000000000E+00 -0.12996425566E+04  0.12996425567E+04  0.50400001928E-02 0. -1.
    10030    2    1    2    0    0  0.00000000000E+00  0.00000000000E+00 -0.37372434841E+03  0.22255607649E+04  0.21939578003E+04 0.  0.
        1    1    3    3  502    0 -0.75876574570E+03  0.40833326706E+03  0.50181407095E+03  0.99713533468E+03  0.50400001928E-02 0.  1.
       -1    1    3    3    0  502  0.75876574570E+03 -0.40833326706E+03 -0.87553841935E+03  0.12284254302E+04  0.50400001928E-02 0. -1.
</event>
<event>
 5   0  0.2284329E-05  0.2201479E+04  0.7818609E-02  0.8517813E-01
        2   -1    0    0  501    0  0.00000000000E+00  0.00000000000E+00  0.20817589686E+04  0.20817589686E+04  0.25500000920E-02 0. -1.
       -2   -1    0    0    0  501  0.00000000000E+00  0.00000000000E+00 -0.58202118483E+03  0.58202118484E+03  0.25500000920E-02 0.  1.
    10030    2    1    2    0    0  0.00000000000E+00  0.00000000000E+00  0.14997377837E+04  0.26637801534E+04  0.22014793403E+04 0.  0.
        2    1    3    3  502    0 -0.10496657984E+04 -0.31416639452E+03  0.62222147683E+03  0.12600231657E+04  0.25500000920E-02 0.  1.
       -2    1    3    3    0  502  0.10496657984E+04  0.31416639452E+03  0.87751630691E+03  0.14037569878E+04  0.25500000920E-02 0. -1.
</event>
<event>
 5   0  0.2229552E-05  0.2204283E+04  0.7818609E-02  0.8516647E-01
        2   -1    0    0  501    0  0.00000000000E+00  0.00000000000E+00  0.15725613788E+04  0.15725613788E+04  0.25500000920E-02 0. -1.
       -2   -1    0    0    0  501  0.00000000000E+00  0.00000000000E+00 -0.77244451123E+03  0.77244451123E+03  0.25500000920E-02 0.  1.
    10030    2    1    2    0    0  0.00000000000E+00  0.00000000000E+00  0.80011686761E+03  0.23450058901E+04  0.22042834715E+04 0.  0.
        1    1    3    3  502    0 -0.19238761903E+03 -0.91573601487E+03  0.10195853988E+04  0.13838857721E+04  0.50400001928E-02 0. -1.
       -1    1    3    3    0  502  0.19238761903E+03  0.91573601487E+03 -0.21946853118E+03  0.96112011793E+03  0.50400001928E-02 0.  1.
</event>
<event>
 5   0  0.1007682E-05  0.2202981E+04  0.7818609E-02  0.8517188E-01
       -1   -1    0    0    0  501  0.00000000000E+00  0.00000000000E+00  0.77865352278E+03  0.77865352279E+03  0.50400001928E-02 0.  1.
        1   -1    0    0  501    0  0.00000000000E+00  0.00000000000E+00 -0.15581785039E+04  0.15581785039E+04  0.50400001928E-02 0. -1.
    10030    2    1    2    0    0  0.00000000000E+00  0.00000000000E+00 -0.77952498116E+03  0.23368320267E+04  0.22029808726E+04 0.  0.
        2    1    3    3  502    0  0.54221396626E+03 -0.42138298630E+03 -0.13033228056E+04  0.14731632435E+04  0.25500000920E-02 0. -1.
       -2    1    3    3    0  502 -0.54221396626E+03  0.42138298630E+03  0.52379782441E+03  0.86366878328E+03  0.25500000920E-02 0.  1.
</event>
<event>
 5   0  0.1007682E-05  0.2213123E+04  0.7818609E-02  0.8512986E-01
       -1   -1    0    0    0  501  0.00000000000E+00  0.00000000000E+00  0.12461074095E+04  0.12461074095E+04  0.50400001928E-02 0. -1.
        1   -1    0    0  501    0  0.00000000000E+00  0.00000000000E+00 -0.98264312084E+03  0.98264312085E+03  0.50400001928E-02 0.  1.
    10030    2    1    2    0    0  0.00000000000E+00  0.00000000000E+00  0.26346428868E+03  0.22287505304E+04  0.22131234704E+04 0.  0.
        2    1    3    3  502    0  0.18807616467E+03  0.61313052240E+03  0.10398629546E+04  0.12217269112E+04  0.25500000920E-02 0. -1.
       -2    1    3    3    0  502 -0.18807616467E+03 -0.61313052240E+03 -0.77639866589E+03  0.10070236192E+04  0.25500000920E-02 0.  1.
</event>
<event>
 5   0  0.2229552E-05  0.2204185E+04  0.7818609E-02  0.8516688E-01
        2   -1    0    0  501    0  0.00000000000E+00  0.00000000000E+00  0.15026239875E+04  0.15026239875E+04  0.25500000920E-02 0. -1.
       -2   -1    0    0    0  501  0.00000000000E+00  0.00000000000E+00 -0.80832456590E+03  0.80832456590E+03  0.25500000920E-02 0.  1.
    10030    2    1    2    0    0  0.00000000000E+00  0.00000000000E+00  0.69429942160E+03  0.23109485534E+04  0.22041850035E+04 0.  0.
        1    1    3    3  502    0  0.92520553668E+03 -0.59857921618E+03  0.32882397146E+03  0.11499685071E+04  0.50400001928E-02 0.  1.
       -1    1    3    3    0  502 -0.92520553668E+03  0.59857921618E+03  0.36547545014E+03  0.11609800463E+04  0.50400001928E-02 0. -1.
</event>
<event>
 5   0  0.2298329E-05  0.2197764E+04  0.7818609E-02  0.8519359E-01
        2   -1    0    0  501    0  0.00000000000E+00  0.00000000000E+00  0.12382964176E+04  0.12382964176E+04  0.25500000920E-02 0.  1.
       -2   -1    0    0    0  501  0.00000000000E+00  0.00000000000E+00 -0.97516387998E+03  0.97516387999E+03  0.25500000920E-02 0. -1.
    10030    2    1    2    0    0  0.00000000000E+00  0.00000000000E+00  0.26313253765E+03  0.22134602976E+04  0.21977642632E+04 0.  0.
        4    1    3    3  502    0  0.84782494459E+03  0.54022602173E+03  0.57845704875E+03  0.11598557934E+04  0.12699999809E+01 0.  1.
       -4    1    3    3    0  502 -0.84782494459E+03 -0.54022602173E+03 -0.31532451109E+03  0.10536045043E+04  0.12699999809E+01 0. -1.
</event>
<event>
 5   0  0.2298329E-05  0.2196413E+04  0.7818609E-02  0.8519922E-01
        2   -1    0    0  501    0  0.00000000000E+00  0.00000000000E+00  0.16424389630E+04  0.16424389630E+04  0.25500000920E-02 0.  1.
       -2   -1    0    0    0  501  0.00000000000E+00  0.00000000000E+00 -0.73430913087E+03  0.73430913087E+03  0.25500000920E-02 0. -1.
    10030    2    1    2    0    0  0.00000000000E+00  0.00000000000E+00  0.90812983212E+03  0.23767480939E+04  0.21964133740E+04 0.  0.
        4    1    3    3  502    0  0.70042908016E+03 -0.64262630504E+03  0.10492092793E+04  0.14157722942E+04  0.12699999809E+01 0.  1.
       -4    1    3    3    0  502 -0.70042908016E+03  0.64262630504E+03 -0.14107944720E+03  0.96097579968E+03  0.12699999809E+01 0. -1.
</event>
<event>
 5   0  0.1005538E-05  0.2194405E+04  0.7818609E-02  0.8520760E-01
       -1   -1    0    0    0  501  0.00000000000E+00  0.00000000000E+00  0.11749902260E+04  0.11749902260E+04  0.50400001928E-02 0. -1.
        1   -1    0    0  501    0  0.00000000000E+00  0.00000000000E+00 -0.10245646160E+04  0.10245646160E+04  0.50400001928E-02 0.  1.
    10030    2    1    2    0    0  0.00000000000E+00  0.00000000000E+00  0.15042561004E+03  0.21995548420E+04  0.21944050763E+04 0.  0.
        3    1    3    3  502    0  0.42607712903E+03 -0.24258026155E+03 -0.90865399108E+03  0.10324916411E+04  0.10100000352E+00 0.  1.
       -3    1    3    3    0  502 -0.42607712903E+03  0.24258026155E+03  0.10590796011E+04  0.11670632009E+04  0.10100000352E+00 0. -1.
</event>
<event>
 5   0  0.1033733E-05  0.2193513E+04  0.7818609E-02  0.8521133E-01
       -1   -1    0    0    0  501  0.00000000000E+00  0.00000000000E+00  0.10908410781E+04  0.10908410781E+04  0.50400001928E-02 0.  1.
        1   -1    0    0  501    0  0.00000000000E+00  0.00000000000E+00 -0.11027044848E+04  0.11027044849E+04  0.50400001928E-02 0. -1.
    10030    2    1    2    0    0  0.00000000000E+00  0.00000000000E+00 -0.11863406739E+02  0.21935455630E+04  0.21935134822E+04 0.  0.
        5    1    3    3  502    0 -0.95600416309E+03  0.53680857041E+03 -0.33242503797E+02  0.10969204872E+04  0.46999998093E+01 0.  1.
       -5    1    3    3    0  502  0.95600416309E+03 -0.53680857041E+03  0.21379097058E+02  0.10966250758E+04  0.46999998093E+01 0. -1.
</event>
<event>
 5   0  0.2284329E-05  0.2203190E+04  0.7818609E-02  0.8517102E-01
       -2   -1    0    0    0  501  0.00000000000E+00  0.00000000000E+00  0.87390767004E+03  0.87390767005E+03  0.25500000920E-02 0.  1.
        2   -1    0    0  501    0  0.00000000000E+00  0.00000000000E+00 -0.13886034694E+04  0.13886034694E+04  0.25500000920E-02 0. -1.
    10030    2    1    2    0    0  0.00000000000E+00  0.00000000000E+00 -0.51469579936E+03  0.22625111395E+04  0.22031897082E+04 0.  0.
        2    1    3    3  502    0  0.22418241425E+03  0.47088150305E+03 -0.12537956875E+04  0.13579362175E+04  0.25500000920E-02 0. -1.
       -2    1    3    3    0  502 -0.22418241425E+03 -0.47088150305E+03  0.73909988815E+03  0.90457492196E+03  0.25500000920E-02 0.  1.
</event>
<event>
 5   0  0.1007682E-05  0.2215463E+04  0.7818609E-02  0.8512020E-01
        1   -1    0    0  501    0  0.00000000000E+00  0.00000000000E+00  0.18377390390E+04  0.18377390390E+04  0.50400001928E-02 0. -1.
       -1   -1    0    0    0  501  0.00000000000E+00  0.00000000000E+00 -0.66770579616E+03  0.66770579618E+03  0.50400001928E-02 0.  1.
    10030    2    1    2    0    0  0.00000000000E+00  0.00000000000E+00  0.11700332428E+04  0.25054448352E+04  0.22154629387E+04 0.  0.
        2    1    3    3  502    0 -0.27374234345E+03  0.10648723846E+04  0.73750212090E+03  0.13239325679E+04  0.25500000920E-02 0.  1.
       -2    1    3    3    0  502  0.27374234345E+03 -0.10648723846E+04  0.43253112191E+03  0.11815122672E+04  0.25500000920E-02 0. -1.
</event>
<event>
 5   0  0.1007682E-05  0.2140698E+04  0.7818609E-02  0.8543525E-01
        1   -1    0    0  501    0  0.00000000000E+00  0.00000000000E+00  0.19083038660E+04  0.19083038660E+04  0.50400001928E-02 0.  1.
       -1   -1    0    0    0  501  0.00000000000E+00  0.00000000000E+00 -0.60034811135E+03  0.60034811137E+03  0.50400001928E-02 0. -1.
    10030    2    1    2    0    0  0.00000000000E+00  0.00000000000E+00  0.13079557546E+04  0.25086519774E+04  0.21406976637E+04 0.  0.
        2    1    3    3  502    0  0.44102271690E+03  0.41853887484E+03  0.16862822557E+04  0.17925467002E+04  0.25500000920E-02 0.  1.
       -2    1    3    3    0  502 -0.44102271690E+03 -0.41853887484E+03 -0.37832650104E+03  0.71610527716E+03  0.25500000920E-02 0. -1.
</event>
<event>
 5   0  0.1049198E-05  0.2188360E+04  0.7818609E-02  0.8523289E-01
        1   -1    0    0  501    0  0.00000000000E+00  0.00000000000E+00  0.14755385506E+04  0.14755385506E+04  0.50400001928E-02 0.  1.
       -1   -1    0    0    0  501  0.00000000000E+00  0.00000000000E+00 -0.81138496324E+03  0.81138496325E+03  0.50400001928E-02 0. -1.
    10030    2    1    2    0    0  0.00000000000E+00  0.00000000000E+00  0.66415358738E+03  0.22869235139E+04  0.21883599271E+04 0.  0.
        1    1    3    3  502    0 -0.64276770806E+03 -0.68698013066E+03 -0.25177960674E+03  0.97390194416E+03  0.50400001928E-02 0. -1.
       -1    1    3    3    0  502  0.64276770806E+03  0.68698013066E+03  0.91593319412E+03  0.13130215697E+04  0.50400001928E-02 0.  1.
</event>
<event>
 5   0  0.2284329E-05  0.2200409E+04  0.7818609E-02  0.8518258E-01
       -2   -1    0    0    0  501  0.00000000000E+00  0.00000000000E+00  0.99164451055E+03  0.99164451056E+03  0.25500000920E-02 0.  1.
        2   -1    0    0  501    0  0.00000000000E+00  0.00000000000E+00 -0.12206495622E+04  0.12206495622E+04  0.25500000920E-02 0. -1.
    10030    2    1    2    0    0  0.00000000000E+00  0.00000000000E+00 -0.22900505163E+03  0.22122940727E+04  0.22004094507E+04 0.  0.
        2    1    3    3  502    0  0.50436608996E+03 -0.64018440181E+03 -0.85756754566E+03  0.11830652207E+04  0.25500000920E-02 0. -1.
       -2    1    3    3    0  502 -0.50436608996E+03  0.64018440181E+03  0.62856249403E+03  0.10292288521E+04  0.25500000920E-02 0.  1.
</event>
<event>
 5   0  0.2298329E-05  0.2202582E+04  0.7818609E-02  0.8517354E-01
       -2   -1    0    0    0  501  0.00000000000E+00  0.00000000000E+00  0.74560809445E+03  0.74560809446E+03  0.25500000920E-02 0. -1.
        2   -1    0    0  501    0  0.00000000000E+00  0.00000000000E+00 -0.16266482821E+04  0.16266482821E+04  0.25500000920E-02 0.  1.
    10030    2    1    2    0    0  0.00000000000E+00  0.00000000000E+00 -0.88104018765E+03  0.23722563766E+04  0.22025822354E+04 0.  0.
        4    1    3    3  502    0  0.36428366874E+03 -0.10271341849E+04 -0.61126751162E+03  0.12495426398E+04  0.12699999809E+01 0.  1.
       -4    1    3    3    0  502 -0.36428366874E+03  0.10271341849E+04 -0.26977267604E+03  0.11227137367E+04  0.12699999809E+01 0. -1.
</event>
<event>
 5   0  0.1049198E-05  0.2200886E+04  0.7818609E-02  0.8518059E-01
        1   -1    0    0  501    0  0.00000000000E+00  0.00000000000E+00  0.95815803467E+03  0.95815803468E+03  0.50400001928E-02 0.  1.
       -1   -1    0    0    0  501  0.00000000000E+00  0.00000000000E+00 -0.12638571063E+04  0.12638571064E+04  0.50400001928E-02 0. -1.
    10030    2    1    2    0    0  0.00000000000E+00  0.00000000000E+00 -0.30569907168E+03  0.22220151410E+04  0.22008860408E+04 0.  0.
        1    1    3    3  502    0 -0.41675409539E+03  0.40065058704E+03  0.79249973125E+03  0.98094887379E+03  0.50400001928E-02 0.  1.
       -1    1    3    3    0  502  0.41675409539E+03 -0.40065058704E+03 -0.10981988029E+04  0.12410662673E+04  0.50400001928E-02 0. -1.
</event>
<event>
 5   0  0.2229552E-05  0.2197672E+04  0.7818609E-02  0.8519398E-01
       -2   -1    0    0    0  501  0.00000000000E+00  0.00000000000E+00  0.99601447489E+03  0.99601447490E+03  0.25500000920E-02 0. -1.
        2   -1    0    0  501    0  0.00000000000E+00  0.00000000000E+00 -0.12122723859E+04  0.12122723859E+04  0.25500000920E-02 0.  1.
    10030    2    1    2    0    0  0.00000000000E+00  0.00000000000E+00 -0.21625791102E+03  0.22082868608E+04  0.21976722630E+04 0.  0.
        1    1    3    3  502    0 -0.15367870874E+02  0.64405958089E+03  0.78633446183E+03  0.10165484745E+04  0.50400001928E-02 0. -1.
       -1    1    3    3    0  502  0.15367870874E+02 -0.64405958089E+03 -0.10025923729E+04  0.11917383863E+04  0.50400001928E-02 0.  1.
</event>
<event>
 5   0  0.1007682E-05  0.2203757E+04  0.7818609E-02  0.8516866E-01
       -1   -1    0    0    0  501  0.00000000000E+00  0.00000000000E+00  0.91980137427E+03  0.91980137428E+03  0.50400001928E-02 0.  1.
        1   -1    0    0  501    0  0.00000000000E+00  0.00000000000E+00 -0.13199978156E+04  0.13199978156E+04  0.50400001928E-02 0. -1.
    10030    2    1    2    0    0  0.00000000000E+00  0.00000000000E+00 -0.40019644132E+03  0.22397991899E+04  0.22037566153E+04 0.  0.
        2    1    3    3  502    0  0.80119827174E+03  0.58206627570E+03  0.29093486007E+03  0.10321641889E+04  0.25500000920E-02 0.  1.
       -2    1    3    3    0  502 -0.80119827174E+03 -0.58206627570E+03 -0.69113130139E+03  0.12076350010E+04  0.25500000920E-02 0. -1.
</event>
<event>
 5   0  0.1049198E-05  0.2198536E+04  0.7818609E-02  0.8519038E-01
        1   -1    0    0  501    0  0.00000000000E+00  0.00000000000E+00  0.17917861209E+04  0.17917861209E+04  0.50400001928E-02 0.  1.
       -1   -1    0    0    0  501  0.00000000000E+00  0.00000000000E+00 -0.67440540189E+03  0.67440540190E+03  0.50400001928E-02 0. -1.
    10030    2    1    2    0    0  0.00000000000E+00  0.00000000000E+00  0.11173807190E+04  0.24661915228E+04  0.21985360938E+04 0.  0.
        1    1    3    3  502    0 -0.92821393773E+03 -0.58632038651E+03  0.62051383627E+03  0.12611067088E+04  0.50400001928E-02 0.  1.
       -1    1    3    3    0  502  0.92821393773E+03  0.58632038651E+03  0.49686688271E+03  0.12050848140E+04  0.50400001928E-02 0. -1.
</event>
<event>
 5   0  0.1005538E-05  0.2204321E+04  0.7818609E-02  0.8516632E-01
        1   -1    0    0  501    0  0.00000000000E+00  0.00000000000E+00  0.16627523826E+04  0.16627523826E+04  0.50400001928E-02 0. -1.
       -1   -1    0    0    0  501  0.00000000000E+00  0.00000000000E+00 -0.73057028242E+03  0.73057028244E+03  0.50400001928E-02 0.  1.
    10030    2    1    2    0    0  0.00000000000E+00  0.00000000000E+00  0.93218210016E+03  0.23933226650E+04  0.22043207369E+04 0.  0.
        3    1    3    3  502    0 -0.79098549813E+02  0.10678615818E+04  0.18260534101E+03  0.10862456717E+04  0.10100000352E+00 0.  1.
       -3    1    3    3    0  502  0.79098549813E+02 -0.10678615818E+04  0.74957675915E+03  0.13070769933E+04  0.10100000352E+00 0. -1.
</event>
<event>
 5   0  0.1049198E-05  0.2206374E+04  0.7818609E-02  0.8515780E-01
        1   -1    0    0  501    0  0.00000000000E+00  0.00000000000E+00  0.18153028270E+04  0.18153028270E+04  0.50400001928E-02 0. -1.
       -1   -1    0    0    0  501  0.00000000000E+00  0.00000000000E+00 -0.67042335483E+03  0.67042335485E+03  0.50400001928E-02 0.  1.
    10030    2    1    2    0    0  0.00000000000E+00  0.00000000000E+00  0.11448794722E+04  0.24857261819E+04  0.22063738680E+04 0.  0.
        1    1    3    3  502    0  0.62940080898E+03 -0.52463839206E+02  0.15914619145E+04  0.17122058457E+04  0.50400001928E-02 0. -1.
       -1    1    3    3    0  502 -0.62940080898E+03  0.52463839206E+02 -0.44658244226E+03  0.77352033621E+03  0.50400001928E-02 0.  1.
</event>
<event>
 5   0  0.1049198E-05  0.2199622E+04  0.7818609E-02  0.8518585E-01
       -1   -1    0    0    0  501  0.00000000000E+00  0.00000000000E+00  0.75705895311E+03  0.75705895313E+03  0.50400001928E-02 0. -1.
        1   -1    0    0  501    0  0.00000000000E+00  0.00000000000E+00 -0.15977417913E+04  0.15977417914E+04  0.50400001928E-02 0.  1.
    10030    2    1    2    0    0  0.00000000000E+00  0.00000000000E+00 -0.84068283823E+03  0.23548007445E+04  0.21996224475E+04 0.  0.
        1    1    3    3  502    0 -0.10209453416E+04 -0.94922788566E+01 -0.85804389331E+03  0.13336636821E+04  0.50400001928E-02 0. -1.
       -1    1    3    3    0  502  0.10209453416E+04  0.94922788566E+01  0.17361055078E+02  0.10211370624E+04  0.50400001928E-02 0.  1.
</event>
<event>
 5   0  0.1007682E-05  0.2177553E+04  0.7818609E-02  0.8527829E-01
       -1   -1    0    0    0  501  0.00000000000E+00  0.00000000000E+00  0.11459059642E+04  0.11459059642E+04  0.50400001928E-02 0.  1.
        1   -1    0    0  501    0  0.00000000000E+00  0.00000000000E+00 -0.10344953124E+04  0.10344953125E+04  0.50400001928E-02 0. -1.
    10030    2    1    2    0    0  0.00000000000E+00  0.00000000000E+00  0.11141065173E+03  0.21804012767E+04  0.21775530749E+04 0.  0.
        2    1    3    3  502    0  0.40497174947E+03 -0.94711169735E+03 -0.29747640186E+03  0.10721543242E+04  0.25500000920E-02 0. -1.
       -2    1    3    3    0  502 -0.40497174947E+03  0.94711169735E+03  0.40888705360E+03  0.11082469525E+04  0.25500000920E-02 0.  1.
</event>
<event>
 5   0  0.1049198E-05  0.2181840E+04  0.7818609E-02  0.8526025E-01
       -1   -1    0    0    0  501  0.00000000000E+00  0.00000000000E+00  0.55341917549E+03  0.55341917551E+03  0.50400001928E-02 0. -1.
        1   -1    0    0  501    0  0.00000000000E+00  0.00000000000E+00 -0.21504605851E+04  0.21504605851E+04  0.50400001928E-02 0.  1.
    10030    2    1    2    0    0  0.00000000000E+00  0.00000000000E+00 -0.15970414096E+04  0.27038797606E+04  0.21818397045E+04 0.  0.
        1    1    3    3  502    0  0.91564253504E+03  0.52931758264E+03 -0.46708303034E+03  0.11561768517E+04  0.50400001928E-02 0. -1.
       -1    1    3    3    0  502 -0.91564253504E+03 -0.52931758264E+03 -0.11299583793E+04  0.15477029089E+04  0.50400001928E-02 0.  1.
</event>
<event>
 5   0  0.2284329E-05  0.2174506E+04  0.7818609E-02  0.8529115E-01
        2   -1    0    0  501    0  0.00000000000E+00  0.00000000000E+00  0.19606523830E+04  0.19606523830E+04  0.25500000920E-02 0.  1.
       -2   -1    0    0    0  501  0.00000000000E+00  0.00000000000E+00 -0.60292141974E+03  0.60292141974E+03  0.25500000920E-02 0. -1.
    10030    2    1    2    0    0  0.00000000000E+00  0.00000000000E+00  0.13577309633E+04  0.25635738028E+04  0.21745062137E+04 0.  0.
        2    1    3    3  502    0  0.53482637916E+03 -0.63348256561E+03 -0.15039543382E+03  0.84259017518E+03  0.25500000920E-02 0.  1.
       -2    1    3    3    0  502 -0.53482637916E+03  0.63348256561E+03  0.15081263971E+04  0.17209836276E+04  0.25500000920E-02 0. -1.
</event>
<event>
 5   0  0.1007682E-05  0.2203347E+04  0.7818609E-02  0.8517036E-01
        1   -1    0    0  501    0  0.00000000000E+00  0.00000000000E+00  0.90308334984E+03  0.90308334985E+03  0.50400001928E-02 0.  1.
       -1   -1    0    0    0  501  0.00000000000E+00  0.00000000000E+00 -0.13439345258E+04  0.13439345258E+04  0.50400001928E-02 0. -1.
    10030    2    1    2    0    0  0.00000000000E+00  0.00000000000E+00 -0.44085117597E+03  0.22470178757E+04  0.22033473567E+04 0.  0.
        2    1    3    3  502    0  0.40071862665E+03 -0.36183648252E+03  0.75891174690E+03  0.93136893733E+03  0.25500000920E-02 0.  1.
       -2    1    3    3    0  502 -0.40071862665E+03  0.36183648252E+03 -0.11997629229E+04  0.13156489383E+04  0.25500000920E-02 0. -1.
</event>
<event>
 5   0  0.1033733E-05  0.2185454E+04  0.7818609E-02  0.8524507E-01
       -1   -1    0    0    0  501  0.00000000000E+00  0.00000000000E+00  0.12879005115E+04  0.12879005115E+04  0.50400001928E-02 0.  1.
        1   -1    0    0  501    0  0.00000000000E+00  0.00000000000E+00 -0.92713084176E+03  0.92713084178E+03  0.50400001928E-02 0. -1.
    10030    2    1    2    0    0  0.00000000000E+00  0.00000000000E+00  0.36076966970E+03  0.22150313532E+04  0.21854539897E+04 0.  0.
        5    1    3    3  502    0 -0.32125960606E+03  0.79821846542E+03 -0.50228092012E+03  0.99632758957E+03  0.46999998093E+01 0. -1.
       -5    1    3    3    0  502  0.32125960606E+03 -0.79821846542E+03  0.86305058981E+03  0.12187037637E+04  0.46999998093E+01 0.  1.
</event>
<event>
 5   0  0.2229552E-05  0.2122684E+04  0.7818609E-02  0.8551316E-01
       -2   -1    0    0    0  501  0.00000000000E+00  0.00000000000E+00  0.95937083444E+03  0.95937083445E+03  0.25500000920E-02 0.  1.
        2   -1    0    0  501    0  0.00000000000E+00  0.00000000000E+00 -0.11741518819E+04  0.11741518819E+04  0.25500000920E-02 0. -1.
    10030    2    1    2    0    0  0.00000000000E+00  0.00000000000E+00 -0.21478104742E+03  0.21335227163E+04  0.21226842164E+04 0.  0.
        1    1    3    3  502    0  0.10482815794E+04  0.16462535881E+03 -0.12874263229E+03  0.10689108681E+04  0.50400001928E-02 0. -1.
       -1    1    3    3    0  502 -0.10482815794E+04 -0.16462535881E+03 -0.86038415128E+02  0.10646118482E+04  0.50400001928E-02 0.  1.
</event>
<event>
 5   0  0.2229552E-05  0.2196109E+04  0.7818609E-02  0.8520049E-01
       -2   -1    0    0    0  501  0.00000000000E+00  0.00000000000E+00  0.87015193501E+03  0.87015193501E+03  0.25500000920E-02 0.  1.
        2   -1    0    0  501    0  0.00000000000E+00  0.00000000000E+00 -0.13856474584E+04  0.13856474584E+04  0.25500000920E-02 0. -1.
    10030    2    1    2    0    0  0.00000000000E+00  0.00000000000E+00 -0.51549552338E+03  0.22557993934E+04  0.21961091204E+04 0.  0.
        1    1    3    3  502    0  0.10725371469E+04  0.52367349805E+02 -0.22065238669E+02  0.10740415008E+04  0.50400001928E-02 0.  1.
       -1    1    3    3    0  502 -0.10725371469E+04 -0.52367349805E+02 -0.49343028471E+03  0.11817578926E+04  0.50400001928E-02 0. -1.
</event>
<event>
 5   0  0.2284329E-05  0.2261633E+04  0.7818609E-02  0.8493204E-01
        2   -1    0    0  501    0  0.00000000000E+00  0.00000000000E+00  0.24287891831E+04  0.24287891831E+04  0.25500000920E-02 0.  1.
       -2   -1    0    0    0  501  0.00000000000E+00  0.00000000000E+00 -0.52649505615E+03  0.52649505616E+03  0.25500000920E-02 0. -1.
    10030    2    1    2    0    0  0.00000000000E+00  0.00000000000E+00  0.19022941269E+04  0.29552842392E+04  0.22616325938E+04 0.  0.
        2    1    3    3  502    0 -0.48662417300E+03  0.27441098068E+03  0.22358709970E+04  0.23046092049E+04  0.25500000920E-02 0.  1.
       -2    1    3    3    0  502  0.48662417300E+03 -0.27441098068E+03 -0.33357687007E+03  0.65067503434E+03  0.25500000920E-02 0. -1.
</event>
<event>
 5   0  0.2289708E-05  0.2204473E+04  0.7818609E-02  0.8516569E-01
       -2   -1    0    0    0  501  0.00000000000E+00  0.00000000000E+00  0.86669270566E+03  0.86669270566E+03  0.25500000920E-02 0.  1.
        2   -1    0    0  501    0  0.00000000000E+00  0.00000000000E+00 -0.14017951082E+04  0.14017951082E+04  0.25500000920E-02 0. -1.
    10030    2    1    2    0    0  0.00000000000E+00  0.00000000000E+00 -0.53510240252E+03  0.22684878138E+04  0.22044732660E+04 0.  0.
        5    1    3    3  502    0 -0.53191511895E+03 -0.69618864204E+03 -0.95577040114E+03  0.12965845398E+04  0.46999998093E+01 0. -1.
       -5    1    3    3    0  502  0.53191511895E+03  0.69618864204E+03  0.42066799863E+03  0.97190327406E+03  0.46999998093E+01 0.  1.
</event>
<event>
 5   0  0.1071208E-05  0.2201636E+04  0.7818609E-02  0.8517747E-01
        1   -1    0    0  501    0  0.00000000000E+00  0.00000000000E+00  0.14120345141E+04  0.14120345141E+04  0.50400001928E-02 0.  1.
       -1   -1    0    0    0  501  0.00000000000E+00  0.00000000000E+00 -0.85819483184E+03  0.85819483186E+03  0.50400001928E-02 0. -1.
    10030    2    1    2    0    0  0.00000000000E+00  0.00000000000E+00  0.55383968224E+03  0.22702293459E+04  0.22016364118E+04 0.  0.
        4    1    3    3  502    0  0.19586774606E+03  0.11085329675E+03 -0.83421723546E+03  0.86404434851E+03  0.12699999809E+01 0. -1.
       -4    1    3    3    0  502 -0.19586774606E+03 -0.11085329675E+03  0.13880569177E+04  0.14061849974E+04  0.12699999809E+01 0.  1.
</event>
<event>
 5   0  0.2229552E-05  0.2196517E+04  0.7818609E-02  0.8519879E-01
        2   -1    0    0  501    0  0.00000000000E+00  0.00000000000E+00  0.23254636125E+04  0.23254636125E+04  0.25500000920E-02 0.  1.
       -2   -1    0    0    0  501  0.00000000000E+00  0.00000000000E+00 -0.51867996914E+03  0.51867996915E+03  0.25500000920E-02 0. -1.
    10030    2    1    2    0    0  0.00000000000E+00  0.00000000000E+00  0.18067836434E+04  0.28441435816E+04  0.21965166922E+04 0.  0.
        1    1    3    3  502    0  0.31287341489E+03 -0.64396126505E+03 -0.17498400952E+03  0.73701783442E+03  0.50400001928E-02 0. -1.
       -1    1    3    3    0  502 -0.31287341489E+03  0.64396126505E+03  0.19817676529E+04  0.21071257472E+04  0.50400001928E-02 0.  1.
</event>
<event>
 5   0  0.1049198E-05  0.2198110E+04  0.7818609E-02  0.8519215E-01
        1   -1    0    0  501    0  0.00000000000E+00  0.00000000000E+00  0.13062133853E+04  0.13062133853E+04  0.50400001928E-02 0. -1.
       -1   -1    0    0    0  501  0.00000000000E+00  0.00000000000E+00 -0.92475050257E+03  0.92475050258E+03  0.50400001928E-02 0.  1.
    10030    2    1    2    0    0  0.00000000000E+00  0.00000000000E+00  0.38146288277E+03  0.22309638879E+04  0.21981096284E+04 0.  0.
        1    1    3    3  502    0  0.32755391848E+03 -0.10489579421E+04  0.20880634875E+03  0.11185724943E+04  0.50400001928E-02 0.  1.
       -1    1    3    3    0  502 -0.32755391848E+03  0.10489579421E+04  0.17265653402E+03  0.11123913936E+04  0.50400001928E-02 0. -1.
</event>
<event>
 5   0  0.1007682E-05  0.2193277E+04  0.7818609E-02  0.8521232E-01
       -1   -1    0    0    0  501  0.00000000000E+00  0.00000000000E+00  0.19741305124E+04  0.19741305124E+04  0.50400001928E-02 0.  1.
        1   -1    0    0  501    0  0.00000000000E+00  0.00000000000E+00 -0.60918751769E+03  0.60918751771E+03  0.50400001928E-02 0. -1.
    10030    2    1    2    0    0  0.00000000000E+00  0.00000000000E+00  0.13649429947E+04  0.25833180301E+04  0.21932766961E+04 0.  0.
        2    1    3    3  502    0 -0.72747228429E+03  0.15493488313E+03 -0.26668734005E+03  0.79015370642E+03  0.25500000920E-02 0. -1.
       -2    1    3    3    0  502  0.72747228429E+03 -0.15493488313E+03  0.16316303347E+04  0.17931643237E+04  0.25500000920E-02 0.  1.
</event>
<event>
 5   0  0.1049198E-05  0.2194311E+04  0.7818609E-02  0.8520800E-01
       -1   -1    0    0    0  501  0.00000000000E+00  0.00000000000E+00  0.86426896582E+03  0.86426896584E+03  0.50400001928E-02 0. -1.
        1   -1    0    0  501    0  0.00000000000E+00  0.00000000000E+00 -0.13927962861E+04  0.13927962861E+04  0.50400001928E-02 0.  1.
    10030    2    1    2    0    0  0.00000000000E+00  0.00000000000E+00 -0.52852732028E+03  0.22570652519E+04  0.21943113779E+04 0.  0.
        1    1    3    3  502    0 -0.90203457959E+03 -0.36244054375E+03 -0.78745646585E+03  0.12510464484E+04  0.50400001928E-02 0.  1.
       -1    1    3    3    0  502  0.90203457959E+03  0.36244054375E+03  0.25892914557E+03  0.10060188035E+04  0.50400001928E-02 0. -1.
</event>
<event>
 5   0  0.1033733E-05  0.2202925E+04  0.7818609E-02  0.8517212E-01
        1   -1    0    0  501    0  0.00000000000E+00  0.00000000000E+00  0.79155748663E+03  0.79155748665E+03  0.50400001928E-02 0. -1.
       -1   -1    0    0    0  501  0.00000000000E+00  0.00000000000E+00 -0.15326996848E+04  0.15326996848E+04  0.50400001928E-02 0.  1.
    10030    2    1    2    0    0  0.00000000000E+00  0.00000000000E+00 -0.74114219819E+03  0.23242571715E+04  0.22029252464E+04 0.  0.
        5    1    3    3  502    0  0.45864736658E+03  0.10009972450E+04 -0.33990246062E+03  0.11523491937E+04  0.46999998093E+01 0.  1.
       -5    1    3    3    0  502 -0.45864736658E+03 -0.10009972450E+04 -0.40123973758E+03  0.11719079778E+04  0.46999998093E+01 0. -1.
</event>
<event>
 5   0  0.1007682E-05  0.2180367E+04  0.7818609E-02  0.8526644E-01
       -1   -1    0    0    0  501  0.00000000000E+00  0.00000000000E+00  0.93979645358E+03  0.93979645359E+03  0.50400001928E-02 0. -1.
        1   -1    0    0  501    0  0.00000000000E+00  0.00000000000E+00 -0.12646359759E+04  0.12646359759E+04  0.50400001928E-02 0.  1.
    10030    2    1    2    0    0  0.00000000000E+00  0.00000000000E+00 -0.32483952234E+03  0.22044324295E+04  0.21803673133E+04 0.  0.
        2    1    3    3  502    0 -0.10032737979E+04 -0.10316905903E+03  0.25603024175E+03  0.10405544930E+04  0.25500000920E-02 0.  1.
       -2    1    3    3    0  502  0.10032737979E+04  0.10316905903E+03 -0.58086976410E+03  0.11638779365E+04  0.25500000920E-02 0. -1.
</event>
<event>
 5   0  0.2229552E-05  0.2198895E+04  0.7818609E-02  0.8518888E-01
       -2   -1    0    0    0  501  0.00000000000E+00  0.00000000000E+00  0.60940677059E+03  0.60940677059E+03  0.25500000920E-02 0.  1.
        2   -1    0    0  501    0  0.00000000000E+00  0.00000000000E+00 -0.19835426810E+04  0.19835426810E+04  0.25500000920E-02 0. -1.
    10030    2    1    2    0    0  0.00000000000E+00  0.00000000000E+00 -0.13741359104E+04  0.25929494516E+04  0.21988945764E+04 0.  0.
        1    1    3    3  502    0 -0.89205925825E+03  0.63997307808E+03 -0.75632136946E+03  0.13331756354E+04  0.50400001928E-02 0. -1.
       -1    1    3    3    0  502  0.89205925825E+03 -0.63997307808E+03 -0.61781454093E+03  0.12597738162E+04  0.50400001928E-02 0.  1.
</event>
<event>
 5   0  0.2319707E-05  0.2199460E+04  0.7818609E-02  0.8518653E-01
        2   -1    0    0  501    0  0.00000000000E+00  0.00000000000E+00  0.12534363347E+04  0.12534363347E+04  0.25500000920E-02 0. -1.
       -2   -1    0    0    0  501  0.00000000000E+00  0.00000000000E+00 -0.96487275068E+03  0.96487275068E+03  0.25500000920E-02 0.  1.
    10030    2    1    2    0    0  0.00000000000E+00  0.00000000000E+00  0.28856358398E+03  0.22183090853E+04  0.21994604466E+04 0.  0.
        3    1    3    3  502    0 -0.18072213455E+03  0.94834108004E+03  0.67547855427E+03  0.11782540395E+04  0.10100000352E+00 0.  1.
       -3    1    3    3    0  502  0.18072213455E+03 -0.94834108004E+03 -0.38691497029E+03  0.10400550459E+04  0.10100000352E+00 0. -1.
</event>
<event>
 5   0  0.1049198E-05  0.2198942E+04  0.7818609E-02  0.8518869E-01
       -1   -1    0    0    0  501  0.00000000000E+00  0.00000000000E+00  0.49530484903E+03  0.49530484905E+03  0.50400001928E-02 0.  1.
        1   -1    0    0  501    0  0.00000000000E+00  0.00000000000E+00 -0.24405902737E+04  0.24405902737E+04  0.50400001928E-02 0. -1.
    10030    2    1    2    0    0  0.00000000000E+00  0.00000000000E+00 -0.19452854246E+04  0.29358951227E+04  0.21989417428E+04 0.  0.
        1    1    3    3  502    0 -0.42709355858E+03  0.11763762507E+03 -0.23161602735E+04  0.23581445951E+04  0.50400001928E-02 0. -1.
       -1    1    3    3    0  502  0.42709355858E+03 -0.11763762507E+03  0.37087484890E+03  0.57775052763E+03  0.50400001928E-02 0.  1.
</event>
<event>
 5   0  0.1007682E-05  0.2068775E+04  0.7818609E-02  0.8575124E-01
        1   -1    0    0  501    0  0.00000000000E+00  0.00000000000E+00  0.53480234293E+03  0.53480234295E+03  0.50400001928E-02 0.  1.
       -1   -1    0    0    0  501  0.00000000000E+00  0.00000000000E+00 -0.20006592341E+04  0.20006592341E+04  0.50400001928E-02 0. -1.
    10030    2    1    2    0    0  0.00000000000E+00  0.00000000000E+00 -0.14658568911E+04  0.25354615770E+04  0.20687747541E+04 0.  0.
        2    1    3    3  502    0  0.84237609476E+03 -0.52305567459E+03 -0.37190539130E+03  0.10590081887E+04  0.25500000920E-02 0.  1.
       -2    1    3    3    0  502 -0.84237609476E+03  0.52305567459E+03 -0.10939514998E+04  0.14764533883E+04  0.25500000920E-02 0. -1.
</event>
<event>
 5   0  0.1049198E-05  0.2206185E+04  0.7818609E-02  0.8515858E-01
        1   -1    0    0  501    0  0.00000000000E+00  0.00000000000E+00  0.10981861970E+04  0.10981861970E+04  0.50400001928E-02 0.  1.
       -1   -1    0    0    0  501  0.00000000000E+00  0.00000000000E+00 -0.11080209335E+04  0.11080209335E+04  0.50400001928E-02 0. -1.
    10030    2    1    2    0    0  0.00000000000E+00  0.00000000000E+00 -0.98347364747E+01  0.22062071306E+04  0.22061852100E+04 0.  0.
        1    1    3    3  502    0  0.99259382399E+02 -0.10046972629E+04 -0.44938132148E+03  0.11050848778E+04  0.50400001928E-02 0. -1.
       -1    1    3    3    0  502 -0.99259382399E+02  0.10046972629E+04  0.43954658501E+03  0.11011222527E+04  0.50400001928E-02 0.  1.
</event>
<event>
 5   0  0.1007682E-05  0.2203600E+04  0.7818609E-02  0.8516931E-01
        1   -1    0    0  501    0  0.00000000000E+00  0.00000000000E+00  0.22421466678E+04  0.22421466679E+04  0.50400001928E-02 0. -1.
       -1   -1    0    0    0  501  0.00000000000E+00  0.00000000000E+00 -0.54142924466E+03  0.54142924468E+03  0.50400001928E-02 0.  1.
    10030    2    1    2    0    0  0.00000000000E+00  0.00000000000E+00  0.17007174232E+04  0.27835759125E+04  0.22036004872E+04 0.  0.
        2    1    3    3  502    0 -0.11320807222E+03  0.10009396149E+04  0.28647629633E+03  0.10472654146E+04  0.25500000920E-02 0.  1.
       -2    1    3    3    0  502  0.11320807222E+03 -0.10009396149E+04  0.14142411269E+04  0.17363104979E+04  0.25500000920E-02 0. -1.
</event>
<event>
 5   0  0.1005538E-05  0.2194731E+04  0.7818609E-02  0.8520624E-01
        1   -1    0    0  501    0  0.00000000000E+00  0.00000000000E+00  0.97533895099E+03  0.97533895101E+03  0.50400001928E-02 0.  1.
       -1   -1    0    0    0  501  0.00000000000E+00  0.00000000000E+00 -0.12346592603E+04  0.12346592603E+04  0.50400001928E-02 0. -1.
    10030    2    1    2    0    0  0.00000000000E+00  0.00000000000E+00 -0.25932030928E+03  0.22099982113E+04  0.21947312070E+04 0.  0.
        3    1    3    3  502    0 -0.82663666885E+02  0.93152754745E+03 -0.70779194317E+03  0.11728368593E+04  0.10100000352E+00 0. -1.
       -3    1    3    3    0  502  0.82663666885E+02 -0.93152754745E+03  0.44847163389E+03  0.10371613520E+04  0.10100000352E+00 0.  1.
</event>
<event>
 5   0  0.2229552E-05  0.2147692E+04  0.7818609E-02  0.8540521E-01
        2   -1    0    0  501    0  0.00000000000E+00  0.00000000000E+00  0.13640052457E+04  0.13640052457E+04  0.25500000920E-02 0.  1.
       -2   -1    0    0    0  501  0.00000000000E+00  0.00000000000E+00 -0.84541087782E+03  0.84541087782E+03  0.25500000920E-02 0. -1.
    10030    2    1    2    0    0  0.00000000000E+00  0.00000000000E+00  0.51859436786E+03  0.22094161235E+04  0.21476916651E+04 0.  0.
        1    1    3    3  502    0 -0.66774288360E+03 -0.42314893527E+03  0.10069648609E+04  0.12802006918E+04  0.50400001928E-02 0.  1.
       -1    1    3    3    0  502  0.66774288360E+03  0.42314893527E+03 -0.48837049308E+03  0.92921543173E+03  0.50400001928E-02 0. -1.
</event>
<event>
 5   0  0.1033733E-05  0.2224048E+04  0.7818609E-02  0.8508485E-01
        1   -1    0    0  501    0  0.00000000000E+00  0.00000000000E+00  0.10702829053E+04  0.10702829053E+04  0.50400001928E-02 0.  1.
       -1   -1    0    0    0  501  0.00000000000E+00  0.00000000000E+00 -0.11553935110E+04  0.11553935110E+04  0.50400001928E-02 0. -1.
    10030    2    1    2    0    0  0.00000000000E+00  0.00000000000E+00 -0.85110605681E+02  0.22256764163E+04  0.22240484920E+04 0.  0.
        5    1    3    3  502    0  0.37107813234E+03  0.10798759384E+03 -0.10860147997E+04  0.11527404460E+04  0.46999998093E+01 0. -1.
       -5    1    3    3    0  502 -0.37107813234E+03 -0.10798759384E+03  0.10009041940E+04  0.10729359703E+04  0.46999998093E+01 0.  1.
</event>
<event>
 5   0  0.2284329E-05  0.2204488E+04  0.7818609E-02  0.8516562E-01
        2   -1    0    0  501    0  0.00000000000E+00  0.00000000000E+00  0.24093240080E+04  0.24093240080E+04  0.25500000920E-02 0. -1.
       -2   -1    0    0    0  501  0.00000000000E+00  0.00000000000E+00 -0.50426667976E+03  0.50426667976E+03  0.25500000920E-02 0.  1.
    10030    2    1    2    0    0  0.00000000000E+00  0.00000000000E+00  0.19050573283E+04  0.29135906878E+04  0.22044879841E+04 0.  0.
        2    1    3    3  502    0 -0.27251131024E+03  0.88617230291E+02 -0.45417456144E+03  0.53701951546E+03  0.25500000920E-02 0.  1.
       -2    1    3    3    0  502  0.27251131024E+03 -0.88617230291E+02  0.23592318897E+04  0.23765711723E+04  0.25500000920E-02 0. -1.
</event>
<event>
 5   0  0.1007682E-05  0.2203098E+04  0.7818609E-02  0.8517140E-01
        1   -1    0    0  501    0  0.00000000000E+00  0.00000000000E+00  0.68217072862E+03  0.68217072863E+03  0.50400001928E-02 0. -1.
       -1   -1    0    0    0  501  0.00000000000E+00  0.00000000000E+00 -0.17787477935E+04  0.17787477935E+04  0.50400001928E-02 0.  1.
    10030    2    1    2    0    0  0.00000000000E+00  0.00000000000E+00 -0.10965770649E+04  0.24609185222E+04  0.22030975270E+04 0.  0.
        2    1    3    3  502    0 -0.38587742008E+03  0.10096887970E+04 -0.31123446550E+03  0.11248287615E+04  0.25500000920E-02 0.  1.
       -2    1    3    3    0  502  0.38587742008E+03 -0.10096887970E+04 -0.78534259941E+03  0.13360897607E+04  0.25500000920E-02 0. -1.
</event>
<event>
 5   0  0.2319707E-05  0.2193394E+04  0.7818609E-02  0.8521183E-01
        2   -1    0    0  501    0  0.00000000000E+00  0.00000000000E+00  0.90539689023E+03  0.90539689023E+03  0.25500000920E-02 0. -1.
       -2   -1    0    0    0  501  0.00000000000E+00  0.00000000000E+00 -0.13284172058E+04  0.13284172058E+04  0.25500000920E-02 0.  1.
    10030    2    1    2    0    0  0.00000000000E+00  0.00000000000E+00 -0.42302031553E+03  0.22338140960E+04  0.21933944534E+04 0.  0.
        3    1    3    3  502    0 -0.36294653906E+03 -0.83626509948E+03  0.40937621882E+03  0.99932897764E+03  0.10100000352E+00 0. -1.
       -3    1    3    3    0  502  0.36294653906E+03  0.83626509948E+03 -0.83239653435E+03  0.12344851183E+04  0.10100000352E+00 0.  1.
</event>
<event>
 5   0  0.1049198E-05  0.2204282E+04  0.7818609E-02  0.8516648E-01
       -1   -1    0    0    0  501  0.00000000000E+00  0.00000000000E+00  0.10817525936E+04  0.10817525936E+04  0.50400001928E-02 0. -1.
        1   -1    0    0  501    0  0.00000000000E+00  0.00000000000E+00 -0.11229136000E+04  0.11229136000E+04  0.50400001928E-02 0.  1.
    10030    2    1    2    0    0  0.00000000000E+00  0.00000000000E+00 -0.41161006445E+02  0.22046661936E+04  0.22042819232E+04 0.  0.
        1    1    3    3  502    0  0.10419990983E+04 -0.19388218774E+03  0.28173412194E+03  0.10966888980E+04  0.50400001928E-02 0. -1.
       -1    1    3    3    0  502 -0.10419990983E+04  0.19388218774E+03 -0.32289512838E+03  0.11079772956E+04  0.50400001928E-02 0.  1.
</event>
<event>
 5   0  0.2319707E-05  0.2217081E+04  0.7818609E-02  0.8511352E-01
        2   -1    0    0  501    0  0.00000000000E+00  0.00000000000E+00  0.13899889345E+04  0.13899889345E+04  0.25500000920E-02 0. -1.
       -2   -1    0    0    0  501  0.00000000000E+00  0.00000000000E+00 -0.88408046107E+03  0.88408046107E+03  0.25500000920E-02 0.  1.
    10030    2    1    2    0    0  0.00000000000E+00  0.00000000000E+00  0.50590847345E+03  0.22740693956E+04  0.22170810162E+04 0.  0.
        3    1    3    3  502    0 -0.39393509925E+03  0.59983768548E+03  0.11195814152E+04  0.13298318190E+04  0.10100000352E+00 0. -1.
       -3    1    3    3    0  502  0.39393509925E+03 -0.59983768548E+03 -0.61367294178E+03  0.94423757658E+03  0.10100000352E+00 0.  1.
</event>
<event>
 5   0  0.1005538E-05  0.2197296E+04  0.7818609E-02  0.8519554E-01
        1   -1    0    0  501    0  0.00000000000E+00  0.00000000000E+00  0.13102833900E+04  0.13102833900E+04  0.50400001928E-02 0. -1.
       -1   -1    0    0    0  501  0.00000000000E+00  0.00000000000E+00 -0.92119600547E+03  0.92119600548E+03  0.50400001928E-02 0.  1.
    10030    2    1    2    0    0  0.00000000000E+00  0.00000000000E+00  0.38908738452E+03  0.22314793955E+04  0.21972963614E+04 0.  0.
        3    1    3    3  502    0  0.25384107865E+03  0.15143411208E+03  0.12691450156E+04  0.13031103807E+04  0.10100000352E+00 0. -1.
       -3    1    3    3    0  502 -0.25384107865E+03 -0.15143411208E+03 -0.88005763104E+03  0.92836901481E+03  0.10100000352E+00 0.  1.
</event>
<event>
 5   0  0.1033733E-05  0.2176709E+04  0.7818609E-02  0.8528185E-01
       -1   -1    0    0    0  501  0.00000000000E+00  0.00000000000E+00  0.13925987278E+04  0.13925987278E+04  0.50400001928E-02 0. -1.
        1   -1    0    0  501    0  0.00000000000E+00  0.00000000000E+00 -0.85057896391E+03  0.85057896392E+03  0.50400001928E-02 0.  1.
    10030    2    1    2    0    0  0.00000000000E+00  0.00000000000E+00  0.54201976388E+03  0.22431776917E+04  0.21767086925E+04 0.  0.
        5    1    3    3  502    0 -0.37913607890E+03 -0.52282278044E+03 -0.63175728042E+03  0.90345291932E+03  0.46999998093E+01 0.  1.
       -5    1    3    3    0  502  0.37913607890E+03  0.52282278044E+03  0.11737770443E+04  0.13397247724E+04  0.46999998093E+01 0. -1.
</event>
<event>
 5   0  0.1005538E-05  0.2201257E+04  0.7818609E-02  0.8517905E-01
       -1   -1    0    0    0  501  0.00000000000E+00  0.00000000000E+00  0.94754891279E+03  0.94754891280E+03  0.50400001928E-02 0. -1.
        1   -1    0    0  501    0  0.00000000000E+00  0.00000000000E+00 -0.12784383479E+04  0.12784383479E+04  0.50400001928E-02 0.  1.
    10030    2    1    2    0    0  0.00000000000E+00  0.00000000000E+00 -0.33088943511E+03  0.22259872607E+04  0.22012567925E+04 0.  0.
        3    1    3    3  502    0 -0.70215789412E+03  0.48765830451E+03  0.53555797569E+03  0.10087907046E+04  0.10100000352E+00 0. -1.
       -3    1    3    3    0  502  0.70215789412E+03 -0.48765830451E+03 -0.86644741080E+03  0.12171965561E+04  0.10100000352E+00 0.  1.
</event>
<event>
 5   0  0.2289708E-05  0.2194165E+04  0.7818609E-02  0.8520861E-01
       -2   -1    0    0    0  501  0.00000000000E+00  0.00000000000E+00  0.86025305793E+03  0.86025305793E+03  0.25500000920E-02 0. -1.
        2   -1    0    0  501    0  0.00000000000E+00  0.00000000000E+00 -0.13991113357E+04  0.13991113357E+04  0.25500000920E-02 0.  1.
    10030    2    1    2    0    0  0.00000000000E+00  0.00000000000E+00 -0.53885827775E+03  0.22593643936E+04  0.21941648114E+04 0.  0.
        5    1    3    3  502    0  0.46097055297E+03  0.23836492386E+03 -0.12647199363E+04  0.13670589947E+04  0.46999998093E+01 0.  1.
       -5    1    3    3    0  502 -0.46097055297E+03 -0.23836492386E+03  0.72586165855E+03  0.89230539894E+03  0.46999998093E+01 0. -1.
</event>
<event>
 5   0  0.2229552E-05  0.2199667E+04  0.7818609E-02  0.8518567E-01
        2   -1    0    0  501    0  0.00000000000E+00  0.00000000000E+00  0.12555904070E+04  0.12555904070E+04  0.25500000920E-02 0.  1.
       -2   -1    0    0    0  501  0.00000000000E+00  0.00000000000E+00 -0.96339795612E+03  0.96339795612E+03  0.25500000920E-02 0. -1.
    10030    2    1    2    0    0  0.00000000000E+00  0.00000000000E+00  0.29219245088E+03  0.22189883631E+04  0.21996665491E+04 0.  0.
        1    1    3    3  502    0 -0.58962420158E+03 -0.92594804518E+03  0.21449111177E+03  0.11185002988E+04  0.50400001928E-02 0.  1.
       -1    1    3    3    0  502  0.58962420158E+03  0.92594804518E+03  0.77701339110E+02  0.11004880643E+04  0.50400001928E-02 0. -1.
</event>
<event>
 5   0  0.2229552E-05  0.2194051E+04  0.7818609E-02  0.8520908E-01
        2   -1    0    0  501    0  0.00000000000E+00  0.00000000000E+00  0.65400722781E+03  0.65400722781E+03  0.25500000920E-02 0.  1.
       -2   -1    0    0    0  501  0.00000000000E+00  0.00000000000E+00 -0.18401393504E+04  0.18401393504E+04  0.25500000920E-02 0. -1.
    10030    2    1    2    0    0  0.00000000000E+00  0.00000000000E+00 -0.11861321226E+04  0.24941465782E+04  0.21940505330E+04 0.  0.
        1    1    3    3  502    0 -0.44985082262E+03 -0.57736417789E+03  0.33586195380E+03  0.80530640663E+03  0.50400001928E-02 0.  1.
       -1    1    3    3    0  502  0.44985082262E+03  0.57736417789E+03 -0.15219940764E+04  0.16888401716E+04  0.50400001928E-02 0. -1.
</event>
<event>
 5   0  0.1007682E-05  0.2201267E+04  0.7818609E-02  0.8517901E-01
       -1   -1    0    0    0  501  0.00000000000E+00  0.00000000000E+00  0.64418617583E+03  0.64418617585E+03  0.50400001928E-02 0. -1.
        1   -1    0    0  501    0  0.00000000000E+00  0.00000000000E+00 -0.18805034433E+04  0.18805034433E+04  0.50400001928E-02 0.  1.
    10030    2    1    2    0    0  0.00000000000E+00  0.00000000000E+00 -0.12363172674E+04  0.25246896191E+04  0.22012672003E+04 0.  0.
        2    1    3    3  502    0 -0.91313730252E+03 -0.57987570123E+03 -0.38502288659E+03  0.11481803801E+04  0.25500000920E-02 0. -1.
       -2    1    3    3    0  502  0.91313730252E+03  0.57987570123E+03 -0.85129438084E+03  0.13765092390E+04  0.25500000920E-02 0.  1.
</event>
<event>
 5   0  0.8003875E-06  0.2211174E+04  0.7818609E-02  0.8513792E-01
        4   -1    0    0  501    0  0.00000000000E+00  0.00000000000E+00  0.12137733707E+04  0.12137740351E+04  0.12699999809E+01 0.  1.
       -4   -1    0    0    0  501  0.00000000000E+00  0.00000000000E+00 -0.10070423955E+04  0.10070431963E+04  0.12699999809E+01 0. -1.
    10030    2    1    2    0    0  0.00000000000E+00  0.00000000000E+00  0.20673097519E+03  0.22208172314E+04  0.22111742308E+04 0.  0.
        3    1    3    3  502    0  0.69145586904E+02 -0.56888618088E+03  0.10529569804E+04  0.11988039922E+04  0.10100000352E+00 0.  1.
       -3    1    3    3    0  502 -0.69145586904E+02  0.56888618088E+03 -0.84622600518E+03  0.10220132392E+04  0.10100000352E+00 0. -1.
</event>
<event>
 5   0  0.2284329E-05  0.2200237E+04  0.7818609E-02  0.8518329E-01
        2   -1    0    0  501    0  0.00000000000E+00  0.00000000000E+00  0.79791877609E+03  0.79791877609E+03  0.25500000920E-02 0. -1.
       -2   -1    0    0    0  501  0.00000000000E+00  0.00000000000E+00 -0.15167723108E+04  0.15167723108E+04  0.25500000920E-02 0.  1.
    10030    2    1    2    0    0  0.00000000000E+00  0.00000000000E+00 -0.71885353469E+03  0.23146910869E+04  0.22002373561E+04 0.  0.
        2    1    3    3  502    0  0.10936486261E+04  0.11375470356E+03 -0.39667560207E+03  0.11689135910E+04  0.25500000920E-02 0. -1.
       -2    1    3    3    0  502 -0.10936486261E+04 -0.11375470356E+03 -0.32217793262E+03  0.11457774959E+04  0.25500000920E-02 0.  1.
</event>
<event>
 5   0  0.1033733E-05  0.2205200E+04  0.7818609E-02  0.8516267E-01
        1   -1    0    0  501    0  0.00000000000E+00  0.00000000000E+00  0.10351785510E+04  0.10351785510E+04  0.50400001928E-02 0.  1.
       -1   -1    0    0    0  501  0.00000000000E+00  0.00000000000E+00 -0.11744128070E+04  0.11744128070E+04  0.50400001928E-02 0. -1.
    10030    2    1    2    0    0  0.00000000000E+00  0.00000000000E+00 -0.13923425600E+03  0.22095913580E+04  0.22052001703E+04 0.  0.
        5    1    3    3  502    0 -0.22197347774E+03  0.19050115243E+02 -0.11516144986E+04  0.11729762040E+04  0.46999998093E+01 0. -1.
       -5    1    3    3    0  502  0.22197347774E+03 -0.19050115243E+02  0.10123802426E+04  0.10366151539E+04  0.46999998093E+01 0.  1.
</event>
<event>
 5   0  0.1071208E-05  0.2213032E+04  0.7818609E-02  0.8513023E-01
       -1   -1    0    0    0  501  0.00000000000E+00  0.00000000000E+00  0.58987153681E+03  0.58987153683E+03  0.50400001928E-02 0. -1.
        1   -1    0    0  501    0  0.00000000000E+00  0.00000000000E+00 -0.20756682437E+04  0.20756682437E+04  0.50400001928E-02 0.  1.
    10030    2    1    2    0    0  0.00000000000E+00  0.00000000000E+00 -0.14857967069E+04  0.26655397805E+04  0.22130319626E+04 0.  0.
        4    1    3    3  502    0  0.88959020265E+03  0.54754972333E+03 -0.30331549233E+03  0.10877423082E+04  0.12699999809E+01 0. -1.
       -4    1    3    3    0  502 -0.88959020265E+03 -0.54754972333E+03 -0.11824812146E+04  0.15777974724E+04  0.12699999809E+01 0.  1.
</event>
<event>
 5   0  0.1005538E-05  0.2202564E+04  0.7818609E-02  0.8517362E-01
        1   -1    0    0  501    0  0.00000000000E+00  0.00000000000E+00  0.10270258880E+04  0.10270258880E+04  0.50400001928E-02 0.  1.
       -1   -1    0    0    0  501  0.00000000000E+00  0.00000000000E+00 -0.11809068339E+04  0.11809068339E+04  0.50400001928E-02 0. -1.
    10030    2    1    2    0    0  0.00000000000E+00  0.00000000000E+00 -0.15388094588E+03  0.22079327219E+04  0.22025638604E+04 0.  0.
        3    1    3    3  502    0  0.12074983576E+03  0.10395117460E+04 -0.42078778515E+03  0.11279306553E+04  0.10100000352E+00 0.  1.
       -3    1    3    3    0  502 -0.12074983576E+03 -0.10395117460E+04  0.26690683927E+03  0.10800020666E+04  0.10100000352E+00 0. -1.
</event>
<event>
 5   0  0.1033733E-05  0.2158136E+04  0.7818609E-02  0.8536058E-01
        1   -1    0    0  501    0  0.00000000000E+00  0.00000000000E+00  0.31146843569E+04  0.31146843569E+04  0.50400001928E-02 0. -1.
       -1   -1    0    0    0  501  0.00000000000E+00  0.00000000000E+00 -0.37383815844E+03  0.37383815847E+03  0.50400001928E-02 0.  1.
    10030    2    1    2    0    0  0.00000000000E+00  0.00000000000E+00  0.27408461985E+04  0.34885225154E+04  0.21581361071E+04 0.  0.
        5    1    3    3  502    0 -0.76330022229E+03  0.67528483965E+03  0.79725724540E+03  0.12939389666E+04  0.46999998093E+01 0.  1.
       -5    1    3    3    0  502  0.76330022229E+03 -0.67528483965E+03  0.19435889531E+04  0.21945835488E+04  0.46999998093E+01 0. -1.
</event>
<event>
 5   0  0.2284329E-05  0.2201662E+04  0.7818609E-02  0.8517737E-01
        2   -1    0    0  501    0  0.00000000000E+00  0.00000000000E+00  0.25412428969E+04  0.25412428969E+04  0.25500000920E-02 0.  1.
       -2   -1    0    0    0  501  0.00000000000E+00  0.00000000000E+00 -0.47686480442E+03  0.47686480443E+03  0.25500000920E-02 0. -1.
    10030    2    1    2    0    0  0.00000000000E+00  0.00000000000E+00  0.20643780925E+04  0.30181077013E+04  0.22016623692E+04 0.  0.
        2    1    3    3  502    0  0.27170905831E+03 -0.87822500097E+03  0.20204419761E+03  0.94123685781E+03  0.25500000920E-02 0. -1.
       -2    1    3    3    0  502 -0.27170905831E+03  0.87822500097E+03  0.18623338948E+04  0.20768708435E+04  0.25500000920E-02 0.  1.
</event>
<event>
 5   0  0.2284329E-05  0.2198934E+04  0.7818609E-02  0.8518872E-01
       -2   -1    0    0    0  501  0.00000000000E+00  0.00000000000E+00  0.12801326222E+04  0.12801326222E+04  0.25500000920E-02 0. -1.
        2   -1    0    0  501    0  0.00000000000E+00  0.00000000000E+00 -0.94429865568E+03  0.94429865568E+03  0.25500000920E-02 0.  1.
    10030    2    1    2    0    0  0.00000000000E+00  0.00000000000E+00  0.33583396651E+03  0.22244312779E+04  0.21989338455E+04 0.  0.
        2    1    3    3  502    0 -0.66980825042E+03 -0.28488259436E+03  0.10015024541E+04  0.12380663757E+04  0.25500000920E-02 0. -1.
       -2    1    3    3    0  502  0.66980825042E+03  0.28488259436E+03 -0.66566848762E+03  0.98636490221E+03  0.25500000920E-02 0.  1.
</event>
<event>
 5   0  0.1071208E-05  0.2192775E+04  0.7818609E-02  0.8521441E-01
       -1   -1    0    0    0  501  0.00000000000E+00  0.00000000000E+00  0.69601125343E+03  0.69601125345E+03  0.50400001928E-02 0. -1.
        1   -1    0    0  501    0  0.00000000000E+00  0.00000000000E+00 -0.17270771366E+04  0.17270771366E+04  0.50400001928E-02 0.  1.
    10030    2    1    2    0    0  0.00000000000E+00  0.00000000000E+00 -0.10310658831E+04  0.24230883900E+04  0.21927746101E+04 0.  0.
        4    1    3    3  502    0  0.95358273153E+03  0.41136766419E+03 -0.90390156043E+03  0.13768017377E+04  0.12699999809E+01 0.  1.
       -4    1    3    3    0  502 -0.95358273153E+03 -0.41136766419E+03 -0.12716432270E+03  0.10462866523E+04  0.12699999809E+01 0. -1.
</event>
<event>
 5   0  0.1049198E-05  0.2217299E+04  0.7818609E-02  0.8511262E-01
       -1   -1    0    0    0  501  0.00000000000E+00  0.00000000000E+00  0.10975241075E+04  0.10975241075E+04  0.50400001928E-02 0. -1.
        1   -1    0    0  501    0  0.00000000000E+00  0.00000000000E+00 -0.11198880641E+04  0.11198880641E+04  0.50400001928E-02 0.  1.
    10030    2    1    2    0    0  0.00000000000E+00  0.00000000000E+00 -0.22363956646E+02  0.22174121716E+04  0.22172993916E+04 0.  0.
        1    1    3    3  502    0 -0.51269412551E+03  0.42068739675E+03  0.87727245966E+03  0.10997454799E+04  0.50400001928E-02 0. -1.
       -1    1    3    3    0  502  0.51269412551E+03 -0.42068739675E+03 -0.89963641631E+03  0.11176666917E+04  0.50400001928E-02 0.  1.
</event>
<event>
 5   0  0.1049198E-05  0.2201982E+04  0.7818609E-02  0.8517603E-01
       -1   -1    0    0    0  501  0.00000000000E+00  0.00000000000E+00  0.58614267289E+03  0.58614267291E+03  0.50400001928E-02 0.  1.
        1   -1    0    0  501    0  0.00000000000E+00  0.00000000000E+00 -0.20680656888E+04  0.20680656888E+04  0.50400001928E-02 0. -1.
    10030    2    1    2    0    0  0.00000000000E+00  0.00000000000E+00 -0.14819230159E+04  0.26542083617E+04  0.22019823347E+04 0.  0.
        1    1    3    3  502    0  0.78737473186E+03  0.39241792938E+03  0.56982847558E+02  0.88158825117E+03  0.50400001928E-02 0.  1.
       -1    1    3    3    0  502 -0.78737473186E+03 -0.39241792938E+03 -0.15389058635E+04  0.17726201106E+04  0.50400001928E-02 0. -1.
</event>
<event>
 5   0  0.1033733E-05  0.2202576E+04  0.7818609E-02  0.8517357E-01
       -1   -1    0    0    0  501  0.00000000000E+00  0.00000000000E+00  0.88478250334E+03  0.88478250335E+03  0.50400001928E-02 0. -1.
        1   -1    0    0  501    0  0.00000000000E+00  0.00000000000E+00 -0.13707720364E+04  0.13707720364E+04  0.50400001928E-02 0.  1.
    10030    2    1    2    0    0  0.00000000000E+00  0.00000000000E+00 -0.48598953308E+03  0.22555545398E+04  0.22025758683E+04 0.  0.
        5    1    3    3  502    0 -0.99471533112E+03  0.39572901494E+03  0.21585705876E+02  0.10707698520E+04  0.46999998093E+01 0.  1.
       -5    1    3    3    0  502  0.99471533112E+03 -0.39572901494E+03 -0.50757523895E+03  0.11847846878E+04  0.46999998093E+01 0. -1.
</event>
<event>
 5   0  0.2229552E-05  0.2200072E+04  0.7818609E-02  0.8518398E-01
       -2   -1    0    0    0  501  0.00000000000E+00  0.00000000000E+00  0.45535471858E+03  0.45535471858E+03  0.25500000920E-02 0.  1.
        2   -1    0    0  501    0  0.00000000000E+00  0.00000000000E+00 -0.26574436254E+04  0.26574436254E+04  0.25500000920E-02 0. -1.
    10030    2    1    2    0    0  0.00000000000E+00  0.00000000000E+00 -0.22020889068E+04  0.31127983440E+04  0.22000722662E+04 0.  0.
        1    1    3    3  502    0  0.29224090168E+02  0.71577574707E+03  0.80081794250E+02  0.72083428146E+03  0.50400001928E-02 0.  1.
       -1    1    3    3    0  502 -0.29224090168E+02 -0.71577574707E+03 -0.22821707010E+04  0.23919640625E+04  0.50400001928E-02 0. -1.
</event>
<event>
 5   0  0.2319707E-05  0.2185717E+04  0.7818609E-02  0.8524397E-01
       -2   -1    0    0    0  501  0.00000000000E+00  0.00000000000E+00  0.13203943992E+04  0.13203943992E+04  0.25500000920E-02 0.  1.
        2   -1    0    0  501    0  0.00000000000E+00  0.00000000000E+00 -0.90453229554E+03  0.90453229554E+03  0.25500000920E-02 0. -1.
    10030    2    1    2    0    0  0.00000000000E+00  0.00000000000E+00  0.41586210366E+03  0.22249266947E+04  0.21857167034E+04 0.  0.
        3    1    3    3  502    0 -0.90579616349E+03  0.14712241227E+03  0.81206546101E+03  0.12253823963E+04  0.10100000352E+00 0.  1.
       -3    1    3    3    0  502  0.90579616349E+03 -0.14712241227E+03 -0.39620335734E+03  0.99954429845E+03  0.10100000352E+00 0. -1.
</event>
<event>
 5   0  0.2229552E-05  0.2172940E+04  0.7818609E-02  0.8529776E-01
        2   -1    0    0  501    0  0.00000000000E+00  0.00000000000E+00  0.19511774199E+04  0.19511774199E+04  0.25500000920E-02 0. -1.
       -2   -1    0    0    0  501  0.00000000000E+00  0.00000000000E+00 -0.60497686857E+03  0.60497686858E+03  0.25500000920E-02 0.  1.
    10030    2    1    2    0    0  0.00000000000E+00  0.00000000000E+00  0.13462005513E+04  0.25561542885E+04  0.21729401331E+04 0.  0.
        1    1    3    3  502    0 -0.60750462213E+02 -0.77488742547E+03  0.15661067217E+04  0.17483796512E+04  0.50400001928E-02 0. -1.
       -1    1    3    3    0  502  0.60750462213E+02  0.77488742547E+03 -0.21990617042E+03  0.80777463728E+03  0.50400001928E-02 0.  1.
</event>
<event>
 5   0  0.2319707E-05  0.2201181E+04  0.7818609E-02  0.8517937E-01
       -2   -1    0    0    0  501  0.00000000000E+00  0.00000000000E+00  0.92469458425E+03  0.92469458425E+03  0.25500000920E-02 0.  1.
        2   -1    0    0  501    0  0.00000000000E+00  0.00000000000E+00 -0.13099455241E+04  0.13099455241E+04  0.25500000920E-02 0. -1.
    10030    2    1    2    0    0  0.00000000000E+00  0.00000000000E+00 -0.38525093982E+03  0.22346401083E+04  0.22011810755E+04 0.  0.
        3    1    3    3  502    0  0.16903134164E+03 -0.13980538134E+03  0.90227773487E+03  0.92855923890E+03  0.10100000352E+00 0.  1.
       -3    1    3    3    0  502 -0.16903134164E+03  0.13980538134E+03 -0.12875286747E+04  0.13060808694E+04  0.10100000352E+00 0. -1.
</event>
<event>
 5   0  0.2289708E-05  0.2197862E+04  0.7818609E-02  0.8519318E-01
       -2   -1    0    0    0  501  0.00000000000E+00  0.00000000000E+00  0.14041055435E+04  0.14041055435E+04  0.25500000920E-02 0. -1.
        2   -1    0    0  501    0  0.00000000000E+00  0.00000000000E+00 -0.86008469723E+03  0.86008469723E+03  0.25500000920E-02 0.  1.
    10030    2    1    2    0    0  0.00000000000E+00  0.00000000000E+00  0.54402084632E+03  0.22641902408E+04  0.21978623172E+04 0.  0.
        5    1    3    3  502    0 -0.69074381715E+03 -0.32882885655E+03 -0.54070314651E+03  0.93682304651E+03  0.46999998093E+01 0.  1.
       -5    1    3    3    0  502  0.69074381715E+03  0.32882885655E+03  0.10847239928E+04  0.13273671943E+04  0.46999998093E+01 0. -1.
</event>
<event>
 5   0  0.8003875E-06  0.2201277E+04  0.7818609E-02  0.8517897E-01
       -4   -1    0    0    0  501  0.00000000000E+00  0.00000000000E+00  0.69324682873E+03  0.69324799202E+03  0.12699999809E+01 0. -1.
        4   -1    0    0  501    0  0.00000000000E+00  0.00000000000E+00 -0.17474338425E+04  0.17474343040E+04  0.12699999809E+01 0.  1.
    10030    2    1    2    0    0  0.00000000000E+00  0.00000000000E+00 -0.10541870138E+04  0.24406822960E+04  0.22012768590E+04 0.  0.
        1    1    3    3  502    0 -0.49076217788E+03  0.58503510283E+03  0.35176129218E+03  0.84074347662E+03  0.50400001928E-02 0. -1.
       -1    1    3    3    0  502  0.49076217788E+03 -0.58503510283E+03 -0.14059483059E+04  0.15999388194E+04  0.50400001928E-02 0.  1.
</event>
<event>
 5   0  0.1005538E-05  0.2202392E+04  0.7818609E-02  0.8517433E-01
        1   -1    0    0  501    0  0.00000000000E+00  0.00000000000E+00  0.14032586171E+04  0.14032586171E+04  0.50400001928E-02 0.  1.
       -1   -1    0    0    0  501  0.00000000000E+00  0.00000000000E+00 -0.86415450023E+03  0.86415450025E+03  0.50400001928E-02 0. -1.
    10030    2    1    2    0    0  0.00000000000E+00  0.00000000000E+00  0.53910411686E+03  0.22674131173E+04  0.22023916536E+04 0.  0.
        3    1    3    3  502    0  0.19888679607E+02  0.72430509110E+03 -0.58415717330E+03  0.93072715545E+03  0.10100000352E+00 0. -1.
       -3    1    3    3    0  502 -0.19888679607E+02 -0.72430509110E+03  0.11232612902E+04  0.13366859619E+04  0.10100000352E+00 0.  1.
</event>
<event>
 5   0  0.2229552E-05  0.2192691E+04  0.7818609E-02  0.8521476E-01
        2   -1    0    0  501    0  0.00000000000E+00  0.00000000000E+00  0.10178312608E+04  0.10178312608E+04  0.25500000920E-02 0.  1.
       -2   -1    0    0    0  501  0.00000000000E+00  0.00000000000E+00 -0.11809163145E+04  0.11809163145E+04  0.25500000920E-02 0. -1.
    10030    2    1    2    0    0  0.00000000000E+00  0.00000000000E+00 -0.16308505370E+03  0.21987475753E+04  0.21926910784E+04 0.  0.
        1    1    3    3  502    0  0.95437814620E+03  0.48284693993E+03  0.15994359767E+03  0.10814623284E+04  0.50400001928E-02 0.  1.
       -1    1    3    3    0  502 -0.95437814620E+03 -0.48284693993E+03 -0.32302865137E+03  0.11172852469E+04  0.50400001928E-02 0. -1.
</event>
<event>
 5   0  0.1005538E-05  0.2200457E+04  0.7818609E-02  0.8518238E-01
        1   -1    0    0  501    0  0.00000000000E+00  0.00000000000E+00  0.14288527917E+04  0.14288527917E+04  0.50400001928E-02 0. -1.
       -1   -1    0    0    0  501  0.00000000000E+00  0.00000000000E+00 -0.84718525583E+03  0.84718525584E+03  0.50400001928E-02 0.  1.
    10030    2    1    2    0    0  0.00000000000E+00  0.00000000000E+00  0.58166753586E+03  0.22760380475E+04  0.22004572415E+04 0.  0.
        3    1    3    3  502    0  0.10199386925E+04 -0.40520609409E+03  0.21047291694E+03  0.11174818899E+04  0.10100000352E+00 0.  1.
       -3    1    3    3    0  502 -0.10199386925E+04  0.40520609409E+03  0.37119461892E+03  0.11585561577E+04  0.10100000352E+00 0. -1.
</event>
<event>
 5   0  0.1007682E-05  0.2211303E+04  0.7818609E-02  0.8513738E-01
       -1   -1    0    0    0  501  0.00000000000E+00  0.00000000000E+00  0.95643291811E+03  0.95643291812E+03  0.50400001928E-02 0. -1.
        1   -1    0    0  501    0  0.00000000000E+00  0.00000000000E+00 -0.12781510000E+04  0.12781510000E+04  0.50400001928E-02 0.  1.
    10030    2    1    2    0    0  0.00000000000E+00  0.00000000000E+00 -0.32171808193E+03  0.22345839182E+04  0.22113034082E+04 0.  0.
        2    1    3    3  502    0 -0.39534737863E+03 -0.32305973257E+03 -0.11518972359E+04  0.12599739611E+04  0.25500000920E-02 0.  1.
       -2    1    3    3    0  502  0.39534737863E+03  0.32305973257E+03  0.83017915401E+03  0.97460995703E+03  0.25500000920E-02 0. -1.
</event>
<event>
 5   0  0.1071208E-05  0.2185650E+04  0.7818609E-02  0.8524425E-01
       -1   -1    0    0    0  501  0.00000000000E+00  0.00000000000E+00  0.84793233913E+03  0.84793233915E+03  0.50400001928E-02 0.  1.
        1   -1    0    0  501    0  0.00000000000E+00  0.00000000000E+00 -0.14084450613E+04  0.14084450613E+04  0.50400001928E-02 0. -1.
    10030    2    1    2    0    0  0.00000000000E+00  0.00000000000E+00 -0.56051272214E+03  0.22563774004E+04  0.21856496658E+04 0.  0.
        4    1    3    3  502    0  0.15073108695E+03 -0.85943792294E+03 -0.95950777383E+03  0.12969233535E+04  0.12699999809E+01 0. -1.
       -4    1    3    3    0  502 -0.15073108695E+03  0.85943792294E+03  0.39899505169E+03  0.95945404691E+03  0.12699999809E+01 0.  1.
</event>
<event>
 5   0  0.2298329E-05  0.2200752E+04  0.7818609E-02  0.8518115E-01
       -2   -1    0    0    0  501  0.00000000000E+00  0.00000000000E+00  0.93578708830E+03  0.93578708830E+03  0.25500000920E-02 0. -1.
        2   -1    0    0  501    0  0.00000000000E+00  0.00000000000E+00 -0.12939138592E+04  0.12939138592E+04  0.25500000920E-02 0.  1.
    10030    2    1    2    0    0  0.00000000000E+00  0.00000000000E+00 -0.35812677086E+03  0.22297009475E+04  0.22007524920E+04 0.  0.
        4    1    3    3  502    0 -0.55747401693E+03  0.81955138688E+03  0.30511872926E+03  0.10370828352E+04  0.12699999809E+01 0. -1.
       -4    1    3    3    0  502  0.55747401693E+03 -0.81955138688E+03 -0.66324550012E+03  0.11926181122E+04  0.12699999809E+01 0.  1.
</event>
<event>
 5   0  0.1033733E-05  0.2187718E+04  0.7818609E-02  0.8523557E-01
        1   -1    0    0  501    0  0.00000000000E+00  0.00000000000E+00  0.67636861646E+03  0.67636861648E+03  0.50400001928E-02 0. -1.
       -1   -1    0    0    0  501  0.00000000000E+00  0.00000000000E+00 -0.17690471435E+04  0.17690471435E+04  0.50400001928E-02 0.  1.
    10030    2    1    2    0    0  0.00000000000E+00  0.00000000000E+00 -0.10926785271E+04  0.24454157600E+04  0.21877184179E+04 0.  0.
        5    1    3    3  502    0 -0.78991919269E+03 -0.31354475231E+03  0.22341605580E+03  0.87876018723E+03  0.46999998093E+01 0. -1.
       -5    1    3    3    0  502  0.78991919269E+03  0.31354475231E+03 -0.13160945829E+04  0.15666555728E+04  0.46999998093E+01 0.  1.
</event>
<event>
 5   0  0.1033733E-05  0.2210573E+04  0.7818609E-02  0.8514040E-01
       -1   -1    0    0    0  501  0.00000000000E+00  0.00000000000E+00  0.46299427307E+03  0.46299427309E+03  0.50400001928E-02 0.  1.
        1   -1    0    0  501    0  0.00000000000E+00  0.00000000000E+00 -0.26386033678E+04  0.26386033678E+04  0.50400001928E-02 0. -1.
    10030    2    1    2    0    0  0.00000000000E+00  0.00000000000E+00 -0.21756090948E+04  0.31015976409E+04  0.22105730011E+04 0.  0.
        5    1    3    3  502    0  0.43140202884E+03  0.10175294296E+04 -0.10699293823E+04  0.15382603238E+04  0.46999998093E+01 0.  1.
       -5    1    3    3    0  502 -0.43140202884E+03 -0.10175294296E+04 -0.11056797124E+04  0.15633373171E+04  0.46999998093E+01 0. -1.
</event>
<event>
 5   0  0.1033733E-05  0.2198695E+04  0.7818609E-02  0.8518971E-01
       -1   -1    0    0    0  501  0.00000000000E+00  0.00000000000E+00  0.12035199499E+04  0.12035199499E+04  0.50400001928E-02 0. -1.
        1   -1    0    0  501    0  0.00000000000E+00  0.00000000000E+00 -0.10041920839E+04  0.10041920839E+04  0.50400001928E-02 0.  1.
    10030    2    1    2    0    0  0.00000000000E+00  0.00000000000E+00  0.19932786600E+03  0.22077120338E+04  0.21986952554E+04 0.  0.
        5    1    3    3  502    0 -0.83537638467E+03 -0.55777566002E+03 -0.34890711962E+03  0.10633558478E+04  0.46999998093E+01 0.  1.
       -5    1    3    3    0  502  0.83537638467E+03  0.55777566002E+03  0.54823498562E+03  0.11443561860E+04  0.46999998093E+01 0. -1.
</event>
<event>
 5   0  0.2289708E-05  0.2214530E+04  0.7818609E-02  0.8512405E-01
        2   -1    0    0  501    0  0.00000000000E+00  0.00000000000E+00  0.90427047669E+03  0.90427047670E+03  0.25500000920E-02 0. -1.
       -2   -1    0    0    0  501  0.00000000000E+00  0.00000000000E+00 -0.13558290310E+04  0.13558290310E+04  0.25500000920E-02 0.  1.
    10030    2    1    2    0    0  0.00000000000E+00  0.00000000000E+00 -0.45155855431E+03  0.22600995077E+04  0.22145303468E+04 0.  0.
        5    1    3    3  502    0 -0.69494077920E+03 -0.61680063848E+03 -0.84035699102E+03  0.12528398447E+04  0.46999998093E+01 0.  1.
       -5    1    3    3    0  502  0.69494077920E+03  0.61680063848E+03  0.38879843671E+03  0.10072596630E+04  0.46999998093E+01 0. -1.
</event>
<event>
 5   0  0.2229552E-05  0.2202723E+04  0.7818609E-02  0.8517296E-01
       -2   -1    0    0    0  501  0.00000000000E+00  0.00000000000E+00  0.79381328449E+03  0.79381328449E+03  0.25500000920E-02 0. -1.
        2   -1    0    0  501    0  0.00000000000E+00  0.00000000000E+00 -0.15280634190E+04  0.15280634190E+04  0.25500000920E-02 0.  1.
    10030    2    1    2    0    0  0.00000000000E+00  0.00000000000E+00 -0.73425013452E+03  0.23218767035E+04  0.22027228982E+04 0.  0.
        1    1    3    3  502    0  0.10856633570E+04  0.17523511429E+03 -0.30366221308E+03  0.11408694096E+04  0.50400001928E-02 0. -1.
       -1    1    3    3    0  502 -0.10856633570E+04 -0.17523511429E+03 -0.43058792144E+03  0.11810072939E+04  0.50400001928E-02 0.  1.
</event>
<event>
 5   0  0.1007682E-05  0.2177082E+04  0.7818609E-02  0.8528028E-01
        1   -1    0    0  501    0  0.00000000000E+00  0.00000000000E+00  0.10396016489E+04  0.10396016489E+04  0.50400001928E-02 0.  1.
       -1   -1    0    0    0  501  0.00000000000E+00  0.00000000000E+00 -0.11397843437E+04  0.11397843437E+04  0.50400001928E-02 0. -1.
    10030    2    1    2    0    0  0.00000000000E+00  0.00000000000E+00 -0.10018269482E+03  0.21793859926E+04  0.21770821602E+04 0.  0.
        2    1    3    3  502    0 -0.87184494608E+03 -0.37201892961E+03  0.48564784236E+03  0.10650659702E+04  0.25500000920E-02 0.  1.
       -2    1    3    3    0  502  0.87184494608E+03  0.37201892961E+03 -0.58583053718E+03  0.11143200224E+04  0.25500000920E-02 0. -1.
</event>
<event>
 5   0  0.8003875E-06  0.2197866E+04  0.7818609E-02  0.8519317E-01
        4   -1    0    0  501    0  0.00000000000E+00  0.00000000000E+00  0.53342412713E+03  0.53342563896E+03  0.12699999809E+01 0.  1.
       -4   -1    0    0    0  501  0.00000000000E+00  0.00000000000E+00 -0.22639595193E+04  0.22639598755E+04  0.12699999809E+01 0. -1.
    10030    2    1    2    0    0  0.00000000000E+00  0.00000000000E+00 -0.17305353922E+04  0.27973855145E+04  0.21978655494E+04 0.  0.
        4    1    3    3  502    0 -0.44790763031E+03  0.97819305473E+03 -0.58018702957E+03  0.12223344468E+04  0.12699999809E+01 0.  1.
       -4    1    3    3    0  502  0.44790763031E+03 -0.97819305473E+03 -0.11503483626E+04  0.15750510677E+04  0.12699999809E+01 0. -1.
</event>
<event>
 5   0  0.2229552E-05  0.2206898E+04  0.7818609E-02  0.8515563E-01
       -2   -1    0    0    0  501  0.00000000000E+00  0.00000000000E+00  0.76128583782E+03  0.76128583782E+03  0.25500000920E-02 0. -1.
        2   -1    0    0  501    0  0.00000000000E+00  0.00000000000E+00 -0.15993982777E+04  0.15993982777E+04  0.25500000920E-02 0.  1.
    10030    2    1    2    0    0  0.00000000000E+00  0.00000000000E+00 -0.83811243984E+03  0.23606841155E+04  0.22068976033E+04 0.  0.
        1    1    3    3  502    0  0.84275925815E+03 -0.63549457656E+03 -0.74919032370E+02  0.10581632131E+04  0.50400001928E-02 0. -1.
       -1    1    3    3    0  502 -0.84275925815E+03  0.63549457656E+03 -0.76319340747E+03  0.13025209024E+04  0.50400001928E-02 0.  1.
</event>
<event>
 5   0  0.2229552E-05  0.2201525E+04  0.7818609E-02  0.8517794E-01
       -2   -1    0    0    0  501  0.00000000000E+00  0.00000000000E+00  0.12753025504E+04  0.12753025504E+04  0.25500000920E-02 0. -1.
        2   -1    0    0  501    0  0.00000000000E+00  0.00000000000E+00 -0.95011053551E+03  0.95011053551E+03  0.25500000920E-02 0.  1.
    10030    2    1    2    0    0  0.00000000000E+00  0.00000000000E+00  0.32519201487E+03  0.22254130859E+04  0.22015252795E+04 0.  0.
        1    1    3    3  502    0 -0.22618104588E+03 -0.55136746468E+03 -0.77292664095E+03  0.97600181297E+03  0.50400001928E-02 0.  1.
       -1    1    3    3    0  502  0.22618104588E+03  0.55136746468E+03  0.10981186558E+04  0.12494112729E+04  0.50400001928E-02 0. -1.
</event>
<event>
 5   0  0.2319707E-05  0.2199643E+04  0.7818609E-02  0.8518577E-01
        2   -1    0    0  501    0  0.00000000000E+00  0.00000000000E+00  0.10969678599E+04  0.10969678599E+04  0.25500000920E-02 0.  1.
       -2   -1    0    0    0  501  0.00000000000E+00  0.00000000000E+00 -0.11026821573E+04  0.11026821573E+04  0.25500000920E-02 0. -1.
    10030    2    1    2    0    0  0.00000000000E+00  0.00000000000E+00 -0.57142973927E+01  0.21996500172E+04  0.21996425949E+04 0.  0.
        3    1    3    3  502    0  0.94579977687E+03  0.31728228593E+03  0.46017962752E+03  0.10986221219E+04  0.10100000352E+00 0.  1.
       -3    1    3    3    0  502 -0.94579977687E+03 -0.31728228593E+03 -0.46589392491E+03  0.11010278954E+04  0.10100000352E+00 0. -1.
</event>
<event>
 5   0  0.1071208E-05  0.2192481E+04  0.7818609E-02  0.8521564E-01
        1   -1    0    0  501    0  0.00000000000E+00  0.00000000000E+00  0.13854669455E+04  0.13854669455E+04  0.50400001928E-02 0.  1.
       -1   -1    0    0    0  501  0.00000000000E+00  0.00000000000E+00 -0.86739209856E+03  0.86739209858E+03  0.50400001928E-02 0. -1.
    10030    2    1    2    0    0  0.00000000000E+00  0.00000000000E+00  0.51807484693E+03  0.22528590441E+04  0.21924808609E+04 0.  0.
        4    1    3    3  502    0  0.47304807478E+03  0.34239992301E+03 -0.69426675674E+03  0.90720456940E+03  0.12699999809E+01 0. -1.
       -4    1    3    3    0  502 -0.47304807478E+03 -0.34239992301E+03  0.12123416037E+04  0.13456544747E+04  0.12699999809E+01 0.  1.
</event>
<event>
 5   0  0.1071208E-05  0.2179284E+04  0.7818609E-02  0.8527100E-01
        1   -1    0    0  501    0  0.00000000000E+00  0.00000000000E+00  0.13965094268E+04  0.13965094268E+04  0.50400001928E-02 0.  1.
       -1   -1    0    0    0  501  0.00000000000E+00  0.00000000000E+00 -0.85020522766E+03  0.85020522767E+03  0.50400001928E-02 0. -1.
    10030    2    1    2    0    0  0.00000000000E+00  0.00000000000E+00  0.54630419917E+03  0.22467146545E+04  0.21792839330E+04 0.  0.
        4    1    3    3  502    0  0.50294282133E+03  0.18615362453E+03  0.12510334939E+04  0.13611359481E+04  0.12699999809E+01 0.  1.
       -4    1    3    3    0  502 -0.50294282133E+03 -0.18615362453E+03 -0.70472929474E+03  0.88557870639E+03  0.12699999809E+01 0. -1.
</event>
<event>
 5   0  0.1049198E-05  0.2204633E+04  0.7818609E-02  0.8516502E-01
       -1   -1    0    0    0  501  0.00000000000E+00  0.00000000000E+00  0.52953649005E+03  0.52953649008E+03  0.50400001928E-02 0.  1.
        1   -1    0    0  501    0  0.00000000000E+00  0.00000000000E+00 -0.22946514253E+04  0.22946514253E+04  0.50400001928E-02 0. -1.
    10030    2    1    2    0    0  0.00000000000E+00  0.00000000000E+00 -0.17651149352E+04  0.28241879153E+04  0.22046329959E+04 0.  0.
        1    1    3    3  502    0  0.59114870034E+03  0.28815146799E+03  0.25070624988E+03  0.70380514219E+03  0.50400001928E-02 0.  1.
       -1    1    3    3    0  502 -0.59114870034E+03 -0.28815146799E+03 -0.20158211851E+04  0.21203827731E+04  0.50400001928E-02 0. -1.
</event>
<event>
 5   0  0.2289708E-05  0.2211043E+04  0.7818609E-02  0.8513846E-01
       -2   -1    0    0    0  501  0.00000000000E+00  0.00000000000E+00  0.57242243278E+03  0.57242243278E+03  0.25500000920E-02 0.  1.
        2   -1    0    0  501    0  0.00000000000E+00  0.00000000000E+00 -0.21350980582E+04  0.21350980582E+04  0.25500000920E-02 0. -1.
    10030    2    1    2    0    0  0.00000000000E+00  0.00000000000E+00 -0.15626756254E+04  0.27075204910E+04  0.22110432150E+04 0.  0.
        5    1    3    3  502    0 -0.45187737943E+03  0.68090072221E+03 -0.16930577354E+04  0.18799695595E+04  0.46999998093E+01 0. -1.
       -5    1    3    3    0  502  0.45187737943E+03 -0.68090072221E+03  0.13038210993E+03  0.82755093144E+03  0.46999998093E+01 0.  1.
</event>
<event>
 5   0  0.1005538E-05  0.2175066E+04  0.7818609E-02  0.8528878E-01
       -1   -1    0    0    0  501  0.00000000000E+00  0.00000000000E+00  0.10196136820E+04  0.10196136820E+04  0.50400001928E-02 0.  1.
        1   -1    0    0  501    0  0.00000000000E+00  0.00000000000E+00 -0.11599767275E+04  0.11599767275E+04  0.50400001928E-02 0. -1.
    10030    2    1    2    0    0  0.00000000000E+00  0.00000000000E+00 -0.14036304556E+03  0.21795904095E+04  0.21750661067E+04 0.  0.
        3    1    3    3  502    0 -0.20447257781E+03 -0.17877098926E+03  0.98508065824E+03  0.10218375679E+04  0.10100000352E+00 0.  1.
       -3    1    3    3    0  502  0.20447257781E+03  0.17877098926E+03 -0.11254437038E+04  0.11577528416E+04  0.10100000352E+00 0. -1.
</event>
<event>
 5   0  0.2289708E-05  0.2181261E+04  0.7818609E-02  0.8526268E-01
        2   -1    0    0  501    0  0.00000000000E+00  0.00000000000E+00  0.82947128053E+03  0.82947128053E+03  0.25500000920E-02 0.  1.
       -2   -1    0    0    0  501  0.00000000000E+00  0.00000000000E+00 -0.14340159134E+04  0.14340159134E+04  0.25500000920E-02 0. -1.
    10030    2    1    2    0    0  0.00000000000E+00  0.00000000000E+00 -0.60454463292E+03  0.22634871940E+04  0.21812611178E+04 0.  0.
        5    1    3    3  502    0  0.36216368498E+03  0.83462084765E+03  0.32181261530E+03  0.96505955434E+03  0.46999998093E+01 0.  1.
       -5    1    3    3    0  502 -0.36216368498E+03 -0.83462084765E+03 -0.92635724822E+03  0.12984276396E+04  0.46999998093E+01 0. -1.
</event>
<event>
 5   0  0.2229552E-05  0.2215420E+04  0.7818609E-02  0.8512037E-01
       -2   -1    0    0    0  501  0.00000000000E+00  0.00000000000E+00  0.11548966640E+04  0.11548966640E+04  0.25500000920E-02 0.  1.
        2   -1    0    0  501    0  0.00000000000E+00  0.00000000000E+00 -0.10624510871E+04  0.10624510871E+04  0.25500000920E-02 0. -1.
    10030    2    1    2    0    0  0.00000000000E+00  0.00000000000E+00  0.92445576895E+02  0.22173477510E+04  0.22154197942E+04 0.  0.
        1    1    3    3  502    0  0.27867359436E+03 -0.83735300259E+03 -0.62383886791E+03  0.10807376908E+04  0.50400001928E-02 0. -1.
       -1    1    3    3    0  502 -0.27867359436E+03  0.83735300259E+03  0.71628444481E+03  0.11366100602E+04  0.50400001928E-02 0.  1.
</event>
<event>
 5   0  0.2298329E-05  0.2313809E+04  0.7818609E-02  0.8472496E-01
       -2   -1    0    0    0  501  0.00000000000E+00  0.00000000000E+00  0.10779614502E+04  0.10779614503E+04  0.25500000920E-02 0.  1.
        2   -1    0    0  501    0  0.00000000000E+00  0.00000000000E+00 -0.12416291861E+04  0.12416291861E+04  0.25500000920E-02 0. -1.
    10030    2    1    2    0    0  0.00000000000E+00  0.00000000000E+00 -0.16366773580E+03  0.23195906363E+04  0.23138093250E+04 0.  0.
        4    1    3    3  502    0  0.27535015501E+03 -0.75286111393E+03 -0.91806988645E+03  0.12187992017E+04  0.12699999809E+01 0. -1.
       -4    1    3    3    0  502 -0.27535015501E+03  0.75286111393E+03  0.75440215065E+03  0.11007914346E+04  0.12699999809E+01 0.  1.
</event>
<event>
 5   0  0.2289708E-05  0.2199579E+04  0.7818609E-02  0.8518603E-01
        2   -1    0    0  501    0  0.00000000000E+00  0.00000000000E+00  0.84418771983E+03  0.84418771984E+03  0.25500000920E-02 0. -1.
       -2   -1    0    0    0  501  0.00000000000E+00  0.00000000000E+00 -0.14327821773E+04  0.14327821773E+04  0.25500000920E-02 0.  1.
    10030    2    1    2    0    0  0.00000000000E+00  0.00000000000E+00 -0.58859445747E+03  0.22769698971E+04  0.21995791591E+04 0.  0.
        5    1    3    3  502    0 -0.17110112555E+03  0.61058719166E+03  0.63588529262E+03  0.89803369043E+03  0.46999998093E+01 0. -1.
       -5    1    3    3    0  502  0.17110112555E+03 -0.61058719166E+03 -0.12244797501E+04  0.13789362067E+04  0.46999998093E+01 0.  1.
</event>
<event>
 5   0  0.1071208E-05  0.2211808E+04  0.7818609E-02  0.8513529E-01
       -1   -1    0    0    0  501  0.00000000000E+00  0.00000000000E+00  0.28235876927E+04  0.28235876927E+04  0.50400001928E-02 0.  1.
        1   -1    0    0  501    0  0.00000000000E+00  0.00000000000E+00 -0.43314544867E+03  0.43314544869E+03  0.50400001928E-02 0. -1.
    10030    2    1    2    0    0  0.00000000000E+00  0.00000000000E+00  0.23904422440E+04  0.32567331414E+04  0.22118084529E+04 0.  0.
        4    1    3    3  502    0 -0.53952879324E+03 -0.76464324767E+03  0.32754630189E+03  0.99149322122E+03  0.12699999809E+01 0. -1.
       -4    1    3    3    0  502  0.53952879324E+03  0.76464324767E+03  0.20628959422E+04  0.22652399202E+04  0.12699999809E+01 0.  1.
</event>
<event>
 5   0  0.2229552E-05  0.2187865E+04  0.7818609E-02  0.8523496E-01
        2   -1    0    0  501    0  0.00000000000E+00  0.00000000000E+00  0.94708993559E+03  0.94708993559E+03  0.25500000920E-02 0. -1.
       -2   -1    0    0    0  501  0.00000000000E+00  0.00000000000E+00 -0.12635425571E+04  0.12635425571E+04  0.25500000920E-02 0.  1.
    10030    2    1    2    0    0  0.00000000000E+00  0.00000000000E+00 -0.31645262151E+03  0.22106324927E+04  0.21878651138E+04 0.  0.
        1    1    3    3  502    0  0.10103345538E+04 -0.41249236122E+03 -0.81524697282E+02  0.10943363902E+04  0.50400001928E-02 0. -1.
       -1    1    3    3    0  502 -0.10103345538E+04  0.41249236122E+03 -0.23492792422E+03  0.11162961024E+04  0.50400001928E-02 0.  1.
</event>
<event>
 5   0  0.1071208E-05  0.2127561E+04  0.7818609E-02  0.8549199E-01
       -1   -1    0    0    0  501  0.00000000000E+00  0.00000000000E+00  0.11037973898E+04  0.11037973898E+04  0.50400001928E-02 0.  1.
        1   -1    0    0  501    0  0.00000000000E+00  0.00000000000E+00 -0.10252146741E+04  0.10252146741E+04  0.50400001928E-02 0. -1.
    10030    2    1    2    0    0  0.00000000000E+00  0.00000000000E+00  0.78582715751E+02  0.21290120639E+04  0.21275613093E+04 0.  0.
        4    1    3    3  502    0  0.98014055229E+03 -0.17192987763E+03 -0.33698669876E+03  0.10506174533E+04  0.12699999809E+01 0. -1.
       -4    1    3    3    0  502 -0.98014055229E+03  0.17192987763E+03  0.41556941451E+03  0.10783946106E+04  0.12699999809E+01 0.  1.
</event>
<event>
 5   0  0.1007682E-05  0.2182143E+04  0.7818609E-02  0.8525898E-01
        1   -1    0    0  501    0  0.00000000000E+00  0.00000000000E+00  0.38424512381E+03  0.38424512384E+03  0.50400001928E-02 0. -1.
       -1   -1    0    0    0  501  0.00000000000E+00  0.00000000000E+00 -0.30981187961E+04  0.30981187961E+04  0.50400001928E-02 0.  1.
    10030    2    1    2    0    0  0.00000000000E+00  0.00000000000E+00 -0.27138736723E+04  0.34823639200E+04  0.21821430205E+04 0.  0.
        2    1    3    3  502    0  0.10243544876E+03 -0.15480846248E+03 -0.30727334052E+04  0.30783354691E+04  0.25500000920E-02 0.  1.
       -2    1    3    3    0  502 -0.10243544876E+03  0.15480846248E+03  0.35885973285E+03  0.40402845084E+03  0.25500000920E-02 0. -1.
</event>
<event>
 5   0  0.1007682E-05  0.2199518E+04  0.7818609E-02  0.8518629E-01
        1   -1    0    0  501    0  0.00000000000E+00  0.00000000000E+00  0.16345959598E+04  0.16345959598E+04  0.50400001928E-02 0. -1.
       -1   -1    0    0    0  501  0.00000000000E+00  0.00000000000E+00 -0.73991999736E+03  0.73991999738E+03  0.50400001928E-02 0.  1.
    10030    2    1    2    0    0  0.00000000000E+00  0.00000000000E+00  0.89467596244E+03  0.23745159572E+04  0.21995183457E+04 0.  0.
        2    1    3    3  502    0 -0.53062606480E+03 -0.91833148776E+03  0.13338497494E+03  0.10689659927E+04  0.25500000920E-02 0. -1.
       -2    1    3    3    0  502  0.53062606480E+03  0.91833148776E+03  0.76129098750E+03  0.13055499645E+04  0.25500000920E-02 0.  1.
</event>
<event>
 5   0  0.1049198E-05  0.2185916E+04  0.7818609E-02  0.8524313E-01
        1   -1    0    0  501    0  0.00000000000E+00  0.00000000000E+00  0.20424257782E+04  0.20424257782E+04  0.50400001928E-02 0. -1.
       -1   -1    0    0    0  501  0.00000000000E+00  0.00000000000E+00 -0.58487163320E+03  0.58487163323E+03  0.50400001928E-02 0.  1.
    10030    2    1    2    0    0  0.00000000000E+00  0.00000000000E+00  0.14575541450E+04  0.26272974115E+04  0.21859157355E+04 0.  0.
        1    1    3    3  502    0 -0.58704158051E+03 -0.11290663686E+03  0.18285123137E+04  0.19237523249E+04  0.50400001928E-02 0. -1.
       -1    1    3    3    0  502  0.58704158051E+03  0.11290663686E+03 -0.37095816872E+03  0.70354508659E+03  0.50400001928E-02 0.  1.
</event>
<event>
 5   0  0.1071208E-05  0.2200453E+04  0.7818609E-02  0.8518240E-01
       -1   -1    0    0    0  501  0.00000000000E+00  0.00000000000E+00  0.99810442813E+03  0.99810442814E+03  0.50400001928E-02 0. -1.
        1   -1    0    0  501    0  0.00000000000E+00  0.00000000000E+00 -0.12127970984E+04  0.12127970984E+04  0.50400001928E-02 0.  1.
    10030    2    1    2    0    0  0.00000000000E+00  0.00000000000E+00 -0.21469267030E+03  0.22109015266E+04  0.22004528210E+04 0.  0.
        4    1    3    3  502    0 -0.37635256815E+03 -0.89482247238E+03 -0.62763533323E+03  0.11559741507E+04  0.12699999809E+01 0.  1.
       -4    1    3    3    0  502  0.37635256815E+03  0.89482247238E+03  0.41294266293E+03  0.10549273759E+04  0.12699999809E+01 0. -1.
</event>
<event>
 5   0  0.2298329E-05  0.2202316E+04  0.7818609E-02  0.8517465E-01
       -2   -1    0    0    0  501  0.00000000000E+00  0.00000000000E+00  0.12361804643E+04  0.12361804643E+04  0.25500000920E-02 0.  1.
        2   -1    0    0  501    0  0.00000000000E+00  0.00000000000E+00 -0.98088351042E+03  0.98088351042E+03  0.25500000920E-02 0. -1.
    10030    2    1    2    0    0  0.00000000000E+00  0.00000000000E+00  0.25529695392E+03  0.22170639748E+04  0.22023160839E+04 0.  0.
        4    1    3    3  502    0 -0.35676764232E+03  0.24310348860E+03 -0.89213310929E+03  0.99110320066E+03  0.12699999809E+01 0. -1.
       -4    1    3    3    0  502  0.35676764232E+03 -0.24310348860E+03  0.11474300632E+04  0.12259607741E+04  0.12699999809E+01 0.  1.
</event>
<event>
 5   0  0.2298329E-05  0.2206487E+04  0.7818609E-02  0.8515733E-01
       -2   -1    0    0    0  501  0.00000000000E+00  0.00000000000E+00  0.50756249113E+03  0.50756249114E+03  0.25500000920E-02 0.  1.
        2   -1    0    0  501    0  0.00000000000E+00  0.00000000000E+00 -0.23980229901E+04  0.23980229901E+04  0.25500000920E-02 0. -1.
    10030    2    1    2    0    0  0.00000000000E+00  0.00000000000E+00 -0.18904604990E+04  0.29055854813E+04  0.22064872741E+04 0.  0.
        4    1    3    3  502    0  0.10485554655E+04 -0.69616684233E+02 -0.13875580746E+04  0.17405844048E+04  0.12699999809E+01 0.  1.
       -4    1    3    3    0  502 -0.10485554655E+04  0.69616684233E+02 -0.50290242443E+03  0.11650010765E+04  0.12699999809E+01 0. -1.
</event>
<event>
 5   0  0.1033733E-05  0.2180688E+04  0.7818609E-02  0.8526510E-01
       -1   -1    0    0    0  501  0.00000000000E+00  0.00000000000E+00  0.84887159824E+03  0.84887159826E+03  0.50400001928E-02 0.  1.
        1   -1    0    0  501    0  0.00000000000E+00  0.00000000000E+00 -0.14005059632E+04  0.14005059632E+04  0.50400001928E-02 0. -1.
    10030    2    1    2    0    0  0.00000000000E+00  0.00000000000E+00 -0.55163436499E+03  0.22493775615E+04  0.21806877222E+04 0.  0.
        5    1    3    3  502    0  0.93136363791E+03 -0.54489674015E+03 -0.11443795343E+03  0.10851123530E+04  0.46999998093E+01 0. -1.
       -5    1    3    3    0  502 -0.93136363791E+03  0.54489674015E+03 -0.43719641156E+03  0.11642652085E+04  0.46999998093E+01 0.  1.
</event>
<event>
 5   0  0.2284329E-05  0.2200530E+04  0.7818609E-02  0.8518208E-01
        2   -1    0    0  501    0  0.00000000000E+00  0.00000000000E+00  0.21488575179E+04  0.21488575179E+04  0.25500000920E-02 0. -1.
       -2   -1    0    0    0  501  0.00000000000E+00  0.00000000000E+00 -0.56336107961E+03  0.56336107961E+03  0.25500000920E-02 0.  1.
    10030    2    1    2    0    0  0.00000000000E+00  0.00000000000E+00  0.15854964383E+04  0.27122185975E+04  0.22005296555E+04 0.  0.
        2    1    3    3  502    0  0.18687425210E+03  0.10767097782E+04  0.63511560222E+03  0.12639611390E+04  0.25500000920E-02 0.  1.
       -2    1    3    3    0  502 -0.18687425210E+03 -0.10767097782E+04  0.95038083607E+03  0.14482574585E+04  0.25500000920E-02 0. -1.
</event>
<event>
 5   0  0.1033733E-05  0.2108944E+04  0.7818609E-02  0.8557314E-01
        1   -1    0    0  501    0  0.00000000000E+00  0.00000000000E+00  0.10981885341E+04  0.10981885341E+04  0.50400001928E-02 0.  1.
       -1   -1    0    0    0  501  0.00000000000E+00  0.00000000000E+00 -0.10124955703E+04  0.10124955703E+04  0.50400001928E-02 0. -1.
    10030    2    1    2    0    0  0.00000000000E+00  0.00000000000E+00  0.85692963771E+02  0.21106841044E+04  0.21089438363E+04 0.  0.
        5    1    3    3  502    0 -0.34304680646E+03  0.60139321939E+03 -0.75312987823E+03  0.10230257178E+04  0.46999998093E+01 0. -1.
       -5    1    3    3    0  502  0.34304680646E+03 -0.60139321939E+03  0.83882284200E+03  0.10876583866E+04  0.46999998093E+01 0.  1.
</event>
<event>
 5   0  0.2229552E-05  0.2203150E+04  0.7818609E-02  0.8517118E-01
        2   -1    0    0  501    0  0.00000000000E+00  0.00000000000E+00  0.11409838764E+04  0.11409838764E+04  0.25500000920E-02 0.  1.
       -2   -1    0    0    0  501  0.00000000000E+00  0.00000000000E+00 -0.10635269304E+04  0.10635269304E+04  0.25500000920E-02 0. -1.
    10030    2    1    2    0    0  0.00000000000E+00  0.00000000000E+00  0.77456946018E+02  0.22045108068E+04  0.22031496360E+04 0.  0.
        1    1    3    3  502    0  0.28985881603E+03  0.66744442627E+03 -0.78880539042E+03  0.10731794535E+04  0.50400001928E-02 0. -1.
       -1    1    3    3    0  502 -0.28985881603E+03 -0.66744442627E+03  0.86626233644E+03  0.11313313533E+04  0.50400001928E-02 0.  1.
</event>
<event>
 5   0  0.2298329E-05  0.2138269E+04  0.7818609E-02  0.8544570E-01
        2   -1    0    0  501    0  0.00000000000E+00  0.00000000000E+00  0.17992658652E+04  0.17992658652E+04  0.25500000920E-02 0. -1.
       -2   -1    0    0    0  501  0.00000000000E+00  0.00000000000E+00 -0.63528615902E+03  0.63528615903E+03  0.25500000920E-02 0.  1.
    10030    2    1    2    0    0  0.00000000000E+00  0.00000000000E+00  0.11639797061E+04  0.24345520242E+04  0.21382691136E+04 0.  0.
        4    1    3    3  502    0 -0.38615183196E+03  0.83736952337E+03  0.11980204443E+04  0.15118053955E+04  0.12699999809E+01 0. -1.
       -4    1    3    3    0  502  0.38615183196E+03 -0.83736952337E+03 -0.34040738167E+02  0.92274662869E+03  0.12699999809E+01 0.  1.
</event>
<event>
 5   0  0.1033733E-05  0.2199600E+04  0.7818609E-02  0.8518594E-01
        1   -1    0    0  501    0  0.00000000000E+00  0.00000000000E+00  0.15822253601E+04  0.15822253601E+04  0.50400001928E-02 0.  1.
       -1   -1    0    0    0  501  0.00000000000E+00  0.00000000000E+00 -0.76446793072E+03  0.76446793074E+03  0.50400001928E-02 0. -1.
    10030    2    1    2    0    0  0.00000000000E+00  0.00000000000E+00  0.81775742933E+03  0.23466932908E+04  0.21996004610E+04 0.  0.
        5    1    3    3  502    0  0.23976779132E+03  0.64483749263E+03 -0.50654172148E+03  0.85434805042E+03  0.46999998093E+01 0. -1.
       -5    1    3    3    0  502 -0.23976779132E+03 -0.64483749263E+03  0.13242991508E+04  0.14923452404E+04  0.46999998093E+01 0.  1.
</event>
<event>
 5   0  0.2298329E-05  0.2197702E+04  0.7818609E-02  0.8519385E-01
        2   -1    0    0  501    0  0.00000000000E+00  0.00000000000E+00  0.13877917577E+04  0.13877917577E+04  0.25500000920E-02 0. -1.
       -2   -1    0    0    0  501  0.00000000000E+00  0.00000000000E+00 -0.87006793389E+03  0.87006793390E+03  0.25500000920E-02 0.  1.
    10030    2    1    2    0    0  0.00000000000E+00  0.00000000000E+00  0.51772382379E+03  0.22578596916E+04  0.21977016242E+04 0.  0.
        4    1    3    3  502    0  0.66288435819E+03  0.22537761896E+03 -0.61123325147E+03  0.92941833641E+03  0.12699999809E+01 0.  1.
       -4    1    3    3    0  502 -0.66288435819E+03 -0.22537761896E+03  0.11289570753E+04  0.13284413552E+04  0.12699999809E+01 0. -1.
</event>
<event>
 5   0  0.2289708E-05  0.2190269E+04  0.7818609E-02  0.8522489E-01
       -2   -1    0    0    0  501  0.00000000000E+00  0.00000000000E+00  0.90144481663E+03  0.90144481663E+03  0.25500000920E-02 0.  1.
        2   -1    0    0  501    0  0.00000000000E+00  0.00000000000E+00 -0.13304419970E+04  0.13304419970E+04  0.25500000920E-02 0. -1.
    10030    2    1    2    0    0  0.00000000000E+00  0.00000000000E+00 -0.42899718039E+03  0.22318868137E+04  0.21902694282E+04 0.  0.
        5    1    3    3  502    0 -0.80383355156E+03  0.68526410216E+03 -0.50906336753E+03  0.11725625231E+04  0.46999998093E+01 0.  1.
       -5    1    3    3    0  502  0.80383355156E+03 -0.68526410216E+03  0.80066187138E+02  0.10593242906E+04  0.46999998093E+01 0. -1.
</event>
<event>
 5   0  0.2229552E-05  0.2197936E+04  0.7818609E-02  0.8519288E-01
        2   -1    0    0  501    0  0.00000000000E+00  0.00000000000E+00  0.12193111690E+04  0.12193111690E+04  0.25500000920E-02 0.  1.
       -2   -1    0    0    0  501  0.00000000000E+00  0.00000000000E+00 -0.99050212239E+03  0.99050212240E+03  0.25500000920E-02 0. -1.
    10030    2    1    2    0    0  0.00000000000E+00  0.00000000000E+00  0.22880904665E+03  0.22098132914E+04  0.21979356686E+04 0.  0.
        1    1    3    3  502    0 -0.34334008045E+03  0.39493289113E+03  0.10859993391E+04  0.12055077618E+04  0.50400001928E-02 0.  1.
       -1    1    3    3    0  502  0.34334008045E+03 -0.39493289113E+03 -0.85719029243E+03  0.10043055296E+04  0.50400001928E-02 0. -1.
</event>
<event>
 5   0  0.1071208E-05  0.2118202E+04  0.7818609E-02  0.8553268E-01
       -1   -1    0    0    0  501  0.00000000000E+00  0.00000000000E+00  0.49731235886E+03  0.49731235888E+03  0.50400001928E-02 0.  1.
        1   -1    0    0  501    0  0.00000000000E+00  0.00000000000E+00 -0.22555128908E+04  0.22555128908E+04  0.50400001928E-02 0. -1.
    10030    2    1    2    0    0  0.00000000000E+00  0.00000000000E+00 -0.17582005320E+04  0.27528252497E+04  0.21182015355E+04 0.  0.
        4    1    3    3  502    0 -0.46138199397E+03 -0.53562361643E+03 -0.19039991202E+04  0.20310047429E+04  0.12699999809E+01 0. -1.
       -4    1    3    3    0  502  0.46138199397E+03  0.53562361643E+03  0.14579858827E+03  0.72182050683E+03  0.12699999809E+01 0.  1.
</event>
<event>
 5   0  0.2229552E-05  0.2203647E+04  0.7818609E-02  0.8516912E-01
       -2   -1    0    0    0  501  0.00000000000E+00  0.00000000000E+00  0.69281815230E+03  0.69281815231E+03  0.25500000920E-02 0.  1.
        2   -1    0    0  501    0  0.00000000000E+00  0.00000000000E+00 -0.17522854082E+04  0.17522854082E+04  0.25500000920E-02 0. -1.
    10030    2    1    2    0    0  0.00000000000E+00  0.00000000000E+00 -0.10594672559E+04  0.24451035605E+04  0.22036471031E+04 0.  0.
        1    1    3    3  502    0 -0.79393569341E+03 -0.46533370633E+03 -0.12020512437E+04  0.15138680709E+04  0.50400001928E-02 0. -1.
       -1    1    3    3    0  502  0.79393569341E+03  0.46533370633E+03  0.14258398781E+03  0.93123548962E+03  0.50400001928E-02 0.  1.
</event>
<event>
 5   0  0.1007682E-05  0.2158426E+04  0.7818609E-02  0.8535934E-01
        1   -1    0    0  501    0  0.00000000000E+00  0.00000000000E+00  0.16093941143E+04  0.16093941143E+04  0.50400001928E-02 0.  1.
       -1   -1    0    0    0  501  0.00000000000E+00  0.00000000000E+00 -0.72368864669E+03  0.72368864671E+03  0.50400001928E-02 0. -1.
    10030    2    1    2    0    0  0.00000000000E+00  0.00000000000E+00  0.88570546765E+03  0.23330827611E+04  0.21584255824E+04 0.  0.
        2    1    3    3  502    0  0.88786167791E+03 -0.61082269094E+03  0.50492354579E+03  0.11901052500E+04  0.25500000920E-02 0.  1.
       -2    1    3    3    0  502 -0.88786167791E+03  0.61082269094E+03  0.38078192185E+03  0.11429775111E+04  0.25500000920E-02 0. -1.
</event>
<event>
 5   0  0.2319707E-05  0.2192565E+04  0.7818609E-02  0.8521529E-01
        2   -1    0    0  501    0  0.00000000000E+00  0.00000000000E+00  0.20648725013E+04  0.20648725013E+04  0.25500000920E-02 0.  1.
       -2   -1    0    0    0  501  0.00000000000E+00  0.00000000000E+00 -0.58203830269E+03  0.58203830269E+03  0.25500000920E-02 0. -1.
    10030    2    1    2    0    0  0.00000000000E+00  0.00000000000E+00  0.14828341986E+04  0.26469108040E+04  0.21925646042E+04 0.  0.
        3    1    3    3  502    0 -0.31946057332E+02  0.91199514658E+03  0.80073478592E+01  0.91258962617E+03  0.10100000352E+00 0. -1.
       -3    1    3    3    0  502  0.31946057332E+02 -0.91199514658E+03  0.14748268508E+04  0.17343211778E+04  0.10100000352E+00 0.  1.
</event>
<event>
 5   0  0.1071208E-05  0.2202088E+04  0.7818609E-02  0.8517559E-01
        1   -1    0    0  501    0  0.00000000000E+00  0.00000000000E+00  0.15420286405E+04  0.15420286405E+04  0.50400001928E-02 0.  1.
       -1   -1    0    0    0  501  0.00000000000E+00  0.00000000000E+00 -0.78617096932E+03  0.78617096933E+03  0.50400001928E-02 0. -1.
    10030    2    1    2    0    0  0.00000000000E+00  0.00000000000E+00  0.75585767116E+03  0.23281996098E+04  0.22020882371E+04 0.  0.
        4    1    3    3  502    0 -0.95294720860E+03 -0.50332271530E+03  0.13950494942E+03  0.10866947050E+04  0.12699999809E+01 0.  1.
       -4    1    3    3    0  502  0.95294720860E+03  0.50332271530E+03  0.61635272174E+03  0.12415049048E+04  0.12699999809E+01 0. -1.
</event>
<event>
 5   0  0.1049198E-05  0.2195422E+04  0.7818609E-02  0.8520336E-01
        1   -1    0    0  501    0  0.00000000000E+00  0.00000000000E+00  0.11141677882E+04  0.11141677882E+04  0.50400001928E-02 0. -1.
       -1   -1    0    0    0  501  0.00000000000E+00  0.00000000000E+00 -0.10814972744E+04  0.10814972744E+04  0.50400001928E-02 0.  1.
    10030    2    1    2    0    0  0.00000000000E+00  0.00000000000E+00  0.32670513747E+02  0.21956650626E+04  0.21954219878E+04 0.  0.
        1    1    3    3  502    0  0.17793661475E+02  0.95154812791E+03 -0.53072528079E+03  0.10896925153E+04  0.50400001928E-02 0.  1.
       -1    1    3    3    0  502 -0.17793661475E+02 -0.95154812791E+03  0.56339579453E+03  0.11059725473E+04  0.50400001928E-02 0. -1.
</event>
<event>
 5   0  0.2229552E-05  0.2198707E+04  0.7818609E-02  0.8518967E-01
        2   -1    0    0  501    0  0.00000000000E+00  0.00000000000E+00  0.26103771654E+04  0.26103771654E+04  0.25500000920E-02 0.  1.
       -2   -1    0    0    0  501  0.00000000000E+00  0.00000000000E+00 -0.46298981587E+03  0.46298981587E+03  0.25500000920E-02 0. -1.
    10030    2    1    2    0    0  0.00000000000E+00  0.00000000000E+00  0.21473873495E+04  0.30733669812E+04  0.21987069319E+04 0.  0.
        1    1    3    3  502    0  0.98050842233E+03  0.30156838659E+03  0.52118371369E+03  0.11506401355E+04  0.50400001928E-02 0. -1.
       -1    1    3    3    0  502 -0.98050842233E+03 -0.30156838659E+03  0.16262036358E+04  0.19227268457E+04  0.50400001928E-02 0.  1.
</event>
<event>
 5   0  0.2298329E-05  0.2198790E+04  0.7818609E-02  0.8518932E-01
        2   -1    0    0  501    0  0.00000000000E+00  0.00000000000E+00  0.15992743293E+04  0.15992743293E+04  0.25500000920E-02 0. -1.
       -2   -1    0    0    0  501  0.00000000000E+00  0.00000000000E+00 -0.75576117683E+03  0.75576117683E+03  0.25500000920E-02 0.  1.
    10030    2    1    2    0    0  0.00000000000E+00  0.00000000000E+00  0.84351315246E+03  0.23550355061E+04  0.21987900756E+04 0.  0.
        4    1    3    3  502    0  0.91324620117E+03  0.27649078617E+03  0.10066395903E+04  0.13870078069E+04  0.12699999809E+01 0.  1.
       -4    1    3    3    0  502 -0.91324620117E+03 -0.27649078617E+03 -0.16312643784E+03  0.96802769920E+03  0.12699999809E+01 0. -1.
</event>
<event>
 5   0  0.1033733E-05  0.2201120E+04  0.7818609E-02  0.8517962E-01
        1   -1    0    0  501    0  0.00000000000E+00  0.00000000000E+00  0.72447347427E+03  0.72447347429E+03  0.50400001928E-02 0. -1.
       -1   -1    0    0    0  501  0.00000000000E+00  0.00000000000E+00 -0.16718796238E+04  0.16718796238E+04  0.50400001928E-02 0.  1.
    10030    2    1    2    0    0  0.00000000000E+00  0.00000000000E+00 -0.94740614948E+03  0.23963530981E+04  0.22011201145E+04 0.  0.
        5    1    3    3  502    0 -0.32476986012E+03  0.20553801828E+03 -0.15964285358E+04  0.16420497858E+04  0.46999998093E+01 0.  1.
       -5    1    3    3    0  502  0.32476986012E+03 -0.20553801828E+03  0.64902238632E+03  0.75430331230E+03  0.46999998093E+01 0. -1.
</event>
<event>
 5   0  0.2229552E-05  0.2197723E+04  0.7818609E-02  0.8519377E-01
        2   -1    0    0  501    0  0.00000000000E+00  0.00000000000E+00  0.16886250916E+04  0.16886250916E+04  0.25500000920E-02 0.  1.
       -2   -1    0    0    0  501  0.00000000000E+00  0.00000000000E+00 -0.71507668554E+03  0.71507668554E+03  0.25500000920E-02 0. -1.
    10030    2    1    2    0    0  0.00000000000E+00  0.00000000000E+00  0.97354840608E+03  0.24037017772E+04  0.21977228521E+04 0.  0.
        1    1    3    3  502    0 -0.98922642686E+02  0.10491608933E+04  0.82736366380E+03  0.13397965896E+04  0.50400001928E-02 0.  1.
       -1    1    3    3    0  502  0.98922642686E+02 -0.10491608933E+04  0.14618474229E+03  0.10639051876E+04  0.50400001928E-02 0. -1.
</event>
<event>
 5   0  0.2319707E-05  0.2210350E+04  0.7818609E-02  0.8514133E-01
       -2   -1    0    0    0  501  0.00000000000E+00  0.00000000000E+00  0.13364826559E+04  0.13364826559E+04  0.25500000920E-02 0.  1.
        2   -1    0    0  501    0  0.00000000000E+00  0.00000000000E+00 -0.91390008407E+03  0.91390008408E+03  0.25500000920E-02 0. -1.
    10030    2    1    2    0    0  0.00000000000E+00  0.00000000000E+00  0.42258257184E+03  0.22503827400E+04  0.22103498471E+04 0.  0.
        3    1    3    3  502    0 -0.23401718188E+03 -0.68591954211E+03 -0.63818353192E+03  0.96567483672E+03  0.10100000352E+00 0. -1.
       -3    1    3    3    0  502  0.23401718188E+03  0.68591954211E+03  0.10607661038E+04  0.12847079033E+04  0.10100000352E+00 0.  1.
</event>
<event>
 5   0  0.1049198E-05  0.2211923E+04  0.7818609E-02  0.8513482E-01
        1   -1    0    0  501    0  0.00000000000E+00  0.00000000000E+00  0.90097350560E+03  0.90097350562E+03  0.50400001928E-02 0.  1.
       -1   -1    0    0    0  501  0.00000000000E+00  0.00000000000E+00 -0.13575882249E+04  0.13575882249E+04  0.50400001928E-02 0. -1.
    10030    2    1    2    0    0  0.00000000000E+00  0.00000000000E+00 -0.45661471927E+03  0.22585617305E+04  0.22119231652E+04 0.  0.
        1    1    3    3  502    0  0.88640369271E+03 -0.18280916733E+03  0.42072079153E+03  0.99806647202E+03  0.50400001928E-02 0.  1.
       -1    1    3    3    0  502 -0.88640369271E+03  0.18280916733E+03 -0.87733551080E+03  0.12604952585E+04  0.50400001928E-02 0. -1.
</event>
<event>
 5   0  0.1049198E-05  0.2189952E+04  0.7818609E-02  0.8522622E-01
       -1   -1    0    0    0  501  0.00000000000E+00  0.00000000000E+00  0.82874170441E+03  0.82874170442E+03  0.50400001928E-02 0.  1.
        1   -1    0    0  501    0  0.00000000000E+00  0.00000000000E+00 -0.14467381635E+04  0.14467381635E+04  0.50400001928E-02 0. -1.
    10030    2    1    2    0    0  0.00000000000E+00  0.00000000000E+00 -0.61799645909E+03  0.22754798679E+04  0.21899518273E+04 0.  0.
        1    1    3    3  502    0 -0.35243114908E+03  0.41469731712E+01 -0.13861865232E+04  0.14302929733E+04  0.50400001928E-02 0. -1.
       -1    1    3    3    0  502  0.35243114908E+03 -0.41469731712E+01  0.76819006413E+03  0.84518689465E+03  0.50400001928E-02 0.  1.
</event>
<event>
 5   0  0.1005538E-05  0.2203831E+04  0.7818609E-02  0.8516835E-01
       -1   -1    0    0    0  501  0.00000000000E+00  0.00000000000E+00  0.20120596018E+04  0.20120596018E+04  0.50400001928E-02 0. -1.
        1   -1    0    0  501    0  0.00000000000E+00  0.00000000000E+00 -0.60347026717E+03  0.60347026719E+03  0.50400001928E-02 0.  1.
    10030    2    1    2    0    0  0.00000000000E+00  0.00000000000E+00  0.14085893347E+04  0.26155298690E+04  0.22038313416E+04 0.  0.
        3    1    3    3  502    0  0.10060897344E+04 -0.44434321268E+03  0.62414593589E+03  0.12646009662E+04  0.10100000352E+00 0.  1.
       -3    1    3    3    0  502 -0.10060897344E+04  0.44434321268E+03  0.78444339878E+03  0.13509289028E+04  0.10100000352E+00 0. -1.
</event>
<event>
 5   0  0.1033733E-05  0.2135418E+04  0.7818609E-02  0.8545800E-01
       -1   -1    0    0    0  501  0.00000000000E+00  0.00000000000E+00  0.73791274167E+03  0.73791274169E+03  0.50400001928E-02 0.  1.
        1   -1    0    0  501    0  0.00000000000E+00  0.00000000000E+00 -0.15449009045E+04  0.15449009046E+04  0.50400001928E-02 0. -1.
    10030    2    1    2    0    0  0.00000000000E+00  0.00000000000E+00 -0.80698816288E+03  0.22828136462E+04  0.21354175817E+04 0.  0.
        5    1    3    3  502    0 -0.20895510146E+03 -0.93276921743E+03  0.10500583885E+03  0.96164908548E+03  0.46999998093E+01 0.  1.
       -5    1    3    3    0  502  0.20895510146E+03  0.93276921743E+03 -0.91199400173E+03  0.13211645608E+04  0.46999998093E+01 0. -1.
</event>
<event>
 5   0  0.1033733E-05  0.2208816E+04  0.7818609E-02  0.8514768E-01
        1   -1    0    0  501    0  0.00000000000E+00  0.00000000000E+00  0.99068884127E+03  0.99068884128E+03  0.50400001928E-02 0.  1.
       -1   -1    0    0    0  501  0.00000000000E+00  0.00000000000E+00 -0.12311803935E+04  0.12311803935E+04  0.50400001928E-02 0. -1.
    10030    2    1    2    0    0  0.00000000000E+00  0.00000000000E+00 -0.24049155226E+03  0.22218692348E+04  0.22088156804E+04 0.  0.
        5    1    3    3  502    0 -0.81205144585E+03  0.64689801985E+03  0.25852965637E+03  0.10699365738E+04  0.46999998093E+01 0. -1.
       -5    1    3    3    0  502  0.81205144585E+03 -0.64689801985E+03 -0.49902120863E+03  0.11519326610E+04  0.46999998093E+01 0.  1.
</event>
<event>
 5   0  0.2298329E-05  0.2196117E+04  0.7818609E-02  0.8520046E-01
        2   -1    0    0  501    0  0.00000000000E+00  0.00000000000E+00  0.17376334111E+04  0.17376334111E+04  0.25500000920E-02 0. -1.
       -2   -1    0    0    0  501  0.00000000000E+00  0.00000000000E+00 -0.69389373980E+03  0.69389373980E+03  0.25500000920E-02 0.  1.
    10030    2    1    2    0    0  0.00000000000E+00  0.00000000000E+00  0.10437396713E+04  0.24315271509E+04  0.21961174340E+04 0.  0.
        4    1    3    3  502    0 -0.17896742307E+03  0.28924176189E+03 -0.63409605608E+03  0.71956205888E+03  0.12699999809E+01 0.  1.
       -4    1    3    3    0  502  0.17896742307E+03 -0.28924176189E+03  0.16778357274E+04  0.17119650920E+04  0.12699999809E+01 0. -1.
</event>
<event>
 5   0  0.2229552E-05  0.2223068E+04  0.7818609E-02  0.8508887E-01
        2   -1    0    0  501    0  0.00000000000E+00  0.00000000000E+00  0.17379412881E+04  0.17379412881E+04  0.25500000920E-02 0. -1.
       -2   -1    0    0    0  501  0.00000000000E+00  0.00000000000E+00 -0.71090336018E+03  0.71090336018E+03  0.25500000920E-02 0.  1.
    10030    2    1    2    0    0  0.00000000000E+00  0.00000000000E+00  0.10270379279E+04  0.24488446483E+04  0.22230684213E+04 0.  0.
        1    1    3    3  502    0  0.18712096047E+03  0.10666192232E+04  0.23743024500E+03  0.11086315630E+04  0.50400001928E-02 0.  1.
       -1    1    3    3    0  502 -0.18712096047E+03 -0.10666192232E+04  0.78960768290E+03  0.13402130853E+04  0.50400001928E-02 0. -1.
</event>
<event>
 5   0  0.1007682E-05  0.2199064E+04  0.7818609E-02  0.8518818E-01
       -1   -1    0    0    0  501  0.00000000000E+00  0.00000000000E+00  0.13240123201E+04  0.13240123201E+04  0.50400001928E-02 0.  1.
        1   -1    0    0  501    0  0.00000000000E+00  0.00000000000E+00 -0.91311101941E+03  0.91311101942E+03  0.50400001928E-02 0. -1.
    10030    2    1    2    0    0  0.00000000000E+00  0.00000000000E+00  0.41090130065E+03  0.22371233395E+04  0.21990636546E+04 0.  0.
        2    1    3    3  502    0  0.64583052705E+03 -0.85902223024E+03  0.44175072646E+03  0.11619638402E+04  0.25500000920E-02 0.  1.
       -2    1    3    3    0  502 -0.64583052705E+03  0.85902223024E+03 -0.30849425810E+02  0.10751594992E+04  0.25500000920E-02 0. -1.
</event>
<event>
 5   0  0.2289708E-05  0.2205415E+04  0.7818609E-02  0.8516178E-01
       -2   -1    0    0    0  501  0.00000000000E+00  0.00000000000E+00  0.12561894227E+04  0.12561894227E+04  0.25500000920E-02 0.  1.
        2   -1    0    0  501    0  0.00000000000E+00  0.00000000000E+00 -0.96797820197E+03  0.96797820198E+03  0.25500000920E-02 0. -1.
    10030    2    1    2    0    0  0.00000000000E+00  0.00000000000E+00  0.28821122070E+03  0.22241676247E+04  0.22054151344E+04 0.  0.
        5    1    3    3  502    0 -0.67028475592E+03 -0.98067901991E+02  0.10215859925E+04  0.12257891326E+04  0.46999998093E+01 0.  1.
       -5    1    3    3    0  502  0.67028475592E+03  0.98067901991E+02 -0.73337477185E+03  0.99837849206E+03  0.46999998093E+01 0. -1.
</event>
<event>
 5   0  0.1007682E-05  0.2204488E+04  0.7818609E-02  0.8516562E-01
       -1   -1    0    0    0  501  0.00000000000E+00  0.00000000000E+00  0.84813594174E+03  0.84813594175E+03  0.50400001928E-02 0. -1.
        1   -1    0    0  501    0  0.00000000000E+00  0.00000000000E+00 -0.14324849193E+04  0.14324849193E+04  0.50400001928E-02 0.  1.
    10030    2    1    2    0    0  0.00000000000E+00  0.00000000000E+00 -0.58434897756E+03  0.22806208611E+04  0.22044881003E+04 0.  0.
        2    1    3    3  502    0  0.14879429762E+03 -0.10902752762E+04 -0.22591554691E+03  0.11233333233E+04  0.25500000920E-02 0. -1.
       -2    1    3    3    0  502 -0.14879429762E+03  0.10902752762E+04 -0.35843343065E+03  0.11572875378E+04  0.25500000920E-02 0.  1.
</event>
<event>
 5   0  0.2284329E-05  0.2200048E+04  0.7818609E-02  0.8518408E-01
       -2   -1    0    0    0  501  0.00000000000E+00  0.00000000000E+00  0.85328272046E+03  0.85328272046E+03  0.25500000920E-02 0. -1.
        2   -1    0    0  501    0  0.00000000000E+00  0.00000000000E+00 -0.14181151993E+04  0.14181151993E+04  0.25500000920E-02 0.  1.
    10030    2    1    2    0    0  0.00000000000E+00  0.00000000000E+00 -0.56483247881E+03  0.22713979197E+04  0.22000483587E+04 0.  0.
        2    1    3    3  502    0  0.63119891334E+03  0.13448089313E+03  0.63729139376E+03  0.90699366006E+03  0.25500000920E-02 0. -1.
       -2    1    3    3    0  502 -0.63119891334E+03 -0.13448089313E+03 -0.12021238726E+04  0.13644042597E+04  0.25500000920E-02 0.  1.
</event>
<event>
 5   0  0.2319707E-05  0.2185618E+04  0.7818609E-02  0.8524438E-01
       -2   -1    0    0    0  501  0.00000000000E+00  0.00000000000E+00  0.19986305727E+04  0.19986305727E+04  0.25500000920E-02 0. -1.
        2   -1    0    0  501    0  0.00000000000E+00  0.00000000000E+00 -0.59752504947E+03  0.59752504947E+03  0.25500000920E-02 0.  1.
    10030    2    1    2    0    0  0.00000000000E+00  0.00000000000E+00  0.14011055232E+04  0.25961556221E+04  0.21856182940E+04 0.  0.
        3    1    3    3  502    0 -0.79738179220E+01  0.54465614381E+03  0.18258777696E+04  0.19053985243E+04  0.10100000352E+00 0. -1.
       -3    1    3    3    0  502  0.79738179220E+01 -0.54465614381E+03 -0.42477224636E+03  0.69075709786E+03  0.10100000352E+00 0.  1.
</event>
<event>
 5   0  0.2229552E-05  0.2193446E+04  0.7818609E-02  0.8521161E-01
        2   -1    0    0  501    0  0.00000000000E+00  0.00000000000E+00  0.13401735148E+04  0.13401735148E+04  0.25500000920E-02 0.  1.
       -2   -1    0    0    0  501  0.00000000000E+00  0.00000000000E+00 -0.89749638248E+03  0.89749638248E+03  0.25500000920E-02 0. -1.
    10030    2    1    2    0    0  0.00000000000E+00  0.00000000000E+00  0.44267713234E+03  0.22376698973E+04  0.21934455831E+04 0.  0.
        1    1    3    3  502    0 -0.53845545065E+03 -0.77055891621E+03 -0.35494514530E+03  0.10048290262E+04  0.50400001928E-02 0. -1.
       -1    1    3    3    0  502  0.53845545065E+03  0.77055891621E+03  0.79762227764E+03  0.12328408711E+04  0.50400001928E-02 0.  1.
</event>
<event>
 5   0  0.2298329E-05  0.2199305E+04  0.7818609E-02  0.8518717E-01
        2   -1    0    0  501    0  0.00000000000E+00  0.00000000000E+00  0.21659470646E+04  0.21659470646E+04  0.25500000920E-02 0. -1.
       -2   -1    0    0    0  501  0.00000000000E+00  0.00000000000E+00 -0.55829417861E+03  0.55829417862E+03  0.25500000920E-02 0.  1.
    10030    2    1    2    0    0  0.00000000000E+00  0.00000000000E+00  0.16076528860E+04  0.27242412433E+04  0.21993050151E+04 0.  0.
        4    1    3    3  502    0 -0.10095726320E+04 -0.43587024113E+03  0.79914918420E+03  0.13593604371E+04  0.12699999809E+01 0. -1.
       -4    1    3    3    0  502  0.10095726320E+04  0.43587024113E+03  0.80850370182E+03  0.13648808062E+04  0.12699999809E+01 0.  1.
</event>
<event>
 5   0  0.1033733E-05  0.2201520E+04  0.7818609E-02  0.8517796E-01
       -1   -1    0    0    0  501  0.00000000000E+00  0.00000000000E+00  0.50181663866E+03  0.50181663868E+03  0.50400001928E-02 0. -1.
        1   -1    0    0  501    0  0.00000000000E+00  0.00000000000E+00 -0.24145723663E+04  0.24145723663E+04  0.50400001928E-02 0.  1.
    10030    2    1    2    0    0  0.00000000000E+00  0.00000000000E+00 -0.19127557276E+04  0.29163890050E+04  0.22015200101E+04 0.  0.
        5    1    3    3  502    0 -0.63560145018E+03 -0.68847369090E+03 -0.17215837796E+04  0.19600658220E+04  0.46999998093E+01 0.  1.
       -5    1    3    3    0  502  0.63560145018E+03  0.68847369090E+03 -0.19117194805E+03  0.95632318296E+03  0.46999998093E+01 0. -1.
</event>
<event>
 5   0  0.1071208E-05  0.2200154E+04  0.7818609E-02  0.8518364E-01
        1   -1    0    0  501    0  0.00000000000E+00  0.00000000000E+00  0.20033572439E+04  0.20033572439E+04  0.50400001928E-02 0.  1.
       -1   -1    0    0    0  501  0.00000000000E+00  0.00000000000E+00 -0.60407082812E+03  0.60407082814E+03  0.50400001928E-02 0. -1.
    10030    2    1    2    0    0  0.00000000000E+00  0.00000000000E+00  0.13992864158E+04  0.26074280720E+04  0.22001542395E+04 0.  0.
        4    1    3    3  502    0  0.84805166566E+03 -0.67012485365E+03  0.45703056709E+03  0.11735150188E+04  0.12699999809E+01 0. -1.
       -4    1    3    3    0  502 -0.84805166566E+03  0.67012485365E+03  0.94225584869E+03  0.14339130533E+04  0.12699999809E+01 0.  1.
</event>
<event>
 5   0  0.1033733E-05  0.2195963E+04  0.7818609E-02  0.8520110E-01
       -1   -1    0    0    0  501  0.00000000000E+00  0.00000000000E+00  0.12377148966E+04  0.12377148966E+04  0.50400001928E-02 0. -1.
        1   -1    0    0  501    0  0.00000000000E+00  0.00000000000E+00 -0.97402339022E+03  0.97402339023E+03  0.50400001928E-02 0.  1.
    10030    2    1    2    0    0  0.00000000000E+00  0.00000000000E+00  0.26369150634E+03  0.22117382868E+04  0.21959628956E+04 0.  0.
        5    1    3    3  502    0 -0.54107854080E+03 -0.41193596823E+03  0.10000615351E+04  0.12093809959E+04  0.46999998093E+01 0. -1.
       -5    1    3    3    0  502  0.54107854080E+03  0.41193596823E+03 -0.73637002881E+03  0.10023572909E+04  0.46999998093E+01 0.  1.
</event>
<event>
 5   0  0.2319707E-05  0.2273399E+04  0.7818609E-02  0.8488484E-01
        2   -1    0    0  501    0  0.00000000000E+00  0.00000000000E+00  0.12284539278E+04  0.12284539278E+04  0.25500000920E-02 0. -1.
       -2   -1    0    0    0  501  0.00000000000E+00  0.00000000000E+00 -0.10517982752E+04  0.10517982752E+04  0.25500000920E-02 0.  1.
    10030    2    1    2    0    0  0.00000000000E+00  0.00000000000E+00  0.17665565256E+03  0.22802522030E+04  0.22733989728E+04 0.  0.
        3    1    3    3  502    0  0.82187307925E+03  0.76673800914E+03  0.25831786692E+03  0.11532955665E+04  0.10100000352E+00 0.  1.
       -3    1    3    3    0  502 -0.82187307925E+03 -0.76673800914E+03 -0.81662214362E+02  0.11269566365E+04  0.10100000352E+00 0. -1.
</event>
<event>
 5   0  0.2284329E-05  0.2202256E+04  0.7818609E-02  0.8517490E-01
       -2   -1    0    0    0  501  0.00000000000E+00  0.00000000000E+00  0.82122259814E+03  0.82122259815E+03  0.25500000920E-02 0. -1.
        2   -1    0    0  501    0  0.00000000000E+00  0.00000000000E+00 -0.14764363820E+04  0.14764363820E+04  0.25500000920E-02 0.  1.
    10030    2    1    2    0    0  0.00000000000E+00  0.00000000000E+00 -0.65521378386E+03  0.22976589802E+04  0.22022560447E+04 0.  0.
        2    1    3    3  502    0 -0.99666449083E+02 -0.24901974767E+03 -0.14418315635E+04  0.14665682709E+04  0.25500000920E-02 0.  1.
       -2    1    3    3    0  502  0.99666449083E+02  0.24901974767E+03  0.78661777960E+03  0.83109070925E+03  0.25500000920E-02 0. -1.
</event>
<event>
 5   0  0.2289708E-05  0.2197364E+04  0.7818609E-02  0.8519526E-01
       -2   -1    0    0    0  501  0.00000000000E+00  0.00000000000E+00  0.84118717154E+03  0.84118717154E+03  0.25500000920E-02 0.  1.
        2   -1    0    0  501    0  0.00000000000E+00  0.00000000000E+00 -0.14349983342E+04  0.14349983342E+04  0.25500000920E-02 0. -1.
    10030    2    1    2    0    0  0.00000000000E+00  0.00000000000E+00 -0.59381116266E+03  0.22761855057E+04  0.21973640480E+04 0.  0.
        5    1    3    3  502    0  0.78180432410E+03  0.61449866352E+03  0.18702853355E+03  0.10118440448E+04  0.46999998093E+01 0.  1.
       -5    1    3    3    0  502 -0.78180432410E+03 -0.61449866352E+03 -0.78083969620E+03  0.12643414609E+04  0.46999998093E+01 0. -1.
</event>
<event>
 5   0  0.1071208E-05  0.2187386E+04  0.7818609E-02  0.8523697E-01
        1   -1    0    0  501    0  0.00000000000E+00  0.00000000000E+00  0.20504548196E+04  0.20504548196E+04  0.50400001928E-02 0. -1.
       -1   -1    0    0    0  501  0.00000000000E+00  0.00000000000E+00 -0.58336564640E+03  0.58336564642E+03  0.50400001928E-02 0.  1.
    10030    2    1    2    0    0  0.00000000000E+00  0.00000000000E+00  0.14670891732E+04  0.26338204660E+04  0.21873864782E+04 0.  0.
        4    1    3    3  502    0  0.51807702888E+03 -0.63576404540E+03  0.16047997212E+04  0.18022162710E+04  0.12699999809E+01 0.  1.
       -4    1    3    3    0  502 -0.51807702888E+03  0.63576404540E+03 -0.13771054802E+03  0.83160419504E+03  0.12699999809E+01 0. -1.
</event>
<event>
 5   0  0.1049198E-05  0.2206964E+04  0.7818609E-02  0.8515535E-01
       -1   -1    0    0    0  501  0.00000000000E+00  0.00000000000E+00  0.13672549805E+04  0.13672549805E+04  0.50400001928E-02 0. -1.
        1   -1    0    0  501    0  0.00000000000E+00  0.00000000000E+00 -0.89059629498E+03  0.89059629500E+03  0.50400001928E-02 0.  1.
    10030    2    1    2    0    0  0.00000000000E+00  0.00000000000E+00  0.47665868553E+03  0.22578512755E+04  0.22069637242E+04 0.  0.
        1    1    3    3  502    0  0.35777833263E+03  0.96981215192E+03 -0.15675016295E+03  0.10455197554E+04  0.50400001928E-02 0.  1.
       -1    1    3    3    0  502 -0.35777833263E+03 -0.96981215192E+03  0.63340884848E+03  0.12123315201E+04  0.50400001928E-02 0. -1.
</event>
<event>
 5   0  0.2284329E-05  0.2201362E+04  0.7818609E-02  0.8517861E-01
        2   -1    0    0  501    0  0.00000000000E+00  0.00000000000E+00  0.11978684129E+04  0.11978684129E+04  0.25500000920E-02 0.  1.
       -2   -1    0    0    0  501  0.00000000000E+00  0.00000000000E+00 -0.10113791189E+04  0.10113791189E+04  0.25500000920E-02 0. -1.
    10030    2    1    2    0    0  0.00000000000E+00  0.00000000000E+00  0.18648929403E+03  0.22092475318E+04  0.22013623963E+04 0.  0.
        2    1    3    3  502    0  0.92722181135E+03 -0.44170902120E+01  0.68844514170E+03  0.11548664474E+04  0.25500000920E-02 0.  1.
       -2    1    3    3    0  502 -0.92722181135E+03  0.44170902120E+01 -0.50195584767E+03  0.10543810844E+04  0.25500000920E-02 0. -1.
</event>
<event>
 5   0  0.8003875E-06  0.2204681E+04  0.7818609E-02  0.8516482E-01
        3   -1    0    0  501    0  0.00000000000E+00  0.00000000000E+00  0.13094209653E+04  0.13094209692E+04  0.10100000352E+00 0.  1.
       -3   -1    0    0    0  501  0.00000000000E+00  0.00000000000E+00 -0.92800879392E+03  0.92800879942E+03  0.10100000352E+00 0. -1.
    10030    2    1    2    0    0  0.00000000000E+00  0.00000000000E+00  0.38141217141E+03  0.22374297686E+04  0.22046806402E+04 0.  0.
        5    1    3    3  502    0 -0.84438056637E+03  0.63810921856E+03  0.50345610420E+03  0.11720290331E+04  0.46999998093E+01 0.  1.
       -5    1    3    3    0  502  0.84438056637E+03 -0.63810921856E+03 -0.12204393279E+03  0.10654007355E+04  0.46999998093E+01 0. -1.
</event>
<event>
 5   0  0.1071208E-05  0.2203507E+04  0.7818609E-02  0.8516970E-01
       -1   -1    0    0    0  501  0.00000000000E+00  0.00000000000E+00  0.14670109281E+04  0.14670109281E+04  0.50400001928E-02 0.  1.
        1   -1    0    0  501    0  0.00000000000E+00  0.00000000000E+00 -0.82743830838E+03  0.82743830839E+03  0.50400001928E-02 0. -1.
    10030    2    1    2    0    0  0.00000000000E+00  0.00000000000E+00  0.63957261975E+03  0.22944492365E+04  0.22035072414E+04 0.  0.
        4    1    3    3  502    0 -0.43346990926E+03  0.12821721565E+03 -0.72643174855E+03  0.85559366222E+03  0.12699999809E+01 0. -1.
       -4    1    3    3    0  502  0.43346990926E+03 -0.12821721565E+03  0.13660043683E+04  0.14388555743E+04  0.12699999809E+01 0.  1.
</event>
<event>
 5   0  0.2298329E-05  0.2208642E+04  0.7818609E-02  0.8514840E-01
       -2   -1    0    0    0  501  0.00000000000E+00  0.00000000000E+00  0.63101986423E+03  0.63101986423E+03  0.25500000920E-02 0. -1.
        2   -1    0    0  501    0  0.00000000000E+00  0.00000000000E+00 -0.19326251042E+04  0.19326251042E+04  0.25500000920E-02 0.  1.
    10030    2    1    2    0    0  0.00000000000E+00  0.00000000000E+00 -0.13016052400E+04  0.25636449684E+04  0.22086419636E+04 0.  0.
        4    1    3    3  502    0 -0.32549437273E+03  0.85652559591E+03  0.64665646983E+02  0.91856733119E+03  0.12699999809E+01 0. -1.
       -4    1    3    3    0  502  0.32549437273E+03 -0.85652559591E+03 -0.13662708870E+04  0.16450776372E+04  0.12699999809E+01 0.  1.
</event>
<event>
 5   0  0.1033733E-05  0.2198045E+04  0.7818609E-02  0.8519242E-01
       -1   -1    0    0    0  501  0.00000000000E+00  0.00000000000E+00  0.11233124533E+04  0.11233124533E+04  0.50400001928E-02 0.  1.
        1   -1    0    0  501    0  0.00000000000E+00  0.00000000000E+00 -0.10752579206E+04  0.10752579206E+04  0.50400001928E-02 0. -1.
    10030    2    1    2    0    0  0.00000000000E+00  0.00000000000E+00  0.48054532742E+02  0.21985703739E+04  0.21980451431E+04 0.  0.
        5    1    3    3  502    0 -0.10328428453E+03 -0.76550935542E+03  0.80597893817E+03  0.11163764398E+04  0.46999998093E+01 0. -1.
       -5    1    3    3    0  502  0.10328428453E+03  0.76550935542E+03 -0.75792440542E+03  0.10821939341E+04  0.46999998093E+01 0.  1.
</event>
<event>
 5   0  0.2319707E-05  0.2204137E+04  0.7818609E-02  0.8516708E-01
        2   -1    0    0  501    0  0.00000000000E+00  0.00000000000E+00  0.17289298338E+04  0.17289298338E+04  0.25500000920E-02 0. -1.
       -2   -1    0    0    0  501  0.00000000000E+00  0.00000000000E+00 -0.70248956456E+03  0.70248956457E+03  0.25500000920E-02 0.  1.
    10030    2    1    2    0    0  0.00000000000E+00  0.00000000000E+00  0.10264402692E+04  0.24314193983E+04  0.22041371700E+04 0.  0.
        3    1    3    3  502    0  0.22677271169E+03  0.10050613857E+04  0.94467947030E+03  0.13978531981E+04  0.10100000352E+00 0. -1.
       -3    1    3    3    0  502 -0.22677271169E+03 -0.10050613857E+04  0.81760798899E+02  0.10335662002E+04  0.10100000352E+00 0.  1.
</event>
<event>
 5   0  0.2229552E-05  0.2206304E+04  0.7818609E-02  0.8515809E-01
       -2   -1    0    0    0  501  0.00000000000E+00  0.00000000000E+00  0.10073727504E+04  0.10073727504E+04  0.25500000920E-02 0. -1.
        2   -1    0    0  501    0  0.00000000000E+00  0.00000000000E+00 -0.12080380495E+04  0.12080380495E+04  0.25500000920E-02 0.  1.
    10030    2    1    2    0    0  0.00000000000E+00  0.00000000000E+00 -0.20066529905E+03  0.22154107999E+04  0.22063042515E+04 0.  0.
        1    1    3    3  502    0  0.35257532762E+03  0.10121856631E+04  0.16173392458E+03  0.10839681917E+04  0.50400001928E-02 0. -1.
       -1    1    3    3    0  502 -0.35257532762E+03 -0.10121856631E+04 -0.36239922363E+03  0.11314426082E+04  0.50400001928E-02 0.  1.
</event>
<event>
 5   0  0.1005538E-05  0.2198582E+04  0.7818609E-02  0.8519018E-01
        1   -1    0    0  501    0  0.00000000000E+00  0.00000000000E+00  0.52630368497E+03  0.52630368500E+03  0.50400001928E-02 0. -1.
       -1   -1    0    0    0  501  0.00000000000E+00  0.00000000000E+00 -0.22960907744E+04  0.22960907744E+04  0.50400001928E-02 0.  1.
    10030    2    1    2    0    0  0.00000000000E+00  0.00000000000E+00 -0.17697870894E+04  0.28223944594E+04  0.21985823029E+04 0.  0.
        3    1    3    3  502    0  0.48579751623E+02  0.98236349512E+03 -0.15151571682E+04  0.18064050718E+04  0.10100000352E+00 0.  1.
       -3    1    3    3    0  502 -0.48579751623E+02 -0.98236349512E+03 -0.25462992125E+03  0.10159893876E+04  0.10100000352E+00 0. -1.
</event>
<event>
 5   0  0.1071208E-05  0.2200500E+04  0.7818609E-02  0.8518220E-01
       -1   -1    0    0    0  501  0.00000000000E+00  0.00000000000E+00  0.87570507185E+03  0.87570507187E+03  0.50400001928E-02 0. -1.
        1   -1    0    0  501    0  0.00000000000E+00  0.00000000000E+00 -0.13823716027E+04  0.13823716027E+04  0.50400001928E-02 0.  1.
    10030    2    1    2    0    0  0.00000000000E+00  0.00000000000E+00 -0.50666653082E+03  0.22580766745E+04  0.22004997829E+04 0.  0.
        4    1    3    3  502    0  0.21801118502E+02  0.70827994436E+02  0.87314035625E+03  0.87628054194E+03  0.12699999809E+01 0. -1.
       -4    1    3    3    0  502 -0.21801118502E+02 -0.70827994436E+02 -0.13798068871E+04  0.13817961326E+04  0.12699999809E+01 0.  1.
</event>
<event>
 5   0  0.1071208E-05  0.2189313E+04  0.7818609E-02  0.8522889E-01
        1   -1    0    0  501    0  0.00000000000E+00  0.00000000000E+00  0.19491739862E+04  0.19491739862E+04  0.50400001928E-02 0. -1.
       -1   -1    0    0    0  501  0.00000000000E+00  0.00000000000E+00 -0.61475932797E+03  0.61475932799E+03  0.50400001928E-02 0.  1.
    10030    2    1    2    0    0  0.00000000000E+00  0.00000000000E+00  0.13344146583E+04  0.25639333142E+04  0.21893130337E+04 0.  0.
        4    1    3    3  502    0 -0.48702701741E+02 -0.27800587401E+03 -0.57141416164E+03  0.63731858294E+03  0.12699999809E+01 0.  1.
       -4    1    3    3    0  502  0.48702701741E+02  0.27800587401E+03  0.19058288199E+04  0.19266147313E+04  0.12699999809E+01 0. -1.
</event>
<event>
 5   0  0.1071208E-05  0.2193461E+04  0.7818609E-02  0.8521155E-01
       -1   -1    0    0    0  501  0.00000000000E+00  0.00000000000E+00  0.93162621251E+03  0.93162621252E+03  0.50400001928E-02 0.  1.
        1   -1    0    0  501    0  0.00000000000E+00  0.00000000000E+00 -0.12910944229E+04  0.12910944229E+04  0.50400001928E-02 0. -1.
    10030    2    1    2    0    0  0.00000000000E+00  0.00000000000E+00 -0.35946821036E+03  0.22227206354E+04  0.21934606513E+04 0.  0.
        4    1    3    3  502    0 -0.27695508343E+01  0.30432031524E+03  0.88798032175E+03  0.93868481899E+03  0.12699999809E+01 0.  1.
       -4    1    3    3    0  502  0.27695508343E+01 -0.30432031524E+03 -0.12474485321E+04  0.12840358164E+04  0.12699999809E+01 0. -1.
</event>
<event>
 5   0  0.1005538E-05  0.2191284E+04  0.7818609E-02  0.8522065E-01
        1   -1    0    0  501    0  0.00000000000E+00  0.00000000000E+00  0.58390031693E+03  0.58390031695E+03  0.50400001928E-02 0.  1.
       -1   -1    0    0    0  501  0.00000000000E+00  0.00000000000E+00 -0.20558836576E+04  0.20558836576E+04  0.50400001928E-02 0. -1.
    10030    2    1    2    0    0  0.00000000000E+00  0.00000000000E+00 -0.14719833407E+04  0.26397839746E+04  0.21912837509E+04 0.  0.
        3    1    3    3  502    0 -0.26628609472E+03 -0.91775058322E+03 -0.13816531054E+04  0.16799225373E+04  0.10100000352E+00 0.  1.
       -3    1    3    3    0  502  0.26628609472E+03  0.91775058322E+03 -0.90330235269E+02  0.95986143732E+03  0.10100000352E+00 0. -1.
</event>
<event>
 5   0  0.2289708E-05  0.2202364E+04  0.7818609E-02  0.8517445E-01
       -2   -1    0    0    0  501  0.00000000000E+00  0.00000000000E+00  0.71174993780E+03  0.71174993781E+03  0.25500000920E-02 0.  1.
        2   -1    0    0  501    0  0.00000000000E+00  0.00000000000E+00 -0.17036906495E+04  0.17036906495E+04  0.25500000920E-02 0. -1.
    10030    2    1    2    0    0  0.00000000000E+00  0.00000000000E+00 -0.99194071168E+03  0.24154405873E+04  0.22023639243E+04 0.  0.
        5    1    3    3  502    0  0.78679781550E+02  0.10377193749E+04 -0.10125096770E+03  0.10456222347E+04  0.46999998093E+01 0.  1.
       -5    1    3    3    0  502 -0.78679781550E+02 -0.10377193749E+04 -0.89068974397E+03  0.13698183526E+04  0.46999998093E+01 0. -1.
</event>
<event>
 5   0  0.2284329E-05  0.2199183E+04  0.7818609E-02  0.8518768E-01
        2   -1    0    0  501    0  0.00000000000E+00  0.00000000000E+00  0.26097732334E+04  0.26097732335E+04  0.25500000920E-02 0.  1.
       -2   -1    0    0    0  501  0.00000000000E+00  0.00000000000E+00 -0.46329764437E+03  0.46329764438E+03  0.25500000920E-02 0. -1.
    10030    2    1    2    0    0  0.00000000000E+00  0.00000000000E+00  0.21464755891E+04  0.30730708778E+04  0.21991832951E+04 0.  0.
        2    1    3    3  502    0  0.53028581539E+03 -0.79304529773E+03  0.18373034759E+04  0.20702193007E+04  0.25500000920E-02 0.  1.
       -2    1    3    3    0  502 -0.53028581539E+03  0.79304529773E+03  0.30917211317E+03  0.10028515772E+04  0.25500000920E-02 0. -1.
</event>
<event>
 5   0  0.1007682E-05  0.2205675E+04  0.7818609E-02  0.8516070E-01
        1   -1    0    0  501    0  0.00000000000E+00  0.00000000000E+00  0.60693218786E+03  0.60693218788E+03  0.50400001928E-02 0. -1.
       -1   -1    0    0    0  501  0.00000000000E+00  0.00000000000E+00 -0.20039310275E+04  0.20039310275E+04  0.50400001928E-02 0.  1.
    10030    2    1    2    0    0  0.00000000000E+00  0.00000000000E+00 -0.13969988397E+04  0.26108632154E+04  0.22056747203E+04 0.  0.
        2    1    3    3  502    0 -0.39708292580E+03  0.71942664000E+03 -0.15691453382E+04  0.17712895395E+04  0.25500000920E-02 0.  1.
       -2    1    3    3    0  502  0.39708292580E+03 -0.71942664000E+03  0.17214649855E+03  0.83957367591E+03  0.25500000920E-02 0. -1.
</event>
<event>
 5   0  0.1049198E-05  0.2200257E+04  0.7818609E-02  0.8518321E-01
       -1   -1    0    0    0  501  0.00000000000E+00  0.00000000000E+00  0.10552573212E+04  0.10552573212E+04  0.50400001928E-02 0.  1.
        1   -1    0    0  501    0  0.00000000000E+00  0.00000000000E+00 -0.11469081652E+04  0.11469081652E+04  0.50400001928E-02 0. -1.
    10030    2    1    2    0    0  0.00000000000E+00  0.00000000000E+00 -0.91650843991E+02  0.22021654864E+04  0.22002574741E+04 0.  0.
        1    1    3    3  502    0  0.28730653404E+03 -0.78255454898E+03 -0.76432437963E+03  0.11309855985E+04  0.50400001928E-02 0. -1.
       -1    1    3    3    0  502 -0.28730653404E+03  0.78255454898E+03  0.67267353564E+03  0.10711798879E+04  0.50400001928E-02 0.  1.
</event>
<event>
 5   0  0.1005538E-05  0.2217877E+04  0.7818609E-02  0.8511024E-01
        1   -1    0    0  501    0  0.00000000000E+00  0.00000000000E+00  0.17323094389E+04  0.17323094389E+04  0.50400001928E-02 0. -1.
       -1   -1    0    0    0  501  0.00000000000E+00  0.00000000000E+00 -0.70988711372E+03  0.70988711374E+03  0.50400001928E-02 0.  1.
    10030    2    1    2    0    0  0.00000000000E+00  0.00000000000E+00  0.10224223252E+04  0.24421965527E+04  0.22178765950E+04 0.  0.
        3    1    3    3  502    0  0.11778348772E+03  0.68956968701E+03 -0.43626027633E+03  0.82444062378E+03  0.10100000352E+00 0.  1.
       -3    1    3    3    0  502 -0.11778348772E+03 -0.68956968701E+03  0.14586826015E+04  0.16177559289E+04  0.10100000352E+00 0. -1.
</event>
<event>
 5   0  0.1049198E-05  0.2204764E+04  0.7818609E-02  0.8516448E-01
        1   -1    0    0  501    0  0.00000000000E+00  0.00000000000E+00  0.11817772775E+04  0.11817772775E+04  0.50400001928E-02 0. -1.
       -1   -1    0    0    0  501  0.00000000000E+00  0.00000000000E+00 -0.10283205182E+04  0.10283205183E+04  0.50400001928E-02 0.  1.
    10030    2    1    2    0    0  0.00000000000E+00  0.00000000000E+00  0.15345675925E+03  0.22100977958E+04  0.22047637719E+04 0.  0.
        1    1    3    3  502    0  0.99294465027E+03  0.10777666965E+03 -0.39097402000E+03  0.10725742741E+04  0.50400001928E-02 0. -1.
       -1    1    3    3    0  502 -0.99294465027E+03 -0.10777666965E+03  0.54443077926E+03  0.11375235217E+04  0.50400001928E-02 0.  1.
</event>
<event>
 5   0  0.1071208E-05  0.2052904E+04  0.7818609E-02  0.8582278E-01
        1   -1    0    0  501    0  0.00000000000E+00  0.00000000000E+00  0.98287064606E+03  0.98287064608E+03  0.50400001928E-02 0.  1.
       -1   -1    0    0    0  501  0.00000000000E+00  0.00000000000E+00 -0.10719662999E+04  0.10719663000E+04  0.50400001928E-02 0. -1.
    10030    2    1    2    0    0  0.00000000000E+00  0.00000000000E+00 -0.89095653884E+02  0.20548369460E+04  0.20529044886E+04 0.  0.
        4    1    3    3  502    0  0.48002611851E+02 -0.45501155188E+03 -0.96425051761E+03  0.10672958525E+04  0.12699999809E+01 0. -1.
       -4    1    3    3    0  502 -0.48002611851E+02  0.45501155188E+03  0.87515486372E+03  0.98754109357E+03  0.12699999809E+01 0.  1.
</event>
<event>
 5   0  0.1071208E-05  0.2197206E+04  0.7818609E-02  0.8519592E-01
        1   -1    0    0  501    0  0.00000000000E+00  0.00000000000E+00  0.28241558551E+04  0.28241558551E+04  0.50400001928E-02 0. -1.
       -1   -1    0    0    0  501  0.00000000000E+00  0.00000000000E+00 -0.42735899651E+03  0.42735899654E+03  0.50400001928E-02 0.  1.
    10030    2    1    2    0    0  0.00000000000E+00  0.00000000000E+00  0.23967968586E+04  0.32515148516E+04  0.21972058732E+04 0.  0.
        4    1    3    3  502    0 -0.43323588619E+03  0.16141418488E+03 -0.27638666311E+03  0.53864559091E+03  0.12699999809E+01 0.  1.
       -4    1    3    3    0  502  0.43323588619E+03 -0.16141418488E+03  0.26731835217E+04  0.27128692607E+04  0.12699999809E+01 0. -1.
</event>
<event>
 5   0  0.1005538E-05  0.2195323E+04  0.7818609E-02  0.8520377E-01
       -1   -1    0    0    0  501  0.00000000000E+00  0.00000000000E+00  0.95823813342E+03  0.95823813343E+03  0.50400001928E-02 0.  1.
        1   -1    0    0  501    0  0.00000000000E+00  0.00000000000E+00 -0.12573713011E+04  0.12573713011E+04  0.50400001928E-02 0. -1.
    10030    2    1    2    0    0  0.00000000000E+00  0.00000000000E+00 -0.29913316764E+03  0.22156094345E+04  0.21953233280E+04 0.  0.
        3    1    3    3  502    0  0.25958364958E+03  0.59173228563E+03  0.74594912762E+03  0.98689963025E+03  0.10100000352E+00 0.  1.
       -3    1    3    3    0  502 -0.25958364958E+03 -0.59173228563E+03 -0.10450822953E+04  0.12287098042E+04  0.10100000352E+00 0. -1.
</event>
<event>
 5   0  0.2284329E-05  0.2214581E+04  0.7818609E-02  0.8512383E-01
       -2   -1    0    0    0  501  0.00000000000E+00  0.00000000000E+00  0.11928730054E+04  0.11928730054E+04  0.25500000920E-02 0.  1.
        2   -1    0    0  501    0  0.00000000000E+00  0.00000000000E+00 -0.10278484982E+04  0.10278484982E+04  0.25500000920E-02 0. -1.
    10030    2    1    2    0    0  0.00000000000E+00  0.00000000000E+00  0.16502450716E+03  0.22207215036E+04  0.22145814297E+04 0.  0.
        2    1    3    3  502    0 -0.79740503227E+03 -0.28922977034E+03  0.79623282336E+03  0.11633981926E+04  0.25500000920E-02 0.  1.
       -2    1    3    3    0  502  0.79740503227E+03  0.28922977034E+03 -0.63120831620E+03  0.10573233110E+04  0.25500000920E-02 0. -1.
</event>
<event>
 5   0  0.1033733E-05  0.2205046E+04  0.7818609E-02  0.8516331E-01
       -1   -1    0    0    0  501  0.00000000000E+00  0.00000000000E+00  0.60615656514E+03  0.60615656517E+03  0.50400001928E-02 0.  1.
        1   -1    0    0  501    0  0.00000000000E+00  0.00000000000E+00 -0.20053506157E+04  0.20053506157E+04  0.50400001928E-02 0. -1.
    10030    2    1    2    0    0  0.00000000000E+00  0.00000000000E+00 -0.13991940506E+04  0.26115071809E+04  0.22050455244E+04 0.  0.
        5    1    3    3  502    0  0.15025799341E+03  0.25082468354E+03 -0.19585842264E+04  0.19802941065E+04  0.46999998093E+01 0. -1.
       -5    1    3    3    0  502 -0.15025799341E+03 -0.25082468354E+03  0.55939017582E+03  0.63121307437E+03  0.46999998093E+01 0.  1.
</event>
<event>
 5   0  0.2229552E-05  0.2195157E+04  0.7818609E-02  0.8520447E-01
       -2   -1    0    0    0  501  0.00000000000E+00  0.00000000000E+00  0.10313103267E+04  0.10313103267E+04  0.25500000920E-02 0.  1.
        2   -1    0    0  501    0  0.00000000000E+00  0.00000000000E+00 -0.11681045079E+04  0.11681045079E+04  0.25500000920E-02 0. -1.
    10030    2    1    2    0    0  0.00000000000E+00  0.00000000000E+00 -0.13679418124E+03  0.21994148346E+04  0.21951567067E+04 0.  0.
        1    1    3    3  502    0  0.92296438623E+03 -0.16524993838E+02 -0.66330123772E+03  0.11367079069E+04  0.50400001928E-02 0. -1.
       -1    1    3    3    0  502 -0.92296438623E+03  0.16524993838E+02  0.52650705648E+03  0.10627069277E+04  0.50400001928E-02 0.  1.
</event>
<event>
 5   0  0.1005538E-05  0.2221825E+04  0.7818609E-02  0.8509399E-01
       -1   -1    0    0    0  501  0.00000000000E+00  0.00000000000E+00  0.13401535389E+04  0.13401535389E+04  0.50400001928E-02 0. -1.
        1   -1    0    0  501    0  0.00000000000E+00  0.00000000000E+00 -0.92088453578E+03  0.92088453580E+03  0.50400001928E-02 0.  1.
    10030    2    1    2    0    0  0.00000000000E+00  0.00000000000E+00  0.41926900316E+03  0.22610380747E+04  0.22218250783E+04 0.  0.
        3    1    3    3  502    0  0.20757284608E+03 -0.10836216683E+04  0.34155358218E+03  0.11549810675E+04  0.10100000352E+00 0. -1.
       -3    1    3    3    0  502 -0.20757284608E+03  0.10836216683E+04  0.77715420979E+02  0.11060570073E+04  0.10100000352E+00 0.  1.
</event>
<event>
 5   0  0.2229552E-05  0.2185466E+04  0.7818609E-02  0.8524502E-01
       -2   -1    0    0    0  501  0.00000000000E+00  0.00000000000E+00  0.92471473757E+03  0.92471473757E+03  0.25500000920E-02 0.  1.
        2   -1    0    0  501    0  0.00000000000E+00  0.00000000000E+00 -0.12912793324E+04  0.12912793324E+04  0.25500000920E-02 0. -1.
    10030    2    1    2    0    0  0.00000000000E+00  0.00000000000E+00 -0.36656459480E+03  0.22159940699E+04  0.21854656520E+04 0.  0.
        1    1    3    3  502    0 -0.95160818264E+03 -0.43339449652E+03 -0.50500952265E+03  0.11612164057E+04  0.50400001928E-02 0. -1.
       -1    1    3    3    0  502  0.95160818264E+03  0.43339449652E+03  0.13844492785E+03  0.10547776642E+04  0.50400001928E-02 0.  1.
</event>
<event>
 5   0  0.1049198E-05  0.2197357E+04  0.7818609E-02  0.8519529E-01
        1   -1    0    0  501    0  0.00000000000E+00  0.00000000000E+00  0.75469192899E+03  0.75469192901E+03  0.50400001928E-02 0. -1.
       -1   -1    0    0    0  501  0.00000000000E+00  0.00000000000E+00 -0.15994534121E+04  0.15994534122E+04  0.50400001928E-02 0.  1.
    10030    2    1    2    0    0  0.00000000000E+00  0.00000000000E+00 -0.84476148315E+03  0.23541453412E+04  0.21973571225E+04 0.  0.
        1    1    3    3  502    0  0.58170375316E+03  0.92684964666E+03 -0.52770655839E+03  0.12148677853E+04  0.50400001928E-02 0. -1.
       -1    1    3    3    0  502 -0.58170375316E+03 -0.92684964666E+03 -0.31705492476E+03  0.11392775559E+04  0.50400001928E-02 0.  1.
</event>
<event>
 5   0  0.2289708E-05  0.2197245E+04  0.7818609E-02  0.8519576E-01
        2   -1    0    0  501    0  0.00000000000E+00  0.00000000000E+00  0.10081656265E+04  0.10081656265E+04  0.25500000920E-02 0. -1.
       -2   -1    0    0    0  501  0.00000000000E+00  0.00000000000E+00 -0.11971956291E+04  0.11971956291E+04  0.25500000920E-02 0.  1.
    10030    2    1    2    0    0  0.00000000000E+00  0.00000000000E+00 -0.18903000263E+03  0.22053612557E+04  0.21972450765E+04 0.  0.
        5    1    3    3  502    0  0.50405288807E+03  0.38319486573E+03  0.80659957572E+03  0.10254426286E+04  0.46999998093E+01 0. -1.
       -5    1    3    3    0  502 -0.50405288807E+03 -0.38319486573E+03 -0.99562957835E+03  0.11799186270E+04  0.46999998093E+01 0.  1.
</event>
<event>
 5   0  0.1007682E-05  0.2203051E+04  0.7818609E-02  0.8517159E-01
        1   -1    0    0  501    0  0.00000000000E+00  0.00000000000E+00  0.22060423554E+04  0.22060423554E+04  0.50400001928E-02 0.  1.
       -1   -1    0    0    0  501  0.00000000000E+00  0.00000000000E+00 -0.55001580197E+03  0.55001580200E+03  0.50400001928E-02 0. -1.
    10030    2    1    2    0    0  0.00000000000E+00  0.00000000000E+00  0.16560265535E+04  0.27560581574E+04  0.22030507533E+04 0.  0.
        2    1    3    3  502    0  0.38672234510E+03  0.62530325632E+03 -0.19812717602E+03  0.76145434036E+03  0.25500000920E-02 0. -1.
       -2    1    3    3    0  502 -0.38672234510E+03 -0.62530325632E+03  0.18541537295E+04  0.19946038171E+04  0.25500000920E-02 0.  1.
</event>
<event>
 5   0  0.2319707E-05  0.2185646E+04  0.7818609E-02  0.8524426E-01
       -2   -1    0    0    0  501  0.00000000000E+00  0.00000000000E+00  0.13317187685E+04  0.13317187685E+04  0.25500000920E-02 0. -1.
        2   -1    0    0  501    0  0.00000000000E+00  0.00000000000E+00 -0.89678266887E+03  0.89678266887E+03  0.25500000920E-02 0.  1.
    10030    2    1    2    0    0  0.00000000000E+00  0.00000000000E+00  0.43493609963E+03  0.22285014374E+04  0.21856461849E+04 0.  0.
        3    1    3    3  502    0  0.15106450136E+03  0.70763602371E+03 -0.61754828366E+03  0.95128077793E+03  0.10100000352E+00 0.  1.
       -3    1    3    3    0  502 -0.15106450136E+03 -0.70763602371E+03  0.10524843833E+04  0.12772206594E+04  0.10100000352E+00 0. -1.
</event>
<event>
 5   0  0.2284329E-05  0.2195668E+04  0.7818609E-02  0.8520233E-01
       -2   -1    0    0    0  501  0.00000000000E+00  0.00000000000E+00  0.42932862756E+03  0.42932862756E+03  0.25500000920E-02 0. -1.
        2   -1    0    0  501    0  0.00000000000E+00  0.00000000000E+00 -0.28072648848E+04  0.28072648848E+04  0.25500000920E-02 0.  1.
    10030    2    1    2    0    0  0.00000000000E+00  0.00000000000E+00 -0.23779362572E+04  0.32365935123E+04  0.21956677164E+04 0.  0.
        2    1    3    3  502    0  0.10432306558E+03  0.10833816623E+04 -0.14007442236E+04  0.17738893732E+04  0.25500000920E-02 0.  1.
       -2    1    3    3    0  502 -0.10432306558E+03 -0.10833816623E+04 -0.97719203358E+03  0.14627041392E+04  0.25500000920E-02 0. -1.
</event>
<event>
 5   0  0.1007682E-05  0.2241968E+04  0.7818609E-02  0.8501160E-01
        1   -1    0    0  501    0  0.00000000000E+00  0.00000000000E+00  0.10787872504E+04  0.10787872504E+04  0.50400001928E-02 0.  1.
       -1   -1    0    0    0  501  0.00000000000E+00  0.00000000000E+00 -0.11648316151E+04  0.11648316151E+04  0.50400001928E-02 0. -1.
    10030    2    1    2    0    0  0.00000000000E+00  0.00000000000E+00 -0.86044364671E+02  0.22436188655E+04  0.22419683274E+04 0.  0.
        2    1    3    3  502    0  0.39670248738E+03 -0.39770174762E+03 -0.10138218981E+04  0.11590402860E+04  0.25500000920E-02 0. -1.
       -2    1    3    3    0  502 -0.39670248738E+03  0.39770174762E+03  0.92777753344E+03  0.10845785795E+04  0.25500000920E-02 0.  1.
</event>
<event>
 5   0  0.2289708E-05  0.2199621E+04  0.7818609E-02  0.8518586E-01
       -2   -1    0    0    0  501  0.00000000000E+00  0.00000000000E+00  0.64338345476E+03  0.64338345477E+03  0.25500000920E-02 0. -1.
        2   -1    0    0  501    0  0.00000000000E+00  0.00000000000E+00 -0.18800348133E+04  0.18800348133E+04  0.25500000920E-02 0.  1.
    10030    2    1    2    0    0  0.00000000000E+00  0.00000000000E+00 -0.12366513586E+04  0.25234182681E+04  0.21996211431E+04 0.  0.
        5    1    3    3  502    0  0.85069950932E+03  0.67894955616E+03 -0.79934825129E+03  0.13504228493E+04  0.46999998093E+01 0.  1.
       -5    1    3    3    0  502 -0.85069950932E+03 -0.67894955616E+03 -0.43730310726E+03  0.11729954188E+04  0.46999998093E+01 0. -1.
</event>
<event>
 5   0  0.2289708E-05  0.2209178E+04  0.7818609E-02  0.8514618E-01
       -2   -1    0    0    0  501  0.00000000000E+00  0.00000000000E+00  0.16261351593E+04  0.16261351593E+04  0.25500000920E-02 0. -1.
        2   -1    0    0  501    0  0.00000000000E+00  0.00000000000E+00 -0.75031719285E+03  0.75031719286E+03  0.25500000920E-02 0.  1.
    10030    2    1    2    0    0  0.00000000000E+00  0.00000000000E+00  0.87581796646E+03  0.23764523522E+04  0.22091782798E+04 0.  0.
        5    1    3    3  502    0 -0.46492683798E+03 -0.84833801114E+03 -0.13562186436E+03  0.97685706524E+03  0.46999998093E+01 0.  1.
       -5    1    3    3    0  502  0.46492683798E+03  0.84833801114E+03  0.10114398308E+04  0.13995952869E+04  0.46999998093E+01 0. -1.
</event>
<event>
 5   0  0.2319707E-05  0.2196863E+04  0.7818609E-02  0.8519735E-01
        2   -1    0    0  501    0  0.00000000000E+00  0.00000000000E+00  0.11736175473E+04  0.11736175473E+04  0.25500000920E-02 0. -1.
       -2   -1    0    0    0  501  0.00000000000E+00  0.00000000000E+00 -0.10280620526E+04  0.10280620526E+04  0.25500000920E-02 0.  1.
    10030    2    1    2    0    0  0.00000000000E+00  0.00000000000E+00  0.14555549470E+03  0.22016795999E+04  0.21968629130E+04 0.  0.
        3    1    3    3  502    0 -0.49922413961E+03  0.16821999250E+03 -0.89319702449E+03  0.10369781301E+04  0.10100000352E+00 0.  1.
       -3    1    3    3    0  502  0.49922413961E+03 -0.16821999250E+03  0.10387525192E+04  0.11647014698E+04  0.10100000352E+00 0. -1.
</event>
<event>
 5   0  0.2229552E-05  0.2200206E+04  0.7818609E-02  0.8518342E-01
        2   -1    0    0  501    0  0.00000000000E+00  0.00000000000E+00  0.10049766376E+04  0.10049766376E+04  0.25500000920E-02 0.  1.
       -2   -1    0    0    0  501  0.00000000000E+00  0.00000000000E+00 -0.12042335780E+04  0.12042335780E+04  0.25500000920E-02 0. -1.
    10030    2    1    2    0    0  0.00000000000E+00  0.00000000000E+00 -0.19925694038E+03  0.22092102155E+04  0.22002060013E+04 0.  0.
        1    1    3    3  502    0 -0.29887619699E+03  0.29981571786E+03  0.91991364817E+03  0.10126487871E+04  0.50400001928E-02 0.  1.
       -1    1    3    3    0  502  0.29887619699E+03 -0.29981571786E+03 -0.11191705886E+04  0.11965614285E+04  0.50400001928E-02 0. -1.
</event>
<event>
 5   0  0.1033733E-05  0.2163444E+04  0.7818609E-02  0.8533799E-01
       -1   -1    0    0    0  501  0.00000000000E+00  0.00000000000E+00  0.75313790958E+03  0.75313790960E+03  0.50400001928E-02 0. -1.
        1   -1    0    0  501    0  0.00000000000E+00  0.00000000000E+00 -0.15536632512E+04  0.15536632512E+04  0.50400001928E-02 0.  1.
    10030    2    1    2    0    0  0.00000000000E+00  0.00000000000E+00 -0.80052534163E+03  0.23068011608E+04  0.21634441923E+04 0.  0.
        5    1    3    3  502    0 -0.89206054086E+03 -0.41367102358E+03  0.80390188425E+02  0.98660042404E+03  0.46999998093E+01 0. -1.
       -5    1    3    3    0  502  0.89206054086E+03  0.41367102358E+03 -0.88091553006E+03  0.13202007368E+04  0.46999998093E+01 0.  1.
</event>
<event>
 5   0  0.1049198E-05  0.2200101E+04  0.7818609E-02  0.8518386E-01
        1   -1    0    0  501    0  0.00000000000E+00  0.00000000000E+00  0.12658311844E+04  0.12658311844E+04  0.50400001928E-02 0. -1.
       -1   -1    0    0    0  501  0.00000000000E+00  0.00000000000E+00 -0.95598113082E+03  0.95598113083E+03  0.50400001928E-02 0.  1.
    10030    2    1    2    0    0  0.00000000000E+00  0.00000000000E+00  0.30985005360E+03  0.22218123153E+04  0.22001006587E+04 0.  0.
        1    1    3    3  502    0 -0.62395887818E+03 -0.57937105565E+03 -0.54845052878E+03  0.10128146347E+04  0.50400001928E-02 0.  1.
       -1    1    3    3    0  502  0.62395887818E+03  0.57937105565E+03  0.85830058238E+03  0.12089976805E+04  0.50400001928E-02 0. -1.
</event>
<event>
 5   0  0.2284329E-05  0.2113470E+04  0.7818609E-02  0.8555333E-01
       -2   -1    0    0    0  501  0.00000000000E+00  0.00000000000E+00  0.69760834006E+03  0.69760834006E+03  0.25500000920E-02 0. -1.
        2   -1    0    0  501    0  0.00000000000E+00  0.00000000000E+00 -0.16007390367E+04  0.16007390367E+04  0.25500000920E-02 0.  1.
    10030    2    1    2    0    0  0.00000000000E+00  0.00000000000E+00 -0.90313069669E+03  0.22983473768E+04  0.21134700398E+04 0.  0.
        2    1    3    3  502    0  0.54143622308E+03 -0.12846065483E+03 -0.14284996897E+04  0.15330579529E+04  0.25500000920E-02 0.  1.
       -2    1    3    3    0  502 -0.54143622308E+03  0.12846065483E+03  0.52536899302E+03  0.76528942390E+03  0.25500000920E-02 0. -1.
</event>
<event>
 5   0  0.1007682E-05  0.2195442E+04  0.7818609E-02  0.8520328E-01
       -1   -1    0    0    0  501  0.00000000000E+00  0.00000000000E+00  0.10971315692E+04  0.10971315692E+04  0.50400001928E-02 0.  1.
        1   -1    0    0  501    0  0.00000000000E+00  0.00000000000E+00 -0.10983109175E+04  0.10983109175E+04  0.50400001928E-02 0. -1.
    10030    2    1    2    0    0  0.00000000000E+00  0.00000000000E+00 -0.11793483058E+01  0.21954424866E+04  0.21954421699E+04 0.  0.
        2    1    3    3  502    0  0.30122959953E+03  0.43630630359E+03 -0.96178132243E+03  0.10982375765E+04  0.25500000920E-02 0. -1.
       -2    1    3    3    0  502 -0.30122959953E+03 -0.43630630359E+03  0.96060197413E+03  0.10972049102E+04  0.25500000920E-02 0.  1.
</event>
<event>
 5   0  0.2229552E-05  0.2198069E+04  0.7818609E-02  0.8519232E-01
        2   -1    0    0  501    0  0.00000000000E+00  0.00000000000E+00  0.20432992595E+04  0.20432992595E+04  0.25500000920E-02 0.  1.
       -2   -1    0    0    0  501  0.00000000000E+00  0.00000000000E+00 -0.59114027112E+03  0.59114027112E+03  0.25500000920E-02 0. -1.
    10030    2    1    2    0    0  0.00000000000E+00  0.00000000000E+00  0.14521589884E+04  0.26344395306E+04  0.21980686779E+04 0.  0.
        1    1    3    3  502    0  0.29818857607E+03  0.49150870201E+03  0.18487198650E+04  0.19360429671E+04  0.50400001928E-02 0.  1.
       -1    1    3    3    0  502 -0.29818857607E+03 -0.49150870201E+03 -0.39656087664E+03  0.69839656354E+03  0.50400001928E-02 0. -1.
</event>
<event>
 5   0  0.2289708E-05  0.2203601E+04  0.7818609E-02  0.8516931E-01
        2   -1    0    0  501    0  0.00000000000E+00  0.00000000000E+00  0.28489175798E+04  0.28489175798E+04  0.25500000920E-02 0. -1.
       -2   -1    0    0    0  501  0.00000000000E+00  0.00000000000E+00 -0.42611415027E+03  0.42611415028E+03  0.25500000920E-02 0.  1.
    10030    2    1    2    0    0  0.00000000000E+00  0.00000000000E+00  0.24228034295E+04  0.32750317301E+04  0.22036007749E+04 0.  0.
        5    1    3    3  502    0 -0.74724650384E+03  0.46472209082E+02  0.10039904063E+02  0.74877225736E+03  0.46999998093E+01 0.  1.
       -5    1    3    3    0  502  0.74724650384E+03 -0.46472209082E+02  0.24127635255E+04  0.25262594727E+04  0.46999998093E+01 0. -1.
</event>
<event>
 5   0  0.1033733E-05  0.2206566E+04  0.7818609E-02  0.8515700E-01
        1   -1    0    0  501    0  0.00000000000E+00  0.00000000000E+00  0.94951843445E+03  0.94951843446E+03  0.50400001928E-02 0. -1.
       -1   -1    0    0    0  501  0.00000000000E+00  0.00000000000E+00 -0.12819483847E+04  0.12819483847E+04  0.50400001928E-02 0.  1.
    10030    2    1    2    0    0  0.00000000000E+00  0.00000000000E+00 -0.33242995025E+03  0.22314668192E+04  0.22065662223E+04 0.  0.
        5    1    3    3  502    0 -0.49790372025E+02 -0.61783914622E+03  0.75677685339E+03  0.97823186800E+03  0.46999998093E+01 0. -1.
       -5    1    3    3    0  502  0.49790372025E+02  0.61783914622E+03 -0.10892068036E+04  0.12532349512E+04  0.46999998093E+01 0.  1.
</event>
<event>
 5   0  0.1033733E-05  0.2200555E+04  0.7818609E-02  0.8518197E-01
        1   -1    0    0  501    0  0.00000000000E+00  0.00000000000E+00  0.10600673847E+04  0.10600673847E+04  0.50400001928E-02 0. -1.
       -1   -1    0    0    0  501  0.00000000000E+00  0.00000000000E+00 -0.11420131268E+04  0.11420131268E+04  0.50400001928E-02 0.  1.
    10030    2    1    2    0    0  0.00000000000E+00  0.00000000000E+00 -0.81945742132E+02  0.22020805115E+04  0.22005552651E+04 0.  0.
        5    1    3    3  502    0  0.70285554945E+03 -0.68591759789E+03  0.45545554812E+03  0.10825667281E+04  0.46999998093E+01 0. -1.
       -5    1    3    3    0  502 -0.70285554945E+03  0.68591759789E+03 -0.53740129025E+03  0.11195137834E+04  0.46999998093E+01 0.  1.
</event>
<event>
 5   0  0.2229552E-05  0.2192931E+04  0.7818609E-02  0.8521376E-01
        2   -1    0    0  501    0  0.00000000000E+00  0.00000000000E+00  0.20093276121E+04  0.20093276121E+04  0.25500000920E-02 0.  1.
       -2   -1    0    0    0  501  0.00000000000E+00  0.00000000000E+00 -0.59832799434E+03  0.59832799435E+03  0.25500000920E-02 0. -1.
    10030    2    1    2    0    0  0.00000000000E+00  0.00000000000E+00  0.14109996178E+04  0.26076556064E+04  0.21929313351E+04 0.  0.
        1    1    3    3  502    0 -0.83432849932E+03  0.64053146566E+03  0.33734828872E+03  0.11046214153E+04  0.50400001928E-02 0.  1.
       -1    1    3    3    0  502  0.83432849932E+03 -0.64053146566E+03  0.10736513290E+04  0.15030341911E+04  0.50400001928E-02 0. -1.
</event>
<event>
 5   0  0.2298329E-05  0.2185723E+04  0.7818609E-02  0.8524394E-01
        2   -1    0    0  501    0  0.00000000000E+00  0.00000000000E+00  0.78269470937E+03  0.78269470937E+03  0.25500000920E-02 0.  1.
       -2   -1    0    0    0  501  0.00000000000E+00  0.00000000000E+00 -0.15259407415E+04  0.15259407415E+04  0.25500000920E-02 0. -1.
    10030    2    1    2    0    0  0.00000000000E+00  0.00000000000E+00 -0.74324603209E+03  0.23086354508E+04  0.21857225306E+04 0.  0.
        4    1    3    3  502    0 -0.46189021259E+03 -0.96677504783E+03 -0.59901430260E+03  0.12275244638E+04  0.12699999809E+01 0.  1.
       -4    1    3    3    0  502  0.46189021259E+03  0.96677504783E+03 -0.14423172949E+03  0.10811109870E+04  0.12699999809E+01 0. -1.
</event>
<event>
 5   0  0.1007682E-05  0.2205042E+04  0.7818609E-02  0.8516332E-01
        1   -1    0    0  501    0  0.00000000000E+00  0.00000000000E+00  0.14239335990E+04  0.14239335990E+04  0.50400001928E-02 0. -1.
       -1   -1    0    0    0  501  0.00000000000E+00  0.00000000000E+00 -0.85365832575E+03  0.85365832577E+03  0.50400001928E-02 0.  1.
    10030    2    1    2    0    0  0.00000000000E+00  0.00000000000E+00  0.57027527328E+03  0.22775919248E+04  0.22050421966E+04 0.  0.
        2    1    3    3  502    0  0.86481986446E+03 -0.67882406893E+03  0.19972935541E+03  0.11174109942E+04  0.25500000920E-02 0.  1.
       -2    1    3    3    0  502 -0.86481986446E+03  0.67882406893E+03  0.37054591787E+03  0.11601809306E+04  0.25500000920E-02 0. -1.
</event>
<event>
 5   0  0.1071208E-05  0.2203390E+04  0.7818609E-02  0.8517018E-01
       -1   -1    0    0    0  501  0.00000000000E+00  0.00000000000E+00  0.15371204709E+04  0.15371204709E+04  0.50400001928E-02 0. -1.
        1   -1    0    0  501    0  0.00000000000E+00  0.00000000000E+00 -0.78961404838E+03  0.78961404840E+03  0.50400001928E-02 0.  1.
    10030    2    1    2    0    0  0.00000000000E+00  0.00000000000E+00  0.74750642249E+03  0.23267345193E+04  0.22033900407E+04 0.  0.
        4    1    3    3  502    0  0.51191123697E+03 -0.88861159724E+03 -0.51331454733E+02  0.10268009624E+04  0.12699999809E+01 0.  1.
       -4    1    3    3    0  502 -0.51191123697E+03  0.88861159724E+03  0.79883787722E+03  0.12999335569E+04  0.12699999809E+01 0. -1.
</event>
<event>
 5   0  0.2319707E-05  0.2191410E+04  0.7818609E-02  0.8522012E-01
       -2   -1    0    0    0  501  0.00000000000E+00  0.00000000000E+00  0.91549016584E+03  0.91549016584E+03  0.25500000920E-02 0. -1.
        2   -1    0    0  501    0  0.00000000000E+00  0.00000000000E+00 -0.13113955400E+04  0.13113955400E+04  0.25500000920E-02 0.  1.
    10030    2    1    2    0    0  0.00000000000E+00  0.00000000000E+00 -0.39590537417E+03  0.22268857059E+04  0.21914102495E+04 0.  0.
        3    1    3    3  502    0 -0.28382449179E+03 -0.19882618130E+02 -0.12732020270E+04  0.13046053320E+04  0.10100000352E+00 0.  1.
       -3    1    3    3    0  502  0.28382449179E+03  0.19882618130E+02  0.87729665283E+03  0.92228037381E+03  0.10100000352E+00 0. -1.
</event>
<event>
 5   0  0.1049198E-05  0.2203284E+04  0.7818609E-02  0.8517062E-01
       -1   -1    0    0    0  501  0.00000000000E+00  0.00000000000E+00  0.11006868540E+04  0.11006868541E+04  0.50400001928E-02 0. -1.
        1   -1    0    0  501    0  0.00000000000E+00  0.00000000000E+00 -0.11025984739E+04  0.11025984739E+04  0.50400001928E-02 0.  1.
    10030    2    1    2    0    0  0.00000000000E+00  0.00000000000E+00 -0.19116198331E+01  0.22032853280E+04  0.22032844987E+04 0.  0.
        1    1    3    3  502    0 -0.72155255212E+03 -0.79778689102E+03  0.23677024898E+03  0.11014364075E+04  0.50400001928E-02 0.  1.
       -1    1    3    3    0  502  0.72155255212E+03  0.79778689102E+03 -0.23868186882E+03  0.11018489204E+04  0.50400001928E-02 0. -1.
</event>
<event>
 5   0  0.2289708E-05  0.2193786E+04  0.7818609E-02  0.8521019E-01
       -2   -1    0    0    0  501  0.00000000000E+00  0.00000000000E+00  0.78331011011E+03  0.78331011011E+03  0.25500000920E-02 0. -1.
        2   -1    0    0  501    0  0.00000000000E+00  0.00000000000E+00 -0.15360128877E+04  0.15360128877E+04  0.25500000920E-02 0.  1.
    10030    2    1    2    0    0  0.00000000000E+00  0.00000000000E+00 -0.75270277764E+03  0.23193229979E+04  0.21937861557E+04 0.  0.
        5    1    3    3  502    0  0.60185152677E+03 -0.22983972760E+03  0.56219948811E+03  0.85506836866E+03  0.46999998093E+01 0. -1.
       -5    1    3    3    0  502 -0.60185152677E+03  0.22983972760E+03 -0.13149022657E+04  0.14642546292E+04  0.46999998093E+01 0.  1.
</event>
<event>
 5   0  0.1007682E-05  0.2198480E+04  0.7818609E-02  0.8519061E-01
       -1   -1    0    0    0  501  0.00000000000E+00  0.00000000000E+00  0.88304826503E+03  0.88304826505E+03  0.50400001928E-02 0.  1.
        1   -1    0    0  501    0  0.00000000000E+00  0.00000000000E+00 -0.13683601321E+04  0.13683601321E+04  0.50400001928E-02 0. -1.
    10030    2    1    2    0    0  0.00000000000E+00  0.00000000000E+00 -0.48531186707E+03  0.22514083972E+04  0.21984795115E+04 0.  0.
        2    1    3    3  502    0 -0.37925640157E+02 -0.42767471332E+03 -0.12789391152E+04  0.13490846063E+04  0.25500000920E-02 0. -1.
       -2    1    3    3    0  502  0.37925640157E+02  0.42767471332E+03  0.79362724812E+03  0.90232379086E+03  0.25500000920E-02 0.  1.
</event>
<event>
 5   0  0.2229552E-05  0.2194016E+04  0.7818609E-02  0.8520923E-01
        2   -1    0    0  501    0  0.00000000000E+00  0.00000000000E+00  0.10493559378E+04  0.10493559378E+04  0.25500000920E-02 0.  1.
       -2   -1    0    0    0  501  0.00000000000E+00  0.00000000000E+00 -0.11468240676E+04  0.11468240676E+04  0.25500000920E-02 0. -1.
    10030    2    1    2    0    0  0.00000000000E+00  0.00000000000E+00 -0.97468129802E+02  0.21961800055E+04  0.21940160848E+04 0.  0.
        1    1    3    3  502    0 -0.48380959759E+03  0.20381581115E+03  0.91544699193E+03  0.10552989182E+04  0.50400001928E-02 0.  1.
       -1    1    3    3    0  502  0.48380959759E+03 -0.20381581115E+03 -0.10129151217E+04  0.11408810873E+04  0.50400001928E-02 0. -1.
</event>
<event>
 5   0  0.2284329E-05  0.2198399E+04  0.7818609E-02  0.8519095E-01
        2   -1    0    0  501    0  0.00000000000E+00  0.00000000000E+00  0.85885928818E+03  0.85885928818E+03  0.25500000920E-02 0.  1.
       -2   -1    0    0    0  501  0.00000000000E+00  0.00000000000E+00 -0.14067950870E+04  0.14067950870E+04  0.25500000920E-02 0. -1.
    10030    2    1    2    0    0  0.00000000000E+00  0.00000000000E+00 -0.54793579879E+03  0.22656543752E+04  0.21983985326E+04 0.  0.
        2    1    3    3  502    0 -0.29108101259E+03 -0.10140265355E+04 -0.59205417437E+03  0.12097545685E+04  0.25500000920E-02 0. -1.
       -2    1    3    3    0  502  0.29108101259E+03  0.10140265355E+04  0.44118375580E+02  0.10558998067E+04  0.25500000920E-02 0.  1.
</event>
<event>
 5   0  0.8003875E-06  0.2246926E+04  0.7818609E-02  0.8499146E-01
        3   -1    0    0  501    0  0.00000000000E+00  0.00000000000E+00  0.90414030885E+03  0.90414031449E+03  0.10100000352E+00 0.  1.
       -3   -1    0    0    0  501  0.00000000000E+00  0.00000000000E+00 -0.13959882612E+04  0.13959882649E+04  0.10100000352E+00 0. -1.
    10030    2    1    2    0    0  0.00000000000E+00  0.00000000000E+00 -0.49184795235E+03  0.23001285793E+04  0.22469261388E+04 0.  0.
        3    1    3    3  502    0 -0.56869079938E+03 -0.95532701883E+03 -0.41133689088E+03  0.11854353572E+04  0.10100000352E+00 0. -1.
       -3    1    3    3    0  502  0.56869079938E+03  0.95532701883E+03 -0.80511061467E+02  0.11146932221E+04  0.10100000352E+00 0.  1.
</event>
<event>
 5   0  0.1071208E-05  0.2177024E+04  0.7818609E-02  0.8528052E-01
       -1   -1    0    0    0  501  0.00000000000E+00  0.00000000000E+00  0.67300837513E+03  0.67300837515E+03  0.50400001928E-02 0.  1.
        1   -1    0    0  501    0  0.00000000000E+00  0.00000000000E+00 -0.17605403721E+04  0.17605403721E+04  0.50400001928E-02 0. -1.
    10030    2    1    2    0    0  0.00000000000E+00  0.00000000000E+00 -0.10875319969E+04  0.24335487472E+04  0.21770240377E+04 0.  0.
        4    1    3    3  502    0 -0.17955130135E+03  0.15912348231E+03  0.64308490613E+03  0.68638091599E+03  0.12699999809E+01 0.  1.
       -4    1    3    3    0  502  0.17955130135E+03 -0.15912348231E+03 -0.17306169031E+04  0.17471678312E+04  0.12699999809E+01 0. -1.
</event>
<event>
 5   0  0.2298329E-05  0.2198064E+04  0.7818609E-02  0.8519234E-01
        2   -1    0    0  501    0  0.00000000000E+00  0.00000000000E+00  0.19394076525E+04  0.19394076525E+04  0.25500000920E-02 0. -1.
       -2   -1    0    0    0  501  0.00000000000E+00  0.00000000000E+00 -0.62280448445E+03  0.62280448446E+03  0.25500000920E-02 0.  1.
    10030    2    1    2    0    0  0.00000000000E+00  0.00000000000E+00  0.13166031680E+04  0.25622121370E+04  0.21980644059E+04 0.  0.
        4    1    3    3  502    0  0.42865291757E+03  0.42876617551E+03  0.17268355729E+04  0.18301766215E+04  0.12699999809E+01 0. -1.
       -4    1    3    3    0  502 -0.42865291757E+03 -0.42876617551E+03 -0.41023240488E+03  0.73203551547E+03  0.12699999809E+01 0.  1.
</event>
<event>
 5   0  0.2289708E-05  0.2198553E+04  0.7818609E-02  0.8519030E-01
       -2   -1    0    0    0  501  0.00000000000E+00  0.00000000000E+00  0.59478463274E+03  0.59478463275E+03  0.25500000920E-02 0.  1.
        2   -1    0    0  501    0  0.00000000000E+00  0.00000000000E+00 -0.20316752729E+04  0.20316752729E+04  0.25500000920E-02 0. -1.
    10030    2    1    2    0    0  0.00000000000E+00  0.00000000000E+00 -0.14368906401E+04  0.26264599056E+04  0.21985533708E+04 0.  0.
        5    1    3    3  502    0  0.81704927039E+03  0.39788689841E+02 -0.15956937392E+04  0.17931573409E+04  0.46999998093E+01 0. -1.
       -5    1    3    3    0  502 -0.81704927039E+03 -0.39788689841E+02  0.15880309903E+03  0.83330256471E+03  0.46999998093E+01 0.  1.
</event>
<event>
 5   0  0.1049198E-05  0.2202890E+04  0.7818609E-02  0.8517226E-01
       -1   -1    0    0    0  501  0.00000000000E+00  0.00000000000E+00  0.13034194491E+04  0.13034194491E+04  0.50400001928E-02 0. -1.
        1   -1    0    0  501    0  0.00000000000E+00  0.00000000000E+00 -0.93076813335E+03  0.93076813336E+03  0.50400001928E-02 0.  1.
    10030    2    1    2    0    0  0.00000000000E+00  0.00000000000E+00  0.37265131576E+03  0.22341875825E+04  0.22028901812E+04 0.  0.
        1    1    3    3  502    0 -0.11764885012E+03  0.10856781646E+04  0.40607807433E+02  0.10927887825E+04  0.50400001928E-02 0. -1.
       -1    1    3    3    0  502  0.11764885012E+03 -0.10856781646E+04  0.33204350832E+03  0.11413988000E+04  0.50400001928E-02 0.  1.
</event>
<event>
 5   0  0.2298329E-05  0.2204866E+04  0.7818609E-02  0.8516405E-01
       -2   -1    0    0    0  501  0.00000000000E+00  0.00000000000E+00  0.10873745275E+04  0.10873745275E+04  0.25500000920E-02 0.  1.
        2   -1    0    0  501    0  0.00000000000E+00  0.00000000000E+00 -0.11177003991E+04  0.11177003991E+04  0.25500000920E-02 0. -1.
    10030    2    1    2    0    0  0.00000000000E+00  0.00000000000E+00 -0.30325871629E+02  0.22050749266E+04  0.22048663845E+04 0.  0.
        4    1    3    3  502    0  0.90415363351E+03  0.18681488433E+03 -0.61768463653E+03  0.11108238011E+04  0.12699999809E+01 0. -1.
       -4    1    3    3    0  502 -0.90415363351E+03 -0.18681488433E+03  0.58735876490E+03  0.10942511255E+04  0.12699999809E+01 0.  1.
</event>
<event>
 5   0  0.1005538E-05  0.2235885E+04  0.7818609E-02  0.8503639E-01
       -1   -1    0    0    0  501  0.00000000000E+00  0.00000000000E+00  0.12696254309E+04  0.12696254309E+04  0.50400001928E-02 0. -1.
        1   -1    0    0  501    0  0.00000000000E+00  0.00000000000E+00 -0.98438165933E+03  0.98438165935E+03  0.50400001928E-02 0.  1.
    10030    2    1    2    0    0  0.00000000000E+00  0.00000000000E+00  0.28524377158E+03  0.22540070903E+04  0.22358854966E+04 0.  0.
        3    1    3    3  502    0  0.54609590431E+03 -0.26275385343E+03  0.10896695753E+04  0.12468520833E+04  0.10100000352E+00 0. -1.
       -3    1    3    3    0  502 -0.54609590431E+03  0.26275385343E+03 -0.80442580369E+03  0.10071550070E+04  0.10100000352E+00 0.  1.
</event>
<event>
 5   0  0.1007682E-05  0.2198309E+04  0.7818609E-02  0.8519132E-01
        1   -1    0    0  501    0  0.00000000000E+00  0.00000000000E+00  0.16121825056E+04  0.16121825056E+04  0.50400001928E-02 0.  1.
       -1   -1    0    0    0  501  0.00000000000E+00  0.00000000000E+00 -0.74938188615E+03  0.74938188617E+03  0.50400001928E-02 0. -1.
    10030    2    1    2    0    0  0.00000000000E+00  0.00000000000E+00  0.86280061948E+03  0.23615643918E+04  0.21983087744E+04 0.  0.
        2    1    3    3  502    0  0.51114523534E+03  0.85700598523E+03  0.92650868327E+03  0.13616706836E+04  0.25500000920E-02 0.  1.
       -2    1    3    3    0  502 -0.51114523534E+03 -0.85700598523E+03 -0.63708063798E+02  0.99989370822E+03  0.25500000920E-02 0. -1.
</event>
<event>
 5   0  0.1007682E-05  0.2197663E+04  0.7818609E-02  0.8519402E-01
        1   -1    0    0  501    0  0.00000000000E+00  0.00000000000E+00  0.12538565059E+04  0.12538565059E+04  0.50400001928E-02 0.  1.
       -1   -1    0    0    0  501  0.00000000000E+00  0.00000000000E+00 -0.96297321377E+03  0.96297321378E+03  0.50400001928E-02 0. -1.
    10030    2    1    2    0    0  0.00000000000E+00  0.00000000000E+00  0.29088329211E+03  0.22168297197E+04  0.21976626029E+04 0.  0.
        2    1    3    3  502    0  0.74902857882E+02  0.73276356660E+03 -0.67707005543E+03  0.10004882521E+04  0.25500000920E-02 0. -1.
       -2    1    3    3    0  502 -0.74902857882E+02 -0.73276356660E+03  0.96795334754E+03  0.12163414676E+04  0.25500000920E-02 0.  1.
</event>
<event>
 5   0  0.1049198E-05  0.2208695E+04  0.7818609E-02  0.8514818E-01
       -1   -1    0    0    0  501  0.00000000000E+00  0.00000000000E+00  0.74993523347E+03  0.74993523349E+03  0.50400001928E-02 0.  1.
        1   -1    0    0  501    0  0.00000000000E+00  0.00000000000E+00 -0.16262517053E+04  0.16262517053E+04  0.50400001928E-02 0. -1.
    10030    2    1    2    0    0  0.00000000000E+00  0.00000000000E+00 -0.87631647187E+03  0.23761869388E+04  0.22086950467E+04 0.  0.
        1    1    3    3  502    0 -0.67366890899E+03 -0.10858451427E+03 -0.13723152529E+04  0.15326022149E+04  0.50400001928E-02 0. -1.
       -1    1    3    3    0  502  0.67366890899E+03  0.10858451427E+03  0.49599878104E+03  0.84358472396E+03  0.50400001928E-02 0.  1.
</event>
<event>
 5   0  0.1033733E-05  0.2192957E+04  0.7818609E-02  0.8521365E-01
       -1   -1    0    0    0  501  0.00000000000E+00  0.00000000000E+00  0.79671842243E+03  0.79671842245E+03  0.50400001928E-02 0. -1.
        1   -1    0    0  501    0  0.00000000000E+00  0.00000000000E+00 -0.15090207891E+04  0.15090207891E+04  0.50400001928E-02 0.  1.
    10030    2    1    2    0    0  0.00000000000E+00  0.00000000000E+00 -0.71230236662E+03  0.23057392115E+04  0.21929566001E+04 0.  0.
        5    1    3    3  502    0 -0.80951496834E+03  0.55955208351E+03  0.15227727274E+03  0.99580293027E+03  0.46999998093E+01 0.  1.
       -5    1    3    3    0  502  0.80951496834E+03 -0.55955208351E+03 -0.86457963936E+03  0.13099362812E+04  0.46999998093E+01 0. -1.
</event>
<event>
 5   0  0.1007682E-05  0.2196380E+04  0.7818609E-02  0.8519936E-01
        1   -1    0    0  501    0  0.00000000000E+00  0.00000000000E+00  0.15392572172E+04  0.15392572172E+04  0.50400001928E-02 0.  1.
       -1   -1    0    0    0  501  0.00000000000E+00  0.00000000000E+00 -0.78350895423E+03  0.78350895424E+03  0.50400001928E-02 0. -1.
    10030    2    1    2    0    0  0.00000000000E+00  0.00000000000E+00  0.75574826294E+03  0.23227661714E+04  0.21963804885E+04 0.  0.
        2    1    3    3  502    0  0.71011582540E+03  0.60602260874E+03  0.98950871339E+03  0.13603879526E+04  0.25500000920E-02 0.  1.
       -2    1    3    3    0  502 -0.71011582540E+03 -0.60602260874E+03 -0.23376045044E+03  0.96237821879E+03  0.25500000920E-02 0. -1.
</event>
<event>
 5   0  0.2298329E-05  0.2202396E+04  0.7818609E-02  0.8517432E-01
       -2   -1    0    0    0  501  0.00000000000E+00  0.00000000000E+00  0.12957805236E+04  0.12957805236E+04  0.25500000920E-02 0.  1.
        2   -1    0    0  501    0  0.00000000000E+00  0.00000000000E+00 -0.93583507456E+03  0.93583507456E+03  0.25500000920E-02 0. -1.
    10030    2    1    2    0    0  0.00000000000E+00  0.00000000000E+00  0.35994544902E+03  0.22316155981E+04  0.22023958435E+04 0.  0.
        4    1    3    3  502    0 -0.77916824110E+03 -0.35414791221E+03  0.88206630122E+03  0.12290510422E+04  0.12699999809E+01 0.  1.
       -4    1    3    3    0  502  0.77916824110E+03  0.35414791221E+03 -0.52212085220E+03  0.10025645560E+04  0.12699999809E+01 0. -1.
</event>
<event>
 5   0  0.2298329E-05  0.2204203E+04  0.7818609E-02  0.8516681E-01
        2   -1    0    0  501    0  0.00000000000E+00  0.00000000000E+00  0.12503622602E+04  0.12503622602E+04  0.25500000920E-02 0.  1.
       -2   -1    0    0    0  501  0.00000000000E+00  0.00000000000E+00 -0.97142065264E+03  0.97142065264E+03  0.25500000920E-02 0. -1.
    10030    2    1    2    0    0  0.00000000000E+00  0.00000000000E+00  0.27894160758E+03  0.22217829129E+04  0.22042030060E+04 0.  0.
        4    1    3    3  502    0  0.37062673588E+03  0.26941237073E+03 -0.87086018615E+03  0.98404587269E+03  0.12699999809E+01 0. -1.
       -4    1    3    3    0  502 -0.37062673588E+03 -0.26941237073E+03  0.11498017937E+04  0.12377370402E+04  0.12699999809E+01 0.  1.
</event>
<event>
 5   0  0.2229552E-05  0.2171502E+04  0.7818609E-02  0.8530384E-01
        2   -1    0    0  501    0  0.00000000000E+00  0.00000000000E+00  0.10176446175E+04  0.10176446175E+04  0.25500000920E-02 0.  1.
       -2   -1    0    0    0  501  0.00000000000E+00  0.00000000000E+00 -0.11584151352E+04  0.11584151352E+04  0.25500000920E-02 0. -1.
    10030    2    1    2    0    0  0.00000000000E+00  0.00000000000E+00 -0.14077051775E+03  0.21760597527E+04  0.21715017174E+04 0.  0.
        1    1    3    3  502    0  0.65026473024E+03  0.26694828054E+02  0.80051783566E+03  0.10316906700E+04  0.50400001928E-02 0.  1.
       -1    1    3    3    0  502 -0.65026473024E+03 -0.26694828054E+02 -0.94128835341E+03  0.11443690827E+04  0.50400001928E-02 0. -1.
</event>
<event>
 5   0  0.1071208E-05  0.2183064E+04  0.7818609E-02  0.8525510E-01
       -1   -1    0    0    0  501  0.00000000000E+00  0.00000000000E+00  0.10525752691E+04  0.10525752691E+04  0.50400001928E-02 0.  1.
        1   -1    0    0  501    0  0.00000000000E+00  0.00000000000E+00 -0.11319305584E+04  0.11319305584E+04  0.50400001928E-02 0. -1.
    10030    2    1    2    0    0  0.00000000000E+00  0.00000000000E+00 -0.79355289300E+02  0.21845058276E+04  0.21830640048E+04 0.  0.
        4    1    3    3  502    0  0.41489332922E+01 -0.97520117053E+03  0.45095829346E+03  0.10744298637E+04  0.12699999809E+01 0.  1.
       -4    1    3    3    0  502 -0.41489332922E+01  0.97520117053E+03 -0.53031358276E+03  0.11100759639E+04  0.12699999809E+01 0. -1.
</event>
<event>
 5   0  0.1071208E-05  0.2212828E+04  0.7818609E-02  0.8513108E-01
        1   -1    0    0  501    0  0.00000000000E+00  0.00000000000E+00  0.24674830854E+04  0.24674830854E+04  0.50400001928E-02 0.  1.
       -1   -1    0    0    0  501  0.00000000000E+00  0.00000000000E+00 -0.49611365416E+03  0.49611365419E+03  0.50400001928E-02 0. -1.
    10030    2    1    2    0    0  0.00000000000E+00  0.00000000000E+00  0.19713694312E+04  0.29635967396E+04  0.22128281001E+04 0.  0.
        4    1    3    3  502    0  0.64938113485E+03  0.11592541446E+03  0.21753212737E+04  0.22731385389E+04  0.12699999809E+01 0.  1.
       -4    1    3    3    0  502 -0.64938113485E+03 -0.11592541446E+03 -0.20395184248E+03  0.69045820074E+03  0.12699999809E+01 0. -1.
</event>
<event>
 5   0  0.2289708E-05  0.2192069E+04  0.7818609E-02  0.8521736E-01
        2   -1    0    0  501    0  0.00000000000E+00  0.00000000000E+00  0.22703263610E+04  0.22703263610E+04  0.25500000920E-02 0.  1.
       -2   -1    0    0    0  501  0.00000000000E+00  0.00000000000E+00 -0.52912737603E+03  0.52912737604E+03  0.25500000920E-02 0. -1.
    10030    2    1    2    0    0  0.00000000000E+00  0.00000000000E+00  0.17411989850E+04  0.27994537371E+04  0.21920691870E+04 0.  0.
        5    1    3    3  502    0 -0.29674215972E+03  0.33211218794E+02 -0.47616939689E+03  0.56206608058E+03  0.46999998093E+01 0. -1.
       -5    1    3    3    0  502  0.29674215972E+03 -0.33211218794E+02  0.22173683819E+04  0.22373876565E+04  0.46999998093E+01 0.  1.
</event>
<event>
 5   0  0.1033733E-05  0.2212598E+04  0.7818609E-02  0.8513203E-01
       -1   -1    0    0    0  501  0.00000000000E+00  0.00000000000E+00  0.10649243005E+04  0.10649243005E+04  0.50400001928E-02 0. -1.
        1   -1    0    0  501    0  0.00000000000E+00  0.00000000000E+00 -0.11492816721E+04  0.11492816721E+04  0.50400001928E-02 0.  1.
    10030    2    1    2    0    0  0.00000000000E+00  0.00000000000E+00 -0.84357371522E+02  0.22142059726E+04  0.22125984550E+04 0.  0.
        5    1    3    3  502    0  0.10528044399E+04 -0.33923894844E+03 -0.22273585198E+02  0.11063446368E+04  0.46999998093E+01 0.  1.
       -5    1    3    3    0  502 -0.10528044399E+04  0.33923894844E+03 -0.62083786325E+02  0.11078613358E+04  0.46999998093E+01 0. -1.
</event>
<event>
 5   0  0.1033733E-05  0.2201735E+04  0.7818609E-02  0.8517706E-01
       -1   -1    0    0    0  501  0.00000000000E+00  0.00000000000E+00  0.71835841545E+03  0.71835841547E+03  0.50400001928E-02 0. -1.
        1   -1    0    0  501    0  0.00000000000E+00  0.00000000000E+00 -0.16870532292E+04  0.16870532292E+04  0.50400001928E-02 0.  1.
    10030    2    1    2    0    0  0.00000000000E+00  0.00000000000E+00 -0.96869481377E+03  0.24054116447E+04  0.22017346657E+04 0.  0.
        5    1    3    3  502    0 -0.57609143886E+03  0.24282319689E+03 -0.14742836085E+04  0.16013677589E+04  0.46999998093E+01 0.  1.
       -5    1    3    3    0  502  0.57609143886E+03 -0.24282319689E+03  0.50558879477E+03  0.80404388578E+03  0.46999998093E+01 0. -1.
</event>
<event>
 5   0  0.2284329E-05  0.2198942E+04  0.7818609E-02  0.8518869E-01
        2   -1    0    0  501    0  0.00000000000E+00  0.00000000000E+00  0.12571848542E+04  0.12571848542E+04  0.25500000920E-02 0. -1.
       -2   -1    0    0    0  501  0.00000000000E+00  0.00000000000E+00 -0.96154244304E+03  0.96154244305E+03  0.25500000920E-02 0.  1.
    10030    2    1    2    0    0  0.00000000000E+00  0.00000000000E+00  0.29564241114E+03  0.22187272972E+04  0.21989421057E+04 0.  0.
        2    1    3    3  502    0 -0.57977410558E+03 -0.91223157988E+03 -0.55316166477E+02  0.10822958686E+04  0.25500000920E-02 0.  1.
       -2    1    3    3    0  502  0.57977410558E+03  0.91223157988E+03  0.35095857762E+03  0.11364314287E+04  0.25500000920E-02 0. -1.
</event>
<event>
 5   0  0.1005538E-05  0.2208836E+04  0.7818609E-02  0.8514759E-01
       -1   -1    0    0    0  501  0.00000000000E+00  0.00000000000E+00  0.90023112072E+03  0.90023112073E+03  0.50400001928E-02 0.  1.
        1   -1    0    0  501    0  0.00000000000E+00  0.00000000000E+00 -0.13549175270E+04  0.13549175270E+04  0.50400001928E-02 0. -1.
    10030    2    1    2    0    0  0.00000000000E+00  0.00000000000E+00 -0.45468640623E+03  0.22551486477E+04  0.22088358235E+04 0.  0.
        3    1    3    3  502    0  0.57519171553E+03 -0.94278375077E+03 -0.21996652877E+03  0.11260870279E+04  0.10100000352E+00 0. -1.
       -3    1    3    3    0  502 -0.57519171553E+03  0.94278375077E+03 -0.23471987746E+03  0.11290616198E+04  0.10100000352E+00 0.  1.
</event>
<event>
 5   0  0.2319707E-05  0.2202098E+04  0.7818609E-02  0.8517555E-01
       -2   -1    0    0    0  501  0.00000000000E+00  0.00000000000E+00  0.92816380505E+03  0.92816380505E+03  0.25500000920E-02 0.  1.
        2   -1    0    0  501    0  0.00000000000E+00  0.00000000000E+00 -0.13061366515E+04  0.13061366515E+04  0.25500000920E-02 0. -1.
    10030    2    1    2    0    0  0.00000000000E+00  0.00000000000E+00 -0.37797284650E+03  0.22343004566E+04  0.22020978765E+04 0.  0.
        3    1    3    3  502    0  0.60595023308E+03 -0.52420160166E+03 -0.95524272819E+03  0.12467765173E+04  0.10100000352E+00 0. -1.
       -3    1    3    3    0  502 -0.60595023308E+03  0.52420160166E+03  0.57726988169E+03  0.98752393929E+03  0.10100000352E+00 0.  1.
</event>
<event>
 5   0  0.2298329E-05  0.2205399E+04  0.7818609E-02  0.8516184E-01
       -2   -1    0    0    0  501  0.00000000000E+00  0.00000000000E+00  0.10421678840E+04  0.10421678840E+04  0.25500000920E-02 0. -1.
        2   -1    0    0  501    0  0.00000000000E+00  0.00000000000E+00 -0.11667473499E+04  0.11667473499E+04  0.25500000920E-02 0.  1.
    10030    2    1    2    0    0  0.00000000000E+00  0.00000000000E+00 -0.12457946592E+03  0.22089152340E+04  0.22053993896E+04 0.  0.
        4    1    3    3  502    0 -0.38662011703E+03  0.70605079953E+03 -0.81712381397E+03  0.11470291133E+04  0.12699999809E+01 0.  1.
       -4    1    3    3    0  502  0.38662011703E+03 -0.70605079953E+03  0.69254434805E+03  0.10618861207E+04  0.12699999809E+01 0. -1.
</event>
<event>
 5   0  0.2298329E-05  0.2207533E+04  0.7818609E-02  0.8515299E-01
       -2   -1    0    0    0  501  0.00000000000E+00  0.00000000000E+00  0.70951270836E+03  0.70951270836E+03  0.25500000920E-02 0.  1.
        2   -1    0    0  501    0  0.00000000000E+00  0.00000000000E+00 -0.17170944551E+04  0.17170944551E+04  0.25500000920E-02 0. -1.
    10030    2    1    2    0    0  0.00000000000E+00  0.00000000000E+00 -0.10075817467E+04  0.24266071634E+04  0.22075328648E+04 0.  0.
        4    1    3    3  502    0 -0.47230504877E+03  0.50497495353E+02  0.59141611079E+03  0.75854906573E+03  0.12699999809E+01 0.  1.
       -4    1    3    3    0  502  0.47230504877E+03 -0.50497495353E+02 -0.15989978575E+04  0.16680580977E+04  0.12699999809E+01 0. -1.
</event>
<event>
 5   0  0.1007682E-05  0.2197152E+04  0.7818609E-02  0.8519615E-01
       -1   -1    0    0    0  501  0.00000000000E+00  0.00000000000E+00  0.16333672005E+04  0.16333672005E+04  0.50400001928E-02 0.  1.
        1   -1    0    0  501    0  0.00000000000E+00  0.00000000000E+00 -0.73888403034E+03  0.73888403036E+03  0.50400001928E-02 0. -1.
    10030    2    1    2    0    0  0.00000000000E+00  0.00000000000E+00  0.89448317013E+03  0.23722512308E+04  0.21971517382E+04 0.  0.
        2    1    3    3  502    0  0.14059271989E+03  0.10159136256E+04  0.87234782837E+03  0.13464165556E+04  0.25500000920E-02 0. -1.
       -2    1    3    3    0  502 -0.14059271989E+03 -0.10159136256E+04  0.22135341762E+02  0.10258346752E+04  0.25500000920E-02 0.  1.
</event>
<event>
 5   0  0.2229552E-05  0.2200581E+04  0.7818609E-02  0.8518186E-01
        2   -1    0    0  501    0  0.00000000000E+00  0.00000000000E+00  0.15824001746E+04  0.15824001746E+04  0.25500000920E-02 0. -1.
       -2   -1    0    0    0  501  0.00000000000E+00  0.00000000000E+00 -0.76506511847E+03  0.76506511847E+03  0.25500000920E-02 0.  1.
    10030    2    1    2    0    0  0.00000000000E+00  0.00000000000E+00  0.81733505613E+03  0.23474652931E+04  0.22005809933E+04 0.  0.
        1    1    3    3  502    0 -0.67129037071E+03 -0.27717242675E+03 -0.47305232909E+03  0.86673745855E+03  0.50400001928E-02 0.  1.
       -1    1    3    3    0  502  0.67129037071E+03  0.27717242675E+03  0.12903873852E+04  0.14807278345E+04  0.50400001928E-02 0. -1.
</event>
<event>
 5   0  0.1049198E-05  0.2195049E+04  0.7818609E-02  0.8520492E-01
        1   -1    0    0  501    0  0.00000000000E+00  0.00000000000E+00  0.83851129068E+03  0.83851129069E+03  0.50400001928E-02 0. -1.
       -1   -1    0    0    0  501  0.00000000000E+00  0.00000000000E+00 -0.14365458563E+04  0.14365458563E+04  0.50400001928E-02 0.  1.
    10030    2    1    2    0    0  0.00000000000E+00  0.00000000000E+00 -0.59803456562E+03  0.22750571470E+04  0.21950489016E+04 0.  0.
        1    1    3    3  502    0 -0.22119322826E+03 -0.84446622611E+03  0.39044384721E+03  0.95629286786E+03  0.50400001928E-02 0. -1.
       -1    1    3    3    0  502  0.22119322826E+03  0.84446622611E+03 -0.98847841283E+03  0.13187642791E+04  0.50400001928E-02 0.  1.
</event>
<event>
 5   0  0.1033733E-05  0.2190818E+04  0.7818609E-02  0.8522260E-01
       -1   -1    0    0    0  501  0.00000000000E+00  0.00000000000E+00  0.44421233247E+03  0.44421233250E+03  0.50400001928E-02 0.  1.
        1   -1    0    0  501    0  0.00000000000E+00  0.00000000000E+00 -0.27012320483E+04  0.27012320483E+04  0.50400001928E-02 0. -1.
    10030    2    1    2    0    0  0.00000000000E+00  0.00000000000E+00 -0.22570197158E+04  0.31454443808E+04  0.21908177366E+04 0.  0.
        5    1    3    3  502    0  0.97311585000E+03  0.36632539548E+03 -0.16232670389E+04  0.19277361652E+04  0.46999998093E+01 0.  1.
       -5    1    3    3    0  502 -0.97311585000E+03 -0.36632539548E+03 -0.63375267691E+03  0.12177082156E+04  0.46999998093E+01 0. -1.
</event>
<event>
 5   0  0.2229552E-05  0.2237780E+04  0.7818609E-02  0.8502866E-01
       -2   -1    0    0    0  501  0.00000000000E+00  0.00000000000E+00  0.15249121310E+04  0.15249121310E+04  0.25500000920E-02 0. -1.
        2   -1    0    0  501    0  0.00000000000E+00  0.00000000000E+00 -0.82097497090E+03  0.82097497090E+03  0.25500000920E-02 0.  1.
    10030    2    1    2    0    0  0.00000000000E+00  0.00000000000E+00  0.70393716006E+03  0.23458871019E+04  0.22377798751E+04 0.  0.
        1    1    3    3  502    0  0.71597719156E+03 -0.40022783697E+03  0.11497242743E+04  0.14123284205E+04  0.50400001928E-02 0. -1.
       -1    1    3    3    0  502 -0.71597719156E+03  0.40022783697E+03 -0.44578711426E+03  0.93355868138E+03  0.50400001928E-02 0.  1.
</event>
<event>
 5   0  0.1033733E-05  0.2198480E+04  0.7818609E-02  0.8519061E-01
        1   -1    0    0  501    0  0.00000000000E+00  0.00000000000E+00  0.15778299687E+04  0.15778299687E+04  0.50400001928E-02 0. -1.
       -1   -1    0    0    0  501  0.00000000000E+00  0.00000000000E+00 -0.76581659797E+03  0.76581659799E+03  0.50400001928E-02 0.  1.
    10030    2    1    2    0    0  0.00000000000E+00  0.00000000000E+00  0.81201337069E+03  0.23436465667E+04  0.21984798191E+04 0.  0.
        5    1    3    3  502    0  0.10954662831E+04 -0.56271669811E+02  0.48208729460E+03  0.11981832613E+04  0.46999998093E+01 0.  1.
       -5    1    3    3    0  502 -0.10954662831E+04  0.56271669811E+02  0.32992607609E+03  0.11454633053E+04  0.46999998093E+01 0. -1.
</event>
<event>
 5   0  0.1005538E-05  0.2201841E+04  0.7818609E-02  0.8517662E-01
       -1   -1    0    0    0  501  0.00000000000E+00  0.00000000000E+00  0.10491888406E+04  0.10491888406E+04  0.50400001928E-02 0. -1.
        1   -1    0    0  501    0  0.00000000000E+00  0.00000000000E+00 -0.11552030096E+04  0.11552030096E+04  0.50400001928E-02 0.  1.
    10030    2    1    2    0    0  0.00000000000E+00  0.00000000000E+00 -0.10601416899E+03  0.22043918502E+04  0.22018411444E+04 0.  0.
        3    1    3    3  502    0 -0.79359688355E+03  0.17682415085E+03 -0.79613598305E+03  0.11379346675E+04  0.10100000352E+00 0.  1.
       -3    1    3    3    0  502  0.79359688355E+03 -0.17682415085E+03  0.69012181406E+03  0.10664571826E+04  0.10100000352E+00 0. -1.
</event>
<event>
 5   0  0.1071208E-05  0.2193002E+04  0.7818609E-02  0.8521347E-01
       -1   -1    0    0    0  501  0.00000000000E+00  0.00000000000E+00  0.10286762579E+04  0.10286762579E+04  0.50400001928E-02 0.  1.
        1   -1    0    0  501    0  0.00000000000E+00  0.00000000000E+00 -0.11687976265E+04  0.11687976265E+04  0.50400001928E-02 0. -1.
    10030    2    1    2    0    0  0.00000000000E+00  0.00000000000E+00 -0.14012136863E+03  0.21974738844E+04  0.21930019323E+04 0.  0.
        4    1    3    3  502    0 -0.84711695955E+03  0.25621827392E+03  0.57860612544E+03  0.10573748665E+04  0.12699999809E+01 0.  1.
       -4    1    3    3    0  502  0.84711695955E+03 -0.25621827392E+03 -0.71872749406E+03  0.11400990179E+04  0.12699999809E+01 0. -1.
</event>
<event>
 5   0  0.2289708E-05  0.2217311E+04  0.7818609E-02  0.8511257E-01
        2   -1    0    0  501    0  0.00000000000E+00  0.00000000000E+00  0.10664016665E+04  0.10664016665E+04  0.25500000920E-02 0.  1.
       -2   -1    0    0    0  501  0.00000000000E+00  0.00000000000E+00 -0.11525836005E+04  0.11525836005E+04  0.25500000920E-02 0. -1.
    10030    2    1    2    0    0  0.00000000000E+00  0.00000000000E+00 -0.86181933938E+02  0.22189852670E+04  0.22173110494E+04 0.  0.
        5    1    3    3  502    0 -0.13905230840E+03  0.42389791850E+03 -0.10587809408E+04  0.11489404512E+04  0.46999998093E+01 0. -1.
       -5    1    3    3    0  502  0.13905230840E+03 -0.42389791850E+03  0.97259900686E+03  0.10700448158E+04  0.46999998093E+01 0.  1.
</event>
<event>
 5   0  0.2229552E-05  0.2204474E+04  0.7818609E-02  0.8516568E-01
       -2   -1    0    0    0  501  0.00000000000E+00  0.00000000000E+00  0.87797183181E+03  0.87797183182E+03  0.25500000920E-02 0. -1.
        2   -1    0    0  501    0  0.00000000000E+00  0.00000000000E+00 -0.13837871128E+04  0.13837871128E+04  0.25500000920E-02 0.  1.
    10030    2    1    2    0    0  0.00000000000E+00  0.00000000000E+00 -0.50581528103E+03  0.22617589447E+04  0.22044737298E+04 0.  0.
        1    1    3    3  502    0  0.69316161505E+03  0.27238045003E+03 -0.10865879250E+04  0.13173220764E+04  0.50400001928E-02 0.  1.
       -1    1    3    3    0  502 -0.69316161505E+03 -0.27238045003E+03  0.58077264397E+03  0.94443686827E+03  0.50400001928E-02 0. -1.
</event>
<event>
 5   0  0.1007682E-05  0.2218735E+04  0.7818609E-02  0.8510670E-01
        1   -1    0    0  501    0  0.00000000000E+00  0.00000000000E+00  0.10006983894E+04  0.10006983894E+04  0.50400001928E-02 0.  1.
       -1   -1    0    0    0  501  0.00000000000E+00  0.00000000000E+00 -0.12298371919E+04  0.12298371920E+04  0.50400001928E-02 0. -1.
    10030    2    1    2    0    0  0.00000000000E+00  0.00000000000E+00 -0.22913880251E+03  0.22305355814E+04  0.22187348623E+04 0.  0.
        2    1    3    3  502    0  0.16567735066E+03  0.16331040371E+03 -0.12050398302E+04  0.12272898048E+04  0.25500000920E-02 0. -1.
       -2    1    3    3    0  502 -0.16567735066E+03 -0.16331040371E+03  0.97590102770E+03  0.10032457766E+04  0.25500000920E-02 0.  1.
</event>
<event>
 5   0  0.1033733E-05  0.2205719E+04  0.7818609E-02  0.8516052E-01
       -1   -1    0    0    0  501  0.00000000000E+00  0.00000000000E+00  0.12293323911E+04  0.12293323911E+04  0.50400001928E-02 0.  1.
        1   -1    0    0  501    0  0.00000000000E+00  0.00000000000E+00 -0.98939787862E+03  0.98939787863E+03  0.50400001928E-02 0. -1.
    10030    2    1    2    0    0  0.00000000000E+00  0.00000000000E+00  0.23993451248E+03  0.22187302697E+04  0.22057188034E+04 0.  0.
        5    1    3    3  502    0 -0.63870364136E+03 -0.17007245346E+03  0.10080169952E+04  0.12053992423E+04  0.46999998093E+01 0.  1.
       -5    1    3    3    0  502  0.63870364136E+03  0.17007245346E+03 -0.76808248267E+03  0.10133310274E+04  0.46999998093E+01 0. -1.
</event>
<event>
 5   0  0.2319707E-05  0.2199985E+04  0.7818609E-02  0.8518434E-01
        2   -1    0    0  501    0  0.00000000000E+00  0.00000000000E+00  0.12198277396E+04  0.12198277396E+04  0.25500000920E-02 0.  1.
       -2   -1    0    0    0  501  0.00000000000E+00  0.00000000000E+00 -0.99192967732E+03  0.99192967733E+03  0.25500000920E-02 0. -1.
    10030    2    1    2    0    0  0.00000000000E+00  0.00000000000E+00  0.22789806226E+03  0.22117574169E+04  0.21999848510E+04 0.  0.
        3    1    3    3  502    0 -0.93068868611E+03 -0.58608114030E+03  0.13167267586E+03  0.11077049414E+04  0.10100000352E+00 0. -1.
       -3    1    3    3    0  502  0.93068868611E+03  0.58608114030E+03  0.96225386398E+02  0.11040524755E+04  0.10100000352E+00 0.  1.
</event>
<event>
 5   0  0.2229552E-05  0.2193619E+04  0.7818609E-02  0.8521089E-01
       -2   -1    0    0    0  501  0.00000000000E+00  0.00000000000E+00  0.78978125133E+03  0.78978125133E+03  0.25500000920E-02 0. -1.
        2   -1    0    0  501    0  0.00000000000E+00  0.00000000000E+00 -0.15231959407E+04  0.15231959407E+04  0.25500000920E-02 0.  1.
    10030    2    1    2    0    0  0.00000000000E+00  0.00000000000E+00 -0.73341468937E+03  0.23129771920E+04  0.21936194712E+04 0.  0.
        1    1    3    3  502    0  0.44032859460E+03 -0.10041904232E+04 -0.33873226312E+03  0.11476180651E+04  0.50400001928E-02 0. -1.
       -1    1    3    3    0  502 -0.44032859460E+03  0.10041904232E+04 -0.39468242626E+03  0.11653591270E+04  0.50400001928E-02 0.  1.
</event>
<event>
 5   0  0.8003875E-06  0.2192470E+04  0.7818609E-02  0.8521569E-01
       -3   -1    0    0    0  501  0.00000000000E+00  0.00000000000E+00  0.11631274961E+04  0.11631275005E+04  0.10100000352E+00 0.  1.
        3   -1    0    0  501    0  0.00000000000E+00  0.00000000000E+00 -0.10331899796E+04  0.10331899845E+04  0.10100000352E+00 0. -1.
    10030    2    1    2    0    0  0.00000000000E+00  0.00000000000E+00  0.12993751648E+03  0.21963174850E+04  0.21924704643E+04 0.  0.
        4    1    3    3  502    0 -0.23956661457E+03  0.18283401706E+02  0.11364265513E+04  0.11615478316E+04  0.12699999809E+01 0.  1.
       -4    1    3    3    0  502  0.23956661457E+03 -0.18283401706E+02 -0.10064890348E+04  0.10347696535E+04  0.12699999809E+01 0. -1.
</event>
<event>
 5   0  0.1007682E-05  0.2214556E+04  0.7818609E-02  0.8512394E-01
        1   -1    0    0  501    0  0.00000000000E+00  0.00000000000E+00  0.14162624565E+04  0.14162624565E+04  0.50400001928E-02 0. -1.
       -1   -1    0    0    0  501  0.00000000000E+00  0.00000000000E+00 -0.86570463439E+03  0.86570463440E+03  0.50400001928E-02 0.  1.
    10030    2    1    2    0    0  0.00000000000E+00  0.00000000000E+00  0.55055782209E+03  0.22819670909E+04  0.22145563638E+04 0.  0.
        2    1    3    3  502    0 -0.69678155231E+03  0.51651111251E+03  0.98454548521E+03  0.13121044446E+04  0.25500000920E-02 0. -1.
       -2    1    3    3    0  502  0.69678155231E+03 -0.51651111251E+03 -0.43398766313E+03  0.96986264632E+03  0.25500000920E-02 0.  1.
</event>
<event>
 5   0  0.1033733E-05  0.2194727E+04  0.7818609E-02  0.8520626E-01
        1   -1    0    0  501    0  0.00000000000E+00  0.00000000000E+00  0.12112501209E+04  0.12112501209E+04  0.50400001928E-02 0.  1.
       -1   -1    0    0    0  501  0.00000000000E+00  0.00000000000E+00 -0.99418489313E+03  0.99418489314E+03  0.50400001928E-02 0. -1.
    10030    2    1    2    0    0  0.00000000000E+00  0.00000000000E+00  0.21706522780E+03  0.22054350141E+04  0.21947269279E+04 0.  0.
        5    1    3    3  502    0 -0.93770115896E+03 -0.32250997986E+03 -0.36374804487E+03  0.10562342926E+04  0.46999998093E+01 0. -1.
       -5    1    3    3    0  502  0.93770115896E+03  0.32250997986E+03  0.58081327267E+03  0.11492007215E+04  0.46999998093E+01 0.  1.
</event>
<event>
 5   0  0.1007682E-05  0.2199406E+04  0.7818609E-02  0.8518675E-01
       -1   -1    0    0    0  501  0.00000000000E+00  0.00000000000E+00  0.95300664346E+03  0.95300664348E+03  0.50400001928E-02 0. -1.
        1   -1    0    0  501    0  0.00000000000E+00  0.00000000000E+00 -0.12689802849E+04  0.12689802849E+04  0.50400001928E-02 0.  1.
    10030    2    1    2    0    0  0.00000000000E+00  0.00000000000E+00 -0.31597364145E+03  0.22219869284E+04  0.21994059580E+04 0.  0.
        2    1    3    3  502    0  0.51871622048E+03  0.45631042433E+03  0.70640314068E+03  0.98807444958E+03  0.25500000920E-02 0. -1.
       -2    1    3    3    0  502 -0.51871622048E+03 -0.45631042433E+03 -0.10223767821E+04  0.12339124788E+04  0.25500000920E-02 0.  1.
</event>
<event>
 5   0  0.1033733E-05  0.2193372E+04  0.7818609E-02  0.8521192E-01
       -1   -1    0    0    0  501  0.00000000000E+00  0.00000000000E+00  0.60588555838E+03  0.60588555840E+03  0.50400001928E-02 0.  1.
        1   -1    0    0  501    0  0.00000000000E+00  0.00000000000E+00 -0.19850610806E+04  0.19850610806E+04  0.50400001928E-02 0. -1.
    10030    2    1    2    0    0  0.00000000000E+00  0.00000000000E+00 -0.13791755223E+04  0.25909466390E+04  0.21933716888E+04 0.  0.
        5    1    3    3  502    0 -0.11496451741E+03  0.84687410685E+03  0.12221099994E+03  0.86334825628E+03  0.46999998093E+01 0.  1.
       -5    1    3    3    0  502  0.11496451741E+03 -0.84687410685E+03 -0.15013865222E+04  0.17275983828E+04  0.46999998093E+01 0. -1.
</event>
<event>
 5   0  0.1007682E-05  0.2195662E+04  0.7818609E-02  0.8520236E-01
       -1   -1    0    0    0  501  0.00000000000E+00  0.00000000000E+00  0.93530641147E+03  0.93530641148E+03  0.50400001928E-02 0.  1.
        1   -1    0    0  501    0  0.00000000000E+00  0.00000000000E+00 -0.12885968021E+04  0.12885968021E+04  0.50400001928E-02 0. -1.
    10030    2    1    2    0    0  0.00000000000E+00  0.00000000000E+00 -0.35329039063E+03  0.22239032136E+04  0.21956619510E+04 0.  0.
        2    1    3    3  502    0  0.47562558114E+03 -0.57314819978E+03 -0.99356388084E+03  0.12417277228E+04  0.25500000920E-02 0. -1.
       -2    1    3    3    0  502 -0.47562558114E+03  0.57314819978E+03  0.64027349021E+03  0.98217549075E+03  0.25500000920E-02 0.  1.
</event>
<event>
 5   0  0.2319707E-05  0.2203794E+04  0.7818609E-02  0.8516851E-01
       -2   -1    0    0    0  501  0.00000000000E+00  0.00000000000E+00  0.10217977936E+04  0.10217977936E+04  0.25500000920E-02 0.  1.
        2   -1    0    0  501    0  0.00000000000E+00  0.00000000000E+00 -0.11882752112E+04  0.11882752112E+04  0.25500000920E-02 0. -1.
    10030    2    1    2    0    0  0.00000000000E+00  0.00000000000E+00 -0.16647741765E+03  0.22100730048E+04  0.22037939913E+04 0.  0.
        3    1    3    3  502    0 -0.10760719900E+04  0.93849988853E+02 -0.30166246295E+03  0.11214896343E+04  0.10100000352E+00 0. -1.
       -3    1    3    3    0  502  0.10760719900E+04 -0.93849988853E+02  0.13518504531E+03  0.10885833706E+04  0.10100000352E+00 0.  1.
</event>
<event>
 5   0  0.2284329E-05  0.2204116E+04  0.7818609E-02  0.8516717E-01
       -2   -1    0    0    0  501  0.00000000000E+00  0.00000000000E+00  0.10356636973E+04  0.10356636973E+04  0.25500000920E-02 0.  1.
        2   -1    0    0  501    0  0.00000000000E+00  0.00000000000E+00 -0.11727083515E+04  0.11727083515E+04  0.25500000920E-02 0. -1.
    10030    2    1    2    0    0  0.00000000000E+00  0.00000000000E+00 -0.13704465415E+03  0.22083720488E+04  0.22041156660E+04 0.  0.
        2    1    3    3  502    0 -0.28282055691E+03  0.15765665560E+03  0.98692941065E+03  0.10386879946E+04  0.25500000920E-02 0.  1.
       -2    1    3    3    0  502  0.28282055691E+03 -0.15765665560E+03 -0.11239740648E+04  0.11696840543E+04  0.25500000920E-02 0. -1.
</event>
<event>
 5   0  0.2229552E-05  0.2197995E+04  0.7818609E-02  0.8519263E-01
        2   -1    0    0  501    0  0.00000000000E+00  0.00000000000E+00  0.22822615289E+04  0.22822615289E+04  0.25500000920E-02 0. -1.
       -2   -1    0    0    0  501  0.00000000000E+00  0.00000000000E+00 -0.52920974229E+03  0.52920974229E+03  0.25500000920E-02 0.  1.
    10030    2    1    2    0    0  0.00000000000E+00  0.00000000000E+00  0.17530517866E+04  0.28114712712E+04  0.21979945728E+04 0.  0.
        1    1    3    3  502    0 -0.75110503860E+03 -0.80218632651E+03  0.86175488293E+03  0.13965253881E+04  0.50400001928E-02 0.  1.
       -1    1    3    3    0  502  0.75110503860E+03  0.80218632651E+03  0.89129690371E+03  0.14149458831E+04  0.50400001928E-02 0. -1.
</event>
<event>
 5   0  0.1007682E-05  0.2203643E+04  0.7818609E-02  0.8516913E-01
        1   -1    0    0  501    0  0.00000000000E+00  0.00000000000E+00  0.11945167801E+04  0.11945167801E+04  0.50400001928E-02 0. -1.
       -1   -1    0    0    0  501  0.00000000000E+00  0.00000000000E+00 -0.10163198028E+04  0.10163198028E+04  0.50400001928E-02 0.  1.
    10030    2    1    2    0    0  0.00000000000E+00  0.00000000000E+00  0.17819697727E+03  0.22108365829E+04  0.22036433998E+04 0.  0.
        2    1    3    3  502    0 -0.10054661077E+04 -0.14748613029E+03  0.51627798741E+03  0.11398496447E+04  0.25500000920E-02 0. -1.
       -2    1    3    3    0  502  0.10054661077E+04  0.14748613029E+03 -0.33808101014E+03  0.10709869382E+04  0.25500000920E-02 0.  1.
</event>
<event>
 5   0  0.2298329E-05  0.2219581E+04  0.7818609E-02  0.8510322E-01
       -2   -1    0    0    0  501  0.00000000000E+00  0.00000000000E+00  0.12993536371E+04  0.12993536372E+04  0.25500000920E-02 0. -1.
        2   -1    0    0  501    0  0.00000000000E+00  0.00000000000E+00 -0.94788307574E+03  0.94788307574E+03  0.25500000920E-02 0.  1.
    10030    2    1    2    0    0  0.00000000000E+00  0.00000000000E+00  0.35147056141E+03  0.22472367129E+04  0.22195813317E+04 0.  0.
        4    1    3    3  502    0 -0.97500235473E+03  0.19367171689E+03 -0.32386551767E+03  0.10454801825E+04  0.12699999809E+01 0. -1.
       -4    1    3    3    0  502  0.97500235473E+03 -0.19367171689E+03  0.67533607908E+03  0.12017565304E+04  0.12699999809E+01 0.  1.
</event>
<event>
 5   0  0.1049198E-05  0.2199705E+04  0.7818609E-02  0.8518551E-01
       -1   -1    0    0    0  501  0.00000000000E+00  0.00000000000E+00  0.16364701928E+04  0.16364701928E+04  0.50400001928E-02 0. -1.
        1   -1    0    0  501    0  0.00000000000E+00  0.00000000000E+00 -0.73919832445E+03  0.73919832447E+03  0.50400001928E-02 0.  1.
    10030    2    1    2    0    0  0.00000000000E+00  0.00000000000E+00  0.89727186832E+03  0.23756685172E+04  0.21997054571E+04 0.  0.
        1    1    3    3  502    0  0.50801120871E+03 -0.34299608321E+03  0.14348982566E+04  0.15603380108E+04  0.50400001928E-02 0. -1.
       -1    1    3    3    0  502 -0.50801120871E+03  0.34299608321E+03 -0.53762638827E+03  0.81533050640E+03  0.50400001928E-02 0.  1.
</event>
<event>
 5   0  0.1071208E-05  0.2179845E+04  0.7818609E-02  0.8526864E-01
       -1   -1    0    0    0  501  0.00000000000E+00  0.00000000000E+00  0.72779453694E+03  0.72779453696E+03  0.50400001928E-02 0.  1.
        1   -1    0    0  501    0  0.00000000000E+00  0.00000000000E+00 -0.16322344642E+04  0.16322344642E+04  0.50400001928E-02 0. -1.
    10030    2    1    2    0    0  0.00000000000E+00  0.00000000000E+00 -0.90443992725E+03  0.23600290012E+04  0.21798452478E+04 0.  0.
        4    1    3    3  502    0 -0.77319206037E+03 -0.46118467430E+03  0.21289969810E+03  0.92511899795E+03  0.12699999809E+01 0.  1.
       -4    1    3    3    0  502  0.77319206037E+03  0.46118467430E+03 -0.11173396253E+04  0.14349100032E+04  0.12699999809E+01 0. -1.
</event>
<event>
 5   0  0.2319707E-05  0.2179454E+04  0.7818609E-02  0.8527029E-01
       -2   -1    0    0    0  501  0.00000000000E+00  0.00000000000E+00  0.10750516538E+04  0.10750516538E+04  0.25500000920E-02 0. -1.
        2   -1    0    0  501    0  0.00000000000E+00  0.00000000000E+00 -0.11046021895E+04  0.11046021895E+04  0.25500000920E-02 0.  1.
    10030    2    1    2    0    0  0.00000000000E+00  0.00000000000E+00 -0.29550535733E+02  0.21796538433E+04  0.21794535193E+04 0.  0.
        3    1    3    3  502    0 -0.50210224238E+03  0.19451215747E+03  0.93270970060E+03  0.10769814469E+04  0.10100000352E+00 0. -1.
       -3    1    3    3    0  502  0.50210224238E+03 -0.19451215747E+03 -0.96226023633E+03  0.11026723964E+04  0.10100000352E+00 0.  1.
</event>
<event>
 5   0  0.1033733E-05  0.2207248E+04  0.7818609E-02  0.8515418E-01
       -1   -1    0    0    0  501  0.00000000000E+00  0.00000000000E+00  0.10831417689E+04  0.10831417689E+04  0.50400001928E-02 0. -1.
        1   -1    0    0  501    0  0.00000000000E+00  0.00000000000E+00 -0.11244930936E+04  0.11244930936E+04  0.50400001928E-02 0.  1.
    10030    2    1    2    0    0  0.00000000000E+00  0.00000000000E+00 -0.41351324666E+02  0.22076348625E+04  0.22072475516E+04 0.  0.
        5    1    3    3  502    0  0.79538461457E+03 -0.35771256216E+03 -0.69708449682E+03  0.11164872807E+04  0.46999998093E+01 0.  1.
       -5    1    3    3    0  502 -0.79538461457E+03  0.35771256216E+03  0.65573317216E+03  0.10911475818E+04  0.46999998093E+01 0. -1.
</event>
<event>
 5   0  0.2319707E-05  0.2204545E+04  0.7818609E-02  0.8516539E-01
       -2   -1    0    0    0  501  0.00000000000E+00  0.00000000000E+00  0.60080448531E+03  0.60080448531E+03  0.25500000920E-02 0. -1.
        2   -1    0    0  501    0  0.00000000000E+00  0.00000000000E+00 -0.20222963052E+04  0.20222963052E+04  0.25500000920E-02 0.  1.
    10030    2    1    2    0    0  0.00000000000E+00  0.00000000000E+00 -0.14214918199E+04  0.26231007905E+04  0.22045450241E+04 0.  0.
        3    1    3    3  502    0  0.34473928963E+03  0.63110042403E+03  0.28324821361E+03  0.77289228469E+03  0.10100000352E+00 0. -1.
       -3    1    3    3    0  502 -0.34473928963E+03 -0.63110042403E+03 -0.17047400335E+04  0.18502085058E+04  0.10100000352E+00 0.  1.
</event>
<event>
 5   0  0.1071208E-05  0.2201228E+04  0.7818609E-02  0.8517917E-01
       -1   -1    0    0    0  501  0.00000000000E+00  0.00000000000E+00  0.11277577685E+04  0.11277577686E+04  0.50400001928E-02 0.  1.
        1   -1    0    0  501    0  0.00000000000E+00  0.00000000000E+00 -0.10741240077E+04  0.10741240077E+04  0.50400001928E-02 0. -1.
    10030    2    1    2    0    0  0.00000000000E+00  0.00000000000E+00  0.53633760870E+02  0.22018817762E+04  0.22012284698E+04 0.  0.
        4    1    3    3  502    0  0.41070928578E+03  0.17322246871E+03 -0.97979283971E+03  0.10764217402E+04  0.12699999809E+01 0. -1.
       -4    1    3    3    0  502 -0.41070928578E+03 -0.17322246871E+03  0.10334266006E+04  0.11254600361E+04  0.12699999809E+01 0.  1.
</event>
<event>
 5   0  0.1033733E-05  0.2201340E+04  0.7818609E-02  0.8517871E-01
        1   -1    0    0  501    0  0.00000000000E+00  0.00000000000E+00  0.13004091175E+04  0.13004091175E+04  0.50400001928E-02 0. -1.
       -1   -1    0    0    0  501  0.00000000000E+00  0.00000000000E+00 -0.93161007795E+03  0.93161007796E+03  0.50400001928E-02 0.  1.
    10030    2    1    2    0    0  0.00000000000E+00  0.00000000000E+00  0.36879903957E+03  0.22320191955E+04  0.22013398096E+04 0.  0.
        5    1    3    3  502    0 -0.96833507530E+03  0.26901207171E+03 -0.27064441749E+03  0.10408221767E+04  0.46999998093E+01 0. -1.
       -5    1    3    3    0  502  0.96833507530E+03 -0.26901207171E+03  0.63944345706E+03  0.11911970188E+04  0.46999998093E+01 0.  1.
</event>
<event>
 5   0  0.2289708E-05  0.2209762E+04  0.7818609E-02  0.8514376E-01
        2   -1    0    0  501    0  0.00000000000E+00  0.00000000000E+00  0.15584749140E+04  0.15584749140E+04  0.25500000920E-02 0.  1.
       -2   -1    0    0    0  501  0.00000000000E+00  0.00000000000E+00 -0.78330537491E+03  0.78330537491E+03  0.25500000920E-02 0. -1.
    10030    2    1    2    0    0  0.00000000000E+00  0.00000000000E+00  0.77516953906E+03  0.23417802889E+04  0.22097617761E+04 0.  0.
        5    1    3    3  502    0 -0.42849109115E+03  0.73591726944E+03  0.11336025546E+04  0.14178348580E+04  0.46999998093E+01 0.  1.
       -5    1    3    3    0  502  0.42849109115E+03 -0.73591726944E+03 -0.35843301556E+03  0.92394543091E+03  0.46999998093E+01 0. -1.
</event>
<event>
 5   0  0.1049198E-05  0.2197377E+04  0.7818609E-02  0.8519521E-01
       -1   -1    0    0    0  501  0.00000000000E+00  0.00000000000E+00  0.96011048582E+03  0.96011048583E+03  0.50400001928E-02 0. -1.
        1   -1    0    0  501    0  0.00000000000E+00  0.00000000000E+00 -0.12572685847E+04  0.12572685847E+04  0.50400001928E-02 0.  1.
    10030    2    1    2    0    0  0.00000000000E+00  0.00000000000E+00 -0.29715809888E+03  0.22173790705E+04  0.21973773019E+04 0.  0.
        1    1    3    3  502    0 -0.50696631624E+03  0.50126646620E+03  0.69499317565E+03  0.99563970901E+03  0.50400001928E-02 0. -1.
       -1    1    3    3    0  502  0.50696631624E+03 -0.50126646620E+03 -0.99215127453E+03  0.12217393615E+04  0.50400001928E-02 0.  1.
</event>
<event>
 5   0  0.2289708E-05  0.2207053E+04  0.7818609E-02  0.8515498E-01
       -2   -1    0    0    0  501  0.00000000000E+00  0.00000000000E+00  0.47736985009E+03  0.47736985010E+03  0.25500000920E-02 0. -1.
        2   -1    0    0  501    0  0.00000000000E+00  0.00000000000E+00 -0.25510014492E+04  0.25510014492E+04  0.25500000920E-02 0.  1.
    10030    2    1    2    0    0  0.00000000000E+00  0.00000000000E+00 -0.20736315992E+04  0.30283712993E+04  0.22070534016E+04 0.  0.
        5    1    3    3  502    0 -0.27886837630E+03 -0.81064066786E+02 -0.24976126577E+04  0.25144442790E+04  0.46999998093E+01 0.  1.
       -5    1    3    3    0  502  0.27886837630E+03  0.81064066786E+02  0.42398105856E+03  0.51392702035E+03  0.46999998093E+01 0. -1.
</event>
<event>
 5   0  0.1007682E-05  0.2195825E+04  0.7818609E-02  0.8520168E-01
        1   -1    0    0  501    0  0.00000000000E+00  0.00000000000E+00  0.18741311149E+04  0.18741311149E+04  0.50400001928E-02 0.  1.
       -1   -1    0    0    0  501  0.00000000000E+00  0.00000000000E+00 -0.64318437824E+03  0.64318437826E+03  0.50400001928E-02 0. -1.
    10030    2    1    2    0    0  0.00000000000E+00  0.00000000000E+00  0.12309467367E+04  0.25173154932E+04  0.21958249984E+04 0.  0.
        2    1    3    3  502    0 -0.95272047699E+03  0.51668026270E+03  0.81659253118E+03  0.13570033762E+04  0.25500000920E-02 0.  1.
       -2    1    3    3    0  502  0.95272047699E+03 -0.51668026270E+03  0.41435420550E+03  0.11603121170E+04  0.25500000920E-02 0. -1.
</event>
<event>
 5   0  0.1005538E-05  0.2201303E+04  0.7818609E-02  0.8517886E-01
       -1   -1    0    0    0  501  0.00000000000E+00  0.00000000000E+00  0.11894693009E+04  0.11894693010E+04  0.50400001928E-02 0. -1.
        1   -1    0    0  501    0  0.00000000000E+00  0.00000000000E+00 -0.10184652893E+04  0.10184652893E+04  0.50400001928E-02 0.  1.
    10030    2    1    2    0    0  0.00000000000E+00  0.00000000000E+00  0.17100401162E+03  0.22079345903E+04  0.22013025197E+04 0.  0.
        3    1    3    3  502    0  0.10093032081E+04 -0.28693395349E+03 -0.24777776872E+03  0.10781548555E+04  0.10100000352E+00 0.  1.
       -3    1    3    3    0  502 -0.10093032081E+04  0.28693395349E+03  0.41878178034E+03  0.11297797348E+04  0.10100000352E+00 0. -1.
</event>
<event>
 5   0  0.1033733E-05  0.2199796E+04  0.7818609E-02  0.8518513E-01
       -1   -1    0    0    0  501  0.00000000000E+00  0.00000000000E+00  0.72862724621E+03  0.72862724623E+03  0.50400001928E-02 0.  1.
        1   -1    0    0  501    0  0.00000000000E+00  0.00000000000E+00 -0.16603496923E+04  0.16603496924E+04  0.50400001928E-02 0. -1.
    10030    2    1    2    0    0  0.00000000000E+00  0.00000000000E+00 -0.93172244613E+03  0.23889769386E+04  0.21997963761E+04 0.  0.
        5    1    3    3  502    0 -0.38667416434E+03  0.89626522428E+03 -0.10163521038E+04  0.14091848532E+04  0.46999998093E+01 0. -1.
       -5    1    3    3    0  502  0.38667416434E+03 -0.89626522428E+03  0.84629657662E+02  0.97979208538E+03  0.46999998093E+01 0.  1.
</event>
<event>
 5   0  0.2284329E-05  0.2200184E+04  0.7818609E-02  0.8518351E-01
       -2   -1    0    0    0  501  0.00000000000E+00  0.00000000000E+00  0.16721804413E+04  0.16721804413E+04  0.25500000920E-02 0. -1.
        2   -1    0    0  501    0  0.00000000000E+00  0.00000000000E+00 -0.72372743149E+03  0.72372743149E+03  0.25500000920E-02 0.  1.
    10030    2    1    2    0    0  0.00000000000E+00  0.00000000000E+00  0.94845300984E+03  0.23959078728E+04  0.22001844066E+04 0.  0.
        2    1    3    3  502    0 -0.31112696834E+03  0.70516927927E+03  0.13289987970E+04  0.15363272780E+04  0.25500000920E-02 0. -1.
       -2    1    3    3    0  502  0.31112696834E+03 -0.70516927927E+03 -0.38054578713E+03  0.85958059480E+03  0.25500000920E-02 0.  1.
</event>
<event>
 5   0  0.2229552E-05  0.2202155E+04  0.7818609E-02  0.8517532E-01
        2   -1    0    0  501    0  0.00000000000E+00  0.00000000000E+00  0.11098412318E+04  0.11098412318E+04  0.25500000920E-02 0.  1.
       -2   -1    0    0    0  501  0.00000000000E+00  0.00000000000E+00 -0.10923824850E+04  0.10923824850E+04  0.25500000920E-02 0. -1.
    10030    2    1    2    0    0  0.00000000000E+00  0.00000000000E+00  0.17458746788E+02  0.22022237169E+04  0.22021545112E+04 0.  0.
        1    1    3    3  502    0  0.29259580739E+03 -0.53768790685E+03  0.92399063694E+03  0.11083678491E+04  0.50400001928E-02 0.  1.
       -1    1    3    3    0  502 -0.29259580739E+03  0.53768790685E+03 -0.90653189015E+03  0.10938558678E+04  0.50400001928E-02 0. -1.
</event>
<event>
 5   0  0.1049198E-05  0.2195273E+04  0.7818609E-02  0.8520398E-01
        1   -1    0    0  501    0  0.00000000000E+00  0.00000000000E+00  0.13152707994E+04  0.13152707994E+04  0.50400001928E-02 0.  1.
       -1   -1    0    0    0  501  0.00000000000E+00  0.00000000000E+00 -0.91601353200E+03  0.91601353201E+03  0.50400001928E-02 0. -1.
    10030    2    1    2    0    0  0.00000000000E+00  0.00000000000E+00  0.39925726739E+03  0.22312843314E+04  0.21952729675E+04 0.  0.
        1    1    3    3  502    0  0.98103662355E+03  0.39814489445E+03  0.49395375902E+03  0.11683075493E+04  0.50400001928E-02 0.  1.
       -1    1    3    3    0  502 -0.98103662355E+03 -0.39814489445E+03 -0.94696491629E+02  0.10629767821E+04  0.50400001928E-02 0. -1.
</event>
<event>
 5   0  0.1005538E-05  0.2195574E+04  0.7818609E-02  0.8520273E-01
        1   -1    0    0  501    0  0.00000000000E+00  0.00000000000E+00  0.11103220161E+04  0.11103220161E+04  0.50400001928E-02 0. -1.
       -1   -1    0    0    0  501  0.00000000000E+00  0.00000000000E+00 -0.10853930577E+04  0.10853930578E+04  0.50400001928E-02 0.  1.
    10030    2    1    2    0    0  0.00000000000E+00  0.00000000000E+00  0.24928958339E+02  0.21957150738E+04  0.21955735543E+04 0.  0.
        3    1    3    3  502    0  0.88322274186E+03  0.32737440652E+03  0.57630875235E+03  0.11042591191E+04  0.10100000352E+00 0. -1.
       -3    1    3    3    0  502 -0.88322274186E+03 -0.32737440652E+03 -0.55137979401E+03  0.10914559548E+04  0.10100000352E+00 0.  1.
</event>
<event>
 5   0  0.1005538E-05  0.2198094E+04  0.7818609E-02  0.8519222E-01
        1   -1    0    0  501    0  0.00000000000E+00  0.00000000000E+00  0.24934639645E+04  0.24934639645E+04  0.50400001928E-02 0. -1.
       -1   -1    0    0    0  501  0.00000000000E+00  0.00000000000E+00 -0.48442821298E+03  0.48442821301E+03  0.50400001928E-02 0.  1.
    10030    2    1    2    0    0  0.00000000000E+00  0.00000000000E+00  0.20090357515E+04  0.29778921775E+04  0.21980939857E+04 0.  0.
        3    1    3    3  502    0  0.83360367502E+02  0.10957686873E+04  0.98325566165E+03  0.14746015303E+04  0.10100000352E+00 0.  1.
       -3    1    3    3    0  502 -0.83360367502E+02 -0.10957686873E+04  0.10257800898E+04  0.15032906471E+04  0.10100000352E+00 0. -1.
</event>
<event>
 5   0  0.1007682E-05  0.2190758E+04  0.7818609E-02  0.8522285E-01
       -1   -1    0    0    0  501  0.00000000000E+00  0.00000000000E+00  0.53462977462E+03  0.53462977464E+03  0.50400001928E-02 0.  1.
        1   -1    0    0  501    0  0.00000000000E+00  0.00000000000E+00 -0.22442728985E+04  0.22442728985E+04  0.50400001928E-02 0. -1.
    10030    2    1    2    0    0  0.00000000000E+00  0.00000000000E+00 -0.17096431239E+04  0.27789026732E+04  0.21907579638E+04 0.  0.
        2    1    3    3  502    0 -0.62865182023E+03 -0.47746495173E+03  0.10844412357E+03  0.79682872636E+03  0.25500000920E-02 0.  1.
       -2    1    3    3    0  502  0.62865182023E+03  0.47746495173E+03 -0.18180872475E+04  0.19820739468E+04  0.25500000920E-02 0. -1.
</event>
<event>
 5   0  0.2229552E-05  0.2199978E+04  0.7818609E-02  0.8518437E-01
       -2   -1    0    0    0  501  0.00000000000E+00  0.00000000000E+00  0.60738734946E+03  0.60738734947E+03  0.25500000920E-02 0. -1.
        2   -1    0    0  501    0  0.00000000000E+00  0.00000000000E+00 -0.19920997358E+04  0.19920997358E+04  0.25500000920E-02 0.  1.
    10030    2    1    2    0    0  0.00000000000E+00  0.00000000000E+00 -0.13847123863E+04  0.25994870852E+04  0.21999783439E+04 0.  0.
        1    1    3    3  502    0  0.33168460115E+03 -0.90437957154E+03 -0.64819229712E+02  0.96546290277E+03  0.50400001928E-02 0. -1.
       -1    1    3    3    0  502 -0.33168460115E+03  0.90437957154E+03 -0.13198931566E+04  0.16340241825E+04  0.50400001928E-02 0.  1.
</event>
<event>
 5   0  0.2319707E-05  0.2206159E+04  0.7818609E-02  0.8515869E-01
        2   -1    0    0  501    0  0.00000000000E+00  0.00000000000E+00  0.11410486677E+04  0.11410486677E+04  0.25500000920E-02 0. -1.
       -2   -1    0    0    0  501  0.00000000000E+00  0.00000000000E+00 -0.10663737112E+04  0.10663737112E+04  0.25500000920E-02 0.  1.
    10030    2    1    2    0    0  0.00000000000E+00  0.00000000000E+00  0.74674956504E+02  0.22074223790E+04  0.22061589268E+04 0.  0.
        3    1    3    3  502    0 -0.68264073343E+03 -0.59262809544E+03 -0.59514624802E+03  0.10823148789E+04  0.10100000352E+00 0.  1.
       -3    1    3    3    0  502  0.68264073343E+03  0.59262809544E+03  0.66982120452E+03  0.11251075001E+04  0.10100000352E+00 0. -1.
</event>
<event>
 5   0  0.1005538E-05  0.2203513E+04  0.7818609E-02  0.8516968E-01
       -1   -1    0    0    0  501  0.00000000000E+00  0.00000000000E+00  0.84941483748E+03  0.84941483749E+03  0.50400001928E-02 0. -1.
        1   -1    0    0  501    0  0.00000000000E+00  0.00000000000E+00 -0.14290624585E+04  0.14290624585E+04  0.50400001928E-02 0.  1.
    10030    2    1    2    0    0  0.00000000000E+00  0.00000000000E+00 -0.57964762103E+03  0.22784772960E+04  0.22035125196E+04 0.  0.
        3    1    3    3  502    0 -0.69400011641E+03  0.77417277652E+03  0.87114910221E+02  0.10433449417E+04  0.10100000352E+00 0. -1.
       -3    1    3    3    0  502  0.69400011641E+03 -0.77417277652E+03 -0.66676253125E+03  0.12351323544E+04  0.10100000352E+00 0.  1.
</event>
<event>
 5   0  0.2298329E-05  0.2210971E+04  0.7818609E-02  0.8513875E-01
        2   -1    0    0  501    0  0.00000000000E+00  0.00000000000E+00  0.14809007254E+04  0.14809007254E+04  0.25500000920E-02 0.  1.
       -2   -1    0    0    0  501  0.00000000000E+00  0.00000000000E+00 -0.82524012101E+03  0.82524012101E+03  0.25500000920E-02 0. -1.
    10030    2    1    2    0    0  0.00000000000E+00  0.00000000000E+00  0.65566060438E+03  0.23061408464E+04  0.22109714551E+04 0.  0.
        4    1    3    3  502    0 -0.24690066288E+03  0.31797130936E+03  0.14017258835E+04  0.14583904677E+04  0.12699999809E+01 0.  1.
       -4    1    3    3    0  502  0.24690066288E+03 -0.31797130936E+03 -0.74606527915E+03  0.84775037868E+03  0.12699999809E+01 0. -1.
</event>
<event>
 5   0  0.1005538E-05  0.2199196E+04  0.7818609E-02  0.8518763E-01
        1   -1    0    0  501    0  0.00000000000E+00  0.00000000000E+00  0.13429706514E+04  0.13429706514E+04  0.50400001928E-02 0. -1.
       -1   -1    0    0    0  501  0.00000000000E+00  0.00000000000E+00 -0.90032963198E+03  0.90032963200E+03  0.50400001928E-02 0.  1.
    10030    2    1    2    0    0  0.00000000000E+00  0.00000000000E+00  0.44264101941E+03  0.22433002834E+04  0.21991964645E+04 0.  0.
        3    1    3    3  502    0  0.40808918810E+03 -0.55718407419E+03 -0.65148225855E+03  0.94943142005E+03  0.10100000352E+00 0.  1.
       -3    1    3    3    0  502 -0.40808918810E+03  0.55718407419E+03  0.10941232780E+04  0.12938688633E+04  0.10100000352E+00 0. -1.
</event>
<event>
 5   0  0.1005538E-05  0.2199837E+04  0.7818609E-02  0.8518496E-01
       -1   -1    0    0    0  501  0.00000000000E+00  0.00000000000E+00  0.86534624834E+03  0.86534624835E+03  0.50400001928E-02 0.  1.
        1   -1    0    0  501    0  0.00000000000E+00  0.00000000000E+00 -0.13980770697E+04  0.13980770697E+04  0.50400001928E-02 0. -1.
    10030    2    1    2    0    0  0.00000000000E+00  0.00000000000E+00 -0.53273082136E+03  0.22634233181E+04  0.21998370369E+04 0.  0.
        3    1    3    3  502    0 -0.19498679016E+03  0.77839751451E+03 -0.10403715966E+04  0.13138856907E+04  0.10100000352E+00 0. -1.
       -3    1    3    3    0  502  0.19498679016E+03 -0.77839751451E+03  0.50764077525E+03  0.94953762739E+03  0.10100000352E+00 0.  1.
</event>
<event>
 5   0  0.2289708E-05  0.2217038E+04  0.7818609E-02  0.8511370E-01
       -2   -1    0    0    0  501  0.00000000000E+00  0.00000000000E+00  0.16347033743E+04  0.16347033743E+04  0.25500000920E-02 0. -1.
        2   -1    0    0  501    0  0.00000000000E+00  0.00000000000E+00 -0.75170476478E+03  0.75170476479E+03  0.25500000920E-02 0.  1.
    10030    2    1    2    0    0  0.00000000000E+00  0.00000000000E+00  0.88299860951E+03  0.23864081391E+04  0.22170379478E+04 0.  0.
        5    1    3    3  502    0 -0.53389160691E+03 -0.88312808714E+03  0.58096286300E+01  0.10319938508E+04  0.46999998093E+01 0.  1.
       -5    1    3    3    0  502  0.53389160691E+03  0.88312808714E+03  0.87718898088E+03  0.13544142883E+04  0.46999998093E+01 0. -1.
</event>
<event>
 5   0  0.1071208E-05  0.2248462E+04  0.7818609E-02  0.8498524E-01
        1   -1    0    0  501    0  0.00000000000E+00  0.00000000000E+00  0.68285689601E+03  0.68285689602E+03  0.50400001928E-02 0. -1.
       -1   -1    0    0    0  501  0.00000000000E+00  0.00000000000E+00 -0.18508928474E+04  0.18508928474E+04  0.50400001928E-02 0.  1.
    10030    2    1    2    0    0  0.00000000000E+00  0.00000000000E+00 -0.11680359514E+04  0.25337497434E+04  0.22484616471E+04 0.  0.
        4    1    3    3  502    0  0.17714615087E+03 -0.39222764470E+03 -0.17543862575E+04  0.18064041733E+04  0.12699999809E+01 0.  1.
       -4    1    3    3    0  502 -0.17714615087E+03  0.39222764470E+03  0.58635030608E+03  0.72734557012E+03  0.12699999809E+01 0. -1.
</event>
<event>
 5   0  0.1005538E-05  0.2186422E+04  0.7818609E-02  0.8524101E-01
        1   -1    0    0  501    0  0.00000000000E+00  0.00000000000E+00  0.21617610666E+04  0.21617610666E+04  0.50400001928E-02 0. -1.
       -1   -1    0    0    0  501  0.00000000000E+00  0.00000000000E+00 -0.55284127739E+03  0.55284127741E+03  0.50400001928E-02 0.  1.
    10030    2    1    2    0    0  0.00000000000E+00  0.00000000000E+00  0.16089197892E+04  0.27146023440E+04  0.21864224198E+04 0.  0.
        3    1    3    3  502    0 -0.29138354065E+03  0.91723072815E+03  0.14482774802E+04  0.17388859210E+04  0.10100000352E+00 0. -1.
       -3    1    3    3    0  502  0.29138354065E+03 -0.91723072815E+03  0.16064230898E+03  0.97571642297E+03  0.10100000352E+00 0.  1.
</event>
<event>
 5   0  0.2284329E-05  0.2199682E+04  0.7818609E-02  0.8518560E-01
        2   -1    0    0  501    0  0.00000000000E+00  0.00000000000E+00  0.21377627875E+04  0.21377627875E+04  0.25500000920E-02 0. -1.
       -2   -1    0    0    0  501  0.00000000000E+00  0.00000000000E+00 -0.56584883939E+03  0.56584883939E+03  0.25500000920E-02 0.  1.
    10030    2    1    2    0    0  0.00000000000E+00  0.00000000000E+00  0.15719139481E+04  0.27036116269E+04  0.21996823336E+04 0.  0.
        2    1    3    3  502    0  0.53983870341E+03  0.25664743728E+03 -0.34877964154E+03  0.69205561273E+03  0.25500000920E-02 0.  1.
       -2    1    3    3    0  502 -0.53983870341E+03 -0.25664743728E+03  0.19206935897E+04  0.20115560142E+04  0.25500000920E-02 0. -1.
</event>
<event>
 5   0  0.1071208E-05  0.2200908E+04  0.7818609E-02  0.8518050E-01
        1   -1    0    0  501    0  0.00000000000E+00  0.00000000000E+00  0.10366686855E+04  0.10366686855E+04  0.50400001928E-02 0. -1.
       -1   -1    0    0    0  501  0.00000000000E+00  0.00000000000E+00 -0.11681637407E+04  0.11681637408E+04  0.50400001928E-02 0.  1.
    10030    2    1    2    0    0  0.00000000000E+00  0.00000000000E+00 -0.13149505525E+03  0.22048324263E+04  0.22009077851E+04 0.  0.
        4    1    3    3  502    0 -0.10010115457E+04 -0.77521616157E+02  0.38557046666E+03  0.10754998435E+04  0.12699999809E+01 0.  1.
       -4    1    3    3    0  502  0.10010115457E+04  0.77521616157E+02 -0.51706552191E+03  0.11293325828E+04  0.12699999809E+01 0. -1.
</event>
<event>
 5   0  0.2229552E-05  0.2200020E+04  0.7818609E-02  0.8518420E-01
       -2   -1    0    0    0  501  0.00000000000E+00  0.00000000000E+00  0.57118131665E+03  0.57118131666E+03  0.25500000920E-02 0. -1.
        2   -1    0    0  501    0  0.00000000000E+00  0.00000000000E+00 -0.21184556795E+04  0.21184556795E+04  0.25500000920E-02 0.  1.
    10030    2    1    2    0    0  0.00000000000E+00  0.00000000000E+00 -0.15472743629E+04  0.26896369962E+04  0.22000202765E+04 0.  0.
        1    1    3    3  502    0  0.75463206466E+03 -0.79848720280E+03 -0.70700043285E+03  0.13064842051E+04  0.50400001928E-02 0.  1.
       -1    1    3    3    0  502 -0.75463206466E+03  0.79848720280E+03 -0.84027393002E+03  0.13831527911E+04  0.50400001928E-02 0. -1.
</event>
<event>
 5   0  0.1007682E-05  0.2208438E+04  0.7818609E-02  0.8514924E-01
        1   -1    0    0  501    0  0.00000000000E+00  0.00000000000E+00  0.26772220900E+04  0.26772220900E+04  0.50400001928E-02 0. -1.
       -1   -1    0    0    0  501  0.00000000000E+00  0.00000000000E+00 -0.45543473247E+03  0.45543473249E+03  0.50400001928E-02 0.  1.
    10030    2    1    2    0    0  0.00000000000E+00  0.00000000000E+00  0.22217873575E+04  0.31326568225E+04  0.22084382956E+04 0.  0.
        2    1    3    3  502    0 -0.86425088108E+03  0.28398888089E+03  0.19986950032E+04  0.21959874740E+04  0.25500000920E-02 0. -1.
       -2    1    3    3    0  502  0.86425088108E+03 -0.28398888089E+03  0.22309235430E+03  0.93666934853E+03  0.25500000920E-02 0.  1.
</event>
<event>
 5   0  0.1071208E-05  0.2194390E+04  0.7818609E-02  0.8520767E-01
       -1   -1    0    0    0  501  0.00000000000E+00  0.00000000000E+00  0.70445498572E+03  0.70445498574E+03  0.50400001928E-02 0.  1.
        1   -1    0    0  501    0  0.00000000000E+00  0.00000000000E+00 -0.17088908197E+04  0.17088908197E+04  0.50400001928E-02 0. -1.
    10030    2    1    2    0    0  0.00000000000E+00  0.00000000000E+00 -0.10044358339E+04  0.24133458054E+04  0.21943898086E+04 0.  0.
        4    1    3    3  502    0  0.52080414767E+03  0.16031406665E+03 -0.15495511323E+04  0.16425735553E+04  0.12699999809E+01 0. -1.
       -4    1    3    3    0  502 -0.52080414767E+03 -0.16031406665E+03  0.54511529831E+03  0.77077225011E+03  0.12699999809E+01 0.  1.
</event>
<event>
 5   0  0.2319707E-05  0.2198253E+04  0.7818609E-02  0.8519156E-01
        2   -1    0    0  501    0  0.00000000000E+00  0.00000000000E+00  0.15696472541E+04  0.15696472541E+04  0.25500000920E-02 0.  1.
       -2   -1    0    0    0  501  0.00000000000E+00  0.00000000000E+00 -0.76964982270E+03  0.76964982270E+03  0.25500000920E-02 0. -1.
    10030    2    1    2    0    0  0.00000000000E+00  0.00000000000E+00  0.79999743140E+03  0.23392970768E+04  0.21982526978E+04 0.  0.
        3    1    3    3  502    0 -0.29775380880E+02 -0.97140503557E+03 -0.14632636848E+03  0.98281520783E+03  0.10100000352E+00 0.  1.
       -3    1    3    3    0  502  0.29775380880E+02  0.97140503557E+03  0.94632379988E+03  0.13564818690E+04  0.10100000352E+00 0. -1.
</event>
<event>
 5   0  0.1005538E-05  0.2262866E+04  0.7818609E-02  0.8492708E-01
       -1   -1    0    0    0  501  0.00000000000E+00  0.00000000000E+00  0.49617327498E+03  0.49617327500E+03  0.50400001928E-02 0.  1.
        1   -1    0    0  501    0  0.00000000000E+00  0.00000000000E+00 -0.25800264416E+04  0.25800264416E+04  0.50400001928E-02 0. -1.
    10030    2    1    2    0    0  0.00000000000E+00  0.00000000000E+00 -0.20838531666E+04  0.30761997166E+04  0.22628655895E+04 0.  0.
        3    1    3    3  502    0  0.81760848823E+03 -0.28781348329E+03 -0.20305016929E+04  0.22077720390E+04  0.10100000352E+00 0. -1.
       -3    1    3    3    0  502 -0.81760848823E+03  0.28781348329E+03 -0.53351473685E+02  0.86842767755E+03  0.10100000352E+00 0.  1.
</event>
<event>
 5   0  0.2284329E-05  0.2203776E+04  0.7818609E-02  0.8516858E-01
        2   -1    0    0  501    0  0.00000000000E+00  0.00000000000E+00  0.11761779257E+04  0.11761779257E+04  0.25500000920E-02 0.  1.
       -2   -1    0    0    0  501  0.00000000000E+00  0.00000000000E+00 -0.10322900730E+04  0.10322900730E+04  0.25500000920E-02 0. -1.
    10030    2    1    2    0    0  0.00000000000E+00  0.00000000000E+00  0.14388785266E+03  0.22084679987E+04  0.22037756663E+04 0.  0.
        2    1    3    3  502    0 -0.91946281068E+03 -0.49632965567E+03  0.42254855574E+03  0.11270768693E+04  0.25500000920E-02 0.  1.
       -2    1    3    3    0  502  0.91946281068E+03  0.49632965567E+03 -0.27866070308E+03  0.10813911294E+04  0.25500000920E-02 0. -1.
</event>
<event>
 5   0  0.2319707E-05  0.2203962E+04  0.7818609E-02  0.8516781E-01
       -2   -1    0    0    0  501  0.00000000000E+00  0.00000000000E+00  0.12765004474E+04  0.12765004474E+04  0.25500000920E-02 0. -1.
        2   -1    0    0  501    0  0.00000000000E+00  0.00000000000E+00 -0.95132158714E+03  0.95132158715E+03  0.25500000920E-02 0.  1.
    10030    2    1    2    0    0  0.00000000000E+00  0.00000000000E+00  0.32517886028E+03  0.22278220346E+04  0.22039622788E+04 0.  0.
        3    1    3    3  502    0 -0.18416031998E+03 -0.93178483065E+03 -0.40223019303E+03  0.10314684350E+04  0.10100000352E+00 0.  1.
       -3    1    3    3    0  502  0.18416031998E+03  0.93178483065E+03  0.72740905330E+03  0.11963535995E+04  0.10100000352E+00 0. -1.
</event>
<event>
 5   0  0.2284329E-05  0.2200037E+04  0.7818609E-02  0.8518413E-01
        2   -1    0    0  501    0  0.00000000000E+00  0.00000000000E+00  0.19731014376E+04  0.19731014376E+04  0.25500000920E-02 0. -1.
       -2   -1    0    0    0  501  0.00000000000E+00  0.00000000000E+00 -0.61326862330E+03  0.61326862330E+03  0.25500000920E-02 0.  1.
    10030    2    1    2    0    0  0.00000000000E+00  0.00000000000E+00  0.13598328143E+04  0.25863700609E+04  0.22000374563E+04 0.  0.
        2    1    3    3  502    0  0.65422602454E+03  0.83669280081E+03  0.10165057980E+04  0.14701532476E+04  0.25500000920E-02 0. -1.
       -2    1    3    3    0  502 -0.65422602454E+03 -0.83669280081E+03  0.34332701630E+03  0.11162168133E+04  0.25500000920E-02 0.  1.
</event>
<event>
 5   0  0.2284329E-05  0.2200687E+04  0.7818609E-02  0.8518142E-01
        2   -1    0    0  501    0  0.00000000000E+00  0.00000000000E+00  0.23481167710E+04  0.23481167710E+04  0.25500000920E-02 0. -1.
       -2   -1    0    0    0  501  0.00000000000E+00  0.00000000000E+00 -0.51562823744E+03  0.51562823745E+03  0.25500000920E-02 0.  1.
    10030    2    1    2    0    0  0.00000000000E+00  0.00000000000E+00  0.18324885336E+04  0.28637450084E+04  0.22006865401E+04 0.  0.
        2    1    3    3  502    0  0.91675741539E+03  0.37746220310E+03  0.29511085638E+03  0.10344139843E+04  0.25500000920E-02 0.  1.
       -2    1    3    3    0  502 -0.91675741539E+03 -0.37746220310E+03  0.15373776772E+04  0.18293310241E+04  0.25500000920E-02 0. -1.
</event>
<event>
 5   0  0.1033733E-05  0.2170713E+04  0.7818609E-02  0.8530718E-01
        1   -1    0    0  501    0  0.00000000000E+00  0.00000000000E+00  0.16407757770E+04  0.16407757770E+04  0.50400001928E-02 0. -1.
       -1   -1    0    0    0  501  0.00000000000E+00  0.00000000000E+00 -0.71795250651E+03  0.71795250653E+03  0.50400001928E-02 0.  1.
    10030    2    1    2    0    0  0.00000000000E+00  0.00000000000E+00  0.92282327051E+03  0.23587282836E+04  0.21707133222E+04 0.  0.
        5    1    3    3  502    0 -0.31058418668E+03 -0.95139825676E+03  0.50907658666E+01  0.10008342450E+04  0.46999998093E+01 0.  1.
       -5    1    3    3    0  502  0.31058418668E+03  0.95139825676E+03  0.91773250464E+03  0.13578940386E+04  0.46999998093E+01 0. -1.
</event>
<event>
 5   0  0.1071208E-05  0.2200733E+04  0.7818609E-02  0.8518123E-01
       -1   -1    0    0    0  501  0.00000000000E+00  0.00000000000E+00  0.94386849510E+03  0.94386849511E+03  0.50400001928E-02 0.  1.
        1   -1    0    0  501    0  0.00000000000E+00  0.00000000000E+00 -0.12828128360E+04  0.12828128360E+04  0.50400001928E-02 0. -1.
    10030    2    1    2    0    0  0.00000000000E+00  0.00000000000E+00 -0.33894434087E+03  0.22266813311E+04  0.22007331697E+04 0.  0.
        4    1    3    3  502    0 -0.90216966026E+03 -0.13176030292E+03 -0.79279940072E+03  0.12082232310E+04  0.12699999809E+01 0. -1.
       -4    1    3    3    0  502  0.90216966026E+03  0.13176030292E+03  0.45385505985E+03  0.10184581001E+04  0.12699999809E+01 0.  1.
</event>
<event>
 5   0  0.2284329E-05  0.2190151E+04  0.7818609E-02  0.8522539E-01
       -2   -1    0    0    0  501  0.00000000000E+00  0.00000000000E+00  0.15403714162E+04  0.15403714162E+04  0.25500000920E-02 0. -1.
        2   -1    0    0  501    0  0.00000000000E+00  0.00000000000E+00 -0.77850714393E+03  0.77850714394E+03  0.25500000920E-02 0.  1.
    10030    2    1    2    0    0  0.00000000000E+00  0.00000000000E+00  0.76186427225E+03  0.23188785601E+04  0.21901508184E+04 0.  0.
        2    1    3    3  502    0 -0.11306649726E+01 -0.72239342656E+03  0.12523094681E+04  0.14457290704E+04  0.25500000920E-02 0. -1.
       -2    1    3    3    0  502  0.11306649726E+01  0.72239342656E+03 -0.49044519589E+03  0.87314948967E+03  0.25500000920E-02 0.  1.
</event>
<event>
 5   0  0.2284329E-05  0.2212268E+04  0.7818609E-02  0.8513339E-01
        2   -1    0    0  501    0  0.00000000000E+00  0.00000000000E+00  0.15668551862E+04  0.15668551862E+04  0.25500000920E-02 0. -1.
       -2   -1    0    0    0  501  0.00000000000E+00  0.00000000000E+00 -0.78088403793E+03  0.78088403793E+03  0.25500000920E-02 0.  1.
    10030    2    1    2    0    0  0.00000000000E+00  0.00000000000E+00  0.78597114830E+03  0.23477392242E+04  0.22122678000E+04 0.  0.
        2    1    3    3  502    0  0.24876002094E+03 -0.10300993997E+04  0.72949273053E+03  0.12865247628E+04  0.25500000920E-02 0. -1.
       -2    1    3    3    0  502 -0.24876002094E+03  0.10300993997E+04  0.56478417769E+02  0.10612144614E+04  0.25500000920E-02 0.  1.
</event>
<event>
 5   0  0.2319707E-05  0.2194109E+04  0.7818609E-02  0.8520884E-01
        2   -1    0    0  501    0  0.00000000000E+00  0.00000000000E+00  0.19793653531E+04  0.19793653531E+04  0.25500000920E-02 0.  1.
       -2   -1    0    0    0  501  0.00000000000E+00  0.00000000000E+00 -0.60803774593E+03  0.60803774594E+03  0.25500000920E-02 0. -1.
    10030    2    1    2    0    0  0.00000000000E+00  0.00000000000E+00  0.13713276072E+04  0.25874030990E+04  0.21941092477E+04 0.  0.
        3    1    3    3  502    0  0.35040459707E+03 -0.81627383253E+01  0.19115613256E+04  0.19434291146E+04  0.10100000352E+00 0.  1.
       -3    1    3    3    0  502 -0.35040459707E+03  0.81627383253E+01 -0.54023371839E+03  0.64397398443E+03  0.10100000352E+00 0. -1.
</event>
<event>
 5   0  0.1007682E-05  0.2182899E+04  0.7818609E-02  0.8525580E-01
        1   -1    0    0  501    0  0.00000000000E+00  0.00000000000E+00  0.33172734970E+03  0.33172734974E+03  0.50400001928E-02 0. -1.
       -1   -1    0    0    0  501  0.00000000000E+00  0.00000000000E+00 -0.35910873839E+04  0.35910873839E+04  0.50400001928E-02 0.  1.
    10030    2    1    2    0    0  0.00000000000E+00  0.00000000000E+00 -0.32593600342E+04  0.39228147336E+04  0.21828988987E+04 0.  0.
        2    1    3    3  502    0 -0.10395226717E+04 -0.19872646656E+03 -0.11502897800E+04  0.15630950616E+04  0.25500000920E-02 0. -1.
       -2    1    3    3    0  502  0.10395226717E+04  0.19872646656E+03 -0.21090702542E+04  0.23597196720E+04  0.25500000920E-02 0.  1.
</event>
<event>
 5   0  0.1049198E-05  0.2199439E+04  0.7818609E-02  0.8518662E-01
       -1   -1    0    0    0  501  0.00000000000E+00  0.00000000000E+00  0.14698754275E+04  0.14698754275E+04  0.50400001928E-02 0.  1.
        1   -1    0    0  501    0  0.00000000000E+00  0.00000000000E+00 -0.82277917016E+03  0.82277917017E+03  0.50400001928E-02 0. -1.
    10030    2    1    2    0    0  0.00000000000E+00  0.00000000000E+00  0.64709625730E+03  0.22926545976E+04  0.21994389143E+04 0.  0.
        1    1    3    3  502    0  0.54021540149E+03  0.92485589409E+03  0.63596095818E+02  0.10729564615E+04  0.50400001928E-02 0. -1.
       -1    1    3    3    0  502 -0.54021540149E+03 -0.92485589409E+03  0.58350016148E+03  0.12196981361E+04  0.50400001928E-02 0.  1.
</event>
<event>
 5   0  0.2284329E-05  0.2198881E+04  0.7818609E-02  0.8518894E-01
        2   -1    0    0  501    0  0.00000000000E+00  0.00000000000E+00  0.15506212213E+04  0.15506212213E+04  0.25500000920E-02 0. -1.
       -2   -1    0    0    0  501  0.00000000000E+00  0.00000000000E+00 -0.77953889441E+03  0.77953889441E+03  0.25500000920E-02 0.  1.
    10030    2    1    2    0    0  0.00000000000E+00  0.00000000000E+00  0.77108232694E+03  0.23301601158E+04  0.21988811269E+04 0.  0.
        2    1    3    3  502    0 -0.71436700244E+03 -0.70192189101E+03  0.86622465671E+03  0.13241448981E+04  0.25500000920E-02 0. -1.
       -2    1    3    3    0  502  0.71436700244E+03  0.70192189101E+03 -0.95142329770E+02  0.10060152177E+04  0.25500000920E-02 0.  1.
</event>
<event>
 5   0  0.2289708E-05  0.2200662E+04  0.7818609E-02  0.8518153E-01
       -2   -1    0    0    0  501  0.00000000000E+00  0.00000000000E+00  0.66717145011E+03  0.66717145012E+03  0.25500000920E-02 0. -1.
        2   -1    0    0  501    0  0.00000000000E+00  0.00000000000E+00 -0.18147177670E+04  0.18147177670E+04  0.25500000920E-02 0.  1.
    10030    2    1    2    0    0  0.00000000000E+00  0.00000000000E+00 -0.11475463168E+04  0.24818892171E+04  0.22006616134E+04 0.  0.
        5    1    3    3  502    0 -0.38249352128E+03 -0.73860256408E+03 -0.13861522173E+04  0.16165627427E+04  0.46999998093E+01 0.  1.
       -5    1    3    3    0  502  0.38249352128E+03  0.73860256408E+03  0.23860590050E+03  0.86532647436E+03  0.46999998093E+01 0. -1.
</event>
<event>
 5   0  0.1007682E-05  0.2192549E+04  0.7818609E-02  0.8521536E-01
       -1   -1    0    0    0  501  0.00000000000E+00  0.00000000000E+00  0.56150665644E+03  0.56150665646E+03  0.50400001928E-02 0. -1.
        1   -1    0    0  501    0  0.00000000000E+00  0.00000000000E+00 -0.21403451929E+04  0.21403451929E+04  0.50400001928E-02 0.  1.
    10030    2    1    2    0    0  0.00000000000E+00  0.00000000000E+00 -0.15788385364E+04  0.27018518493E+04  0.21925492678E+04 0.  0.
        2    1    3    3  502    0  0.11557343566E+03 -0.34033773759E+03  0.48683544420E+03  0.60514109462E+03  0.25500000920E-02 0. -1.
       -2    1    3    3    0  502 -0.11557343566E+03  0.34033773759E+03 -0.20656739806E+04  0.20967107547E+04  0.25500000920E-02 0.  1.
</event>
<event>
 5   0  0.1033733E-05  0.2195436E+04  0.7818609E-02  0.8520330E-01
        1   -1    0    0  501    0  0.00000000000E+00  0.00000000000E+00  0.10427829356E+04  0.10427829356E+04  0.50400001928E-02 0. -1.
       -1   -1    0    0    0  501  0.00000000000E+00  0.00000000000E+00 -0.11555472477E+04  0.11555472477E+04  0.50400001928E-02 0.  1.
    10030    2    1    2    0    0  0.00000000000E+00  0.00000000000E+00 -0.11276431214E+03  0.21983301833E+04  0.21954361309E+04 0.  0.
        5    1    3    3  502    0  0.48090875813E+03  0.48223326695E+03 -0.91841229143E+03  0.11433833060E+04  0.46999998093E+01 0.  1.
       -5    1    3    3    0  502 -0.48090875813E+03 -0.48223326695E+03  0.80564797930E+03  0.10549468773E+04  0.46999998093E+01 0. -1.
</event>
<event>
 5   0  0.2298329E-05  0.2195745E+04  0.7818609E-02  0.8520201E-01
       -2   -1    0    0    0  501  0.00000000000E+00  0.00000000000E+00  0.50946157060E+03  0.50946157060E+03  0.25500000920E-02 0.  1.
        2   -1    0    0  501    0  0.00000000000E+00  0.00000000000E+00 -0.23658784996E+04  0.23658784996E+04  0.25500000920E-02 0. -1.
    10030    2    1    2    0    0  0.00000000000E+00  0.00000000000E+00 -0.18564169290E+04  0.28753400702E+04  0.21957451366E+04 0.  0.
        4    1    3    3  502    0  0.10755882637E+03  0.83826841331E+03 -0.18458529250E+04  0.20301323768E+04  0.12699999809E+01 0. -1.
       -4    1    3    3    0  502 -0.10755882637E+03 -0.83826841331E+03 -0.10564004034E+02  0.84520769339E+03  0.12699999809E+01 0.  1.
</event>
<event>
 5   0  0.1005538E-05  0.2180846E+04  0.7818609E-02  0.8526443E-01
        1   -1    0    0  501    0  0.00000000000E+00  0.00000000000E+00  0.13239258485E+04  0.13239258485E+04  0.50400001928E-02 0. -1.
       -1   -1    0    0    0  501  0.00000000000E+00  0.00000000000E+00 -0.89810346229E+03  0.89810346230E+03  0.50400001928E-02 0.  1.
    10030    2    1    2    0    0  0.00000000000E+00  0.00000000000E+00  0.42582238621E+03  0.22220293108E+04  0.21808460637E+04 0.  0.
        3    1    3    3  502    0 -0.46220859598E+02  0.75601268799E+03 -0.58633229742E+03  0.95785026255E+03  0.10100000352E+00 0.  1.
       -3    1    3    3    0  502  0.46220859598E+02 -0.75601268799E+03  0.10121546836E+04  0.12641790483E+04  0.10100000352E+00 0. -1.
</event>
<event>
 5   0  0.1007682E-05  0.2187723E+04  0.7818609E-02  0.8523555E-01
        1   -1    0    0  501    0  0.00000000000E+00  0.00000000000E+00  0.77162181760E+03  0.77162181762E+03  0.50400001928E-02 0. -1.
       -1   -1    0    0    0  501  0.00000000000E+00  0.00000000000E+00 -0.15506732269E+04  0.15506732269E+04  0.50400001928E-02 0.  1.
    10030    2    1    2    0    0  0.00000000000E+00  0.00000000000E+00 -0.77905140925E+03  0.23222950445E+04  0.21877232858E+04 0.  0.
        2    1    3    3  502    0  0.69346869056E+03 -0.94151375747E+02  0.50288352988E+03  0.86177442000E+03  0.25500000920E-02 0. -1.
       -2    1    3    3    0  502 -0.69346869056E+03  0.94151375747E+02 -0.12819349391E+04  0.14605206245E+04  0.25500000920E-02 0.  1.
</event>
<event>
 5   0  0.2284329E-05  0.2197626E+04  0.7818609E-02  0.8519417E-01
        2   -1    0    0  501    0  0.00000000000E+00  0.00000000000E+00  0.21950865747E+04  0.21950865747E+04  0.25500000920E-02 0.  1.
       -2   -1    0    0    0  501  0.00000000000E+00  0.00000000000E+00 -0.55004201940E+03  0.55004201940E+03  0.25500000920E-02 0. -1.
    10030    2    1    2    0    0  0.00000000000E+00  0.00000000000E+00  0.16450445553E+04  0.27451285941E+04  0.21976258574E+04 0.  0.
        2    1    3    3  502    0 -0.15010601811E+03 -0.32454172810E+03 -0.47533350468E+03  0.59481181111E+03  0.25500000920E-02 0. -1.
       -2    1    3    3    0  502  0.15010601811E+03  0.32454172810E+03  0.21203780600E+04  0.21503167830E+04  0.25500000920E-02 0.  1.
</event>
<event>
 5   0  0.2289708E-05  0.2206321E+04  0.7818609E-02  0.8515802E-01
       -2   -1    0    0    0  501  0.00000000000E+00  0.00000000000E+00  0.12041751714E+04  0.12041751714E+04  0.25500000920E-02 0. -1.
        2   -1    0    0  501    0  0.00000000000E+00  0.00000000000E+00 -0.10106193793E+04  0.10106193793E+04  0.25500000920E-02 0.  1.
    10030    2    1    2    0    0  0.00000000000E+00  0.00000000000E+00  0.19355579215E+03  0.22147945507E+04  0.22063207059E+04 0.  0.
        5    1    3    3  502    0  0.37069091260E+01  0.21867745524E+03  0.11821832394E+04  0.12022532479E+04  0.46999998093E+01 0. -1.
       -5    1    3    3    0  502 -0.37069091260E+01 -0.21867745524E+03 -0.98862744722E+03  0.10125413029E+04  0.46999998093E+01 0.  1.
</event>
<event>
 5   0  0.1071208E-05  0.2211190E+04  0.7818609E-02  0.8513785E-01
       -1   -1    0    0    0  501  0.00000000000E+00  0.00000000000E+00  0.45885440771E+03  0.45885440774E+03  0.50400001928E-02 0.  1.
        1   -1    0    0  501    0  0.00000000000E+00  0.00000000000E+00 -0.26638948894E+04  0.26638948894E+04  0.50400001928E-02 0. -1.
    10030    2    1    2    0    0  0.00000000000E+00  0.00000000000E+00 -0.22050404816E+04  0.31227492971E+04  0.22111896451E+04 0.  0.
        4    1    3    3  502    0 -0.20124840514E+02 -0.44460818425E+03  0.32675399887E+03  0.55213334928E+03  0.12699999809E+01 0.  1.
       -4    1    3    3    0  502  0.20124840514E+02  0.44460818425E+03 -0.25317944805E+04  0.25706159478E+04  0.12699999809E+01 0. -1.
</event>
<event>
 5   0  0.2289708E-05  0.2198711E+04  0.7818609E-02  0.8518965E-01
       -2   -1    0    0    0  501  0.00000000000E+00  0.00000000000E+00  0.76742193333E+03  0.76742193333E+03  0.25500000920E-02 0. -1.
        2   -1    0    0  501    0  0.00000000000E+00  0.00000000000E+00 -0.15748602951E+04  0.15748602951E+04  0.25500000920E-02 0.  1.
    10030    2    1    2    0    0  0.00000000000E+00  0.00000000000E+00 -0.80743836174E+03  0.23422822284E+04  0.21987108335E+04 0.  0.
        5    1    3    3  502    0 -0.46011794293E+03 -0.47489854727E+03 -0.13393171565E+04  0.14936631773E+04  0.46999998093E+01 0.  1.
       -5    1    3    3    0  502  0.46011794293E+03  0.47489854727E+03  0.53187879473E+03  0.84861905110E+03  0.46999998093E+01 0. -1.
</event>
<event>
 5   0  0.1005538E-05  0.2201680E+04  0.7818609E-02  0.8517729E-01
       -1   -1    0    0    0  501  0.00000000000E+00  0.00000000000E+00  0.14096237130E+04  0.14096237130E+04  0.50400001928E-02 0.  1.
        1   -1    0    0  501    0  0.00000000000E+00  0.00000000000E+00 -0.85969691984E+03  0.85969691985E+03  0.50400001928E-02 0. -1.
    10030    2    1    2    0    0  0.00000000000E+00  0.00000000000E+00  0.54992679317E+03  0.22693206329E+04  0.22016804166E+04 0.  0.
        3    1    3    3  502    0 -0.10013373283E+04 -0.45502902220E+03  0.32243593166E+03  0.11461643845E+04  0.10100000352E+00 0.  1.
       -3    1    3    3    0  502  0.10013373283E+04  0.45502902220E+03  0.22749086151E+03  0.11231562484E+04  0.10100000352E+00 0. -1.
</event>
<event>
 5   0  0.2284329E-05  0.2194791E+04  0.7818609E-02  0.8520599E-01
       -2   -1    0    0    0  501  0.00000000000E+00  0.00000000000E+00  0.93856944800E+03  0.93856944801E+03  0.25500000920E-02 0.  1.
        2   -1    0    0  501    0  0.00000000000E+00  0.00000000000E+00 -0.12830980993E+04  0.12830980993E+04  0.25500000920E-02 0. -1.
    10030    2    1    2    0    0  0.00000000000E+00  0.00000000000E+00 -0.34452865132E+03  0.22216675473E+04  0.21947908099E+04 0.  0.
        2    1    3    3  502    0  0.72499587820E+03 -0.31594388073E+03 -0.94239447124E+03  0.12302629388E+04  0.25500000920E-02 0. -1.
       -2    1    3    3    0  502 -0.72499587820E+03  0.31594388073E+03  0.59786581992E+03  0.99140460853E+03  0.25500000920E-02 0.  1.
</event>
<event>
 5   0  0.2319707E-05  0.2185678E+04  0.7818609E-02  0.8524413E-01
        2   -1    0    0  501    0  0.00000000000E+00  0.00000000000E+00  0.97944913526E+03  0.97944913526E+03  0.25500000920E-02 0. -1.
       -2   -1    0    0    0  501  0.00000000000E+00  0.00000000000E+00 -0.12193561059E+04  0.12193561059E+04  0.25500000920E-02 0.  1.
    10030    2    1    2    0    0  0.00000000000E+00  0.00000000000E+00 -0.23990697068E+03  0.21988052412E+04  0.21856781863E+04 0.  0.
        3    1    3    3  502    0  0.42346226359E+03 -0.30822855213E+03  0.84495890774E+03  0.99412307840E+03  0.10100000352E+00 0. -1.
       -3    1    3    3    0  502 -0.42346226359E+03  0.30822855213E+03 -0.10848658784E+04  0.12046821628E+04  0.10100000352E+00 0.  1.
</event>
<event>
 5   0  0.2229552E-05  0.2196317E+04  0.7818609E-02  0.8519963E-01
       -2   -1    0    0    0  501  0.00000000000E+00  0.00000000000E+00  0.10663465857E+04  0.10663465857E+04  0.25500000920E-02 0.  1.
        2   -1    0    0  501    0  0.00000000000E+00  0.00000000000E+00 -0.11309192723E+04  0.11309192723E+04  0.25500000920E-02 0. -1.
    10030    2    1    2    0    0  0.00000000000E+00  0.00000000000E+00 -0.64572686546E+02  0.21972658580E+04  0.21963168303E+04 0.  0.
        1    1    3    3  502    0  0.32357631847E+03  0.30369116745E+01 -0.10821401166E+04  0.11294857629E+04  0.50400001928E-02 0. -1.
       -1    1    3    3    0  502 -0.32357631847E+03 -0.30369116745E+01  0.10175674301E+04  0.10677800951E+04  0.50400001928E-02 0.  1.
</event>
<event>
 5   0  0.1049198E-05  0.2192604E+04  0.7818609E-02  0.8521513E-01
       -1   -1    0    0    0  501  0.00000000000E+00  0.00000000000E+00  0.72991112811E+03  0.72991112813E+03  0.50400001928E-02 0.  1.
        1   -1    0    0  501    0  0.00000000000E+00  0.00000000000E+00 -0.16466080355E+04  0.16466080355E+04  0.50400001928E-02 0. -1.
    10030    2    1    2    0    0  0.00000000000E+00  0.00000000000E+00 -0.91669690738E+03  0.23765191636E+04  0.21926035016E+04 0.  0.
        1    1    3    3  502    0  0.47993758883E+03 -0.11394605328E+03 -0.15195294147E+04  0.15975898830E+04  0.50400001928E-02 0. -1.
       -1    1    3    3    0  502 -0.47993758883E+03  0.11394605328E+03  0.60283250732E+03  0.77892928058E+03  0.50400001928E-02 0.  1.
</event>
<event>
 5   0  0.2319707E-05  0.2189954E+04  0.7818609E-02  0.8522621E-01
        2   -1    0    0  501    0  0.00000000000E+00  0.00000000000E+00  0.20240193250E+04  0.20240193250E+04  0.25500000920E-02 0.  1.
       -2   -1    0    0    0  501  0.00000000000E+00  0.00000000000E+00 -0.59237316994E+03  0.59237316995E+03  0.25500000920E-02 0. -1.
    10030    2    1    2    0    0  0.00000000000E+00  0.00000000000E+00  0.14316461550E+04  0.26163924949E+04  0.21899541032E+04 0.  0.
        3    1    3    3  502    0  0.74963930365E+03  0.75969476044E+03  0.42347042922E+03  0.11482257745E+04  0.10100000352E+00 0. -1.
       -3    1    3    3    0  502 -0.74963930365E+03 -0.75969476044E+03  0.10081757258E+04  0.14681667204E+04  0.10100000352E+00 0.  1.
</event>
<event>
 5   0  0.1071208E-05  0.2201359E+04  0.7818609E-02  0.8517863E-01
        1   -1    0    0  501    0  0.00000000000E+00  0.00000000000E+00  0.93562758977E+03  0.93562758978E+03  0.50400001928E-02 0. -1.
       -1   -1    0    0    0  501  0.00000000000E+00  0.00000000000E+00 -0.12948477502E+04  0.12948477503E+04  0.50400001928E-02 0.  1.
    10030    2    1    2    0    0  0.00000000000E+00  0.00000000000E+00 -0.35922016047E+03  0.22304753400E+04  0.22013589255E+04 0.  0.
        4    1    3    3  502    0 -0.13328092829E+02 -0.31093953635E+03  0.89011565522E+03  0.94295732983E+03  0.12699999809E+01 0. -1.
       -4    1    3    3    0  502  0.13328092829E+02  0.31093953635E+03 -0.12493358157E+04  0.12875180102E+04  0.12699999809E+01 0.  1.
</event>
<event>
 5   0  0.2289708E-05  0.2199833E+04  0.7818609E-02  0.8518498E-01
       -2   -1    0    0    0  501  0.00000000000E+00  0.00000000000E+00  0.61007696536E+03  0.61007696536E+03  0.25500000920E-02 0.  1.
        2   -1    0    0  501    0  0.00000000000E+00  0.00000000000E+00 -0.19830554491E+04  0.19830554491E+04  0.25500000920E-02 0. -1.
    10030    2    1    2    0    0  0.00000000000E+00  0.00000000000E+00 -0.13729784838E+04  0.25931324145E+04  0.21998331305E+04 0.  0.
        5    1    3    3  502    0 -0.96595079774E+03  0.52346311231E+02 -0.69461185883E+02  0.96987010795E+03  0.46999998093E+01 0.  1.
       -5    1    3    3    0  502  0.96595079774E+03 -0.52346311231E+02 -0.13035172979E+04  0.16232623065E+04  0.46999998093E+01 0. -1.
</event>
<event>
 5   0  0.1071208E-05  0.2198149E+04  0.7818609E-02  0.8519199E-01
       -1   -1    0    0    0  501  0.00000000000E+00  0.00000000000E+00  0.10501579268E+04  0.10501579268E+04  0.50400001928E-02 0. -1.
        1   -1    0    0  501    0  0.00000000000E+00  0.00000000000E+00 -0.11502698904E+04  0.11502698904E+04  0.50400001928E-02 0.  1.
    10030    2    1    2    0    0  0.00000000000E+00  0.00000000000E+00 -0.10011196356E+03  0.22004278172E+04  0.21981492610E+04 0.  0.
        4    1    3    3  502    0 -0.85725427289E+03  0.68779213734E+03 -0.45521615423E+02  0.11000076104E+04  0.12699999809E+01 0.  1.
       -4    1    3    3    0  502  0.85725427289E+03 -0.68779213734E+03 -0.54590348139E+02  0.11004202068E+04  0.12699999809E+01 0. -1.
</event>
<event>
 5   0  0.1005538E-05  0.2190676E+04  0.7818609E-02  0.8522319E-01
        1   -1    0    0  501    0  0.00000000000E+00  0.00000000000E+00  0.28654133056E+04  0.28654133056E+04  0.50400001928E-02 0.  1.
       -1   -1    0    0    0  501  0.00000000000E+00  0.00000000000E+00 -0.41870576315E+03  0.41870576318E+03  0.50400001928E-02 0. -1.
    10030    2    1    2    0    0  0.00000000000E+00  0.00000000000E+00  0.24467075424E+04  0.32841190687E+04  0.21906757541E+04 0.  0.
        3    1    3    3  502    0  0.31088641951E+03 -0.35254839309E+03 -0.25982386496E+03  0.53707465618E+03  0.10100000352E+00 0. -1.
       -3    1    3    3    0  502 -0.31088641951E+03  0.35254839309E+03  0.27065314074E+04  0.27470444126E+04  0.10100000352E+00 0.  1.
</event>
<event>
 5   0  0.2229552E-05  0.2199968E+04  0.7818609E-02  0.8518441E-01
       -2   -1    0    0    0  501  0.00000000000E+00  0.00000000000E+00  0.11568386364E+04  0.11568386364E+04  0.25500000920E-02 0.  1.
        2   -1    0    0  501    0  0.00000000000E+00  0.00000000000E+00 -0.10459236537E+04  0.10459236537E+04  0.25500000920E-02 0. -1.
    10030    2    1    2    0    0  0.00000000000E+00  0.00000000000E+00  0.11091498270E+03  0.22027622900E+04  0.21999680845E+04 0.  0.
        1    1    3    3  502    0 -0.20452274557E+03 -0.98765679698E+03 -0.38404122914E+03  0.10792512070E+04  0.50400001928E-02 0. -1.
       -1    1    3    3    0  502  0.20452274557E+03  0.98765679698E+03  0.49495621184E+03  0.11235110830E+04  0.50400001928E-02 0.  1.
</event>
<event>
 5   0  0.2298329E-05  0.2228147E+04  0.7818609E-02  0.8506803E-01
        2   -1    0    0  501    0  0.00000000000E+00  0.00000000000E+00  0.22068052772E+04  0.22068052772E+04  0.25500000920E-02 0. -1.
       -2   -1    0    0    0  501  0.00000000000E+00  0.00000000000E+00 -0.56242391854E+03  0.56242391854E+03  0.25500000920E-02 0.  1.
    10030    2    1    2    0    0  0.00000000000E+00  0.00000000000E+00  0.16443813587E+04  0.27692291958E+04  0.22281472765E+04 0.  0.
        4    1    3    3  502    0 -0.37207629028E+03  0.10469123279E+04  0.72051858915E+03  0.13242412311E+04  0.12699999809E+01 0. -1.
       -4    1    3    3    0  502  0.37207629028E+03 -0.10469123279E+04  0.92386276954E+03  0.14449879646E+04  0.12699999809E+01 0.  1.
</event>
<event>
 5   0  0.2319707E-05  0.2197774E+04  0.7818609E-02  0.8519355E-01
       -2   -1    0    0    0  501  0.00000000000E+00  0.00000000000E+00  0.14627841195E+04  0.14627841195E+04  0.25500000920E-02 0. -1.
        2   -1    0    0  501    0  0.00000000000E+00  0.00000000000E+00 -0.82551647537E+03  0.82551647537E+03  0.25500000920E-02 0.  1.
    10030    2    1    2    0    0  0.00000000000E+00  0.00000000000E+00  0.63726764418E+03  0.22883005949E+04  0.21977737742E+04 0.  0.
        3    1    3    3  502    0  0.10524715386E+04  0.63872779766E+02 -0.35911052249E+01  0.10544140448E+04  0.10100000352E+00 0. -1.
       -3    1    3    3    0  502 -0.10524715386E+04 -0.63872779766E+02  0.64085874941E+03  0.12338865501E+04  0.10100000352E+00 0.  1.
</event>
<event>
 5   0  0.1071208E-05  0.2202858E+04  0.7818609E-02  0.8517240E-01
       -1   -1    0    0    0  501  0.00000000000E+00  0.00000000000E+00  0.85195638947E+03  0.85195638948E+03  0.50400001928E-02 0.  1.
        1   -1    0    0  501    0  0.00000000000E+00  0.00000000000E+00 -0.14239526594E+04  0.14239526595E+04  0.50400001928E-02 0. -1.
    10030    2    1    2    0    0  0.00000000000E+00  0.00000000000E+00 -0.57199626998E+03  0.22759090489E+04  0.22028577499E+04 0.  0.
        4    1    3    3  502    0 -0.52580622471E+03  0.36292243207E+03  0.64094981844E+03  0.90498793379E+03  0.12699999809E+01 0.  1.
       -4    1    3    3    0  502  0.52580622471E+03 -0.36292243207E+03 -0.12129460884E+04  0.13709211151E+04  0.12699999809E+01 0. -1.
</event>
<event>
 5   0  0.1007682E-05  0.2198752E+04  0.7818609E-02  0.8518948E-01
       -1   -1    0    0    0  501  0.00000000000E+00  0.00000000000E+00  0.53052265084E+03  0.53052265086E+03  0.50400001928E-02 0.  1.
        1   -1    0    0  501    0  0.00000000000E+00  0.00000000000E+00 -0.22781820642E+04  0.22781820642E+04  0.50400001928E-02 0. -1.
    10030    2    1    2    0    0  0.00000000000E+00  0.00000000000E+00 -0.17476594134E+04  0.28087047151E+04  0.21987516348E+04 0.  0.
        2    1    3    3  502    0  0.15193116966E+03 -0.10795423526E+04 -0.10550796424E+04  0.15171314456E+04  0.25500000920E-02 0. -1.
       -2    1    3    3    0  502 -0.15193116966E+03  0.10795423526E+04 -0.69257977096E+03  0.12915732695E+04  0.25500000920E-02 0.  1.
</event>
<event>
 5   0  0.2289708E-05  0.2196064E+04  0.7818609E-02  0.8520068E-01
       -2   -1    0    0    0  501  0.00000000000E+00  0.00000000000E+00  0.88893226369E+03  0.88893226370E+03  0.25500000920E-02 0. -1.
        2   -1    0    0  501    0  0.00000000000E+00  0.00000000000E+00 -0.13563173138E+04  0.13563173138E+04  0.25500000920E-02 0.  1.
    10030    2    1    2    0    0  0.00000000000E+00  0.00000000000E+00 -0.46738505013E+03  0.22452495775E+04  0.21960639518E+04 0.  0.
        5    1    3    3  502    0 -0.32775906543E+03 -0.34231176968E+03  0.77897047119E+03  0.91182259109E+03  0.46999998093E+01 0. -1.
       -5    1    3    3    0  502  0.32775906543E+03  0.34231176968E+03 -0.12463555213E+04  0.13334269864E+04  0.46999998093E+01 0.  1.
</event>
<event>
 5   0  0.1049198E-05  0.2197866E+04  0.7818609E-02  0.8519317E-01
        1   -1    0    0  501    0  0.00000000000E+00  0.00000000000E+00  0.98004052192E+03  0.98004052193E+03  0.50400001928E-02 0.  1.
       -1   -1    0    0    0  501  0.00000000000E+00  0.00000000000E+00 -0.12322492112E+04  0.12322492112E+04  0.50400001928E-02 0. -1.
    10030    2    1    2    0    0  0.00000000000E+00  0.00000000000E+00 -0.25220868924E+03  0.22122897331E+04  0.21978663836E+04 0.  0.
        1    1    3    3  502    0  0.85028395797E+03  0.65111310018E+03  0.12193331165E+03  0.10778677150E+04  0.50400001928E-02 0. -1.
       -1    1    3    3    0  502 -0.85028395797E+03 -0.65111310018E+03 -0.37414200089E+03  0.11344220182E+04  0.50400001928E-02 0.  1.
</event>
<event>
 5   0  0.2319707E-05  0.2191899E+04  0.7818609E-02  0.8521808E-01
       -2   -1    0    0    0  501  0.00000000000E+00  0.00000000000E+00  0.42562765949E+03  0.42562765950E+03  0.25500000920E-02 0.  1.
        2   -1    0    0  501    0  0.00000000000E+00  0.00000000000E+00 -0.28219621002E+04  0.28219621002E+04  0.25500000920E-02 0. -1.
    10030    2    1    2    0    0  0.00000000000E+00  0.00000000000E+00 -0.23963344407E+04  0.32475897597E+04  0.21918988333E+04 0.  0.
        3    1    3    3  502    0 -0.47518127943E+03 -0.88625839562E+03 -0.18437477799E+04  0.21001564414E+04  0.10100000352E+00 0. -1.
       -3    1    3    3    0  502  0.47518127943E+03  0.88625839562E+03 -0.55258666083E+03  0.11474333183E+04  0.10100000352E+00 0.  1.
</event>
<event>
 5   0  0.1007682E-05  0.2194854E+04  0.7818609E-02  0.8520573E-01
        1   -1    0    0  501    0  0.00000000000E+00  0.00000000000E+00  0.26258352929E+04  0.26258352929E+04  0.50400001928E-02 0.  1.
       -1   -1    0    0    0  501  0.00000000000E+00  0.00000000000E+00 -0.45865251341E+03  0.45865251344E+03  0.50400001928E-02 0. -1.
    10030    2    1    2    0    0  0.00000000000E+00  0.00000000000E+00  0.21671827795E+04  0.30844878064E+04  0.21948539422E+04 0.  0.
        2    1    3    3  502    0  0.10405087761E+04  0.34426911512E+03  0.10045147892E+04  0.14866841287E+04  0.25500000920E-02 0. -1.
       -2    1    3    3    0  502 -0.10405087761E+04 -0.34426911512E+03  0.11626679903E+04  0.15978036777E+04  0.25500000920E-02 0.  1.
</event>
<event>
 5   0  0.1071208E-05  0.2211507E+04  0.7818609E-02  0.8513654E-01
       -1   -1    0    0    0  501  0.00000000000E+00  0.00000000000E+00  0.66505378606E+03  0.66505378608E+03  0.50400001928E-02 0. -1.
        1   -1    0    0  501    0  0.00000000000E+00  0.00000000000E+00 -0.18384834667E+04  0.18384834667E+04  0.50400001928E-02 0.  1.
    10030    2    1    2    0    0  0.00000000000E+00  0.00000000000E+00 -0.11734296807E+04  0.25035372528E+04  0.22115066269E+04 0.  0.
        4    1    3    3  502    0 -0.23031017581E+03 -0.30733759217E+03 -0.17605533183E+04  0.18019569285E+04  0.12699999809E+01 0.  1.
       -4    1    3    3    0  502  0.23031017581E+03  0.30733759217E+03  0.58712363767E+03  0.70158032430E+03  0.12699999809E+01 0. -1.
</event>
<event>
 5   0  0.8003875E-06  0.2226810E+04  0.7818609E-02  0.8507351E-01
        3   -1    0    0  501    0  0.00000000000E+00  0.00000000000E+00  0.96213979050E+03  0.96213979581E+03  0.10100000352E+00 0. -1.
       -3   -1    0    0    0  501  0.00000000000E+00  0.00000000000E+00 -0.12884516618E+04  0.12884516658E+04  0.10100000352E+00 0.  1.
    10030    2    1    2    0    0  0.00000000000E+00  0.00000000000E+00 -0.32631187133E+03  0.22505914616E+04  0.22268099357E+04 0.  0.
        4    1    3    3  502    0 -0.71768199285E+03  0.72091743812E+03 -0.62062622115E+03  0.11916240660E+04  0.12699999809E+01 0.  1.
       -4    1    3    3    0  502  0.71768199285E+03 -0.72091743812E+03  0.29431434983E+03  0.10589673956E+04  0.12699999809E+01 0. -1.
</event>
<event>
 5   0  0.2298329E-05  0.2204810E+04  0.7818609E-02  0.8516429E-01
        2   -1    0    0  501    0  0.00000000000E+00  0.00000000000E+00  0.17305738500E+04  0.17305738500E+04  0.25500000920E-02 0. -1.
       -2   -1    0    0    0  501  0.00000000000E+00  0.00000000000E+00 -0.70225052476E+03  0.70225052476E+03  0.25500000920E-02 0.  1.
    10030    2    1    2    0    0  0.00000000000E+00  0.00000000000E+00  0.10283233252E+04  0.24328243747E+04  0.22048096464E+04 0.  0.
        4    1    3    3  502    0 -0.34744812430E+03  0.85064683853E+03  0.11862273294E+04  0.15004856324E+04  0.12699999809E+01 0.  1.
       -4    1    3    3    0  502  0.34744812430E+03 -0.85064683853E+03 -0.15790400426E+03  0.93233874232E+03  0.12699999809E+01 0. -1.
</event>
<event>
 5   0  0.1033733E-05  0.2199109E+04  0.7818609E-02  0.8518799E-01
       -1   -1    0    0    0  501  0.00000000000E+00  0.00000000000E+00  0.10195925917E+04  0.10195925917E+04  0.50400001928E-02 0.  1.
        1   -1    0    0  501    0  0.00000000000E+00  0.00000000000E+00 -0.11857876374E+04  0.11857876374E+04  0.50400001928E-02 0. -1.
    10030    2    1    2    0    0  0.00000000000E+00  0.00000000000E+00 -0.16619504571E+03  0.22053802291E+04  0.21991091746E+04 0.  0.
        5    1    3    3  502    0  0.69937347729E+03  0.75926932919E+03 -0.46283948084E+03  0.11313070538E+04  0.46999998093E+01 0. -1.
       -5    1    3    3    0  502 -0.69937347729E+03 -0.75926932919E+03  0.29664443513E+03  0.10740731753E+04  0.46999998093E+01 0.  1.
</event>
<event>
 5   0  0.2284329E-05  0.2205978E+04  0.7818609E-02  0.8515944E-01
       -2   -1    0    0    0  501  0.00000000000E+00  0.00000000000E+00  0.12774821657E+04  0.12774821657E+04  0.25500000920E-02 0. -1.
        2   -1    0    0  501    0  0.00000000000E+00  0.00000000000E+00 -0.95232988054E+03  0.95232988054E+03  0.25500000920E-02 0.  1.
    10030    2    1    2    0    0  0.00000000000E+00  0.00000000000E+00  0.32515228518E+03  0.22298120463E+04  0.22059777318E+04 0.  0.
        2    1    3    3  502    0  0.65824199103E+03  0.31600383819E+03  0.99821464088E+03  0.12367592384E+04  0.25500000920E-02 0. -1.
       -2    1    3    3    0  502 -0.65824199103E+03 -0.31600383819E+03 -0.67306235570E+03  0.99305280785E+03  0.25500000920E-02 0.  1.
</event>
<event>
 5   0  0.1071208E-05  0.2197759E+04  0.7818609E-02  0.8519362E-01
        1   -1    0    0  501    0  0.00000000000E+00  0.00000000000E+00  0.12656267010E+04  0.12656267010E+04  0.50400001928E-02 0.  1.
       -1   -1    0    0    0  501  0.00000000000E+00  0.00000000000E+00 -0.95410093787E+03  0.95410093789E+03  0.50400001928E-02 0. -1.
    10030    2    1    2    0    0  0.00000000000E+00  0.00000000000E+00  0.31152576315E+03  0.22197276389E+04  0.21977585149E+04 0.  0.
        4    1    3    3  502    0  0.56905079517E+03  0.80664136587E+03 -0.33180998404E+03  0.10414358257E+04  0.12699999809E+01 0. -1.
       -4    1    3    3    0  502 -0.56905079517E+03 -0.80664136587E+03  0.64333574719E+03  0.11782918132E+04  0.12699999809E+01 0.  1.
</event>
<event>
 5   0  0.1049198E-05  0.2193838E+04  0.7818609E-02  0.8520997E-01
       -1   -1    0    0    0  501  0.00000000000E+00  0.00000000000E+00  0.10780408866E+04  0.10780408866E+04  0.50400001928E-02 0.  1.
        1   -1    0    0  501    0  0.00000000000E+00  0.00000000000E+00 -0.11161273918E+04  0.11161273918E+04  0.50400001928E-02 0. -1.
    10030    2    1    2    0    0  0.00000000000E+00  0.00000000000E+00 -0.38086505201E+02  0.21941682784E+04  0.21938376996E+04 0.  0.
        1    1    3    3  502    0  0.88546894360E+03  0.61157270478E+03 -0.23157124822E+03  0.11007732130E+04  0.50400001928E-02 0. -1.
       -1    1    3    3    0  502 -0.88546894360E+03 -0.61157270478E+03  0.19348474302E+03  0.10933950654E+04  0.50400001928E-02 0.  1.
</event>
<event>
 5   0  0.2284329E-05  0.2180440E+04  0.7818609E-02  0.8526614E-01
        2   -1    0    0  501    0  0.00000000000E+00  0.00000000000E+00  0.57028519421E+03  0.57028519422E+03  0.25500000920E-02 0.  1.
       -2   -1    0    0    0  501  0.00000000000E+00  0.00000000000E+00 -0.20841845818E+04  0.20841845818E+04  0.25500000920E-02 0. -1.
    10030    2    1    2    0    0  0.00000000000E+00  0.00000000000E+00 -0.15138993876E+04  0.26544697760E+04  0.21804399639E+04 0.  0.
        2    1    3    3  502    0 -0.71494241946E+03  0.37542628910E+03 -0.16486425674E+04  0.18357859016E+04  0.25500000920E-02 0. -1.
       -2    1    3    3    0  502  0.71494241946E+03 -0.37542628910E+03  0.13474317977E+03  0.81868387439E+03  0.25500000920E-02 0.  1.
</event>
<event>
 5   0  0.2229552E-05  0.2205009E+04  0.7818609E-02  0.8516346E-01
       -2   -1    0    0    0  501  0.00000000000E+00  0.00000000000E+00  0.83847731567E+03  0.83847731568E+03  0.25500000920E-02 0. -1.
        2   -1    0    0  501    0  0.00000000000E+00  0.00000000000E+00 -0.14496713038E+04  0.14496713038E+04  0.25500000920E-02 0.  1.
    10030    2    1    2    0    0  0.00000000000E+00  0.00000000000E+00 -0.61119398814E+03  0.22881486195E+04  0.22050093001E+04 0.  0.
        1    1    3    3  502    0 -0.39321435822E+03 -0.92910807264E+03  0.15575253389E+03  0.10208419045E+04  0.50400001928E-02 0.  1.
       -1    1    3    3    0  502  0.39321435822E+03  0.92910807264E+03 -0.76694652203E+03  0.12673067150E+04  0.50400001928E-02 0. -1.
</event>
<event>
 5   0  0.1007682E-05  0.2195437E+04  0.7818609E-02  0.8520330E-01
       -1   -1    0    0    0  501  0.00000000000E+00  0.00000000000E+00  0.63963966802E+03  0.63963966804E+03  0.50400001928E-02 0.  1.
        1   -1    0    0  501    0  0.00000000000E+00  0.00000000000E+00 -0.18838512551E+04  0.18838512551E+04  0.50400001928E-02 0. -1.
    10030    2    1    2    0    0  0.00000000000E+00  0.00000000000E+00 -0.12442115871E+04  0.25234909232E+04  0.21954370785E+04 0.  0.
        2    1    3    3  502    0  0.97027962879E+03  0.36735269142E+03 -0.20991951936E+03  0.10585163024E+04  0.25500000920E-02 0.  1.
       -2    1    3    3    0  502 -0.97027962879E+03 -0.36735269142E+03 -0.10342920677E+04  0.14649746207E+04  0.25500000920E-02 0. -1.
</event>
<event>
 5   0  0.1049198E-05  0.2206706E+04  0.7818609E-02  0.8515642E-01
       -1   -1    0    0    0  501  0.00000000000E+00  0.00000000000E+00  0.25988044417E+04  0.25988044417E+04  0.50400001928E-02 0.  1.
        1   -1    0    0  501    0  0.00000000000E+00  0.00000000000E+00 -0.46844160326E+03  0.46844160329E+03  0.50400001928E-02 0. -1.
    10030    2    1    2    0    0  0.00000000000E+00  0.00000000000E+00  0.21303628385E+04  0.30672460450E+04  0.22067062508E+04 0.  0.
        1    1    3    3  502    0  0.19432076160E+03 -0.29776454575E+03  0.25169896935E+04  0.25419798190E+04  0.50400001928E-02 0.  1.
       -1    1    3    3    0  502 -0.19432076160E+03  0.29776454575E+03 -0.38662685505E+03  0.52526622599E+03  0.50400001928E-02 0. -1.
</event>
<event>
 5   0  0.1071208E-05  0.2199658E+04  0.7818609E-02  0.8518570E-01
       -1   -1    0    0    0  501  0.00000000000E+00  0.00000000000E+00  0.76019668264E+03  0.76019668266E+03  0.50400001928E-02 0. -1.
        1   -1    0    0  501    0  0.00000000000E+00  0.00000000000E+00 -0.15911987488E+04  0.15911987488E+04  0.50400001928E-02 0.  1.
    10030    2    1    2    0    0  0.00000000000E+00  0.00000000000E+00 -0.83100206619E+03  0.23513954315E+04  0.21996581646E+04 0.  0.
        4    1    3    3  502    0 -0.96482722393E+03 -0.19672713166E+03 -0.93922514514E+03  0.13607860311E+04  0.12699999809E+01 0.  1.
       -4    1    3    3    0  502  0.96482722393E+03  0.19672713166E+03  0.10822307895E+03  0.99060940037E+03  0.12699999809E+01 0. -1.
</event>
<event>
 5   0  0.2298329E-05  0.2205266E+04  0.7818609E-02  0.8516239E-01
        2   -1    0    0  501    0  0.00000000000E+00  0.00000000000E+00  0.15591246814E+04  0.15591246814E+04  0.25500000920E-02 0. -1.
       -2   -1    0    0    0  501  0.00000000000E+00  0.00000000000E+00 -0.77979651569E+03  0.77979651569E+03  0.25500000920E-02 0.  1.
    10030    2    1    2    0    0  0.00000000000E+00  0.00000000000E+00  0.77932816573E+03  0.23389211971E+04  0.22052664185E+04 0.  0.
        4    1    3    3  502    0  0.20151070281E+03  0.58058989162E+03  0.13606307261E+04  0.14929865275E+04  0.12699999809E+01 0. -1.
       -4    1    3    3    0  502 -0.20151070281E+03 -0.58058989162E+03 -0.58130256039E+03  0.84593466959E+03  0.12699999809E+01 0.  1.
</event>
<event>
 5   0  0.1005538E-05  0.2214888E+04  0.7818609E-02  0.8512257E-01
       -1   -1    0    0    0  501  0.00000000000E+00  0.00000000000E+00  0.90867801067E+03  0.90867801068E+03  0.50400001928E-02 0.  1.
        1   -1    0    0  501    0  0.00000000000E+00  0.00000000000E+00 -0.13496885125E+04  0.13496885125E+04  0.50400001928E-02 0. -1.
    10030    2    1    2    0    0  0.00000000000E+00  0.00000000000E+00 -0.44101050187E+03  0.22583665232E+04  0.22148880537E+04 0.  0.
        3    1    3    3  502    0 -0.58587407009E+03 -0.44132429949E+03 -0.10665013198E+04  0.12943881330E+04  0.10100000352E+00 0. -1.
       -3    1    3    3    0  502  0.58587407009E+03  0.44132429949E+03  0.62549081797E+03  0.96397839026E+03  0.10100000352E+00 0.  1.
</event>
<event>
 5   0  0.1049198E-05  0.2196188E+04  0.7818609E-02  0.8520016E-01
       -1   -1    0    0    0  501  0.00000000000E+00  0.00000000000E+00  0.52605940862E+03  0.52605940864E+03  0.50400001928E-02 0.  1.
        1   -1    0    0  501    0  0.00000000000E+00  0.00000000000E+00 -0.22921566605E+04  0.22921566605E+04  0.50400001928E-02 0. -1.
    10030    2    1    2    0    0  0.00000000000E+00  0.00000000000E+00 -0.17660972518E+04  0.28182160691E+04  0.21961881316E+04 0.  0.
        1    1    3    3  502    0  0.12377053324E+03  0.27897113449E+03 -0.22366390098E+04  0.22573653003E+04  0.50400001928E-02 0. -1.
       -1    1    3    3    0  502 -0.12377053324E+03 -0.27897113449E+03  0.47054175800E+03  0.56085076877E+03  0.50400001928E-02 0.  1.
</event>
<event>
 5   0  0.1049198E-05  0.2200916E+04  0.7818609E-02  0.8518047E-01
       -1   -1    0    0    0  501  0.00000000000E+00  0.00000000000E+00  0.98262834288E+03  0.98262834289E+03  0.50400001928E-02 0.  1.
        1   -1    0    0  501    0  0.00000000000E+00  0.00000000000E+00 -0.12324171035E+04  0.12324171035E+04  0.50400001928E-02 0. -1.
    10030    2    1    2    0    0  0.00000000000E+00  0.00000000000E+00 -0.24978876062E+03  0.22150454464E+04  0.22009161512E+04 0.  0.
        1    1    3    3  502    0  0.10442004181E+04  0.25456595831E+03 -0.36273680121E+03  0.11343440074E+04  0.50400001928E-02 0.  1.
       -1    1    3    3    0  502 -0.10442004181E+04 -0.25456595831E+03  0.11294804060E+03  0.10807014389E+04  0.50400001928E-02 0. -1.
</event>
<event>
 5   0  0.2298329E-05  0.2200857E+04  0.7818609E-02  0.8518071E-01
       -2   -1    0    0    0  501  0.00000000000E+00  0.00000000000E+00  0.10195819175E+04  0.10195819175E+04  0.25500000920E-02 0. -1.
        2   -1    0    0  501    0  0.00000000000E+00  0.00000000000E+00 -0.11876861270E+04  0.11876861270E+04  0.25500000920E-02 0.  1.
    10030    2    1    2    0    0  0.00000000000E+00  0.00000000000E+00 -0.16810420949E+03  0.22072680445E+04  0.22008573772E+04 0.  0.
        4    1    3    3  502    0  0.40727772010E+02  0.29822548694E+03 -0.11455984710E+04  0.11844807564E+04  0.12699999809E+01 0.  1.
       -4    1    3    3    0  502 -0.40727772010E+02 -0.29822548694E+03  0.97749426153E+03  0.10227872881E+04  0.12699999809E+01 0. -1.
</event>
<event>
 5   0  0.2319707E-05  0.2208543E+04  0.7818609E-02  0.8514881E-01
        2   -1    0    0  501    0  0.00000000000E+00  0.00000000000E+00  0.15442034134E+04  0.15442034134E+04  0.25500000920E-02 0.  1.
       -2   -1    0    0    0  501  0.00000000000E+00  0.00000000000E+00 -0.78967283521E+03  0.78967283521E+03  0.25500000920E-02 0. -1.
    10030    2    1    2    0    0  0.00000000000E+00  0.00000000000E+00  0.75453057815E+03  0.23338762486E+04  0.22085429473E+04 0.  0.
        3    1    3    3  502    0  0.10420900945E+03  0.62605388418E+02  0.15371103804E+04  0.15419102711E+04  0.10100000352E+00 0.  1.
       -3    1    3    3    0  502 -0.10420900945E+03 -0.62605388418E+02 -0.78257980229E+03  0.79196597746E+03  0.10100000352E+00 0. -1.
</event>
<event>
 5   0  0.2289708E-05  0.2200933E+04  0.7818609E-02  0.8518040E-01
        2   -1    0    0  501    0  0.00000000000E+00  0.00000000000E+00  0.15056744038E+04  0.15056744038E+04  0.25500000920E-02 0. -1.
       -2   -1    0    0    0  501  0.00000000000E+00  0.00000000000E+00 -0.80430828757E+03  0.80430828757E+03  0.25500000920E-02 0.  1.
    10030    2    1    2    0    0  0.00000000000E+00  0.00000000000E+00  0.70136611623E+03  0.23099826914E+04  0.22009328944E+04 0.  0.
        5    1    3    3  502    0 -0.84833223586E+03  0.64215558917E+03  0.55738053336E+02  0.10654389723E+04  0.46999998093E+01 0.  1.
       -5    1    3    3    0  502  0.84833223586E+03 -0.64215558917E+03  0.64562806289E+03  0.12445437191E+04  0.46999998093E+01 0. -1.
</event>
<event>
 5   0  0.2319707E-05  0.2123684E+04  0.7818609E-02  0.8550881E-01
        2   -1    0    0  501    0  0.00000000000E+00  0.00000000000E+00  0.13397215668E+04  0.13397215668E+04  0.25500000920E-02 0.  1.
       -2   -1    0    0    0  501  0.00000000000E+00  0.00000000000E+00 -0.84159923238E+03  0.84159923238E+03  0.25500000920E-02 0. -1.
    10030    2    1    2    0    0  0.00000000000E+00  0.00000000000E+00  0.49812233443E+03  0.21813207992E+04  0.21236841971E+04 0.  0.
        3    1    3    3  502    0 -0.65660794764E+03 -0.82691972928E+03  0.36425845248E+03  0.11169666360E+04  0.10100000352E+00 0. -1.
       -3    1    3    3    0  502  0.65660794764E+03  0.82691972928E+03  0.13386388195E+03  0.10643541632E+04  0.10100000352E+00 0.  1.
</event>
<event>
 5   0  0.1033733E-05  0.2195720E+04  0.7818609E-02  0.8520212E-01
       -1   -1    0    0    0  501  0.00000000000E+00  0.00000000000E+00  0.17756663758E+04  0.17756663758E+04  0.50400001928E-02 0. -1.
        1   -1    0    0  501    0  0.00000000000E+00  0.00000000000E+00 -0.67878556664E+03  0.67878556665E+03  0.50400001928E-02 0.  1.
    10030    2    1    2    0    0  0.00000000000E+00  0.00000000000E+00  0.10968808091E+04  0.24544519424E+04  0.21957201161E+04 0.  0.
        5    1    3    3  502    0  0.32755375302E+03  0.90218297863E+03 -0.47323527179E+02  0.96098241101E+03  0.46999998093E+01 0.  1.
       -5    1    3    3    0  502 -0.32755375302E+03 -0.90218297863E+03  0.11442043363E+04  0.14934695314E+04  0.46999998093E+01 0. -1.
</event>
<event>
 5   0  0.2289708E-05  0.2200613E+04  0.7818609E-02  0.8518173E-01
        2   -1    0    0  501    0  0.00000000000E+00  0.00000000000E+00  0.13980863870E+04  0.13980863870E+04  0.25500000920E-02 0. -1.
       -2   -1    0    0    0  501  0.00000000000E+00  0.00000000000E+00 -0.86595075375E+03  0.86595075375E+03  0.25500000920E-02 0.  1.
    10030    2    1    2    0    0  0.00000000000E+00  0.00000000000E+00  0.53213563326E+03  0.22640371408E+04  0.22006126062E+04 0.  0.
        5    1    3    3  502    0  0.30033127743E+03 -0.29282652860E+03  0.13125897967E+04  0.13779914065E+04  0.46999998093E+01 0. -1.
       -5    1    3    3    0  502 -0.30033127743E+03  0.29282652860E+03 -0.78045416340E+03  0.88604573427E+03  0.46999998093E+01 0.  1.
</event>
<event>
 5   0  0.2284329E-05  0.2197721E+04  0.7818609E-02  0.8519377E-01
        2   -1    0    0  501    0  0.00000000000E+00  0.00000000000E+00  0.19178090829E+04  0.19178090829E+04  0.25500000920E-02 0. -1.
       -2   -1    0    0    0  501  0.00000000000E+00  0.00000000000E+00 -0.62962160568E+03  0.62962160569E+03  0.25500000920E-02 0.  1.
    10030    2    1    2    0    0  0.00000000000E+00  0.00000000000E+00  0.12881874772E+04  0.25474306886E+04  0.21977206685E+04 0.  0.
        2    1    3    3  502    0  0.58440185973E+03  0.82251298696E+03  0.13958726545E+03  0.10185959710E+04  0.25500000920E-02 0.  1.
       -2    1    3    3    0  502 -0.58440185973E+03 -0.82251298696E+03  0.11486002118E+04  0.15288347176E+04  0.25500000920E-02 0. -1.
</event>
<event>
 5   0  0.2289708E-05  0.2204831E+04  0.7818609E-02  0.8516420E-01
       -2   -1    0    0    0  501  0.00000000000E+00  0.00000000000E+00  0.16536717666E+04  0.16536717666E+04  0.25500000920E-02 0. -1.
        2   -1    0    0  501    0  0.00000000000E+00  0.00000000000E+00 -0.73492242352E+03  0.73492242352E+03  0.25500000920E-02 0.  1.
    10030    2    1    2    0    0  0.00000000000E+00  0.00000000000E+00  0.91874934303E+03  0.23885941901E+04  0.22048314787E+04 0.  0.
        5    1    3    3  502    0  0.51768249275E+03 -0.35885584133E+03  0.14395034233E+04  0.15712940125E+04  0.46999998093E+01 0. -1.
       -5    1    3    3    0  502 -0.51768249275E+03  0.35885584133E+03 -0.52075408024E+03  0.81730017756E+03  0.46999998093E+01 0.  1.
</event>
<event>
 5   0  0.1049198E-05  0.2201580E+04  0.7818609E-02  0.8517771E-01
        1   -1    0    0  501    0  0.00000000000E+00  0.00000000000E+00  0.15976526267E+04  0.15976526267E+04  0.50400001928E-02 0.  1.
       -1   -1    0    0    0  501  0.00000000000E+00  0.00000000000E+00 -0.75844918450E+03  0.75844918451E+03  0.50400001928E-02 0. -1.
    10030    2    1    2    0    0  0.00000000000E+00  0.00000000000E+00  0.83920344216E+03  0.23561018112E+04  0.22015797345E+04 0.  0.
        1    1    3    3  502    0 -0.61325575513E+03  0.89707755204E+03  0.60774647302E+03  0.12450648702E+04  0.50400001928E-02 0. -1.
       -1    1    3    3    0  502  0.61325575513E+03 -0.89707755204E+03  0.23145696914E+03  0.11110369410E+04  0.50400001928E-02 0.  1.
</event>
<event>
 5   0  0.2284329E-05  0.2197456E+04  0.7818609E-02  0.8519488E-01
        2   -1    0    0  501    0  0.00000000000E+00  0.00000000000E+00  0.98078576151E+03  0.98078576151E+03  0.25500000920E-02 0.  1.
       -2   -1    0    0    0  501  0.00000000000E+00  0.00000000000E+00 -0.12308529555E+04  0.12308529555E+04  0.25500000920E-02 0. -1.
    10030    2    1    2    0    0  0.00000000000E+00  0.00000000000E+00 -0.25006719398E+03  0.22116387170E+04  0.21974558501E+04 0.  0.
        2    1    3    3  502    0  0.50186253661E+03  0.76647929241E+03 -0.73545164345E+03  0.11748385554E+04  0.25500000920E-02 0. -1.
       -2    1    3    3    0  502 -0.50186253661E+03 -0.76647929241E+03  0.48538444947E+03  0.10368001616E+04  0.25500000920E-02 0.  1.
</event>
<event>
 5   0  0.1033733E-05  0.2203526E+04  0.7818609E-02  0.8516962E-01
        1   -1    0    0  501    0  0.00000000000E+00  0.00000000000E+00  0.11119353135E+04  0.11119353135E+04  0.50400001928E-02 0.  1.
       -1   -1    0    0    0  501  0.00000000000E+00  0.00000000000E+00 -0.10916842123E+04  0.10916842123E+04  0.50400001928E-02 0. -1.
    10030    2    1    2    0    0  0.00000000000E+00  0.00000000000E+00  0.20251101225E+02  0.22036195259E+04  0.22035264708E+04 0.  0.
        5    1    3    3  502    0 -0.82438085358E+03  0.68934795364E+03  0.25314968922E+03  0.11040431369E+04  0.46999998093E+01 0.  1.
       -5    1    3    3    0  502  0.82438085358E+03 -0.68934795364E+03 -0.23289858799E+03  0.10995763890E+04  0.46999998093E+01 0. -1.
</event>
<event>
 5   0  0.1005538E-05  0.2192524E+04  0.7818609E-02  0.8521546E-01
        1   -1    0    0  501    0  0.00000000000E+00  0.00000000000E+00  0.90071912805E+03  0.90071912806E+03  0.50400001928E-02 0.  1.
       -1   -1    0    0    0  501  0.00000000000E+00  0.00000000000E+00 -0.13342569207E+04  0.13342569207E+04  0.50400001928E-02 0. -1.
    10030    2    1    2    0    0  0.00000000000E+00  0.00000000000E+00 -0.43353779263E+03  0.22349760487E+04  0.21925243262E+04 0.  0.
        3    1    3    3  502    0 -0.47249405178E+03 -0.64932155055E+03 -0.97749004419E+03  0.12650517387E+04  0.10100000352E+00 0. -1.
       -3    1    3    3    0  502  0.47249405178E+03  0.64932155055E+03  0.54395225156E+03  0.96992431002E+03  0.10100000352E+00 0.  1.
</event>
<event>
 5   0  0.2298329E-05  0.2192206E+04  0.7818609E-02  0.8521679E-01
        2   -1    0    0  501    0  0.00000000000E+00  0.00000000000E+00  0.14731991403E+04  0.14731991403E+04  0.25500000920E-02 0.  1.
       -2   -1    0    0    0  501  0.00000000000E+00  0.00000000000E+00 -0.81553259067E+03  0.81553259067E+03  0.25500000920E-02 0. -1.
    10030    2    1    2    0    0  0.00000000000E+00  0.00000000000E+00  0.65766654966E+03  0.22887317310E+04  0.21922061139E+04 0.  0.
        4    1    3    3  502    0  0.44632093784E+03 -0.79481659490E+03 -0.30665896166E+03  0.96175731385E+03  0.12699999809E+01 0. -1.
       -4    1    3    3    0  502 -0.44632093784E+03  0.79481659490E+03  0.96432551132E+03  0.13269744171E+04  0.12699999809E+01 0.  1.
</event>
<event>
 5   0  0.1033733E-05  0.2197244E+04  0.7818609E-02  0.8519576E-01
       -1   -1    0    0    0  501  0.00000000000E+00  0.00000000000E+00  0.12629079826E+04  0.12629079827E+04  0.50400001928E-02 0.  1.
        1   -1    0    0  501    0  0.00000000000E+00  0.00000000000E+00 -0.95570718656E+03  0.95570718658E+03  0.50400001928E-02 0. -1.
    10030    2    1    2    0    0  0.00000000000E+00  0.00000000000E+00  0.30720079608E+03  0.22186151692E+04  0.21972439419E+04 0.  0.
        5    1    3    3  502    0  0.20977619859E+02  0.79413692094E+03  0.91983213415E+03  0.12154039472E+04  0.46999998093E+01 0.  1.
       -5    1    3    3    0  502 -0.20977619859E+02 -0.79413692094E+03 -0.61263133807E+03  0.10032112221E+04  0.46999998093E+01 0. -1.
</event>
<event>
 5   0  0.1049198E-05  0.2199755E+04  0.7818609E-02  0.8518530E-01
        1   -1    0    0  501    0  0.00000000000E+00  0.00000000000E+00  0.82425614467E+03  0.82425614469E+03  0.50400001928E-02 0. -1.
       -1   -1    0    0    0  501  0.00000000000E+00  0.00000000000E+00 -0.14676627281E+04  0.14676627282E+04  0.50400001928E-02 0.  1.
    10030    2    1    2    0    0  0.00000000000E+00  0.00000000000E+00 -0.64340658347E+03  0.22919188728E+04  0.21997545518E+04 0.  0.
        1    1    3    3  502    0  0.85825157591E+03  0.17091799797E+03  0.37248614984E+03  0.95108078597E+03  0.50400001928E-02 0. -1.
       -1    1    3    3    0  502 -0.85825157591E+03 -0.17091799797E+03 -0.10158927333E+04  0.13408380869E+04  0.50400001928E-02 0.  1.
</event>
<event>
 5   0  0.1005538E-05  0.2205857E+04  0.7818609E-02  0.8515994E-01
       -1   -1    0    0    0  501  0.00000000000E+00  0.00000000000E+00  0.80638363349E+03  0.80638363350E+03  0.50400001928E-02 0. -1.
        1   -1    0    0  501    0  0.00000000000E+00  0.00000000000E+00 -0.15085264262E+04  0.15085264262E+04  0.50400001928E-02 0.  1.
    10030    2    1    2    0    0  0.00000000000E+00  0.00000000000E+00 -0.70214279269E+03  0.23149100597E+04  0.22058567685E+04 0.  0.
        3    1    3    3  502    0 -0.60299564089E+03  0.21269622439E+03  0.59202700180E+03  0.87140083077E+03  0.10100000352E+00 0. -1.
       -3    1    3    3    0  502  0.60299564089E+03 -0.21269622439E+03 -0.12941697945E+04  0.14435092289E+04  0.10100000352E+00 0.  1.
</event>
<event>
 5   0  0.2289708E-05  0.2196285E+04  0.7818609E-02  0.8519976E-01
        2   -1    0    0  501    0  0.00000000000E+00  0.00000000000E+00  0.76598526219E+03  0.76598526220E+03  0.25500000920E-02 0. -1.
       -2   -1    0    0    0  501  0.00000000000E+00  0.00000000000E+00 -0.15743345823E+04  0.15743345823E+04  0.25500000920E-02 0.  1.
    10030    2    1    2    0    0  0.00000000000E+00  0.00000000000E+00 -0.80834932008E+03  0.23403198445E+04  0.21962851252E+04 0.  0.
        5    1    3    3  502    0  0.27156450720E+03 -0.60202955945E+03 -0.13390410160E+04  0.14930638984E+04  0.46999998093E+01 0.  1.
       -5    1    3    3    0  502 -0.27156450720E+03  0.60202955945E+03  0.53069169597E+03  0.84725594609E+03  0.46999998093E+01 0. -1.
</event>
<event>
 5   0  0.1071208E-05  0.2209478E+04  0.7818609E-02  0.8514493E-01
       -1   -1    0    0    0  501  0.00000000000E+00  0.00000000000E+00  0.19509461460E+04  0.19509461460E+04  0.50400001928E-02 0. -1.
        1   -1    0    0  501    0  0.00000000000E+00  0.00000000000E+00 -0.62556748555E+03  0.62556748557E+03  0.50400001928E-02 0.  1.
    10030    2    1    2    0    0  0.00000000000E+00  0.00000000000E+00  0.13253786605E+04  0.25765136316E+04  0.22094781964E+04 0.  0.
        4    1    3    3  502    0 -0.86107743482E+03 -0.58259978712E+03  0.22703827952E+03  0.10641545254E+04  0.12699999809E+01 0.  1.
       -4    1    3    3    0  502  0.86107743482E+03  0.58259978712E+03  0.10983403810E+04  0.15123591062E+04  0.12699999809E+01 0. -1.
</event>
<event>
 5   0  0.8003875E-06  0.2200197E+04  0.7818609E-02  0.8518346E-01
        3   -1    0    0  501    0  0.00000000000E+00  0.00000000000E+00  0.13940145816E+04  0.13940145853E+04  0.10100000352E+00 0. -1.
       -3   -1    0    0    0  501  0.00000000000E+00  0.00000000000E+00 -0.86815224642E+03  0.86815225230E+03  0.10100000352E+00 0.  1.
    10030    2    1    2    0    0  0.00000000000E+00  0.00000000000E+00  0.52586233521E+03  0.22621668376E+04  0.22001971742E+04 0.  0.
        2    1    3    3  502    0  0.29813278894E+03  0.73313027974E+03  0.10485557427E+04  0.13137093714E+04  0.25500000920E-02 0. -1.
       -2    1    3    3    0  502 -0.29813278894E+03 -0.73313027974E+03 -0.52269340751E+03  0.94845746619E+03  0.25500000920E-02 0.  1.
</event>
<event>
 5   0  0.2289708E-05  0.2247183E+04  0.7818609E-02  0.8499042E-01
       -2   -1    0    0    0  501  0.00000000000E+00  0.00000000000E+00  0.65254454488E+03  0.65254454489E+03  0.25500000920E-02 0. -1.
        2   -1    0    0  501    0  0.00000000000E+00  0.00000000000E+00 -0.19346691843E+04  0.19346691843E+04  0.25500000920E-02 0.  1.
    10030    2    1    2    0    0  0.00000000000E+00  0.00000000000E+00 -0.12821246394E+04  0.25872137292E+04  0.22471829675E+04 0.  0.
        5    1    3    3  502    0 -0.51869953032E+03 -0.42781770490E+03  0.39534979207E+03  0.78000047402E+03  0.46999998093E+01 0. -1.
       -5    1    3    3    0  502  0.51869953032E+03  0.42781770490E+03 -0.16774744315E+04  0.18072132552E+04  0.46999998093E+01 0.  1.
</event>
<event>
 5   0  0.1033733E-05  0.2210418E+04  0.7818609E-02  0.8514104E-01
        1   -1    0    0  501    0  0.00000000000E+00  0.00000000000E+00  0.19328267780E+04  0.19328267780E+04  0.50400001928E-02 0.  1.
       -1   -1    0    0    0  501  0.00000000000E+00  0.00000000000E+00 -0.63196942189E+03  0.63196942191E+03  0.50400001928E-02 0. -1.
    10030    2    1    2    0    0  0.00000000000E+00  0.00000000000E+00  0.13008573561E+04  0.25647961999E+04  0.22104184414E+04 0.  0.
        5    1    3    3  502    0 -0.13532005124E+02 -0.10563565710E+04  0.10271188359E+04  0.14734542793E+04  0.46999998093E+01 0.  1.
       -5    1    3    3    0  502  0.13532005124E+02  0.10563565710E+04  0.27373852025E+03  0.10913419206E+04  0.46999998093E+01 0. -1.
</event>
<event>
 5   0  0.2298329E-05  0.2191748E+04  0.7818609E-02  0.8521871E-01
        2   -1    0    0  501    0  0.00000000000E+00  0.00000000000E+00  0.18739869615E+04  0.18739869615E+04  0.25500000920E-02 0. -1.
       -2   -1    0    0    0  501  0.00000000000E+00  0.00000000000E+00 -0.64084765061E+03  0.64084765062E+03  0.25500000920E-02 0.  1.
    10030    2    1    2    0    0  0.00000000000E+00  0.00000000000E+00  0.12331393109E+04  0.25148346121E+04  0.21917482899E+04 0.  0.
        4    1    3    3  502    0 -0.45105529246E+03  0.87160020100E+03  0.11761022038E+04  0.15317819016E+04  0.12699999809E+01 0. -1.
       -4    1    3    3    0  502  0.45105529246E+03 -0.87160020100E+03  0.57037107069E+02  0.98305271056E+03  0.12699999809E+01 0.  1.
</event>
<event>
 5   0  0.1071208E-05  0.2197660E+04  0.7818609E-02  0.8519403E-01
        1   -1    0    0  501    0  0.00000000000E+00  0.00000000000E+00  0.10737957169E+04  0.10737957169E+04  0.50400001928E-02 0. -1.
       -1   -1    0    0    0  501  0.00000000000E+00  0.00000000000E+00 -0.11244475569E+04  0.11244475569E+04  0.50400001928E-02 0.  1.
    10030    2    1    2    0    0  0.00000000000E+00  0.00000000000E+00 -0.50651840040E+02  0.21982432738E+04  0.21976596374E+04 0.  0.
        4    1    3    3  502    0  0.43326933109E+03 -0.94034393813E+03  0.34281573560E+03  0.10906389305E+04  0.12699999809E+01 0.  1.
       -4    1    3    3    0  502 -0.43326933109E+03  0.94034393813E+03 -0.39346757564E+03  0.11076043433E+04  0.12699999809E+01 0. -1.
</event>
<event>
 5   0  0.1007682E-05  0.2207308E+04  0.7818609E-02  0.8515393E-01
        1   -1    0    0  501    0  0.00000000000E+00  0.00000000000E+00  0.21928070420E+04  0.21928070420E+04  0.50400001928E-02 0.  1.
       -1   -1    0    0    0  501  0.00000000000E+00  0.00000000000E+00 -0.55547618244E+03  0.55547618246E+03  0.50400001928E-02 0. -1.
    10030    2    1    2    0    0  0.00000000000E+00  0.00000000000E+00  0.16373308596E+04  0.27482832245E+04  0.22073079392E+04 0.  0.
        2    1    3    3  502    0  0.81085722916E+03  0.51674687204E+03  0.14932380907E+04  0.17760283701E+04  0.25500000920E-02 0.  1.
       -2    1    3    3    0  502 -0.81085722916E+03 -0.51674687204E+03  0.14409276889E+03  0.97225485440E+03  0.25500000920E-02 0. -1.
</event>
<event>
 5   0  0.1005538E-05  0.2197784E+04  0.7818609E-02  0.8519351E-01
        1   -1    0    0  501    0  0.00000000000E+00  0.00000000000E+00  0.18956613076E+04  0.18956613076E+04  0.50400001928E-02 0. -1.
       -1   -1    0    0    0  501  0.00000000000E+00  0.00000000000E+00 -0.63701443005E+03  0.63701443007E+03  0.50400001928E-02 0.  1.
    10030    2    1    2    0    0  0.00000000000E+00  0.00000000000E+00  0.12586468775E+04  0.25326757377E+04  0.21977839816E+04 0.  0.
        3    1    3    3  502    0 -0.59515195854E+02 -0.74608641378E+03  0.15565227184E+04  0.17271218772E+04  0.10100000352E+00 0. -1.
       -3    1    3    3    0  502  0.59515195854E+02  0.74608641378E+03 -0.29787584091E+03  0.80555386050E+03  0.10100000352E+00 0.  1.
</event>
<event>
 5   0  0.2319707E-05  0.2202307E+04  0.7818609E-02  0.8517468E-01
       -2   -1    0    0    0  501  0.00000000000E+00  0.00000000000E+00  0.10172090993E+04  0.10172090993E+04  0.25500000920E-02 0.  1.
        2   -1    0    0  501    0  0.00000000000E+00  0.00000000000E+00 -0.11920254115E+04  0.11920254115E+04  0.25500000920E-02 0. -1.
    10030    2    1    2    0    0  0.00000000000E+00  0.00000000000E+00 -0.17481631219E+03  0.22092345108E+04  0.22023070587E+04 0.  0.
        3    1    3    3  502    0 -0.52602992349E+03  0.85379484427E+03  0.36884772281E+03  0.10685138134E+04  0.10100000352E+00 0.  1.
       -3    1    3    3    0  502  0.52602992349E+03 -0.85379484427E+03 -0.54366403500E+03  0.11407206975E+04  0.10100000352E+00 0. -1.
</event>
<event>
 5   0  0.1007682E-05  0.2202335E+04  0.7818609E-02  0.8517457E-01
       -1   -1    0    0    0  501  0.00000000000E+00  0.00000000000E+00  0.82425783577E+03  0.82425783578E+03  0.50400001928E-02 0.  1.
        1   -1    0    0  501    0  0.00000000000E+00  0.00000000000E+00 -0.14711054277E+04  0.14711054277E+04  0.50400001928E-02 0. -1.
    10030    2    1    2    0    0  0.00000000000E+00  0.00000000000E+00 -0.64684759196E+03  0.22953632635E+04  0.22023352843E+04 0.  0.
        2    1    3    3  502    0  0.68045606016E+03  0.50096591760E+03  0.41250647803E+03  0.94029192000E+03  0.25500000920E-02 0.  1.
       -2    1    3    3    0  502 -0.68045606016E+03 -0.50096591760E+03 -0.10593540700E+04  0.13550713435E+04  0.25500000920E-02 0. -1.
</event>
<event>
 5   0  0.1007682E-05  0.2219987E+04  0.7818609E-02  0.8510155E-01
        1   -1    0    0  501    0  0.00000000000E+00  0.00000000000E+00  0.11317706847E+04  0.11317706847E+04  0.50400001928E-02 0.  1.
       -1   -1    0    0    0  501  0.00000000000E+00  0.00000000000E+00 -0.10886353548E+04  0.10886353549E+04  0.50400001928E-02 0. -1.
    10030    2    1    2    0    0  0.00000000000E+00  0.00000000000E+00  0.43135329837E+02  0.22204060396E+04  0.22199870098E+04 0.  0.
        2    1    3    3  502    0 -0.66442516025E+02 -0.49600552088E+03 -0.96940161325E+03  0.10909516820E+04  0.25500000920E-02 0. -1.
       -2    1    3    3    0  502  0.66442516025E+02  0.49600552088E+03  0.10125369431E+04  0.11294543576E+04  0.25500000920E-02 0.  1.
</event>
<event>
 5   0  0.2289708E-05  0.2202314E+04  0.7818609E-02  0.8517466E-01
        2   -1    0    0  501    0  0.00000000000E+00  0.00000000000E+00  0.11116194557E+04  0.11116194557E+04  0.25500000920E-02 0. -1.
       -2   -1    0    0    0  501  0.00000000000E+00  0.00000000000E+00 -0.10907931120E+04  0.10907931120E+04  0.25500000920E-02 0.  1.
    10030    2    1    2    0    0  0.00000000000E+00  0.00000000000E+00  0.20826343716E+02  0.22024125677E+04  0.22023140970E+04 0.  0.
        5    1    3    3  502    0 -0.30056089320E+02 -0.11005855352E+04  0.28658622345E+02  0.11013788156E+04  0.46999998093E+01 0.  1.
       -5    1    3    3    0  502  0.30056089320E+02  0.11005855352E+04 -0.78322786287E+01  0.11010337521E+04  0.46999998093E+01 0. -1.
</event>
<event>
 5   0  0.2298329E-05  0.2196192E+04  0.7818609E-02  0.8520015E-01
        2   -1    0    0  501    0  0.00000000000E+00  0.00000000000E+00  0.15627075091E+04  0.15627075091E+04  0.25500000920E-02 0. -1.
       -2   -1    0    0    0  501  0.00000000000E+00  0.00000000000E+00 -0.77161873235E+03  0.77161873236E+03  0.25500000920E-02 0.  1.
    10030    2    1    2    0    0  0.00000000000E+00  0.00000000000E+00  0.79108877676E+03  0.23343262415E+04  0.21961916011E+04 0.  0.
        4    1    3    3  502    0  0.83686248885E+03  0.51817454255E+03  0.91295720065E+03  0.13425111340E+04  0.12699999809E+01 0. -1.
       -4    1    3    3    0  502 -0.83686248885E+03 -0.51817454255E+03 -0.12186842389E+03  0.99181510748E+03  0.12699999809E+01 0.  1.
</event>
<event>
 5   0  0.1007682E-05  0.2197035E+04  0.7818609E-02  0.8519663E-01
       -1   -1    0    0    0  501  0.00000000000E+00  0.00000000000E+00  0.11383107788E+04  0.11383107788E+04  0.50400001928E-02 0. -1.
        1   -1    0    0  501    0  0.00000000000E+00  0.00000000000E+00 -0.10601152383E+04  0.10601152384E+04  0.50400001928E-02 0.  1.
    10030    2    1    2    0    0  0.00000000000E+00  0.00000000000E+00  0.78195540497E+02  0.21984260172E+04  0.21970349134E+04 0.  0.
        2    1    3    3  502    0 -0.80579854369E+03 -0.67653450707E+03 -0.27690334297E+03  0.10879732045E+04  0.25500000920E-02 0.  1.
       -2    1    3    3    0  502  0.80579854369E+03  0.67653450707E+03  0.35509888347E+03  0.11104528127E+04  0.25500000920E-02 0. -1.
</event>
<event>
 5   0  0.1005538E-05  0.2205306E+04  0.7818609E-02  0.8516223E-01
        1   -1    0    0  501    0  0.00000000000E+00  0.00000000000E+00  0.26233224440E+04  0.26233224440E+04  0.50400001928E-02 0.  1.
       -1   -1    0    0    0  501  0.00000000000E+00  0.00000000000E+00 -0.46347467021E+03  0.46347467024E+03  0.50400001928E-02 0. -1.
    10030    2    1    2    0    0  0.00000000000E+00  0.00000000000E+00  0.21598477738E+04  0.30867971142E+04  0.22053058787E+04 0.  0.
        3    1    3    3  502    0 -0.33693867876E+02 -0.22239439859E+03 -0.43102095492E+03  0.48618270129E+03  0.10100000352E+00 0. -1.
       -3    1    3    3    0  502  0.33693867876E+02  0.22239439859E+03  0.25908687287E+04  0.26006144129E+04  0.10100000352E+00 0.  1.
</event>
<event>
 5   0  0.1005538E-05  0.2187946E+04  0.7818609E-02  0.8523462E-01
       -1   -1    0    0    0  501  0.00000000000E+00  0.00000000000E+00  0.96466286180E+03  0.96466286181E+03  0.50400001928E-02 0. -1.
        1   -1    0    0  501    0  0.00000000000E+00  0.00000000000E+00 -0.12406164338E+04  0.12406164338E+04  0.50400001928E-02 0.  1.
    10030    2    1    2    0    0  0.00000000000E+00  0.00000000000E+00 -0.27595357198E+03  0.22052792956E+04  0.21879457027E+04 0.  0.
        3    1    3    3  502    0 -0.62822053062E+03 -0.27126998285E+03  0.72232382007E+03  0.99498751245E+03  0.10100000352E+00 0. -1.
       -3    1    3    3    0  502  0.62822053062E+03  0.27126998285E+03 -0.99827739206E+03  0.12102917832E+04  0.10100000352E+00 0.  1.
</event>
<event>
 5   0  0.2284329E-05  0.2210329E+04  0.7818609E-02  0.8514141E-01
        2   -1    0    0  501    0  0.00000000000E+00  0.00000000000E+00  0.16140846647E+04  0.16140846647E+04  0.25500000920E-02 0.  1.
       -2   -1    0    0    0  501  0.00000000000E+00  0.00000000000E+00 -0.75670638778E+03  0.75670638779E+03  0.25500000920E-02 0. -1.
    10030    2    1    2    0    0  0.00000000000E+00  0.00000000000E+00  0.85737827689E+03  0.23707910525E+04  0.22103286418E+04 0.  0.
        2    1    3    3  502    0 -0.70666325493E+03  0.17442312722E+02 -0.48252004127E+03  0.85586376274E+03  0.25500000920E-02 0. -1.
       -2    1    3    3    0  502  0.70666325493E+03 -0.17442312722E+02  0.13398983182E+04  0.15149272897E+04  0.25500000920E-02 0.  1.
</event>
<event>
 5   0  0.1049198E-05  0.2201624E+04  0.7818609E-02  0.8517753E-01
       -1   -1    0    0    0  501  0.00000000000E+00  0.00000000000E+00  0.71568090551E+03  0.71568090553E+03  0.50400001928E-02 0.  1.
        1   -1    0    0  501    0  0.00000000000E+00  0.00000000000E+00 -0.16931940845E+04  0.16931940845E+04  0.50400001928E-02 0. -1.
    10030    2    1    2    0    0  0.00000000000E+00  0.00000000000E+00 -0.97751317903E+03  0.24088749901E+04  0.22016236515E+04 0.  0.
        1    1    3    3  502    0  0.36795357496E+03 -0.84313287590E+03  0.17274213038E+03  0.93600359155E+03  0.50400001928E-02 0.  1.
       -1    1    3    3    0  502 -0.36795357496E+03  0.84313287590E+03 -0.11502553094E+04  0.14728713985E+04  0.50400001928E-02 0. -1.
</event>
<event>
 5   0  0.2289708E-05  0.2204742E+04  0.7818609E-02  0.8516457E-01
       -2   -1    0    0    0  501  0.00000000000E+00  0.00000000000E+00  0.82727323955E+03  0.82727323956E+03  0.25500000920E-02 0. -1.
        2   -1    0    0  501    0  0.00000000000E+00  0.00000000000E+00 -0.14689478833E+04  0.14689478833E+04  0.25500000920E-02 0.  1.
    10030    2    1    2    0    0  0.00000000000E+00  0.00000000000E+00 -0.64167464376E+03  0.22962211229E+04  0.22047415034E+04 0.  0.
        5    1    3    3  502    0  0.66597946749E+02 -0.79459069519E+03 -0.11135966293E+04  0.13696456484E+04  0.46999998093E+01 0.  1.
       -5    1    3    3    0  502 -0.66597946749E+02  0.79459069519E+03  0.47192198556E+03  0.92657547445E+03  0.46999998093E+01 0. -1.
</event>
<event>
 5   0  0.1005538E-05  0.2208247E+04  0.7818609E-02  0.8515003E-01
       -1   -1    0    0    0  501  0.00000000000E+00  0.00000000000E+00  0.57179786321E+03  0.57179786323E+03  0.50400001928E-02 0. -1.
        1   -1    0    0  501    0  0.00000000000E+00  0.00000000000E+00 -0.21320274184E+04  0.21320274184E+04  0.50400001928E-02 0.  1.
    10030    2    1    2    0    0  0.00000000000E+00  0.00000000000E+00 -0.15602295552E+04  0.27038252817E+04  0.22082470172E+04 0.  0.
        3    1    3    3  502    0  0.72105294197E+02 -0.20229625692E+03 -0.21062067316E+04  0.21171277136E+04  0.10100000352E+00 0.  1.
       -3    1    3    3    0  502 -0.72105294197E+02  0.20229625692E+03  0.54597717643E+03  0.58669756808E+03  0.10100000352E+00 0. -1.
</event>
<event>
 5   0  0.2284329E-05  0.2201012E+04  0.7818609E-02  0.8518007E-01
        2   -1    0    0  501    0  0.00000000000E+00  0.00000000000E+00  0.14692490859E+04  0.14692490859E+04  0.25500000920E-02 0. -1.
       -2   -1    0    0    0  501  0.00000000000E+00  0.00000000000E+00 -0.82430756388E+03  0.82430756388E+03  0.25500000920E-02 0.  1.
    10030    2    1    2    0    0  0.00000000000E+00  0.00000000000E+00  0.64494152203E+03  0.22935566498E+04  0.22010117081E+04 0.  0.
        2    1    3    3  502    0 -0.10236363860E+04  0.30637091328E+03  0.47918591582E+02  0.10695750459E+04  0.25500000920E-02 0.  1.
       -2    1    3    3    0  502  0.10236363860E+04 -0.30637091328E+03  0.59702293045E+03  0.12239816039E+04  0.25500000920E-02 0. -1.
</event>
<event>
 5   0  0.8003875E-06  0.2196116E+04  0.7818609E-02  0.8520047E-01
        3   -1    0    0  501    0  0.00000000000E+00  0.00000000000E+00  0.55328816435E+03  0.55328817357E+03  0.10100000352E+00 0.  1.
       -3   -1    0    0    0  501  0.00000000000E+00  0.00000000000E+00 -0.21792096368E+04  0.21792096391E+04  0.10100000352E+00 0. -1.
    10030    2    1    2    0    0  0.00000000000E+00  0.00000000000E+00 -0.16259214724E+04  0.27324978127E+04  0.21961155848E+04 0.  0.
        5    1    3    3  502    0  0.27751908517E+02 -0.11267083699E+03 -0.21715469109E+04  0.21746500781E+04  0.46999998093E+01 0. -1.
       -5    1    3    3    0  502 -0.27751908517E+02  0.11267083699E+03  0.54562543845E+03  0.55784773462E+03  0.46999998093E+01 0.  1.
</event>
<event>
 5   0  0.2289708E-05  0.2199826E+04  0.7818609E-02  0.8518501E-01
        2   -1    0    0  501    0  0.00000000000E+00  0.00000000000E+00  0.15479782043E+04  0.15479782043E+04  0.25500000920E-02 0.  1.
       -2   -1    0    0    0  501  0.00000000000E+00  0.00000000000E+00 -0.78154104317E+03  0.78154104318E+03  0.25500000920E-02 0. -1.
    10030    2    1    2    0    0  0.00000000000E+00  0.00000000000E+00  0.76643716110E+03  0.23295192475E+04  0.21998259027E+04 0.  0.
        5    1    3    3  502    0 -0.39684155032E+03 -0.32892501161E+03 -0.64572045261E+03  0.82622749424E+03  0.46999998093E+01 0. -1.
       -5    1    3    3    0  502  0.39684155032E+03  0.32892501161E+03  0.14121576137E+04  0.15032917532E+04  0.46999998093E+01 0.  1.
</event>
<event>
 5   0  0.1049198E-05  0.2195362E+04  0.7818609E-02  0.8520361E-01
        1   -1    0    0  501    0  0.00000000000E+00  0.00000000000E+00  0.27066559065E+04  0.27066559065E+04  0.50400001928E-02 0. -1.
       -1   -1    0    0    0  501  0.00000000000E+00  0.00000000000E+00 -0.44516323467E+03  0.44516323470E+03  0.50400001928E-02 0.  1.
    10030    2    1    2    0    0  0.00000000000E+00  0.00000000000E+00  0.22614926718E+04  0.31518191412E+04  0.21953621100E+04 0.  0.
        1    1    3    3  502    0 -0.58820633017E+03 -0.24660030715E+03 -0.15183590361E+03  0.65563140559E+03  0.50400001928E-02 0.  1.
       -1    1    3    3    0  502  0.58820633017E+03  0.24660030715E+03  0.24133285754E+04  0.24961877356E+04  0.50400001928E-02 0. -1.
</event>
<event>
 5   0  0.1071208E-05  0.2173953E+04  0.7818609E-02  0.8529348E-01
        1   -1    0    0  501    0  0.00000000000E+00  0.00000000000E+00  0.13428481021E+04  0.13428481021E+04  0.50400001928E-02 0. -1.
       -1   -1    0    0    0  501  0.00000000000E+00  0.00000000000E+00 -0.87985952471E+03  0.87985952473E+03  0.50400001928E-02 0.  1.
    10030    2    1    2    0    0  0.00000000000E+00  0.00000000000E+00  0.46298857742E+03  0.22227076269E+04  0.21739527989E+04 0.  0.
        4    1    3    3  502    0  0.43372485432E+03  0.76781766353E+03 -0.41825361875E+03  0.97601173977E+03  0.12699999809E+01 0.  1.
       -4    1    3    3    0  502 -0.43372485432E+03 -0.76781766353E+03  0.88124219618E+03  0.12466958871E+04  0.12699999809E+01 0. -1.
</event>
<event>
 5   0  0.2319707E-05  0.2201487E+04  0.7818609E-02  0.8517810E-01
        2   -1    0    0  501    0  0.00000000000E+00  0.00000000000E+00  0.20130187832E+04  0.20130187832E+04  0.25500000920E-02 0. -1.
       -2   -1    0    0    0  501  0.00000000000E+00  0.00000000000E+00 -0.60190002937E+03  0.60190002938E+03  0.25500000920E-02 0.  1.
    10030    2    1    2    0    0  0.00000000000E+00  0.00000000000E+00  0.14111187538E+04  0.26149188125E+04  0.22014868291E+04 0.  0.
        3    1    3    3  502    0 -0.78295718752E+03 -0.68388522956E+03  0.11353302434E+04  0.15393816085E+04  0.10100000352E+00 0. -1.
       -3    1    3    3    0  502  0.78295718752E+03  0.68388522956E+03  0.27578851039E+03  0.10755372041E+04  0.10100000352E+00 0.  1.
</event>
<event>
 5   0  0.1033733E-05  0.2195918E+04  0.7818609E-02  0.8520129E-01
        1   -1    0    0  501    0  0.00000000000E+00  0.00000000000E+00  0.15638114157E+04  0.15638114157E+04  0.50400001928E-02 0.  1.
       -1   -1    0    0    0  501  0.00000000000E+00  0.00000000000E+00 -0.77088209148E+03  0.77088209149E+03  0.50400001928E-02 0. -1.
    10030    2    1    2    0    0  0.00000000000E+00  0.00000000000E+00  0.79292932425E+03  0.23346935072E+04  0.21959182269E+04 0.  0.
        5    1    3    3  502    0  0.31808680842E+03 -0.93453889540E+03  0.90740790238E+03  0.13408778304E+04  0.46999998093E+01 0. -1.
       -5    1    3    3    0  502 -0.31808680842E+03  0.93453889540E+03 -0.11447857813E+03  0.99381567685E+03  0.46999998093E+01 0.  1.
</event>
<event>
 5   0  0.2229552E-05  0.2258263E+04  0.7818609E-02  0.8494562E-01
       -2   -1    0    0    0  501  0.00000000000E+00  0.00000000000E+00  0.69338896632E+03  0.69338896632E+03  0.25500000920E-02 0. -1.
        2   -1    0    0  501    0  0.00000000000E+00  0.00000000000E+00 -0.18387045353E+04  0.18387045353E+04  0.25500000920E-02 0.  1.
    10030    2    1    2    0    0  0.00000000000E+00  0.00000000000E+00 -0.11453155690E+04  0.25320935016E+04  0.22582625508E+04 0.  0.
        1    1    3    3  502    0 -0.61088171987E+03  0.34603712585E+03 -0.15642064472E+04  0.17145436646E+04  0.50400001928E-02 0.  1.
       -1    1    3    3    0  502  0.61088171987E+03 -0.34603712585E+03  0.41889087825E+03  0.81754983704E+03  0.50400001928E-02 0. -1.
</event>
<event>
 5   0  0.1049198E-05  0.2200565E+04  0.7818609E-02  0.8518193E-01
       -1   -1    0    0    0  501  0.00000000000E+00  0.00000000000E+00  0.98993761541E+03  0.98993761542E+03  0.50400001928E-02 0. -1.
        1   -1    0    0  501    0  0.00000000000E+00  0.00000000000E+00 -0.12229276195E+04  0.12229276195E+04  0.50400001928E-02 0.  1.
    10030    2    1    2    0    0  0.00000000000E+00  0.00000000000E+00 -0.23299000412E+03  0.22128652350E+04  0.22005654287E+04 0.  0.
        1    1    3    3  502    0 -0.40345636737E+03 -0.16326556954E+03 -0.11326824395E+04  0.12134258096E+04  0.50400001928E-02 0.  1.
       -1    1    3    3    0  502  0.40345636737E+03  0.16326556954E+03  0.89969243541E+03  0.99943942535E+03  0.50400001928E-02 0. -1.
</event>
<event>
 5   0  0.2284329E-05  0.2203740E+04  0.7818609E-02  0.8516873E-01
       -2   -1    0    0    0  501  0.00000000000E+00  0.00000000000E+00  0.17779373936E+04  0.17779373936E+04  0.25500000920E-02 0.  1.
        2   -1    0    0  501    0  0.00000000000E+00  0.00000000000E+00 -0.68287981283E+03  0.68287981283E+03  0.25500000920E-02 0. -1.
    10030    2    1    2    0    0  0.00000000000E+00  0.00000000000E+00  0.10950575808E+04  0.24608172065E+04  0.22037400524E+04 0.  0.
        2    1    3    3  502    0 -0.58251899686E+03 -0.92147643418E+03  0.36861866507E+03  0.11507940392E+04  0.25500000920E-02 0. -1.
       -2    1    3    3    0  502  0.58251899686E+03  0.92147643418E+03  0.72643891575E+03  0.13100231673E+04  0.25500000920E-02 0.  1.
</event>
<event>
 5   0  0.1005538E-05  0.2196215E+04  0.7818609E-02  0.8520005E-01
       -1   -1    0    0    0  501  0.00000000000E+00  0.00000000000E+00  0.82613644340E+03  0.82613644341E+03  0.50400001928E-02 0. -1.
        1   -1    0    0  501    0  0.00000000000E+00  0.00000000000E+00 -0.14596139871E+04  0.14596139871E+04  0.50400001928E-02 0.  1.
    10030    2    1    2    0    0  0.00000000000E+00  0.00000000000E+00 -0.63347754370E+03  0.22857504305E+04  0.21962152063E+04 0.  0.
        3    1    3    3  502    0  0.89545290166E+03  0.41938139635E+03 -0.81383339477E+03  0.12806410345E+04  0.10100000352E+00 0.  1.
       -3    1    3    3    0  502 -0.89545290166E+03 -0.41938139635E+03  0.18035585107E+03  0.10051093960E+04  0.10100000352E+00 0. -1.
</event>
<event>
 5   0  0.2298329E-05  0.2194085E+04  0.7818609E-02  0.8520894E-01
       -2   -1    0    0    0  501  0.00000000000E+00  0.00000000000E+00  0.64735894623E+03  0.64735894624E+03  0.25500000920E-02 0. -1.
        2   -1    0    0  501    0  0.00000000000E+00  0.00000000000E+00 -0.18590950218E+04  0.18590950218E+04  0.25500000920E-02 0.  1.
    10030    2    1    2    0    0  0.00000000000E+00  0.00000000000E+00 -0.12117360756E+04  0.25064539680E+04  0.21940845875E+04 0.  0.
        4    1    3    3  502    0 -0.24547957409E+03  0.35663720139E+03  0.54563179154E+03  0.69653857003E+03  0.12699999809E+01 0. -1.
       -4    1    3    3    0  502  0.24547957409E+03 -0.35663720139E+03 -0.17573678671E+04  0.18099153980E+04  0.12699999809E+01 0.  1.
</event>
<event>
 5   0  0.2229552E-05  0.2201610E+04  0.7818609E-02  0.8517758E-01
        2   -1    0    0  501    0  0.00000000000E+00  0.00000000000E+00  0.19136583769E+04  0.19136583769E+04  0.25500000920E-02 0.  1.
       -2   -1    0    0    0  501  0.00000000000E+00  0.00000000000E+00 -0.63322229979E+03  0.63322229980E+03  0.25500000920E-02 0. -1.
    10030    2    1    2    0    0  0.00000000000E+00  0.00000000000E+00  0.12804360771E+04  0.25468806767E+04  0.22016095552E+04 0.  0.
        1    1    3    3  502    0 -0.40995437884E+03  0.78570091972E+02 -0.53811956994E+03  0.68103489166E+03  0.50400001928E-02 0. -1.
       -1    1    3    3    0  502  0.40995437884E+03 -0.78570091972E+02  0.18185556470E+04  0.18658457850E+04  0.50400001928E-02 0.  1.
</event>
<event>
 5   0  0.1005538E-05  0.2189794E+04  0.7818609E-02  0.8522688E-01
       -1   -1    0    0    0  501  0.00000000000E+00  0.00000000000E+00  0.13424674189E+04  0.13424674189E+04  0.50400001928E-02 0.  1.
        1   -1    0    0  501    0  0.00000000000E+00  0.00000000000E+00 -0.89298181452E+03  0.89298181454E+03  0.50400001928E-02 0. -1.
    10030    2    1    2    0    0  0.00000000000E+00  0.00000000000E+00  0.44948560438E+03  0.22354492335E+04  0.21897935900E+04 0.  0.
        3    1    3    3  502    0  0.55239967516E+03 -0.28936309748E+03 -0.69397764964E+03  0.93299592266E+03  0.10100000352E+00 0. -1.
       -3    1    3    3    0  502 -0.55239967516E+03  0.28936309748E+03  0.11434632540E+04  0.13024533108E+04  0.10100000352E+00 0.  1.
</event>
<event>
 5   0  0.1033733E-05  0.2173492E+04  0.7818609E-02  0.8529543E-01
       -1   -1    0    0    0  501  0.00000000000E+00  0.00000000000E+00  0.10781064744E+04  0.10781064744E+04  0.50400001928E-02 0.  1.
        1   -1    0    0  501    0  0.00000000000E+00  0.00000000000E+00 -0.10954552408E+04  0.10954552408E+04  0.50400001928E-02 0. -1.
    10030    2    1    2    0    0  0.00000000000E+00  0.00000000000E+00 -0.17348766464E+02  0.21735617152E+04  0.21734924776E+04 0.  0.
        5    1    3    3  502    0  0.10295634332E+03 -0.11029252568E+03  0.10675712397E+04  0.10781905637E+04  0.46999998093E+01 0.  1.
       -5    1    3    3    0  502 -0.10295634332E+03  0.11029252568E+03 -0.10849200062E+04  0.10953711515E+04  0.46999998093E+01 0. -1.
</event>
<event>
 5   0  0.1005538E-05  0.2201645E+04  0.7818609E-02  0.8517744E-01
       -1   -1    0    0    0  501  0.00000000000E+00  0.00000000000E+00  0.52352873534E+03  0.52352873536E+03  0.50400001928E-02 0.  1.
        1   -1    0    0  501    0  0.00000000000E+00  0.00000000000E+00 -0.23146969156E+04  0.23146969157E+04  0.50400001928E-02 0. -1.
    10030    2    1    2    0    0  0.00000000000E+00  0.00000000000E+00 -0.17911681803E+04  0.28382256510E+04  0.22016451567E+04 0.  0.
        3    1    3    3  502    0 -0.57017559197E+03 -0.94051849821E+03 -0.95515132595E+03  0.14567049519E+04  0.10100000352E+00 0. -1.
       -3    1    3    3    0  502  0.57017559197E+03  0.94051849821E+03 -0.83601685437E+03  0.13815206991E+04  0.10100000352E+00 0.  1.
</event>
<event>
 5   0  0.1033733E-05  0.2198834E+04  0.7818609E-02  0.8518914E-01
       -1   -1    0    0    0  501  0.00000000000E+00  0.00000000000E+00  0.75618842268E+03  0.75618842270E+03  0.50400001928E-02 0. -1.
        1   -1    0    0  501    0  0.00000000000E+00  0.00000000000E+00 -0.15984338995E+04  0.15984338995E+04  0.50400001928E-02 0.  1.
    10030    2    1    2    0    0  0.00000000000E+00  0.00000000000E+00 -0.84224547685E+03  0.23546223222E+04  0.21988335174E+04 0.  0.
        5    1    3    3  502    0 -0.57498336753E+03  0.17233244768E+03  0.56521778647E+03  0.82449838181E+03  0.46999998093E+01 0. -1.
       -5    1    3    3    0  502  0.57498336753E+03 -0.17233244768E+03 -0.14074632633E+04  0.15301239404E+04  0.46999998093E+01 0.  1.
</event>
<event>
 5   0  0.2284329E-05  0.2207063E+04  0.7818609E-02  0.8515494E-01
       -2   -1    0    0    0  501  0.00000000000E+00  0.00000000000E+00  0.90055888666E+03  0.90055888667E+03  0.25500000920E-02 0.  1.
        2   -1    0    0  501    0  0.00000000000E+00  0.00000000000E+00 -0.13522507985E+04  0.13522507985E+04  0.25500000920E-02 0. -1.
    10030    2    1    2    0    0  0.00000000000E+00  0.00000000000E+00 -0.45169191181E+03  0.22528096851E+04  0.22070627300E+04 0.  0.
        2    1    3    3  502    0 -0.25509140389E+03 -0.21470875738E+03  0.84791379940E+03  0.91111431009E+03  0.25500000920E-02 0.  1.
       -2    1    3    3    0  502  0.25509140389E+03  0.21470875738E+03 -0.12996057112E+04  0.13416953751E+04  0.25500000920E-02 0. -1.
</event>
<event>
 5   0  0.1005538E-05  0.2201775E+04  0.7818609E-02  0.8517690E-01
       -1   -1    0    0    0  501  0.00000000000E+00  0.00000000000E+00  0.94040399020E+03  0.94040399021E+03  0.50400001928E-02 0. -1.
        1   -1    0    0  501    0  0.00000000000E+00  0.00000000000E+00 -0.12887577584E+04  0.12887577584E+04  0.50400001928E-02 0.  1.
    10030    2    1    2    0    0  0.00000000000E+00  0.00000000000E+00 -0.34835376823E+03  0.22291617486E+04  0.22017746828E+04 0.  0.
        3    1    3    3  502    0 -0.63471350480E+03  0.49086975319E+03  0.58894841130E+03  0.99532637318E+03  0.10100000352E+00 0. -1.
       -3    1    3    3    0  502  0.63471350480E+03 -0.49086975319E+03 -0.93730217954E+03  0.12338353755E+04  0.10100000352E+00 0.  1.
</event>
<event>
 5   0  0.2229552E-05  0.2210434E+04  0.7818609E-02  0.8514098E-01
       -2   -1    0    0    0  501  0.00000000000E+00  0.00000000000E+00  0.56151718666E+03  0.56151718667E+03  0.25500000920E-02 0.  1.
        2   -1    0    0  501    0  0.00000000000E+00  0.00000000000E+00 -0.21753640728E+04  0.21753640729E+04  0.25500000920E-02 0. -1.
    10030    2    1    2    0    0  0.00000000000E+00  0.00000000000E+00 -0.16138468862E+04  0.27368812595E+04  0.22104337259E+04 0.  0.
        1    1    3    3  502    0  0.68361127678E+03  0.40070965145E+03  0.14703550920E+03  0.80592310024E+03  0.50400001928E-02 0.  1.
       -1    1    3    3    0  502 -0.68361127678E+03 -0.40070965145E+03 -0.17608823954E+04  0.19309581593E+04  0.50400001928E-02 0. -1.
</event>
<event>
 5   0  0.2298329E-05  0.2184916E+04  0.7818609E-02  0.8524733E-01
       -2   -1    0    0    0  501  0.00000000000E+00  0.00000000000E+00  0.96417629328E+03  0.96417629328E+03  0.25500000920E-02 0. -1.
        2   -1    0    0  501    0  0.00000000000E+00  0.00000000000E+00 -0.12378072300E+04  0.12378072300E+04  0.25500000920E-02 0.  1.
    10030    2    1    2    0    0  0.00000000000E+00  0.00000000000E+00 -0.27363093677E+03  0.22019835233E+04  0.21849159131E+04 0.  0.
        4    1    3    3  502    0 -0.25380519625E+03 -0.50472472502E+03 -0.10791589715E+04  0.12180926994E+04  0.12699999809E+01 0.  1.
       -4    1    3    3    0  502  0.25380519625E+03  0.50472472502E+03  0.80552803475E+03  0.98389082390E+03  0.12699999809E+01 0. -1.
</event>
<event>
 5   0  0.1033733E-05  0.2241442E+04  0.7818609E-02  0.8501374E-01
       -1   -1    0    0    0  501  0.00000000000E+00  0.00000000000E+00  0.79273368334E+03  0.79273368336E+03  0.50400001928E-02 0.  1.
        1   -1    0    0  501    0  0.00000000000E+00  0.00000000000E+00 -0.15844109735E+04  0.15844109735E+04  0.50400001928E-02 0. -1.
    10030    2    1    2    0    0  0.00000000000E+00  0.00000000000E+00 -0.79167729011E+03  0.23771446568E+04  0.22414423454E+04 0.  0.
        5    1    3    3  502    0  0.57390370471E+03 -0.15751023989E+03  0.61129640249E+03  0.85315902365E+03  0.46999998093E+01 0.  1.
       -5    1    3    3    0  502 -0.57390370471E+03  0.15751023989E+03 -0.14029736926E+04  0.15239856332E+04  0.46999998093E+01 0. -1.
</event>
<event>
 5   0  0.2319707E-05  0.2204965E+04  0.7818609E-02  0.8516364E-01
       -2   -1    0    0    0  501  0.00000000000E+00  0.00000000000E+00  0.12508335612E+04  0.12508335612E+04  0.25500000920E-02 0.  1.
        2   -1    0    0  501    0  0.00000000000E+00  0.00000000000E+00 -0.97172624206E+03  0.97172624206E+03  0.25500000920E-02 0. -1.
    10030    2    1    2    0    0  0.00000000000E+00  0.00000000000E+00  0.27910731914E+03  0.22225598033E+04  0.22049651207E+04 0.  0.
        3    1    3    3  502    0  0.39093263502E+03 -0.92979338969E+03  0.58821635468E+03  0.11676226114E+04  0.10100000352E+00 0.  1.
       -3    1    3    3    0  502 -0.39093263502E+03  0.92979338969E+03 -0.30910903554E+03  0.10549371918E+04  0.10100000352E+00 0. -1.
</event>
<event>
 5   0  0.2319707E-05  0.2186598E+04  0.7818609E-02  0.8524027E-01
       -2   -1    0    0    0  501  0.00000000000E+00  0.00000000000E+00  0.11214896434E+04  0.11214896434E+04  0.25500000920E-02 0.  1.
        2   -1    0    0  501    0  0.00000000000E+00  0.00000000000E+00 -0.10658165948E+04  0.10658165948E+04  0.25500000920E-02 0. -1.
    10030    2    1    2    0    0  0.00000000000E+00  0.00000000000E+00  0.55673048606E+02  0.21873062381E+04  0.21865976061E+04 0.  0.
        3    1    3    3  502    0 -0.48678320937E+03  0.79897413183E+03 -0.53801870543E+03  0.10792505241E+04  0.10100000352E+00 0. -1.
       -3    1    3    3    0  502  0.48678320937E+03 -0.79897413183E+03  0.59369175404E+03  0.11080557140E+04  0.10100000352E+00 0.  1.
</event>
<event>
 5   0  0.1007682E-05  0.2198605E+04  0.7818609E-02  0.8519009E-01
        1   -1    0    0  501    0  0.00000000000E+00  0.00000000000E+00  0.89179284509E+03  0.89179284511E+03  0.50400001928E-02 0. -1.
       -1   -1    0    0    0  501  0.00000000000E+00  0.00000000000E+00 -0.13550976368E+04  0.13550976368E+04  0.50400001928E-02 0.  1.
    10030    2    1    2    0    0  0.00000000000E+00  0.00000000000E+00 -0.46330479170E+03  0.22468904819E+04  0.21986053552E+04 0.  0.
        2    1    3    3  502    0  0.74542182719E+03 -0.65316133285E+03 -0.71769479415E+03  0.12236663127E+04  0.25500000920E-02 0.  1.
       -2    1    3    3    0  502 -0.74542182719E+03  0.65316133285E+03  0.25439000245E+03  0.10232241693E+04  0.25500000920E-02 0. -1.
</event>
<event>
 5   0  0.1033733E-05  0.2174155E+04  0.7818609E-02  0.8529263E-01
       -1   -1    0    0    0  501  0.00000000000E+00  0.00000000000E+00  0.13214590259E+04  0.13214590259E+04  0.50400001928E-02 0.  1.
        1   -1    0    0  501    0  0.00000000000E+00  0.00000000000E+00 -0.89426690208E+03  0.89426690209E+03  0.50400001928E-02 0. -1.
    10030    2    1    2    0    0  0.00000000000E+00  0.00000000000E+00  0.42719212385E+03  0.22157259280E+04  0.21741546121E+04 0.  0.
        5    1    3    3  502    0  0.10341729980E+03 -0.15167370729E+03  0.13055375879E+04  0.13183893715E+04  0.46999998093E+01 0.  1.
       -5    1    3    3    0  502 -0.10341729980E+03  0.15167370729E+03 -0.87834546409E+03  0.89733655652E+03  0.46999998093E+01 0. -1.
</event>
<event>
 5   0  0.1049198E-05  0.2186154E+04  0.7818609E-02  0.8524213E-01
        1   -1    0    0  501    0  0.00000000000E+00  0.00000000000E+00  0.51346987504E+03  0.51346987507E+03  0.50400001928E-02 0.  1.
       -1   -1    0    0    0  501  0.00000000000E+00  0.00000000000E+00 -0.23269465040E+04  0.23269465040E+04  0.50400001928E-02 0. -1.
    10030    2    1    2    0    0  0.00000000000E+00  0.00000000000E+00 -0.18134766289E+04  0.28404163790E+04  0.21861536366E+04 0.  0.
        1    1    3    3  502    0  0.39947421819E+02  0.99092241682E+03 -0.30950392603E+03  0.10389012046E+04  0.50400001928E-02 0.  1.
       -1    1    3    3    0  502 -0.39947421819E+02 -0.99092241682E+03 -0.15039727029E+04  0.18015151744E+04  0.50400001928E-02 0. -1.
</event>
<event>
 5   0  0.2289708E-05  0.2192780E+04  0.7818609E-02  0.8521439E-01
        2   -1    0    0  501    0  0.00000000000E+00  0.00000000000E+00  0.10592053506E+04  0.10592053506E+04  0.25500000920E-02 0.  1.
       -2   -1    0    0    0  501  0.00000000000E+00  0.00000000000E+00 -0.11348802596E+04  0.11348802596E+04  0.25500000920E-02 0. -1.
    10030    2    1    2    0    0  0.00000000000E+00  0.00000000000E+00 -0.75674909008E+02  0.21940856103E+04  0.21927801927E+04 0.  0.
        5    1    3    3  502    0 -0.55954611069E+03  0.81844046979E+03  0.43053575657E+03  0.10808884217E+04  0.46999998093E+01 0. -1.
       -5    1    3    3    0  502  0.55954611069E+03 -0.81844046979E+03 -0.50621066558E+03  0.11131971885E+04  0.46999998093E+01 0.  1.
</event>
<event>
 5   0  0.2319707E-05  0.2195220E+04  0.7818609E-02  0.8520420E-01
       -2   -1    0    0    0  501  0.00000000000E+00  0.00000000000E+00  0.93052720227E+03  0.93052720227E+03  0.25500000920E-02 0.  1.
        2   -1    0    0  501    0  0.00000000000E+00  0.00000000000E+00 -0.12946941717E+04  0.12946941717E+04  0.25500000920E-02 0. -1.
    10030    2    1    2    0    0  0.00000000000E+00  0.00000000000E+00 -0.36416696941E+03  0.22252213740E+04  0.21952203947E+04 0.  0.
        3    1    3    3  502    0  0.75080266044E+03 -0.74321319693E+03  0.11977415193E+03  0.10632103972E+04  0.10100000352E+00 0.  1.
       -3    1    3    3    0  502 -0.75080266044E+03  0.74321319693E+03 -0.48394112134E+03  0.11620109768E+04  0.10100000352E+00 0. -1.
</event>
<event>
 5   0  0.2298329E-05  0.2190041E+04  0.7818609E-02  0.8522585E-01
       -2   -1    0    0    0  501  0.00000000000E+00  0.00000000000E+00  0.78178746739E+03  0.78178746739E+03  0.25500000920E-02 0.  1.
        2   -1    0    0  501    0  0.00000000000E+00  0.00000000000E+00 -0.15337539911E+04  0.15337539911E+04  0.25500000920E-02 0. -1.
    10030    2    1    2    0    0  0.00000000000E+00  0.00000000000E+00 -0.75196652376E+03  0.23155414585E+04  0.21900407744E+04 0.  0.
        4    1    3    3  502    0  0.10524786809E+04 -0.15066015532E+03 -0.65302582854E+03  0.12477396370E+04  0.12699999809E+01 0. -1.
       -4    1    3    3    0  502 -0.10524786809E+04  0.15066015532E+03 -0.98940695221E+02  0.10678018216E+04  0.12699999809E+01 0.  1.
</event>
<event>
 5   0  0.2319707E-05  0.2182247E+04  0.7818609E-02  0.8525854E-01
       -2   -1    0    0    0  501  0.00000000000E+00  0.00000000000E+00  0.10084767095E+04  0.10084767095E+04  0.25500000920E-02 0.  1.
        2   -1    0    0  501    0  0.00000000000E+00  0.00000000000E+00 -0.11805436068E+04  0.11805436068E+04  0.25500000920E-02 0. -1.
    10030    2    1    2    0    0  0.00000000000E+00  0.00000000000E+00 -0.17206689727E+03  0.21890203163E+04  0.21822472198E+04 0.  0.
        3    1    3    3  502    0 -0.60565377559E+02 -0.12536625780E+03 -0.11715964801E+04  0.11798403222E+04  0.10100000352E+00 0. -1.
       -3    1    3    3    0  502  0.60565377559E+02  0.12536625780E+03  0.99952958278E+03  0.10091799942E+04  0.10100000352E+00 0.  1.
</event>
<event>
 5   0  0.1033733E-05  0.2204492E+04  0.7818609E-02  0.8516561E-01
        1   -1    0    0  501    0  0.00000000000E+00  0.00000000000E+00  0.72014311584E+03  0.72014311586E+03  0.50400001928E-02 0. -1.
       -1   -1    0    0    0  501  0.00000000000E+00  0.00000000000E+00 -0.16870903417E+04  0.16870903417E+04  0.50400001928E-02 0.  1.
    10030    2    1    2    0    0  0.00000000000E+00  0.00000000000E+00 -0.96694722590E+03  0.24072334576E+04  0.22044922276E+04 0.  0.
        5    1    3    3  502    0  0.61199119647E+03  0.84438466273E+03 -0.87323975103E+03  0.13601795602E+04  0.46999998093E+01 0.  1.
       -5    1    3    3    0  502 -0.61199119647E+03 -0.84438466273E+03 -0.93707474868E+02  0.10470538974E+04  0.46999998093E+01 0. -1.
</event>
<event>
 5   0  0.1071208E-05  0.2197050E+04  0.7818609E-02  0.8519657E-01
        1   -1    0    0  501    0  0.00000000000E+00  0.00000000000E+00  0.97219972537E+03  0.97219972539E+03  0.50400001928E-02 0.  1.
       -1   -1    0    0    0  501  0.00000000000E+00  0.00000000000E+00 -0.12412644775E+04  0.12412644776E+04  0.50400001928E-02 0. -1.
    10030    2    1    2    0    0  0.00000000000E+00  0.00000000000E+00 -0.26906475217E+03  0.22134642029E+04  0.21970498258E+04 0.  0.
        4    1    3    3  502    0 -0.62526357424E+03  0.67353228527E+03 -0.74082166557E+03  0.11804315438E+04  0.12699999809E+01 0. -1.
       -4    1    3    3    0  502  0.62526357424E+03 -0.67353228527E+03  0.47175691339E+03  0.10330326591E+04  0.12699999809E+01 0.  1.
</event>
<event>
 5   0  0.1033733E-05  0.2190954E+04  0.7818609E-02  0.8522203E-01
        1   -1    0    0  501    0  0.00000000000E+00  0.00000000000E+00  0.15495451385E+04  0.15495451385E+04  0.50400001928E-02 0.  1.
       -1   -1    0    0    0  501  0.00000000000E+00  0.00000000000E+00 -0.77446561924E+03  0.77446561926E+03  0.50400001928E-02 0. -1.
    10030    2    1    2    0    0  0.00000000000E+00  0.00000000000E+00  0.77507951925E+03  0.23240107578E+04  0.21909536145E+04 0.  0.
        5    1    3    3  502    0 -0.69739611634E+03  0.36840504653E+03 -0.41886900862E+03  0.89306044464E+03  0.46999998093E+01 0. -1.
       -5    1    3    3    0  502  0.69739611634E+03 -0.36840504653E+03  0.11939485279E+04  0.14309503131E+04  0.46999998093E+01 0.  1.
</event>
<event>
 5   0  0.1071208E-05  0.2218985E+04  0.7818609E-02  0.8510567E-01
       -1   -1    0    0    0  501  0.00000000000E+00  0.00000000000E+00  0.12465646768E+04  0.12465646768E+04  0.50400001928E-02 0. -1.
        1   -1    0    0  501    0  0.00000000000E+00  0.00000000000E+00 -0.98749272315E+03  0.98749272316E+03  0.50400001928E-02 0.  1.
    10030    2    1    2    0    0  0.00000000000E+00  0.00000000000E+00  0.25907195368E+03  0.22340574000E+04  0.22189849457E+04 0.  0.
        4    1    3    3  502    0  0.15688670867E+03 -0.61986595977E+03 -0.78333377366E+03  0.10111679689E+04  0.12699999809E+01 0.  1.
       -4    1    3    3    0  502 -0.15688670867E+03  0.61986595977E+03  0.10424057273E+04  0.12228894311E+04  0.12699999809E+01 0. -1.
</event>
<event>
 5   0  0.2319707E-05  0.2203427E+04  0.7818609E-02  0.8517003E-01
        2   -1    0    0  501    0  0.00000000000E+00  0.00000000000E+00  0.10339827071E+04  0.10339827071E+04  0.25500000920E-02 0. -1.
       -2   -1    0    0    0  501  0.00000000000E+00  0.00000000000E+00 -0.11738815086E+04  0.11738815086E+04  0.25500000920E-02 0.  1.
    10030    2    1    2    0    0  0.00000000000E+00  0.00000000000E+00 -0.13989880152E+03  0.22078642157E+04  0.22034274938E+04 0.  0.
        3    1    3    3  502    0 -0.77193966169E+03  0.70596371631E+03 -0.41632964570E+03  0.11258800976E+04  0.10100000352E+00 0. -1.
       -3    1    3    3    0  502  0.77193966169E+03 -0.70596371631E+03  0.27643084417E+03  0.10819841181E+04  0.10100000352E+00 0.  1.
</event>
<event>
 5   0  0.1005538E-05  0.2173802E+04  0.7818609E-02  0.8529412E-01
       -1   -1    0    0    0  501  0.00000000000E+00  0.00000000000E+00  0.83921538760E+03  0.83921538762E+03  0.50400001928E-02 0. -1.
        1   -1    0    0  501    0  0.00000000000E+00  0.00000000000E+00 -0.14076885275E+04  0.14076885275E+04  0.50400001928E-02 0.  1.
    10030    2    1    2    0    0  0.00000000000E+00  0.00000000000E+00 -0.56847313991E+03  0.22469039151E+04  0.21738020823E+04 0.  0.
        3    1    3    3  502    0  0.80263613526E+03  0.49526431522E+03 -0.84262789357E+03  0.12647265652E+04  0.10100000352E+00 0.  1.
       -3    1    3    3    0  502 -0.80263613526E+03 -0.49526431522E+03  0.27415475365E+03  0.98217734993E+03  0.10100000352E+00 0. -1.
</event>
<event>
 5   0  0.2289708E-05  0.2196930E+04  0.7818609E-02  0.8519707E-01
        2   -1    0    0  501    0  0.00000000000E+00  0.00000000000E+00  0.15392407298E+04  0.15392407298E+04  0.25500000920E-02 0. -1.
       -2   -1    0    0    0  501  0.00000000000E+00  0.00000000000E+00 -0.78390940253E+03  0.78390940253E+03  0.25500000920E-02 0.  1.
    10030    2    1    2    0    0  0.00000000000E+00  0.00000000000E+00  0.75533132727E+03  0.23231501323E+04  0.21969299314E+04 0.  0.
        5    1    3    3  502    0  0.99296555412E+03 -0.45067160990E+03  0.23770705910E+03  0.11160699922E+04  0.46999998093E+01 0.  1.
       -5    1    3    3    0  502 -0.99296555412E+03  0.45067160990E+03  0.51762426818E+03  0.12070801401E+04  0.46999998093E+01 0. -1.
</event>
<event>
 5   0  0.2319707E-05  0.2139041E+04  0.7818609E-02  0.8544238E-01
       -2   -1    0    0    0  501  0.00000000000E+00  0.00000000000E+00  0.92909174237E+03  0.92909174238E+03  0.25500000920E-02 0. -1.
        2   -1    0    0  501    0  0.00000000000E+00  0.00000000000E+00 -0.12311746161E+04  0.12311746161E+04  0.25500000920E-02 0.  1.
    10030    2    1    2    0    0  0.00000000000E+00  0.00000000000E+00 -0.30208287372E+03  0.21602663585E+04  0.21390410648E+04 0.  0.
        3    1    3    3  502    0  0.35421000785E+02  0.10628147147E+04 -0.26638679790E+03  0.10962626061E+04  0.10100000352E+00 0. -1.
       -3    1    3    3    0  502 -0.35421000785E+02 -0.10628147147E+04 -0.35696075827E+02  0.10640037524E+04  0.10100000352E+00 0.  1.
</event>
<event>
 5   0  0.1005538E-05  0.2208435E+04  0.7818609E-02  0.8514925E-01
        1   -1    0    0  501    0  0.00000000000E+00  0.00000000000E+00  0.11415288526E+04  0.11415288526E+04  0.50400001928E-02 0. -1.
       -1   -1    0    0    0  501  0.00000000000E+00  0.00000000000E+00 -0.10681258371E+04  0.10681258371E+04  0.50400001928E-02 0.  1.
    10030    2    1    2    0    0  0.00000000000E+00  0.00000000000E+00  0.73403015543E+02  0.22096546897E+04  0.22084351575E+04 0.  0.
        3    1    3    3  502    0 -0.51739547404E+03  0.83626521253E+03 -0.46582963382E+03  0.10881336500E+04  0.10100000352E+00 0.  1.
       -3    1    3    3    0  502  0.51739547404E+03 -0.83626521253E+03  0.53923264937E+03  0.11215210397E+04  0.10100000352E+00 0. -1.
</event>
<event>
 5   0  0.2298329E-05  0.2217513E+04  0.7818609E-02  0.8511174E-01
        2   -1    0    0  501    0  0.00000000000E+00  0.00000000000E+00  0.23402064379E+04  0.23402064379E+04  0.25500000920E-02 0. -1.
       -2   -1    0    0    0  501  0.00000000000E+00  0.00000000000E+00 -0.52531298798E+03  0.52531298798E+03  0.25500000920E-02 0.  1.
    10030    2    1    2    0    0  0.00000000000E+00  0.00000000000E+00  0.18148934499E+04  0.28655194258E+04  0.22175128738E+04 0.  0.
        4    1    3    3  502    0 -0.12797734691E+03 -0.22204409226E+03  0.23014050279E+04  0.23156313384E+04  0.12699999809E+01 0. -1.
       -4    1    3    3    0  502  0.12797734691E+03  0.22204409226E+03 -0.48651157801E+03  0.54988808741E+03  0.12699999809E+01 0.  1.
</event>
<event>
 5   0  0.8003875E-06  0.2075931E+04  0.7818609E-02  0.8571921E-01
        4   -1    0    0  501    0  0.00000000000E+00  0.00000000000E+00  0.96576827250E+03  0.96576910753E+03  0.12699999809E+01 0.  1.
       -4   -1    0    0    0  501  0.00000000000E+00  0.00000000000E+00 -0.11155585560E+04  0.11155592790E+04  0.12699999809E+01 0. -1.
    10030    2    1    2    0    0  0.00000000000E+00  0.00000000000E+00 -0.14979028354E+03  0.20813283865E+04  0.20759312906E+04 0.  0.
        4    1    3    3  502    0 -0.59405905739E+03 -0.69352639444E+03  0.41983078369E+03  0.10050594626E+04  0.12699999809E+01 0.  1.
       -4    1    3    3    0  502  0.59405905739E+03  0.69352639444E+03 -0.56962106724E+03  0.10762689239E+04  0.12699999809E+01 0. -1.
</event>
<event>
 5   0  0.1007682E-05  0.2217692E+04  0.7818609E-02  0.8511100E-01
        1   -1    0    0  501    0  0.00000000000E+00  0.00000000000E+00  0.16708964682E+04  0.16708964682E+04  0.50400001928E-02 0. -1.
       -1   -1    0    0    0  501  0.00000000000E+00  0.00000000000E+00 -0.73585620544E+03  0.73585620545E+03  0.50400001928E-02 0.  1.
    10030    2    1    2    0    0  0.00000000000E+00  0.00000000000E+00  0.93504026277E+03  0.24067526737E+04  0.22176920749E+04 0.  0.
        2    1    3    3  502    0 -0.97748527328E+03 -0.63585100716E+02  0.10314529753E+04  0.14224681946E+04  0.25500000920E-02 0. -1.
       -2    1    3    3    0  502  0.97748527328E+03  0.63585100716E+02 -0.96412712518E+02  0.98428447903E+03  0.25500000920E-02 0.  1.
</event>
<event>
 5   0  0.1071208E-05  0.2201581E+04  0.7818609E-02  0.8517770E-01
       -1   -1    0    0    0  501  0.00000000000E+00  0.00000000000E+00  0.20297364311E+04  0.20297364311E+04  0.50400001928E-02 0. -1.
        1   -1    0    0  501    0  0.00000000000E+00  0.00000000000E+00 -0.59699358394E+03  0.59699358396E+03  0.50400001928E-02 0.  1.
    10030    2    1    2    0    0  0.00000000000E+00  0.00000000000E+00  0.14327428472E+04  0.26267300151E+04  0.22015809106E+04 0.  0.
        4    1    3    3  502    0  0.15131069026E+03  0.19263222121E+03 -0.56406270385E+03  0.61495564426E+03  0.12699999809E+01 0.  1.
       -4    1    3    3    0  502 -0.15131069026E+03 -0.19263222121E+03  0.19968055510E+04  0.20117743708E+04  0.12699999809E+01 0. -1.
</event>
<event>
 5   0  0.1005538E-05  0.2208405E+04  0.7818609E-02  0.8514938E-01
       -1   -1    0    0    0  501  0.00000000000E+00  0.00000000000E+00  0.49903150341E+03  0.49903150344E+03  0.50400001928E-02 0.  1.
        1   -1    0    0  501    0  0.00000000000E+00  0.00000000000E+00 -0.24432586671E+04  0.24432586672E+04  0.50400001928E-02 0. -1.
    10030    2    1    2    0    0  0.00000000000E+00  0.00000000000E+00 -0.19442271637E+04  0.29422901706E+04  0.22084048958E+04 0.  0.
        3    1    3    3  502    0  0.48959300266E+03  0.97834108938E+03 -0.77266452155E+03  0.13393517344E+04  0.10100000352E+00 0.  1.
       -3    1    3    3    0  502 -0.48959300266E+03 -0.97834108938E+03 -0.11715626422E+04  0.16029384362E+04  0.10100000352E+00 0. -1.
</event>
<event>
 5   0  0.1033733E-05  0.2200404E+04  0.7818609E-02  0.8518260E-01
        1   -1    0    0  501    0  0.00000000000E+00  0.00000000000E+00  0.14050034741E+04  0.14050034742E+04  0.50400001928E-02 0.  1.
       -1   -1    0    0    0  501  0.00000000000E+00  0.00000000000E+00 -0.86152435500E+03  0.86152435501E+03  0.50400001928E-02 0. -1.
    10030    2    1    2    0    0  0.00000000000E+00  0.00000000000E+00  0.54347911915E+03  0.22665278292E+04  0.22004042464E+04 0.  0.
        5    1    3    3  502    0  0.95414586301E+02  0.54140457272E+03  0.12533728415E+04  0.13686447401E+04  0.46999998093E+01 0.  1.
       -5    1    3    3    0  502 -0.95414586301E+02 -0.54140457272E+03 -0.70989372237E+03  0.89788308910E+03  0.46999998093E+01 0. -1.
</event>
<event>
 5   0  0.2229552E-05  0.2202553E+04  0.7818609E-02  0.8517366E-01
       -2   -1    0    0    0  501  0.00000000000E+00  0.00000000000E+00  0.51499508849E+03  0.51499508850E+03  0.25500000920E-02 0. -1.
        2   -1    0    0  501    0  0.00000000000E+00  0.00000000000E+00 -0.23549939150E+04  0.23549939150E+04  0.25500000920E-02 0.  1.
    10030    2    1    2    0    0  0.00000000000E+00  0.00000000000E+00 -0.18399988265E+04  0.28699890035E+04  0.22025533362E+04 0.  0.
        1    1    3    3  502    0 -0.87532076419E+02  0.10374074029E+04 -0.13878832672E+04  0.17349628087E+04  0.50400001928E-02 0. -1.
       -1    1    3    3    0  502  0.87532076419E+02 -0.10374074029E+04 -0.45211555935E+03  0.11350261949E+04  0.50400001928E-02 0.  1.
</event>
<event>
 5   0  0.1049198E-05  0.2199606E+04  0.7818609E-02  0.8518592E-01
        1   -1    0    0  501    0  0.00000000000E+00  0.00000000000E+00  0.85255998984E+03  0.85255998985E+03  0.50400001928E-02 0.  1.
       -1   -1    0    0    0  501  0.00000000000E+00  0.00000000000E+00 -0.14187472654E+04  0.14187472654E+04  0.50400001928E-02 0. -1.
    10030    2    1    2    0    0  0.00000000000E+00  0.00000000000E+00 -0.56618727558E+03  0.22713072553E+04  0.21996064686E+04 0.  0.
        1    1    3    3  502    0  0.69197037868E+03 -0.72468376117E+03  0.18509275900E+03  0.10189449878E+04  0.50400001928E-02 0. -1.
       -1    1    3    3    0  502 -0.69197037868E+03  0.72468376117E+03 -0.75128003458E+03  0.12523622675E+04  0.50400001928E-02 0.  1.
</event>
<event>
 5   0  0.2229552E-05  0.2204119E+04  0.7818609E-02  0.8516716E-01
        2   -1    0    0  501    0  0.00000000000E+00  0.00000000000E+00  0.13466934100E+04  0.13466934100E+04  0.25500000920E-02 0.  1.
       -2   -1    0    0    0  501  0.00000000000E+00  0.00000000000E+00 -0.90186477569E+03  0.90186477569E+03  0.25500000920E-02 0. -1.
    10030    2    1    2    0    0  0.00000000000E+00  0.00000000000E+00  0.44482863427E+03  0.22485581857E+04  0.22041191892E+04 0.  0.
        1    1    3    3  502    0  0.35307937320E+03 -0.10172049490E+04  0.46202076247E+03  0.11716800489E+04  0.50400001928E-02 0.  1.
       -1    1    3    3    0  502 -0.35307937320E+03  0.10172049490E+04 -0.17192128205E+02  0.10768781367E+04  0.50400001928E-02 0. -1.
</event>
<event>
 5   0  0.1005538E-05  0.2200083E+04  0.7818609E-02  0.8518394E-01
       -1   -1    0    0    0  501  0.00000000000E+00  0.00000000000E+00  0.12688365653E+04  0.12688365653E+04  0.50400001928E-02 0.  1.
        1   -1    0    0  501    0  0.00000000000E+00  0.00000000000E+00 -0.95370106117E+03  0.95370106119E+03  0.50400001928E-02 0. -1.
    10030    2    1    2    0    0  0.00000000000E+00  0.00000000000E+00  0.31513550410E+03  0.22225376265E+04  0.22000825246E+04 0.  0.
        3    1    3    3  502    0  0.28361161653E+03 -0.46855308816E+02 -0.91508878435E+03  0.95917592882E+03  0.10100000352E+00 0. -1.
       -3    1    3    3    0  502 -0.28361161653E+03  0.46855308816E+02  0.12302242884E+04  0.12633616976E+04  0.10100000352E+00 0.  1.
</event>
<event>
 5   0  0.1007682E-05  0.2190644E+04  0.7818609E-02  0.8522332E-01
       -1   -1    0    0    0  501  0.00000000000E+00  0.00000000000E+00  0.12129397531E+04  0.12129397531E+04  0.50400001928E-02 0.  1.
        1   -1    0    0  501    0  0.00000000000E+00  0.00000000000E+00 -0.98910951111E+03  0.98910951112E+03  0.50400001928E-02 0. -1.
    10030    2    1    2    0    0  0.00000000000E+00  0.00000000000E+00  0.22383024194E+03  0.22020492642E+04  0.21906439658E+04 0.  0.
        2    1    3    3  502    0 -0.47911132902E+03  0.22957094579E+03 -0.85092344558E+03  0.10031556185E+04  0.25500000920E-02 0. -1.
       -2    1    3    3    0  502  0.47911132902E+03 -0.22957094579E+03  0.10747536875E+04  0.11988936457E+04  0.25500000920E-02 0.  1.
</event>
<event>
 5   0  0.1033733E-05  0.2209837E+04  0.7818609E-02  0.8514345E-01
       -1   -1    0    0    0  501  0.00000000000E+00  0.00000000000E+00  0.69412546047E+03  0.69412546049E+03  0.50400001928E-02 0.  1.
        1   -1    0    0  501    0  0.00000000000E+00  0.00000000000E+00 -0.17588245779E+04  0.17588245779E+04  0.50400001928E-02 0. -1.
    10030    2    1    2    0    0  0.00000000000E+00  0.00000000000E+00 -0.10646991174E+04  0.24529500384E+04  0.22098370257E+04 0.  0.
        5    1    3    3  502    0 -0.17619519361E+03 -0.43705631273E+03 -0.16416750616E+04  0.17079760141E+04  0.46999998093E+01 0. -1.
       -5    1    3    3    0  502  0.17619519361E+03  0.43705631273E+03  0.57697594418E+03  0.74497402432E+03  0.46999998093E+01 0.  1.
</event>
<event>
 5   0  0.2289708E-05  0.2212212E+04  0.7818609E-02  0.8513362E-01
       -2   -1    0    0    0  501  0.00000000000E+00  0.00000000000E+00  0.90695034030E+03  0.90695034031E+03  0.25500000920E-02 0. -1.
        2   -1    0    0  501    0  0.00000000000E+00  0.00000000000E+00 -0.13489935442E+04  0.13489935442E+04  0.25500000920E-02 0.  1.
    10030    2    1    2    0    0  0.00000000000E+00  0.00000000000E+00 -0.44204320389E+03  0.22559438845E+04  0.22122117023E+04 0.  0.
        5    1    3    3  502    0  0.44718863479E+03 -0.98747488536E+03 -0.44528662475E+03  0.11719157787E+04  0.46999998093E+01 0.  1.
       -5    1    3    3    0  502 -0.44718863479E+03  0.98747488536E+03  0.32434208554E+01  0.10840281058E+04  0.46999998093E+01 0. -1.
</event>
<event>
 5   0  0.2289708E-05  0.2173297E+04  0.7818609E-02  0.8529625E-01
        2   -1    0    0  501    0  0.00000000000E+00  0.00000000000E+00  0.23028871081E+04  0.23028871081E+04  0.25500000920E-02 0. -1.
       -2   -1    0    0    0  501  0.00000000000E+00  0.00000000000E+00 -0.51274984996E+03  0.51274984997E+03  0.25500000920E-02 0.  1.
    10030    2    1    2    0    0  0.00000000000E+00  0.00000000000E+00  0.17901372582E+04  0.28156369581E+04  0.21732970521E+04 0.  0.
        5    1    3    3  502    0 -0.71375425688E+03 -0.53543566917E+03  0.16985733292E+04  0.19186740056E+04  0.46999998093E+01 0. -1.
       -5    1    3    3    0  502  0.71375425688E+03  0.53543566917E+03  0.91563928931E+02  0.89696295248E+03  0.46999998093E+01 0.  1.
</event>
<event>
 5   0  0.2289708E-05  0.2262096E+04  0.7818609E-02  0.8493018E-01
       -2   -1    0    0    0  501  0.00000000000E+00  0.00000000000E+00  0.10905418954E+04  0.10905418954E+04  0.25500000920E-02 0.  1.
        2   -1    0    0  501    0  0.00000000000E+00  0.00000000000E+00 -0.11730582493E+04  0.11730582493E+04  0.25500000920E-02 0. -1.
    10030    2    1    2    0    0  0.00000000000E+00  0.00000000000E+00 -0.82516353856E+02  0.22636001447E+04  0.22620956360E+04 0.  0.
        5    1    3    3  502    0  0.23664870132E+03  0.43425350828E+03  0.97660484073E+03  0.10946953102E+04  0.46999998093E+01 0.  1.
       -5    1    3    3    0  502 -0.23664870132E+03 -0.43425350828E+03 -0.10591211946E+04  0.11689048345E+04  0.46999998093E+01 0. -1.
</event>
<event>
 5   0  0.1071208E-05  0.2105723E+04  0.7818609E-02  0.8558726E-01
       -1   -1    0    0    0  501  0.00000000000E+00  0.00000000000E+00  0.90521509217E+03  0.90521509219E+03  0.50400001928E-02 0.  1.
        1   -1    0    0  501    0  0.00000000000E+00  0.00000000000E+00 -0.12245904384E+04  0.12245904384E+04  0.50400001928E-02 0. -1.
    10030    2    1    2    0    0  0.00000000000E+00  0.00000000000E+00 -0.31937534618E+03  0.21298055306E+04  0.21057233879E+04 0.  0.
        4    1    3    3  502    0  0.22979550875E+03  0.10241062126E+04 -0.75570303492E+02  0.10522889310E+04  0.12699999809E+01 0.  1.
       -4    1    3    3    0  502 -0.22979550875E+03 -0.10241062126E+04 -0.24380504269E+03  0.10775165996E+04  0.12699999809E+01 0. -1.
</event>
<event>
 5   0  0.2284329E-05  0.2200306E+04  0.7818609E-02  0.8518301E-01
       -2   -1    0    0    0  501  0.00000000000E+00  0.00000000000E+00  0.13363609832E+04  0.13363609832E+04  0.25500000920E-02 0. -1.
        2   -1    0    0  501    0  0.00000000000E+00  0.00000000000E+00 -0.90569570963E+03  0.90569570963E+03  0.25500000920E-02 0.  1.
    10030    2    1    2    0    0  0.00000000000E+00  0.00000000000E+00  0.43066527358E+03  0.22420566928E+04  0.22003058051E+04 0.  0.
        2    1    3    3  502    0  0.17555354123E+03 -0.56493037983E+03 -0.72982975909E+03  0.93947690613E+03  0.25500000920E-02 0.  1.
       -2    1    3    3    0  502 -0.17555354123E+03  0.56493037983E+03  0.11604950327E+04  0.13025797867E+04  0.25500000920E-02 0. -1.
</event>
<event>
 5   0  0.2319707E-05  0.2204723E+04  0.7818609E-02  0.8516465E-01
        2   -1    0    0  501    0  0.00000000000E+00  0.00000000000E+00  0.13801254951E+04  0.13801254951E+04  0.25500000920E-02 0.  1.
       -2   -1    0    0    0  501  0.00000000000E+00  0.00000000000E+00 -0.88050048839E+03  0.88050048840E+03  0.25500000920E-02 0. -1.
    10030    2    1    2    0    0  0.00000000000E+00  0.00000000000E+00  0.49962500669E+03  0.22606259835E+04  0.22047232683E+04 0.  0.
        3    1    3    3  502    0  0.30922592514E+03 -0.98479381710E+03  0.64661546469E+03  0.12180111265E+04  0.10100000352E+00 0.  1.
       -3    1    3    3    0  502 -0.30922592514E+03  0.98479381710E+03 -0.14699045800E+03  0.10426148569E+04  0.10100000352E+00 0. -1.
</event>
<event>
 5   0  0.1005538E-05  0.2203234E+04  0.7818609E-02  0.8517083E-01
        1   -1    0    0  501    0  0.00000000000E+00  0.00000000000E+00  0.16844589664E+04  0.16844589664E+04  0.50400001928E-02 0.  1.
       -1   -1    0    0    0  501  0.00000000000E+00  0.00000000000E+00 -0.72044523296E+03  0.72044523298E+03  0.50400001928E-02 0. -1.
    10030    2    1    2    0    0  0.00000000000E+00  0.00000000000E+00  0.96401373339E+03  0.24049041993E+04  0.22032343792E+04 0.  0.
        3    1    3    3  502    0  0.27815996235E+03  0.23162096909E+03  0.16176944921E+04  0.16576962079E+04  0.10100000352E+00 0.  1.
       -3    1    3    3    0  502 -0.27815996235E+03 -0.23162096909E+03 -0.65368075867E+03  0.74720799141E+03  0.10100000352E+00 0. -1.
</event>
<event>
 5   0  0.2319707E-05  0.2198687E+04  0.7818609E-02  0.8518975E-01
        2   -1    0    0  501    0  0.00000000000E+00  0.00000000000E+00  0.17564956028E+04  0.17564956028E+04  0.25500000920E-02 0. -1.
       -2   -1    0    0    0  501  0.00000000000E+00  0.00000000000E+00 -0.68804979382E+03  0.68804979382E+03  0.25500000920E-02 0.  1.
    10030    2    1    2    0    0  0.00000000000E+00  0.00000000000E+00  0.10684458089E+04  0.24445453966E+04  0.21986872787E+04 0.  0.
        3    1    3    3  502    0  0.61801588550E+03 -0.48561265036E+03  0.13888022013E+04  0.15957865915E+04  0.10100000352E+00 0. -1.
       -3    1    3    3    0  502 -0.61801588550E+03  0.48561265036E+03 -0.32035639238E+03  0.84875880511E+03  0.10100000352E+00 0.  1.
</event>
<event>
 5   0  0.1071208E-05  0.2195449E+04  0.7818609E-02  0.8520325E-01
        1   -1    0    0  501    0  0.00000000000E+00  0.00000000000E+00  0.13697774559E+04  0.13697774559E+04  0.50400001928E-02 0. -1.
       -1   -1    0    0    0  501  0.00000000000E+00  0.00000000000E+00 -0.87970461248E+03  0.87970461249E+03  0.50400001928E-02 0.  1.
    10030    2    1    2    0    0  0.00000000000E+00  0.00000000000E+00  0.49007284345E+03  0.22494820684E+04  0.21954494265E+04 0.  0.
        4    1    3    3  502    0 -0.27909976384E+03  0.71692022228E+03  0.10473316237E+04  0.12995293094E+04  0.12699999809E+01 0. -1.
       -4    1    3    3    0  502  0.27909976384E+03 -0.71692022228E+03 -0.55725878021E+03  0.94995275899E+03  0.12699999809E+01 0.  1.
</event>
<event>
 5   0  0.2289708E-05  0.2203347E+04  0.7818609E-02  0.8517036E-01
       -2   -1    0    0    0  501  0.00000000000E+00  0.00000000000E+00  0.12911012500E+04  0.12911012500E+04  0.25500000920E-02 0.  1.
        2   -1    0    0  501    0  0.00000000000E+00  0.00000000000E+00 -0.94003830072E+03  0.94003830072E+03  0.25500000920E-02 0. -1.
    10030    2    1    2    0    0  0.00000000000E+00  0.00000000000E+00  0.35106294926E+03  0.22311395507E+04  0.22033471130E+04 0.  0.
        5    1    3    3  502    0 -0.83554733509E+03 -0.66723435695E+03  0.44405842115E+03  0.11578216649E+04  0.46999998093E+01 0. -1.
       -5    1    3    3    0  502  0.83554733509E+03  0.66723435695E+03 -0.92995471882E+02  0.10733178858E+04  0.46999998093E+01 0.  1.
</event>
<event>
 5   0  0.1005538E-05  0.2211548E+04  0.7818609E-02  0.8513637E-01
       -1   -1    0    0    0  501  0.00000000000E+00  0.00000000000E+00  0.93388097821E+03  0.93388097823E+03  0.50400001928E-02 0. -1.
        1   -1    0    0  501    0  0.00000000000E+00  0.00000000000E+00 -0.13093063074E+04  0.13093063074E+04  0.50400001928E-02 0.  1.
    10030    2    1    2    0    0  0.00000000000E+00  0.00000000000E+00 -0.37542532917E+03  0.22431872856E+04  0.22115481050E+04 0.  0.
        3    1    3    3  502    0  0.10573608531E+04 -0.29563635527E+03 -0.32121409568E+03  0.11439367699E+04  0.10100000352E+00 0. -1.
       -3    1    3    3    0  502 -0.10573608531E+04  0.29563635527E+03 -0.54211233494E+02  0.10992505157E+04  0.10100000352E+00 0.  1.
</event>
<event>
 5   0  0.2284329E-05  0.2195989E+04  0.7818609E-02  0.8520100E-01
       -2   -1    0    0    0  501  0.00000000000E+00  0.00000000000E+00  0.14017503992E+04  0.14017503992E+04  0.25500000920E-02 0. -1.
        2   -1    0    0  501    0  0.00000000000E+00  0.00000000000E+00 -0.86006160347E+03  0.86006160347E+03  0.25500000920E-02 0.  1.
    10030    2    1    2    0    0  0.00000000000E+00  0.00000000000E+00  0.54168879572E+03  0.22618120027E+04  0.21959887941E+04 0.  0.
        2    1    3    3  502    0 -0.41008067615E+03 -0.14128077239E+03 -0.76808535449E+03  0.88208929786E+03  0.25500000920E-02 0.  1.
       -2    1    3    3    0  502  0.41008067615E+03  0.14128077239E+03  0.13097741502E+04  0.13797227048E+04  0.25500000920E-02 0. -1.
</event>
<event>
 5   0  0.1033733E-05  0.2208415E+04  0.7818609E-02  0.8514934E-01
       -1   -1    0    0    0  501  0.00000000000E+00  0.00000000000E+00  0.12869031252E+04  0.12869031253E+04  0.50400001928E-02 0. -1.
        1   -1    0    0  501    0  0.00000000000E+00  0.00000000000E+00 -0.94744855297E+03  0.94744855299E+03  0.50400001928E-02 0.  1.
    10030    2    1    2    0    0  0.00000000000E+00  0.00000000000E+00  0.33945457227E+03  0.22343516782E+04  0.22084152724E+04 0.  0.
        5    1    3    3  502    0  0.91526049866E+03  0.19588132732E+02  0.79436528530E+03  0.12120741610E+04  0.46999998093E+01 0.  1.
       -5    1    3    3    0  502 -0.91526049866E+03 -0.19588132732E+02 -0.45491071303E+03  0.10222775172E+04  0.46999998093E+01 0. -1.
</event>
<event>
 5   0  0.1007682E-05  0.2200139E+04  0.7818609E-02  0.8518370E-01
        1   -1    0    0  501    0  0.00000000000E+00  0.00000000000E+00  0.87735841619E+03  0.87735841620E+03  0.50400001928E-02 0. -1.
       -1   -1    0    0    0  501  0.00000000000E+00  0.00000000000E+00 -0.13793139178E+04  0.13793139178E+04  0.50400001928E-02 0.  1.
    10030    2    1    2    0    0  0.00000000000E+00  0.00000000000E+00 -0.50195550158E+03  0.22566723340E+04  0.22001387905E+04 0.  0.
        2    1    3    3  502    0  0.40771916177E+03  0.83023879245E+03 -0.86178029806E+03  0.12641980262E+04  0.25500000920E-02 0.  1.
       -2    1    3    3    0  502 -0.40771916177E+03 -0.83023879245E+03  0.35982479649E+03  0.99247430775E+03  0.25500000920E-02 0. -1.
</event>
<event>
 5   0  0.1033733E-05  0.2224672E+04  0.7818609E-02  0.8508229E-01
        1   -1    0    0  501    0  0.00000000000E+00  0.00000000000E+00  0.17021116832E+04  0.17021116832E+04  0.50400001928E-02 0. -1.
       -1   -1    0    0    0  501  0.00000000000E+00  0.00000000000E+00 -0.72691579591E+03  0.72691579593E+03  0.50400001928E-02 0.  1.
    10030    2    1    2    0    0  0.00000000000E+00  0.00000000000E+00  0.97519588726E+03  0.24290274791E+04  0.22246724424E+04 0.  0.
        5    1    3    3  502    0 -0.47984315407E+03  0.57324853495E+03  0.13869119035E+04  0.15755665817E+04  0.46999998093E+01 0. -1.
       -5    1    3    3    0  502  0.47984315407E+03 -0.57324853495E+03 -0.41171601626E+03  0.85346089739E+03  0.46999998093E+01 0.  1.
</event>
<event>
 5   0  0.2289708E-05  0.2203038E+04  0.7818609E-02  0.8517165E-01
       -2   -1    0    0    0  501  0.00000000000E+00  0.00000000000E+00  0.48398312743E+03  0.48398312744E+03  0.25500000920E-02 0. -1.
        2   -1    0    0  501    0  0.00000000000E+00  0.00000000000E+00 -0.25069974294E+04  0.25069974294E+04  0.25500000920E-02 0.  1.
    10030    2    1    2    0    0  0.00000000000E+00  0.00000000000E+00 -0.20230143019E+04  0.29909805568E+04  0.22030383168E+04 0.  0.
        5    1    3    3  502    0  0.35693996403E+01  0.10888385087E+04 -0.12376315015E+04  0.16484343670E+04  0.46999998093E+01 0. -1.
       -5    1    3    3    0  502 -0.35693996403E+01 -0.10888385087E+04 -0.78538280042E+03  0.13425461898E+04  0.46999998093E+01 0.  1.
</event>
<event>
 5   0  0.1033733E-05  0.2199004E+04  0.7818609E-02  0.8518843E-01
       -1   -1    0    0    0  501  0.00000000000E+00  0.00000000000E+00  0.70182936516E+03  0.70182936518E+03  0.50400001928E-02 0.  1.
        1   -1    0    0  501    0  0.00000000000E+00  0.00000000000E+00 -0.17225050398E+04  0.17225050398E+04  0.50400001928E-02 0. -1.
    10030    2    1    2    0    0  0.00000000000E+00  0.00000000000E+00 -0.10206756747E+04  0.24243344050E+04  0.21990039733E+04 0.  0.
        5    1    3    3  502    0  0.84647657846E+03 -0.47788432417E+03 -0.10767823482E+04  0.14506475591E+04  0.46999998093E+01 0. -1.
       -5    1    3    3    0  502 -0.84647657846E+03  0.47788432417E+03  0.56106673555E+02  0.97368684595E+03  0.46999998093E+01 0.  1.
</event>
<event>
 5   0  0.2229552E-05  0.2208757E+04  0.7818609E-02  0.8514792E-01
       -2   -1    0    0    0  501  0.00000000000E+00  0.00000000000E+00  0.11775255624E+04  0.11775255624E+04  0.25500000920E-02 0.  1.
        2   -1    0    0  501    0  0.00000000000E+00  0.00000000000E+00 -0.10357755105E+04  0.10357755105E+04  0.25500000920E-02 0. -1.
    10030    2    1    2    0    0  0.00000000000E+00  0.00000000000E+00  0.14175005185E+03  0.22133010729E+04  0.22087572438E+04 0.  0.
        1    1    3    3  502    0 -0.64255843714E+03  0.13937101362E+03 -0.81827585428E+03  0.10497051959E+04  0.50400001928E-02 0. -1.
       -1    1    3    3    0  502  0.64255843714E+03 -0.13937101362E+03  0.96002590613E+03  0.11635958770E+04  0.50400001928E-02 0.  1.
</event>
<event>
 5   0  0.2289708E-05  0.2209130E+04  0.7818609E-02  0.8514638E-01
        2   -1    0    0  501    0  0.00000000000E+00  0.00000000000E+00  0.22682668273E+04  0.22682668273E+04  0.25500000920E-02 0. -1.
       -2   -1    0    0    0  501  0.00000000000E+00  0.00000000000E+00 -0.53788374249E+03  0.53788374249E+03  0.25500000920E-02 0.  1.
    10030    2    1    2    0    0  0.00000000000E+00  0.00000000000E+00  0.17303830848E+04  0.28061505698E+04  0.22091300098E+04 0.  0.
        5    1    3    3  502    0  0.10666559820E+04 -0.49467914787E+02  0.12241127721E+04  0.16244002670E+04  0.46999998093E+01 0. -1.
       -5    1    3    3    0  502 -0.10666559820E+04  0.49467914787E+02  0.50627031270E+03  0.11817503028E+04  0.46999998093E+01 0.  1.
</event>
<event>
 5   0  0.2289708E-05  0.2207545E+04  0.7818609E-02  0.8515294E-01
       -2   -1    0    0    0  501  0.00000000000E+00  0.00000000000E+00  0.69344114586E+03  0.69344114587E+03  0.25500000920E-02 0. -1.
        2   -1    0    0  501    0  0.00000000000E+00  0.00000000000E+00 -0.17569100980E+04  0.17569100980E+04  0.25500000920E-02 0.  1.
    10030    2    1    2    0    0  0.00000000000E+00  0.00000000000E+00 -0.10634689521E+04  0.24503512439E+04  0.22075450179E+04 0.  0.
        5    1    3    3  502    0 -0.55710661483E+03 -0.16552900133E+03  0.50983772472E+03  0.77312626790E+03  0.46999998093E+01 0. -1.
       -5    1    3    3    0  502  0.55710661483E+03  0.16552900133E+03 -0.15733066769E+04  0.16772249760E+04  0.46999998093E+01 0.  1.
</event>
<event>
 5   0  0.1033733E-05  0.2163675E+04  0.7818609E-02  0.8533701E-01
        1   -1    0    0  501    0  0.00000000000E+00  0.00000000000E+00  0.12498675562E+04  0.12498675562E+04  0.50400001928E-02 0.  1.
       -1   -1    0    0    0  501  0.00000000000E+00  0.00000000000E+00 -0.93639750375E+03  0.93639750376E+03  0.50400001928E-02 0. -1.
    10030    2    1    2    0    0  0.00000000000E+00  0.00000000000E+00  0.31347005245E+03  0.21862650600E+04  0.21636754467E+04 0.  0.
        5    1    3    3  502    0  0.10729336002E+04  0.47925699863E+02  0.28796546942E+03  0.11119485531E+04  0.46999998093E+01 0.  1.
       -5    1    3    3    0  502 -0.10729336002E+04 -0.47925699863E+02  0.25504583027E+02  0.10743165069E+04  0.46999998093E+01 0. -1.
</event>
<event>
 5   0  0.1033733E-05  0.2203823E+04  0.7818609E-02  0.8516839E-01
        1   -1    0    0  501    0  0.00000000000E+00  0.00000000000E+00  0.11079616914E+04  0.11079616914E+04  0.50400001928E-02 0. -1.
       -1   -1    0    0    0  501  0.00000000000E+00  0.00000000000E+00 -0.10958940138E+04  0.10958940138E+04  0.50400001928E-02 0.  1.
    10030    2    1    2    0    0  0.00000000000E+00  0.00000000000E+00  0.12067677669E+02  0.22038557052E+04  0.22038226654E+04 0.  0.
        5    1    3    3  502    0 -0.35337946554E+03 -0.26595699079E+03 -0.10032267166E+04  0.10964014331E+04  0.46999998093E+01 0.  1.
       -5    1    3    3    0  502  0.35337946554E+03  0.26595699079E+03  0.10152943943E+04  0.11074542721E+04  0.46999998093E+01 0. -1.
</event>
<event>
 5   0  0.2289708E-05  0.2203368E+04  0.7818609E-02  0.8517028E-01
        2   -1    0    0  501    0  0.00000000000E+00  0.00000000000E+00  0.26208221062E+04  0.26208221062E+04  0.25500000920E-02 0. -1.
       -2   -1    0    0    0  501  0.00000000000E+00  0.00000000000E+00 -0.46310172721E+03  0.46310172722E+03  0.25500000920E-02 0.  1.
    10030    2    1    2    0    0  0.00000000000E+00  0.00000000000E+00  0.21577203790E+04  0.30839238334E+04  0.22033676444E+04 0.  0.
        5    1    3    3  502    0 -0.53749643935E+03  0.24809133453E+03 -0.22155130268E+03  0.63210663840E+03  0.46999998093E+01 0.  1.
       -5    1    3    3    0  502  0.53749643935E+03 -0.24809133453E+03  0.23792716816E+04  0.24518171950E+04  0.46999998093E+01 0. -1.
</event>
<event>
 5   0  0.1071208E-05  0.2191137E+04  0.7818609E-02  0.8522126E-01
        1   -1    0    0  501    0  0.00000000000E+00  0.00000000000E+00  0.12709749123E+04  0.12709749123E+04  0.50400001928E-02 0.  1.
       -1   -1    0    0    0  501  0.00000000000E+00  0.00000000000E+00 -0.94436972111E+03  0.94436972112E+03  0.50400001928E-02 0. -1.
    10030    2    1    2    0    0  0.00000000000E+00  0.00000000000E+00  0.32660519117E+03  0.22153446334E+04  0.21911368953E+04 0.  0.
        4    1    3    3  502    0 -0.58847141815E+03  0.76208604292E+03  0.69175764357E+03  0.11855817125E+04  0.12699999809E+01 0.  1.
       -4    1    3    3    0  502  0.58847141815E+03 -0.76208604292E+03 -0.36515245239E+03  0.10297629209E+04  0.12699999809E+01 0. -1.
</event>
<event>
 5   0  0.2229552E-05  0.2202761E+04  0.7818609E-02  0.8517280E-01
        2   -1    0    0  501    0  0.00000000000E+00  0.00000000000E+00  0.16979391859E+04  0.16979391859E+04  0.25500000920E-02 0. -1.
       -2   -1    0    0    0  501  0.00000000000E+00  0.00000000000E+00 -0.71441861394E+03  0.71441861394E+03  0.25500000920E-02 0.  1.
    10030    2    1    2    0    0  0.00000000000E+00  0.00000000000E+00  0.98352057198E+03  0.24123577999E+04  0.22027613214E+04 0.  0.
        1    1    3    3  502    0 -0.70561664408E+03 -0.60673373571E+03  0.11368954444E+04  0.14692011183E+04  0.50400001928E-02 0. -1.
       -1    1    3    3    0  502  0.70561664408E+03  0.60673373571E+03 -0.15337487244E+03  0.94315668156E+03  0.50400001928E-02 0.  1.
</event>
<event>
 5   0  0.1033733E-05  0.2202684E+04  0.7818609E-02  0.8517312E-01
        1   -1    0    0  501    0  0.00000000000E+00  0.00000000000E+00  0.19136073110E+04  0.19136073110E+04  0.50400001928E-02 0. -1.
       -1   -1    0    0    0  501  0.00000000000E+00  0.00000000000E+00 -0.63385753183E+03  0.63385753185E+03  0.50400001928E-02 0.  1.
    10030    2    1    2    0    0  0.00000000000E+00  0.00000000000E+00  0.12797497792E+04  0.25474648429E+04  0.22026841871E+04 0.  0.
        5    1    3    3  502    0 -0.70384947445E+03  0.35775075128E+03 -0.24812635385E+03  0.82763425509E+03  0.46999998093E+01 0.  1.
       -5    1    3    3    0  502  0.70384947445E+03 -0.35775075128E+03  0.15278761330E+04  0.17198305878E+04  0.46999998093E+01 0. -1.
</event>
<event>
 5   0  0.1049198E-05  0.2202168E+04  0.7818609E-02  0.8517526E-01
        1   -1    0    0  501    0  0.00000000000E+00  0.00000000000E+00  0.13574966658E+04  0.13574966658E+04  0.50400001928E-02 0. -1.
       -1   -1    0    0    0  501  0.00000000000E+00  0.00000000000E+00 -0.89310409422E+03  0.89310409423E+03  0.50400001928E-02 0.  1.
    10030    2    1    2    0    0  0.00000000000E+00  0.00000000000E+00  0.46439257162E+03  0.22506007601E+04  0.22021678684E+04 0.  0.
        1    1    3    3  502    0 -0.48564828807E+03 -0.97255905616E+03  0.53243970732E+02  0.10883750722E+04  0.50400001928E-02 0.  1.
       -1    1    3    3    0  502  0.48564828807E+03  0.97255905616E+03  0.41114860089E+03  0.11622256878E+04  0.50400001928E-02 0. -1.
</event>
<event>
 5   0  0.1049198E-05  0.2200233E+04  0.7818609E-02  0.8518331E-01
       -1   -1    0    0    0  501  0.00000000000E+00  0.00000000000E+00  0.93825004534E+03  0.93825004536E+03  0.50400001928E-02 0.  1.
        1   -1    0    0  501    0  0.00000000000E+00  0.00000000000E+00 -0.12899080804E+04  0.12899080804E+04  0.50400001928E-02 0. -1.
    10030    2    1    2    0    0  0.00000000000E+00  0.00000000000E+00 -0.35165803508E+03  0.22281581258E+04  0.22002330013E+04 0.  0.
        1    1    3    3  502    0 -0.79184303984E+03  0.76154562512E+03 -0.11774978153E+03  0.11049127341E+04  0.50400001928E-02 0.  1.
       -1    1    3    3    0  502  0.79184303984E+03 -0.76154562512E+03 -0.23390825355E+03  0.11232453917E+04  0.50400001928E-02 0. -1.
</event>
<event>
 5   0  0.1071208E-05  0.2206735E+04  0.7818609E-02  0.8515630E-01
       -1   -1    0    0    0  501  0.00000000000E+00  0.00000000000E+00  0.11652516808E+04  0.11652516808E+04  0.50400001928E-02 0.  1.
        1   -1    0    0  501    0  0.00000000000E+00  0.00000000000E+00 -0.10447699265E+04  0.10447699265E+04  0.50400001928E-02 0. -1.
    10030    2    1    2    0    0  0.00000000000E+00  0.00000000000E+00  0.12048175429E+03  0.22100216073E+04  0.22067350660E+04 0.  0.
        4    1    3    3  502    0 -0.11946860915E+03  0.10218172833E+04 -0.33914496725E+03  0.10832378459E+04  0.12699999809E+01 0. -1.
       -4    1    3    3    0  502  0.11946860915E+03 -0.10218172833E+04  0.45962672154E+03  0.11267837614E+04  0.12699999809E+01 0.  1.
</event>
<event>
 5   0  0.2298329E-05  0.2193129E+04  0.7818609E-02  0.8521293E-01
       -2   -1    0    0    0  501  0.00000000000E+00  0.00000000000E+00  0.21543324246E+04  0.21543324246E+04  0.25500000920E-02 0.  1.
        2   -1    0    0  501    0  0.00000000000E+00  0.00000000000E+00 -0.55815621968E+03  0.55815621968E+03  0.25500000920E-02 0. -1.
    10030    2    1    2    0    0  0.00000000000E+00  0.00000000000E+00  0.15961762049E+04  0.27124886442E+04  0.21931293095E+04 0.  0.
        4    1    3    3  502    0 -0.39143003142E+03 -0.44583253024E+02  0.20637809124E+04  0.21010469779E+04  0.12699999809E+01 0.  1.
       -4    1    3    3    0  502  0.39143003142E+03  0.44583253024E+02 -0.46760470754E+03  0.61144166635E+03  0.12699999809E+01 0. -1.
</event>
<event>
 5   0  0.2229552E-05  0.2173381E+04  0.7818609E-02  0.8529590E-01
       -2   -1    0    0    0  501  0.00000000000E+00  0.00000000000E+00  0.86116860350E+03  0.86116860350E+03  0.25500000920E-02 0.  1.
        2   -1    0    0  501    0  0.00000000000E+00  0.00000000000E+00 -0.13712714994E+04  0.13712714994E+04  0.25500000920E-02 0. -1.
    10030    2    1    2    0    0  0.00000000000E+00  0.00000000000E+00 -0.51010289594E+03  0.22324401029E+04  0.21733807418E+04 0.  0.
        1    1    3    3  502    0 -0.31548387283E+03  0.34749541147E+03  0.75169056254E+03  0.88618386176E+03  0.50400001928E-02 0.  1.
       -1    1    3    3    0  502  0.31548387283E+03 -0.34749541147E+03 -0.12617934585E+04  0.13462562412E+04  0.50400001928E-02 0. -1.
</event>
<event>
 5   0  0.1071208E-05  0.2192602E+04  0.7818609E-02  0.8521514E-01
        1   -1    0    0  501    0  0.00000000000E+00  0.00000000000E+00  0.16686123769E+04  0.16686123769E+04  0.50400001928E-02 0. -1.
       -1   -1    0    0    0  501  0.00000000000E+00  0.00000000000E+00 -0.72028456641E+03  0.72028456643E+03  0.50400001928E-02 0.  1.
    10030    2    1    2    0    0  0.00000000000E+00  0.00000000000E+00  0.94832781051E+03  0.23888969434E+04  0.21926018722E+04 0.  0.
        4    1    3    3  502    0 -0.76790538673E+03  0.78203640106E+03  0.50117259537E+03  0.12051701950E+04  0.12699999809E+01 0. -1.
       -4    1    3    3    0  502  0.76790538673E+03 -0.78203640106E+03  0.44715521515E+03  0.11837267484E+04  0.12699999809E+01 0.  1.
</event>
<event>
 5   0  0.2289708E-05  0.2200352E+04  0.7818609E-02  0.8518282E-01
        2   -1    0    0  501    0  0.00000000000E+00  0.00000000000E+00  0.11201517762E+04  0.11201517762E+04  0.25500000920E-02 0.  1.
       -2   -1    0    0    0  501  0.00000000000E+00  0.00000000000E+00 -0.10805564613E+04  0.10805564613E+04  0.25500000920E-02 0. -1.
    10030    2    1    2    0    0  0.00000000000E+00  0.00000000000E+00  0.39595314909E+02  0.22007082374E+04  0.22003520076E+04 0.  0.
        5    1    3    3  502    0  0.63654077280E+03 -0.79944110937E+02 -0.87409752485E+03  0.10842710866E+04  0.46999998093E+01 0. -1.
       -5    1    3    3    0  502 -0.63654077280E+03  0.79944110937E+02  0.91369283976E+03  0.11164371508E+04  0.46999998093E+01 0.  1.
</event>
<event>
 5   0  0.2319707E-05  0.2228383E+04  0.7818609E-02  0.8506707E-01
        2   -1    0    0  501    0  0.00000000000E+00  0.00000000000E+00  0.16746443932E+04  0.16746443932E+04  0.25500000920E-02 0.  1.
       -2   -1    0    0    0  501  0.00000000000E+00  0.00000000000E+00 -0.74130507579E+03  0.74130507579E+03  0.25500000920E-02 0. -1.
    10030    2    1    2    0    0  0.00000000000E+00  0.00000000000E+00  0.93333931739E+03  0.24159494690E+04  0.22283827219E+04 0.  0.
        3    1    3    3  502    0 -0.45407731222E+03  0.19642223484E+03  0.15490262730E+04  0.16261150957E+04  0.10100000352E+00 0.  1.
       -3    1    3    3    0  502  0.45407731222E+03 -0.19642223484E+03 -0.61568695557E+03  0.78983437331E+03  0.10100000352E+00 0. -1.
</event>
<event>
 5   0  0.2298329E-05  0.2201416E+04  0.7818609E-02  0.8517839E-01
       -2   -1    0    0    0  501  0.00000000000E+00  0.00000000000E+00  0.80557933959E+03  0.80557933959E+03  0.25500000920E-02 0.  1.
        2   -1    0    0  501    0  0.00000000000E+00  0.00000000000E+00 -0.15039581411E+04  0.15039581411E+04  0.25500000920E-02 0. -1.
    10030    2    1    2    0    0  0.00000000000E+00  0.00000000000E+00 -0.69837880147E+03  0.23095374807E+04  0.22014155501E+04 0.  0.
        4    1    3    3  502    0  0.83668497400E+03  0.40332210414E+03 -0.96882957098E+03  0.13421411311E+04  0.12699999809E+01 0. -1.
       -4    1    3    3    0  502 -0.83668497400E+03 -0.40332210414E+03  0.27045076952E+03  0.96739634950E+03  0.12699999809E+01 0.  1.
</event>
<event>
 5   0  0.2284329E-05  0.2198558E+04  0.7818609E-02  0.8519028E-01
       -2   -1    0    0    0  501  0.00000000000E+00  0.00000000000E+00  0.12351428315E+04  0.12351428315E+04  0.25500000920E-02 0. -1.
        2   -1    0    0  501    0  0.00000000000E+00  0.00000000000E+00 -0.97836033363E+03  0.97836033363E+03  0.25500000920E-02 0.  1.
    10030    2    1    2    0    0  0.00000000000E+00  0.00000000000E+00  0.25678249787E+03  0.22135031651E+04  0.21985583938E+04 0.  0.
        2    1    3    3  502    0 -0.32151405142E+03 -0.69365642130E+03 -0.66684130222E+03  0.10144988114E+04  0.25500000920E-02 0.  1.
       -2    1    3    3    0  502  0.32151405142E+03  0.69365642130E+03  0.92362380008E+03  0.11990043537E+04  0.25500000920E-02 0. -1.
</event>
<event>
 5   0  0.2284329E-05  0.2206432E+04  0.7818609E-02  0.8515756E-01
       -2   -1    0    0    0  501  0.00000000000E+00  0.00000000000E+00  0.55085928332E+03  0.55085928332E+03  0.25500000920E-02 0. -1.
        2   -1    0    0  501    0  0.00000000000E+00  0.00000000000E+00 -0.22094302168E+04  0.22094302168E+04  0.25500000920E-02 0.  1.
    10030    2    1    2    0    0  0.00000000000E+00  0.00000000000E+00 -0.16585709335E+04  0.27602895001E+04  0.22064316403E+04 0.  0.
        2    1    3    3  502    0 -0.71653367500E+03 -0.21791833419E+03 -0.18426703145E+04  0.19890557548E+04  0.25500000920E-02 0.  1.
       -2    1    3    3    0  502  0.71653367500E+03  0.21791833419E+03  0.18409938104E+03  0.77123374530E+03  0.25500000920E-02 0. -1.
</event>
<event>
 5   0  0.2284329E-05  0.2194875E+04  0.7818609E-02  0.8520564E-01
        2   -1    0    0  501    0  0.00000000000E+00  0.00000000000E+00  0.24481551195E+04  0.24481551195E+04  0.25500000920E-02 0. -1.
       -2   -1    0    0    0  501  0.00000000000E+00  0.00000000000E+00 -0.49194960845E+03  0.49194960845E+03  0.25500000920E-02 0.  1.
    10030    2    1    2    0    0  0.00000000000E+00  0.00000000000E+00  0.19562055111E+04  0.29401047280E+04  0.21948748962E+04 0.  0.
        2    1    3    3  502    0  0.44561470009E+03 -0.99792104895E+03  0.84448439709E+03  0.13811490788E+04  0.25500000920E-02 0. -1.
       -2    1    3    3    0  502 -0.44561470009E+03  0.99792104895E+03  0.11117211140E+04  0.15589556492E+04  0.25500000920E-02 0.  1.
</event>
<event>
 5   0  0.2319707E-05  0.2179164E+04  0.7818609E-02  0.8527151E-01
        2   -1    0    0  501    0  0.00000000000E+00  0.00000000000E+00  0.98111315913E+03  0.98111315913E+03  0.25500000920E-02 0.  1.
       -2   -1    0    0    0  501  0.00000000000E+00  0.00000000000E+00 -0.12100427636E+04  0.12100427636E+04  0.25500000920E-02 0. -1.
    10030    2    1    2    0    0  0.00000000000E+00  0.00000000000E+00 -0.22892960445E+03  0.21911559227E+04  0.21791639484E+04 0.  0.
        3    1    3    3  502    0 -0.61269467185E+03 -0.87696920116E+03 -0.32228825936E+03  0.11172911317E+04  0.10100000352E+00 0. -1.
       -3    1    3    3    0  502  0.61269467185E+03  0.87696920116E+03  0.93358654904E+02  0.10738647910E+04  0.10100000352E+00 0.  1.
</event>
<event>
 5   0  0.2298329E-05  0.2195121E+04  0.7818609E-02  0.8520462E-01
        2   -1    0    0  501    0  0.00000000000E+00  0.00000000000E+00  0.15214491932E+04  0.15214491932E+04  0.25500000920E-02 0.  1.
       -2   -1    0    0    0  501  0.00000000000E+00  0.00000000000E+00 -0.79177056385E+03  0.79177056385E+03  0.25500000920E-02 0. -1.
    10030    2    1    2    0    0  0.00000000000E+00  0.00000000000E+00  0.72967862931E+03  0.23132197570E+04  0.21951206669E+04 0.  0.
        4    1    3    3  502    0 -0.32355236201E+03  0.79799726734E+03 -0.35232709391E+03  0.93038796405E+03  0.12699999809E+01 0. -1.
       -4    1    3    3    0  502  0.32355236201E+03 -0.79799726734E+03  0.10820057232E+04  0.13828317930E+04  0.12699999809E+01 0.  1.
</event>
<event>
 5   0  0.2229552E-05  0.2193435E+04  0.7818609E-02  0.8521166E-01
       -2   -1    0    0    0  501  0.00000000000E+00  0.00000000000E+00  0.77060217514E+03  0.77060217515E+03  0.25500000920E-02 0. -1.
        2   -1    0    0  501    0  0.00000000000E+00  0.00000000000E+00 -0.15608427024E+04  0.15608427024E+04  0.25500000920E-02 0.  1.
    10030    2    1    2    0    0  0.00000000000E+00  0.00000000000E+00 -0.79024052728E+03  0.23314448776E+04  0.21934345502E+04 0.  0.
        1    1    3    3  502    0 -0.33012928667E+01  0.10926796272E+04 -0.49499578694E+03  0.11995751311E+04  0.50400001928E-02 0.  1.
       -1    1    3    3    0  502  0.33012928667E+01 -0.10926796272E+04 -0.29524474034E+03  0.11318697464E+04  0.50400001928E-02 0. -1.
</event>
<event>
 5   0  0.1049198E-05  0.2194718E+04  0.7818609E-02  0.8520630E-01
       -1   -1    0    0    0  501  0.00000000000E+00  0.00000000000E+00  0.84408148075E+03  0.84408148077E+03  0.50400001928E-02 0. -1.
        1   -1    0    0  501    0  0.00000000000E+00  0.00000000000E+00 -0.14266355065E+04  0.14266355065E+04  0.50400001928E-02 0.  1.
    10030    2    1    2    0    0  0.00000000000E+00  0.00000000000E+00 -0.58255402575E+03  0.22707169873E+04  0.21947178505E+04 0.  0.
        1    1    3    3  502    0  0.10528953489E+04  0.25209001656E+03 -0.47652637256E+03  0.11828843460E+04  0.50400001928E-02 0. -1.
       -1    1    3    3    0  502 -0.10528953489E+04 -0.25209001656E+03 -0.10602765319E+03  0.10878326413E+04  0.50400001928E-02 0.  1.
</event>
<event>
 5   0  0.1005538E-05  0.2200324E+04  0.7818609E-02  0.8518293E-01
        1   -1    0    0  501    0  0.00000000000E+00  0.00000000000E+00  0.15028731184E+04  0.15028731184E+04  0.50400001928E-02 0. -1.
       -1   -1    0    0    0  501  0.00000000000E+00  0.00000000000E+00 -0.80536155357E+03  0.80536155359E+03  0.50400001928E-02 0.  1.
    10030    2    1    2    0    0  0.00000000000E+00  0.00000000000E+00  0.69751156485E+03  0.23082346720E+04  0.22003238212E+04 0.  0.
        3    1    3    3  502    0 -0.67294035664E+03  0.33465256785E+03  0.11915985820E+04  0.14088109368E+04  0.10100000352E+00 0. -1.
       -3    1    3    3    0  502  0.67294035664E+03 -0.33465256785E+03 -0.49408701716E+03  0.89942373523E+03  0.10100000352E+00 0.  1.
</event>
<event>
 5   0  0.1049198E-05  0.2205815E+04  0.7818609E-02  0.8516012E-01
       -1   -1    0    0    0  501  0.00000000000E+00  0.00000000000E+00  0.65617731945E+03  0.65617731947E+03  0.50400001928E-02 0. -1.
        1   -1    0    0  501    0  0.00000000000E+00  0.00000000000E+00 -0.18537753432E+04  0.18537753432E+04  0.50400001928E-02 0.  1.
    10030    2    1    2    0    0  0.00000000000E+00  0.00000000000E+00 -0.11975980238E+04  0.25099526627E+04  0.22058153464E+04 0.  0.
        1    1    3    3  502    0 -0.69800467881E+02  0.62436293115E+03  0.43266509501E+03  0.76282387192E+03  0.50400001928E-02 0. -1.
       -1    1    3    3    0  502  0.69800467881E+02 -0.62436293115E+03 -0.16302631188E+04  0.17471287908E+04  0.50400001928E-02 0.  1.
</event>
<event>
 5   0  0.2298329E-05  0.2198235E+04  0.7818609E-02  0.8519163E-01
       -2   -1    0    0    0  501  0.00000000000E+00  0.00000000000E+00  0.75432492659E+03  0.75432492659E+03  0.25500000920E-02 0.  1.
        2   -1    0    0  501    0  0.00000000000E+00  0.00000000000E+00 -0.16015106500E+04  0.16015106500E+04  0.25500000920E-02 0. -1.
    10030    2    1    2    0    0  0.00000000000E+00  0.00000000000E+00 -0.84718572344E+03  0.23558355766E+04  0.21982351135E+04 0.  0.
        4    1    3    3  502    0 -0.17546506917E+03  0.79922707420E+03 -0.12100337077E+04  0.14607310133E+04  0.12699999809E+01 0. -1.
       -4    1    3    3    0  502  0.17546506917E+03 -0.79922707420E+03  0.36284798426E+03  0.89510456329E+03  0.12699999809E+01 0.  1.
</event>
<event>
 5   0  0.2284329E-05  0.2199955E+04  0.7818609E-02  0.8518447E-01
       -2   -1    0    0    0  501  0.00000000000E+00  0.00000000000E+00  0.13731279976E+04  0.13731279976E+04  0.25500000920E-02 0. -1.
        2   -1    0    0  501    0  0.00000000000E+00  0.00000000000E+00 -0.88116332755E+03  0.88116332755E+03  0.25500000920E-02 0.  1.
    10030    2    1    2    0    0  0.00000000000E+00  0.00000000000E+00  0.49196467007E+03  0.22542913252E+04  0.21999545773E+04 0.  0.
        2    1    3    3  502    0 -0.95942597590E+03 -0.10830385760E+03  0.78599202307E+03  0.12449945338E+04  0.25500000920E-02 0. -1.
       -2    1    3    3    0  502  0.95942597590E+03  0.10830385760E+03 -0.29402735300E+03  0.10092967914E+04  0.25500000920E-02 0.  1.
</event>
<event>
 5   0  0.2284329E-05  0.2188655E+04  0.7818609E-02  0.8523165E-01
        2   -1    0    0  501    0  0.00000000000E+00  0.00000000000E+00  0.15488264625E+04  0.15488264625E+04  0.25500000920E-02 0.  1.
       -2   -1    0    0    0  501  0.00000000000E+00  0.00000000000E+00 -0.77319991475E+03  0.77319991475E+03  0.25500000920E-02 0. -1.
    10030    2    1    2    0    0  0.00000000000E+00  0.00000000000E+00  0.77562654775E+03  0.23220263772E+04  0.21886548278E+04 0.  0.
        2    1    3    3  502    0  0.97589623057E+03 -0.42389082749E+03  0.11629695034E+03  0.10703185821E+04  0.25500000920E-02 0. -1.
       -2    1    3    3    0  502 -0.97589623057E+03  0.42389082749E+03  0.65932959741E+03  0.12517077952E+04  0.25500000920E-02 0.  1.
</event>
<event>
 5   0  0.2229552E-05  0.2195896E+04  0.7818609E-02  0.8520138E-01
       -2   -1    0    0    0  501  0.00000000000E+00  0.00000000000E+00  0.11303773769E+04  0.11303773769E+04  0.25500000920E-02 0.  1.
        2   -1    0    0  501    0  0.00000000000E+00  0.00000000000E+00 -0.10664487581E+04  0.10664487581E+04  0.25500000920E-02 0. -1.
    10030    2    1    2    0    0  0.00000000000E+00  0.00000000000E+00  0.63928618792E+02  0.21968261350E+04  0.21958957623E+04 0.  0.
        1    1    3    3  502    0 -0.67278014749E+03  0.38647716640E+03 -0.74521219207E+03  0.10757968852E+04  0.50400001928E-02 0. -1.
       -1    1    3    3    0  502  0.67278014749E+03 -0.38647716640E+03  0.80914081086E+03  0.11210292498E+04  0.50400001928E-02 0.  1.
</event>
<event>
 5   0  0.2289708E-05  0.2206278E+04  0.7818609E-02  0.8515819E-01
       -2   -1    0    0    0  501  0.00000000000E+00  0.00000000000E+00  0.58366400924E+03  0.58366400924E+03  0.25500000920E-02 0. -1.
        2   -1    0    0  501    0  0.00000000000E+00  0.00000000000E+00 -0.20849601472E+04  0.20849601472E+04  0.25500000920E-02 0.  1.
    10030    2    1    2    0    0  0.00000000000E+00  0.00000000000E+00 -0.15012961380E+04  0.26686241564E+04  0.22062784943E+04 0.  0.
        5    1    3    3  502    0 -0.58310081497E+03  0.73633948849E+02  0.37850339764E+03  0.69908184847E+03  0.46999998093E+01 0. -1.
       -5    1    3    3    0  502  0.58310081497E+03 -0.73633948849E+02 -0.18797995356E+04  0.19695423080E+04  0.46999998093E+01 0.  1.
</event>
<event>
 5   0  0.1007682E-05  0.2199220E+04  0.7818609E-02  0.8518753E-01
       -1   -1    0    0    0  501  0.00000000000E+00  0.00000000000E+00  0.10018463030E+04  0.10018463030E+04  0.50400001928E-02 0. -1.
        1   -1    0    0  501    0  0.00000000000E+00  0.00000000000E+00 -0.12069142406E+04  0.12069142406E+04  0.50400001928E-02 0.  1.
    10030    2    1    2    0    0  0.00000000000E+00  0.00000000000E+00 -0.20506793758E+03  0.22087605436E+04  0.21992203801E+04 0.  0.
        2    1    3    3  502    0  0.72711114144E+03  0.43843976470E+03 -0.80429426450E+03  0.11695337974E+04  0.25500000920E-02 0.  1.
       -2    1    3    3    0  502 -0.72711114144E+03 -0.43843976470E+03  0.59922632692E+03  0.10392267463E+04  0.25500000920E-02 0. -1.
</event>
<event>
 5   0  0.1005538E-05  0.2207002E+04  0.7818609E-02  0.8515519E-01
       -1   -1    0    0    0  501  0.00000000000E+00  0.00000000000E+00  0.57313027062E+03  0.57313027065E+03  0.50400001928E-02 0. -1.
        1   -1    0    0  501    0  0.00000000000E+00  0.00000000000E+00 -0.21246735927E+04  0.21246735927E+04  0.50400001928E-02 0.  1.
    10030    2    1    2    0    0  0.00000000000E+00  0.00000000000E+00 -0.15515433221E+04  0.26978038634E+04  0.22070022666E+04 0.  0.
        3    1    3    3  502    0 -0.33554431392E+03  0.24680698291E+03 -0.20248846921E+04  0.20672836526E+04  0.10100000352E+00 0.  1.
       -3    1    3    3    0  502  0.33554431392E+03 -0.24680698291E+03  0.47334137007E+03  0.63052021081E+03  0.10100000352E+00 0. -1.
</event>
<event>
 5   0  0.1049198E-05  0.2199830E+04  0.7818609E-02  0.8518499E-01
       -1   -1    0    0    0  501  0.00000000000E+00  0.00000000000E+00  0.91656605436E+03  0.91656605438E+03  0.50400001928E-02 0.  1.
        1   -1    0    0  501    0  0.00000000000E+00  0.00000000000E+00 -0.13199407162E+04  0.13199407162E+04  0.50400001928E-02 0. -1.
    10030    2    1    2    0    0  0.00000000000E+00  0.00000000000E+00 -0.40337466186E+03  0.22365067706E+04  0.21998298610E+04 0.  0.
        1    1    3    3  502    0 -0.26241570124E+03 -0.10610055141E+04 -0.76268687567E+02  0.10956329741E+04  0.50400001928E-02 0. -1.
       -1    1    3    3    0  502  0.26241570124E+03  0.10610055141E+04 -0.32710597430E+03  0.11408737965E+04  0.50400001928E-02 0.  1.
</event>
<event>
 5   0  0.1007682E-05  0.2205355E+04  0.7818609E-02  0.8516202E-01
       -1   -1    0    0    0  501  0.00000000000E+00  0.00000000000E+00  0.14248382483E+04  0.14248382483E+04  0.50400001928E-02 0.  1.
        1   -1    0    0  501    0  0.00000000000E+00  0.00000000000E+00 -0.85335876877E+03  0.85335876878E+03  0.50400001928E-02 0. -1.
    10030    2    1    2    0    0  0.00000000000E+00  0.00000000000E+00  0.57147947953E+03  0.22781970171E+04  0.22053554936E+04 0.  0.
        2    1    3    3  502    0  0.17557695993E+03  0.96130453648E+03 -0.24198009342E+03  0.10067214343E+04  0.25500000920E-02 0. -1.
       -2    1    3    3    0  502 -0.17557695993E+03 -0.96130453648E+03  0.81345957295E+03  0.12714755828E+04  0.25500000920E-02 0.  1.
</event>
<event>
 5   0  0.2319707E-05  0.2179479E+04  0.7818609E-02  0.8527018E-01
        2   -1    0    0  501    0  0.00000000000E+00  0.00000000000E+00  0.19408456027E+04  0.19408456027E+04  0.25500000920E-02 0.  1.
       -2   -1    0    0    0  501  0.00000000000E+00  0.00000000000E+00 -0.61186328400E+03  0.61186328400E+03  0.25500000920E-02 0. -1.
    10030    2    1    2    0    0  0.00000000000E+00  0.00000000000E+00  0.13289823187E+04  0.25527088867E+04  0.21794789875E+04 0.  0.
        3    1    3    3  502    0  0.95724586383E+03  0.22028408423E+03  0.12172000595E+04  0.15641038062E+04  0.10100000352E+00 0.  1.
       -3    1    3    3    0  502 -0.95724586383E+03 -0.22028408423E+03  0.11178225927E+03  0.98860508055E+03  0.10100000352E+00 0. -1.
</event>
<event>
 5   0  0.1007682E-05  0.2070202E+04  0.7818609E-02  0.8574484E-01
        1   -1    0    0  501    0  0.00000000000E+00  0.00000000000E+00  0.97692370300E+03  0.97692370301E+03  0.50400001928E-02 0. -1.
       -1   -1    0    0    0  501  0.00000000000E+00  0.00000000000E+00 -0.10967428383E+04  0.10967428383E+04  0.50400001928E-02 0.  1.
    10030    2    1    2    0    0  0.00000000000E+00  0.00000000000E+00 -0.11981913526E+03  0.20736665413E+04  0.20702019948E+04 0.  0.
        2    1    3    3  502    0 -0.78696269270E+03 -0.13768000974E+03  0.59934687950E+03  0.99874058031E+03  0.25500000920E-02 0. -1.
       -2    1    3    3    0  502  0.78696269270E+03  0.13768000974E+03 -0.71916601476E+03  0.10749259610E+04  0.25500000920E-02 0.  1.
</event>
<event>
 5   0  0.2289708E-05  0.2201621E+04  0.7818609E-02  0.8517754E-01
        2   -1    0    0  501    0  0.00000000000E+00  0.00000000000E+00  0.16350248038E+04  0.16350248038E+04  0.25500000920E-02 0.  1.
       -2   -1    0    0    0  501  0.00000000000E+00  0.00000000000E+00 -0.74114070542E+03  0.74114070543E+03  0.25500000920E-02 0. -1.
    10030    2    1    2    0    0  0.00000000000E+00  0.00000000000E+00  0.89388409841E+03  0.23761655093E+04  0.22016207089E+04 0.  0.
        5    1    3    3  502    0 -0.84206309319E+03  0.29270044436E+03  0.11439076582E+04  0.14502726032E+04  0.46999998093E+01 0.  1.
       -5    1    3    3    0  502  0.84206309319E+03 -0.29270044436E+03 -0.25002355981E+03  0.92589290606E+03  0.46999998093E+01 0. -1.
</event>
<event>
 5   0  0.2229552E-05  0.2193869E+04  0.7818609E-02  0.8520984E-01
       -2   -1    0    0    0  501  0.00000000000E+00  0.00000000000E+00  0.98589373183E+03  0.98589373183E+03  0.25500000920E-02 0. -1.
        2   -1    0    0  501    0  0.00000000000E+00  0.00000000000E+00 -0.12204815660E+04  0.12204815660E+04  0.25500000920E-02 0.  1.
    10030    2    1    2    0    0  0.00000000000E+00  0.00000000000E+00 -0.23458783421E+03  0.22063752979E+04  0.21938688436E+04 0.  0.
        1    1    3    3  502    0  0.10598372607E+04 -0.25089645382E+03  0.14068742960E+02  0.10892208129E+04  0.50400001928E-02 0. -1.
       -1    1    3    3    0  502 -0.10598372607E+04  0.25089645382E+03 -0.24865657717E+03  0.11171544849E+04  0.50400001928E-02 0.  1.
</event>
<event>
 5   0  0.1033733E-05  0.2199329E+04  0.7818609E-02  0.8518707E-01
       -1   -1    0    0    0  501  0.00000000000E+00  0.00000000000E+00  0.54433876581E+03  0.54433876583E+03  0.50400001928E-02 0.  1.
        1   -1    0    0  501    0  0.00000000000E+00  0.00000000000E+00 -0.22215252771E+04  0.22215252771E+04  0.50400001928E-02 0. -1.
    10030    2    1    2    0    0  0.00000000000E+00  0.00000000000E+00 -0.16771865113E+04  0.27658640430E+04  0.21993292865E+04 0.  0.
        5    1    3    3  502    0 -0.53426454969E+03  0.72828916777E+03 -0.16273731391E+04  0.18612386050E+04  0.46999998093E+01 0. -1.
       -5    1    3    3    0  502  0.53426454969E+03 -0.72828916777E+03 -0.49813372231E+02  0.90462543796E+03  0.46999998093E+01 0.  1.
</event>
<event>
 5   0  0.1005538E-05  0.2210012E+04  0.7818609E-02  0.8514273E-01
       -1   -1    0    0    0  501  0.00000000000E+00  0.00000000000E+00  0.19900707181E+04  0.19900707181E+04  0.50400001928E-02 0. -1.
        1   -1    0    0  501    0  0.00000000000E+00  0.00000000000E+00 -0.61356506680E+03  0.61356506683E+03  0.50400001928E-02 0.  1.
    10030    2    1    2    0    0  0.00000000000E+00  0.00000000000E+00  0.13765056513E+04  0.26036357849E+04  0.22100116499E+04 0.  0.
        3    1    3    3  502    0 -0.10372638182E+04  0.37005794648E+03  0.58170878725E+03  0.12454895566E+04  0.10100000352E+00 0.  1.
       -3    1    3    3    0  502  0.10372638182E+04 -0.37005794648E+03  0.79479686406E+03  0.13581462283E+04  0.10100000352E+00 0. -1.
</event>
<event>
 5   0  0.1049198E-05  0.2168919E+04  0.7818609E-02  0.8531477E-01
       -1   -1    0    0    0  501  0.00000000000E+00  0.00000000000E+00  0.69299033218E+03  0.69299033220E+03  0.50400001928E-02 0. -1.
        1   -1    0    0  501    0  0.00000000000E+00  0.00000000000E+00 -0.16970685842E+04  0.16970685842E+04  0.50400001928E-02 0.  1.
    10030    2    1    2    0    0  0.00000000000E+00  0.00000000000E+00 -0.10040782520E+04  0.23900589164E+04  0.21689187370E+04 0.  0.
        1    1    3    3  502    0  0.81589698018E+03  0.16668986613E+03  0.26346830940E+03  0.87343514002E+03  0.50400001928E-02 0. -1.
       -1    1    3    3    0  502 -0.81589698018E+03 -0.16668986613E+03 -0.12675465614E+04  0.15166237764E+04  0.50400001928E-02 0.  1.
</event>
<event>
 5   0  0.1033733E-05  0.2208270E+04  0.7818609E-02  0.8514994E-01
       -1   -1    0    0    0  501  0.00000000000E+00  0.00000000000E+00  0.80340107234E+03  0.80340107236E+03  0.50400001928E-02 0.  1.
        1   -1    0    0  501    0  0.00000000000E+00  0.00000000000E+00 -0.15174419800E+04  0.15174419800E+04  0.50400001928E-02 0. -1.
    10030    2    1    2    0    0  0.00000000000E+00  0.00000000000E+00 -0.71404090766E+03  0.23208430524E+04  0.22082703765E+04 0.  0.
        5    1    3    3  502    0 -0.94805296198E+03  0.11909594781E+03  0.22445065602E+03  0.98152353537E+03  0.46999998093E+01 0.  1.
       -5    1    3    3    0  502  0.94805296198E+03 -0.11909594781E+03 -0.93849156369E+03  0.13393195170E+04  0.46999998093E+01 0. -1.
</event>
<event>
 5   0  0.2284329E-05  0.2199239E+04  0.7818609E-02  0.8518745E-01
        2   -1    0    0  501    0  0.00000000000E+00  0.00000000000E+00  0.25160128151E+04  0.25160128151E+04  0.25500000920E-02 0. -1.
       -2   -1    0    0    0  501  0.00000000000E+00  0.00000000000E+00 -0.48058715744E+03  0.48058715745E+03  0.25500000920E-02 0.  1.
    10030    2    1    2    0    0  0.00000000000E+00  0.00000000000E+00  0.20354256577E+04  0.29965999725E+04  0.21992393657E+04 0.  0.
        2    1    3    3  502    0 -0.23811199935E+03  0.57561199977E+03  0.22524202764E+04  0.23369688915E+04  0.25500000920E-02 0. -1.
       -2    1    3    3    0  502  0.23811199935E+03 -0.57561199977E+03 -0.21699461871E+03  0.65963108103E+03  0.25500000920E-02 0.  1.
</event>
<event>
 5   0  0.1007682E-05  0.2198212E+04  0.7818609E-02  0.8519172E-01
       -1   -1    0    0    0  501  0.00000000000E+00  0.00000000000E+00  0.69487601948E+03  0.69487601950E+03  0.50400001928E-02 0. -1.
        1   -1    0    0  501    0  0.00000000000E+00  0.00000000000E+00 -0.17384892970E+04  0.17384892971E+04  0.50400001928E-02 0.  1.
    10030    2    1    2    0    0  0.00000000000E+00  0.00000000000E+00 -0.10436132776E+04  0.24333653165E+04  0.21982124762E+04 0.  0.
        2    1    3    3  502    0  0.60897574410E+02  0.30620705372E+03 -0.16883725831E+04  0.17169954146E+04  0.25500000920E-02 0.  1.
       -2    1    3    3    0  502 -0.60897574410E+02 -0.30620705372E+03  0.64475930555E+03  0.71636990195E+03  0.25500000920E-02 0. -1.
</event>
<event>
 5   0  0.2289708E-05  0.2213273E+04  0.7818609E-02  0.8512924E-01
        2   -1    0    0  501    0  0.00000000000E+00  0.00000000000E+00  0.20632350179E+04  0.20632350179E+04  0.25500000920E-02 0.  1.
       -2   -1    0    0    0  501  0.00000000000E+00  0.00000000000E+00 -0.59355547621E+03  0.59355547622E+03  0.25500000920E-02 0. -1.
    10030    2    1    2    0    0  0.00000000000E+00  0.00000000000E+00  0.14696795416E+04  0.26567904941E+04  0.22132730908E+04 0.  0.
        5    1    3    3  502    0 -0.73803636358E+03  0.82448104632E+03  0.71986210661E+03  0.13201099243E+04  0.46999998093E+01 0.  1.
       -5    1    3    3    0  502  0.73803636358E+03 -0.82448104632E+03  0.74981743503E+03  0.13366805698E+04  0.46999998093E+01 0. -1.
</event>
<event>
 5   0  0.1049198E-05  0.2199695E+04  0.7818609E-02  0.8518555E-01
        1   -1    0    0  501    0  0.00000000000E+00  0.00000000000E+00  0.17472751637E+04  0.17472751637E+04  0.50400001928E-02 0. -1.
       -1   -1    0    0    0  501  0.00000000000E+00  0.00000000000E+00 -0.69231501118E+03  0.69231501120E+03  0.50400001928E-02 0.  1.
    10030    2    1    2    0    0  0.00000000000E+00  0.00000000000E+00  0.10549601525E+04  0.24395901749E+04  0.21996952739E+04 0.  0.
        1    1    3    3  502    0  0.10402597975E+04 -0.15331752406E+03  0.16978839201E+03  0.10651172741E+04  0.50400001928E-02 0.  1.
       -1    1    3    3    0  502 -0.10402597975E+04  0.15331752406E+03  0.88517176047E+03  0.13744729008E+04  0.50400001928E-02 0. -1.
</event>
<event>
 5   0  0.2319707E-05  0.2203463E+04  0.7818609E-02  0.8516988E-01
        2   -1    0    0  501    0  0.00000000000E+00  0.00000000000E+00  0.10774226681E+04  0.10774226681E+04  0.25500000920E-02 0.  1.
       -2   -1    0    0    0  501  0.00000000000E+00  0.00000000000E+00 -0.11265886178E+04  0.11265886178E+04  0.25500000920E-02 0. -1.
    10030    2    1    2    0    0  0.00000000000E+00  0.00000000000E+00 -0.49165949698E+02  0.22040112859E+04  0.22034628333E+04 0.  0.
        3    1    3    3  502    0 -0.84984144923E+03 -0.59685188999E+03  0.34340727433E+03  0.10937967058E+04  0.10100000352E+00 0.  1.
       -3    1    3    3    0  502  0.84984144923E+03  0.59685188999E+03 -0.39257322402E+03  0.11102145801E+04  0.10100000352E+00 0. -1.
</event>
<event>
 5   0  0.2289708E-05  0.2204208E+04  0.7818609E-02  0.8516679E-01
       -2   -1    0    0    0  501  0.00000000000E+00  0.00000000000E+00  0.80497180947E+03  0.80497180947E+03  0.25500000920E-02 0. -1.
        2   -1    0    0  501    0  0.00000000000E+00  0.00000000000E+00 -0.15089135876E+04  0.15089135876E+04  0.25500000920E-02 0.  1.
    10030    2    1    2    0    0  0.00000000000E+00  0.00000000000E+00 -0.70394177809E+03  0.23138853970E+04  0.22042077043E+04 0.  0.
        5    1    3    3  502    0 -0.50565577663E+02 -0.10164797915E+04 -0.79588682319E+03  0.12919930223E+04  0.46999998093E+01 0.  1.
       -5    1    3    3    0  502  0.50565577663E+02  0.10164797915E+04  0.91945045102E+02  0.10218923748E+04  0.46999998093E+01 0. -1.
</event>
<event>
 5   0  0.2289708E-05  0.2192528E+04  0.7818609E-02  0.8521545E-01
        2   -1    0    0  501    0  0.00000000000E+00  0.00000000000E+00  0.21711269080E+04  0.21711269080E+04  0.25500000920E-02 0.  1.
       -2   -1    0    0    0  501  0.00000000000E+00  0.00000000000E+00 -0.55353500161E+03  0.55353500162E+03  0.25500000920E-02 0. -1.
    10030    2    1    2    0    0  0.00000000000E+00  0.00000000000E+00  0.16175919063E+04  0.27246619096E+04  0.21925279807E+04 0.  0.
        5    1    3    3  502    0 -0.14676500930E+03  0.24209877139E+03 -0.50730897539E+03  0.58097871697E+03  0.46999998093E+01 0. -1.
       -5    1    3    3    0  502  0.14676500930E+03 -0.24209877139E+03  0.21249008817E+04  0.21436831926E+04  0.46999998093E+01 0.  1.
</event>
<event>
 5   0  0.2319707E-05  0.2223984E+04  0.7818609E-02  0.8508511E-01
        2   -1    0    0  501    0  0.00000000000E+00  0.00000000000E+00  0.16123520285E+04  0.16123520285E+04  0.25500000920E-02 0. -1.
       -2   -1    0    0    0  501  0.00000000000E+00  0.00000000000E+00 -0.76690825569E+03  0.76690825569E+03  0.25500000920E-02 0.  1.
    10030    2    1    2    0    0  0.00000000000E+00  0.00000000000E+00  0.84544377278E+03  0.23792602842E+04  0.22239838864E+04 0.  0.
        3    1    3    3  502    0 -0.34935901356E+03 -0.10154474660E+04  0.11387790804E+03  0.10798858573E+04  0.10100000352E+00 0.  1.
       -3    1    3    3    0  502  0.34935901356E+03  0.10154474660E+04  0.73156586474E+03  0.12993744269E+04  0.10100000352E+00 0. -1.
</event>
<event>
 5   0  0.1049198E-05  0.2203100E+04  0.7818609E-02  0.8517139E-01
       -1   -1    0    0    0  501  0.00000000000E+00  0.00000000000E+00  0.96334483757E+03  0.96334483758E+03  0.50400001928E-02 0. -1.
        1   -1    0    0  501    0  0.00000000000E+00  0.00000000000E+00 -0.12595829924E+04  0.12595829924E+04  0.50400001928E-02 0.  1.
    10030    2    1    2    0    0  0.00000000000E+00  0.00000000000E+00 -0.29623815486E+03  0.22229278300E+04  0.22031003366E+04 0.  0.
        1    1    3    3  502    0 -0.10088163154E+04  0.29419218191E+03  0.18523799299E+03  0.10670391334E+04  0.50400001928E-02 0. -1.
       -1    1    3    3    0  502  0.10088163154E+04 -0.29419218191E+03 -0.48147614785E+03  0.11558886966E+04  0.50400001928E-02 0.  1.
</event>
<event>
 5   0  0.1071208E-05  0.2204240E+04  0.7818609E-02  0.8516665E-01
        1   -1    0    0  501    0  0.00000000000E+00  0.00000000000E+00  0.26804453966E+04  0.26804453966E+04  0.50400001928E-02 0.  1.
       -1   -1    0    0    0  501  0.00000000000E+00  0.00000000000E+00 -0.45315914285E+03  0.45315914287E+03  0.50400001928E-02 0. -1.
    10030    2    1    2    0    0  0.00000000000E+00  0.00000000000E+00  0.22272862537E+04  0.31336045395E+04  0.22042398585E+04 0.  0.
        4    1    3    3  502    0  0.74109831339E+03  0.69412511843E+03  0.50444641573E+03  0.11338007715E+04  0.12699999809E+01 0. -1.
       -4    1    3    3    0  502 -0.74109831339E+03 -0.69412511843E+03  0.17228398380E+04  0.19998037680E+04  0.12699999809E+01 0.  1.
</event>
<event>
 5   0  0.1033733E-05  0.2198134E+04  0.7818609E-02  0.8519205E-01
        1   -1    0    0  501    0  0.00000000000E+00  0.00000000000E+00  0.11778319736E+04  0.11778319737E+04  0.50400001928E-02 0.  1.
       -1   -1    0    0    0  501  0.00000000000E+00  0.00000000000E+00 -0.10255691973E+04  0.10255691973E+04  0.50400001928E-02 0. -1.
    10030    2    1    2    0    0  0.00000000000E+00  0.00000000000E+00  0.15226277635E+03  0.22034011710E+04  0.21981339284E+04 0.  0.
        5    1    3    3  502    0  0.84948839321E+03  0.22680634994E+03  0.73714649684E+03  0.11473790561E+04  0.46999998093E+01 0.  1.
       -5    1    3    3    0  502 -0.84948839321E+03 -0.22680634994E+03 -0.58488372049E+03  0.10560221149E+04  0.46999998093E+01 0. -1.
</event>
<event>
 5   0  0.2284329E-05  0.2220329E+04  0.7818609E-02  0.8510014E-01
        2   -1    0    0  501    0  0.00000000000E+00  0.00000000000E+00  0.13894928513E+04  0.13894928513E+04  0.25500000920E-02 0. -1.
       -2   -1    0    0    0  501  0.00000000000E+00  0.00000000000E+00 -0.88698924914E+03  0.88698924914E+03  0.25500000920E-02 0.  1.
    10030    2    1    2    0    0  0.00000000000E+00  0.00000000000E+00  0.50250360218E+03  0.22764821005E+04  0.22203290034E+04 0.  0.
        2    1    3    3  502    0 -0.80117813953E+03  0.62621334699E+03 -0.20547527746E+03  0.10374245307E+04  0.25500000920E-02 0.  1.
       -2    1    3    3    0  502  0.80117813953E+03 -0.62621334699E+03  0.70797887963E+03  0.12390575698E+04  0.25500000920E-02 0. -1.
</event>
<event>
 5   0  0.1005538E-05  0.2198597E+04  0.7818609E-02  0.8519012E-01
        1   -1    0    0  501    0  0.00000000000E+00  0.00000000000E+00  0.68545992380E+03  0.68545992382E+03  0.50400001928E-02 0. -1.
       -1   -1    0    0    0  501  0.00000000000E+00  0.00000000000E+00 -0.17629876648E+04  0.17629876648E+04  0.50400001928E-02 0.  1.
    10030    2    1    2    0    0  0.00000000000E+00  0.00000000000E+00 -0.10775277410E+04  0.24484475886E+04  0.21985971804E+04 0.  0.
        3    1    3    3  502    0 -0.51336371258E+03 -0.76713122250E+03  0.12609440996E+03  0.93162890914E+03  0.10100000352E+00 0. -1.
       -3    1    3    3    0  502  0.51336371258E+03  0.76713122250E+03 -0.12036221510E+04  0.15168186795E+04  0.10100000352E+00 0.  1.
</event>
<event>
 5   0  0.1071208E-05  0.2187518E+04  0.7818609E-02  0.8523641E-01
        1   -1    0    0  501    0  0.00000000000E+00  0.00000000000E+00  0.15842099092E+04  0.15842099092E+04  0.50400001928E-02 0. -1.
       -1   -1    0    0    0  501  0.00000000000E+00  0.00000000000E+00 -0.75514521239E+03  0.75514521241E+03  0.50400001928E-02 0.  1.
    10030    2    1    2    0    0  0.00000000000E+00  0.00000000000E+00  0.82906469681E+03  0.23393551216E+04  0.21875177973E+04 0.  0.
        4    1    3    3  502    0  0.48547550768E+03 -0.43637394339E+03  0.13530572859E+04  0.15022896921E+04  0.12699999809E+01 0. -1.
       -4    1    3    3    0  502 -0.48547550768E+03  0.43637394339E+03 -0.52399258910E+03  0.83706542955E+03  0.12699999809E+01 0.  1.
</event>
<event>
 5   0  0.2298329E-05  0.2194463E+04  0.7818609E-02  0.8520736E-01
        2   -1    0    0  501    0  0.00000000000E+00  0.00000000000E+00  0.12588809706E+04  0.12588809706E+04  0.25500000920E-02 0.  1.
       -2   -1    0    0    0  501  0.00000000000E+00  0.00000000000E+00 -0.95633868424E+03  0.95633868424E+03  0.25500000920E-02 0. -1.
    10030    2    1    2    0    0  0.00000000000E+00  0.00000000000E+00  0.30254228641E+03  0.22152196549E+04  0.21944626414E+04 0.  0.
        4    1    3    3  502    0 -0.68671997764E+03  0.34826170501E+03  0.94035833461E+03  0.12153789340E+04  0.12699999809E+01 0.  1.
       -4    1    3    3    0  502  0.68671997764E+03 -0.34826170501E+03 -0.63781604820E+03  0.99984072087E+03  0.12699999809E+01 0. -1.
</event>
<event>
 5   0  0.1071208E-05  0.2182766E+04  0.7818609E-02  0.8525636E-01
        1   -1    0    0  501    0  0.00000000000E+00  0.00000000000E+00  0.19116200891E+04  0.19116200891E+04  0.50400001928E-02 0.  1.
       -1   -1    0    0    0  501  0.00000000000E+00  0.00000000000E+00 -0.62309308253E+03  0.62309308255E+03  0.50400001928E-02 0. -1.
    10030    2    1    2    0    0  0.00000000000E+00  0.00000000000E+00  0.12885270066E+04  0.25347131717E+04  0.21827663677E+04 0.  0.
        4    1    3    3  502    0  0.50189468497E+03  0.94845498689E+03  0.87549443273E+03  0.13849033366E+04  0.12699999809E+01 0. -1.
       -4    1    3    3    0  502 -0.50189468497E+03 -0.94845498689E+03  0.41303257385E+03  0.11498098351E+04  0.12699999809E+01 0.  1.
</event>
<event>
 5   0  0.1071208E-05  0.2211223E+04  0.7818609E-02  0.8513771E-01
        1   -1    0    0  501    0  0.00000000000E+00  0.00000000000E+00  0.12444711302E+04  0.12444711302E+04  0.50400001928E-02 0. -1.
       -1   -1    0    0    0  501  0.00000000000E+00  0.00000000000E+00 -0.98224625225E+03  0.98224625227E+03  0.50400001928E-02 0.  1.
    10030    2    1    2    0    0  0.00000000000E+00  0.00000000000E+00  0.26222487793E+03  0.22267173825E+04  0.22112232847E+04 0.  0.
        4    1    3    3  502    0 -0.10342826014E+04 -0.25926268735E+03  0.42542365895E+03  0.11480176580E+04  0.12699999809E+01 0. -1.
       -4    1    3    3    0  502  0.10342826014E+04  0.25926268735E+03 -0.16319878102E+03  0.10786997245E+04  0.12699999809E+01 0.  1.
</event>
<event>
 5   0  0.1049198E-05  0.2193920E+04  0.7818609E-02  0.8520963E-01
        1   -1    0    0  501    0  0.00000000000E+00  0.00000000000E+00  0.12759022622E+04  0.12759022622E+04  0.50400001928E-02 0.  1.
       -1   -1    0    0    0  501  0.00000000000E+00  0.00000000000E+00 -0.94311356551E+03  0.94311356553E+03  0.50400001928E-02 0. -1.
    10030    2    1    2    0    0  0.00000000000E+00  0.00000000000E+00  0.33278869665E+03  0.22190158277E+04  0.21939195352E+04 0.  0.
        1    1    3    3  502    0  0.69719042850E+03 -0.36366491825E+03  0.93999252037E+03  0.12255254403E+04  0.50400001928E-02 0.  1.
       -1    1    3    3    0  502 -0.69719042850E+03  0.36366491825E+03 -0.60720382372E+03  0.99349038743E+03  0.50400001928E-02 0. -1.
</event>
<event>
 5   0  0.2229552E-05  0.2200553E+04  0.7818609E-02  0.8518198E-01
        2   -1    0    0  501    0  0.00000000000E+00  0.00000000000E+00  0.16770524671E+04  0.16770524671E+04  0.25500000920E-02 0.  1.
       -2   -1    0    0    0  501  0.00000000000E+00  0.00000000000E+00 -0.72186669936E+03  0.72186669936E+03  0.25500000920E-02 0. -1.
    10030    2    1    2    0    0  0.00000000000E+00  0.00000000000E+00  0.95518576774E+03  0.23989191665E+04  0.22005529569E+04 0.  0.
        1    1    3    3  502    0 -0.43170721044E+03  0.82215963629E+03 -0.16576815583E+03  0.94329033950E+03  0.50400001928E-02 0. -1.
       -1    1    3    3    0  502  0.43170721044E+03 -0.82215963629E+03  0.11209539236E+04  0.14556288270E+04  0.50400001928E-02 0.  1.
</event>
<event>
 5   0  0.1005538E-05  0.2220714E+04  0.7818609E-02  0.8509855E-01
        1   -1    0    0  501    0  0.00000000000E+00  0.00000000000E+00  0.16409616581E+04  0.16409616582E+04  0.50400001928E-02 0. -1.
       -1   -1    0    0    0  501  0.00000000000E+00  0.00000000000E+00 -0.75132358550E+03  0.75132358551E+03  0.50400001928E-02 0.  1.
    10030    2    1    2    0    0  0.00000000000E+00  0.00000000000E+00  0.88963807265E+03  0.23922852437E+04  0.22207144766E+04 0.  0.
        3    1    3    3  502    0 -0.27029459061E+03  0.57700980626E+03  0.14244106995E+04  0.15604311370E+04  0.10100000352E+00 0. -1.
       -3    1    3    3    0  502  0.27029459061E+03 -0.57700980626E+03 -0.53477262683E+03  0.83185410670E+03  0.10100000352E+00 0.  1.
</event>
<event>
 5   0  0.2284329E-05  0.2188939E+04  0.7818609E-02  0.8523046E-01
       -2   -1    0    0    0  501  0.00000000000E+00  0.00000000000E+00  0.70116875701E+03  0.70116875702E+03  0.25500000920E-02 0. -1.
        2   -1    0    0  501    0  0.00000000000E+00  0.00000000000E+00 -0.17083807444E+04  0.17083807444E+04  0.25500000920E-02 0.  1.
    10030    2    1    2    0    0  0.00000000000E+00  0.00000000000E+00 -0.10072119874E+04  0.24095495014E+04  0.21889387411E+04 0.  0.
        2    1    3    3  502    0  0.58061834477E+03  0.60990214602E+03 -0.12731833060E+04  0.15264645495E+04  0.25500000920E-02 0.  1.
       -2    1    3    3    0  502 -0.58061834477E+03 -0.60990214602E+03  0.26597131865E+03  0.88308495195E+03  0.25500000920E-02 0. -1.
</event>
<event>
 5   0  0.2319707E-05  0.2204317E+04  0.7818609E-02  0.8516634E-01
       -2   -1    0    0    0  501  0.00000000000E+00  0.00000000000E+00  0.79959397479E+03  0.79959397480E+03  0.25500000920E-02 0. -1.
        2   -1    0    0  501    0  0.00000000000E+00  0.00000000000E+00 -0.15192122964E+04  0.15192122964E+04  0.25500000920E-02 0.  1.
    10030    2    1    2    0    0  0.00000000000E+00  0.00000000000E+00 -0.71961832164E+03  0.23188062712E+04  0.22043166730E+04 0.  0.
        3    1    3    3  502    0  0.74452593234E+03  0.76956782777E+03 -0.85095015746E+02  0.10741483498E+04  0.10100000352E+00 0. -1.
       -3    1    3    3    0  502 -0.74452593234E+03 -0.76956782777E+03 -0.63452330590E+03  0.12446579214E+04  0.10100000352E+00 0.  1.
</event>
<event>
 5   0  0.1033733E-05  0.2201567E+04  0.7818609E-02  0.8517776E-01
       -1   -1    0    0    0  501  0.00000000000E+00  0.00000000000E+00  0.15415275868E+04  0.15415275868E+04  0.50400001928E-02 0. -1.
        1   -1    0    0  501    0  0.00000000000E+00  0.00000000000E+00 -0.78605457826E+03  0.78605457828E+03  0.50400001928E-02 0.  1.
    10030    2    1    2    0    0  0.00000000000E+00  0.00000000000E+00  0.75547300853E+03  0.23275821651E+04  0.22015674572E+04 0.  0.
        5    1    3    3  502    0  0.65347090730E+03 -0.85325370975E+03  0.12613013051E+03  0.10821261570E+04  0.46999998093E+01 0. -1.
       -5    1    3    3    0  502 -0.65347090730E+03  0.85325370975E+03  0.62934287802E+03  0.12454560081E+04  0.46999998093E+01 0.  1.
</event>
<event>
 5   0  0.2298329E-05  0.2206882E+04  0.7818609E-02  0.8515569E-01
        2   -1    0    0  501    0  0.00000000000E+00  0.00000000000E+00  0.82384672447E+03  0.82384672447E+03  0.25500000920E-02 0.  1.
       -2   -1    0    0    0  501  0.00000000000E+00  0.00000000000E+00 -0.14779234190E+04  0.14779234190E+04  0.25500000920E-02 0. -1.
    10030    2    1    2    0    0  0.00000000000E+00  0.00000000000E+00 -0.65407669451E+03  0.23017701435E+04  0.22068822966E+04 0.  0.
        4    1    3    3  502    0  0.89286041049E+03 -0.19223480117E+03  0.31880029651E+03  0.96736196604E+03  0.12699999809E+01 0.  1.
       -4    1    3    3    0  502 -0.89286041049E+03  0.19223480117E+03 -0.97287699102E+03  0.13344081774E+04  0.12699999809E+01 0. -1.
</event>
<event>
 5   0  0.2298329E-05  0.2192940E+04  0.7818609E-02  0.8521372E-01
        2   -1    0    0  501    0  0.00000000000E+00  0.00000000000E+00  0.17561052460E+04  0.17561052460E+04  0.25500000920E-02 0. -1.
       -2   -1    0    0    0  501  0.00000000000E+00  0.00000000000E+00 -0.68460941559E+03  0.68460941559E+03  0.25500000920E-02 0.  1.
    10030    2    1    2    0    0  0.00000000000E+00  0.00000000000E+00  0.10714958304E+04  0.24407146616E+04  0.21929397495E+04 0.  0.
        4    1    3    3  502    0  0.85848755477E+03 -0.68000393444E+03  0.47645230044E+03  0.11943260192E+04  0.12699999809E+01 0. -1.
       -4    1    3    3    0  502 -0.85848755477E+03  0.68000393444E+03  0.59504353001E+03  0.12463886425E+04  0.12699999809E+01 0.  1.
</event>
<event>
 5   0  0.2284329E-05  0.2202912E+04  0.7818609E-02  0.8517217E-01
       -2   -1    0    0    0  501  0.00000000000E+00  0.00000000000E+00  0.76308754844E+03  0.76308754844E+03  0.25500000920E-02 0. -1.
        2   -1    0    0  501    0  0.00000000000E+00  0.00000000000E+00 -0.15898639014E+04  0.15898639014E+04  0.25500000920E-02 0.  1.
    10030    2    1    2    0    0  0.00000000000E+00  0.00000000000E+00 -0.82677635298E+03  0.23529514499E+04  0.22029120245E+04 0.  0.
        2    1    3    3  502    0  0.39913578634E+02 -0.31825369279E+03 -0.15388771169E+04  0.15719482458E+04  0.25500000920E-02 0.  1.
       -2    1    3    3    0  502 -0.39913578634E+02  0.31825369279E+03  0.71210076390E+03  0.78100320402E+03  0.25500000920E-02 0. -1.
</event>
<event>
 5   0  0.1033733E-05  0.2198716E+04  0.7818609E-02  0.8518963E-01
       -1   -1    0    0    0  501  0.00000000000E+00  0.00000000000E+00  0.99304025054E+03  0.99304025055E+03  0.50400001928E-02 0. -1.
        1   -1    0    0  501    0  0.00000000000E+00  0.00000000000E+00 -0.12170579241E+04  0.12170579241E+04  0.50400001928E-02 0.  1.
    10030    2    1    2    0    0  0.00000000000E+00  0.00000000000E+00 -0.22401767352E+03  0.22100981746E+04  0.21987155395E+04 0.  0.
        5    1    3    3  502    0 -0.10928260223E+03 -0.54598737045E+03  0.84080163149E+03  0.10084713032E+04  0.46999998093E+01 0. -1.
       -5    1    3    3    0  502  0.10928260223E+03  0.54598737045E+03 -0.10648193050E+04  0.12016268714E+04  0.46999998093E+01 0.  1.
</event>
<event>
 5   0  0.2319707E-05  0.2197128E+04  0.7818609E-02  0.8519625E-01
       -2   -1    0    0    0  501  0.00000000000E+00  0.00000000000E+00  0.75011635409E+03  0.75011635409E+03  0.25500000920E-02 0. -1.
        2   -1    0    0  501    0  0.00000000000E+00  0.00000000000E+00 -0.16088739790E+04  0.16088739790E+04  0.25500000920E-02 0.  1.
    10030    2    1    2    0    0  0.00000000000E+00  0.00000000000E+00 -0.85875762486E+03  0.23589903330E+04  0.21971278372E+04 0.  0.
        3    1    3    3  502    0 -0.47751066459E+03 -0.76889155252E+03  0.23908923987E+03  0.93614866830E+03  0.10100000352E+00 0. -1.
       -3    1    3    3    0  502  0.47751066459E+03  0.76889155252E+03 -0.10978468647E+04  0.14228416647E+04  0.10100000352E+00 0.  1.
</event>
<event>
 5   0  0.8003875E-06  0.2190587E+04  0.7818609E-02  0.8522356E-01
        3   -1    0    0  501    0  0.00000000000E+00  0.00000000000E+00  0.11096411753E+04  0.11096411799E+04  0.10100000352E+00 0. -1.
       -3   -1    0    0    0  501  0.00000000000E+00  0.00000000000E+00 -0.10811313265E+04  0.10811313312E+04  0.10100000352E+00 0.  1.
    10030    2    1    2    0    0  0.00000000000E+00  0.00000000000E+00  0.28509848771E+02  0.21907725111E+04  0.21905869953E+04 0.  0.
        1    1    3    3  502    0  0.64338596926E+03 -0.45238583965E+03 -0.74808870917E+03  0.10854654164E+04  0.50400001928E-02 0.  1.
       -1    1    3    3    0  502 -0.64338596926E+03  0.45238583965E+03  0.77659855795E+03  0.11053070947E+04  0.50400001928E-02 0. -1.
</event>
<event>
 5   0  0.1005538E-05  0.2205190E+04  0.7818609E-02  0.8516271E-01
       -1   -1    0    0    0  501  0.00000000000E+00  0.00000000000E+00  0.62604633580E+03  0.62604633582E+03  0.50400001928E-02 0.  1.
        1   -1    0    0  501    0  0.00000000000E+00  0.00000000000E+00 -0.19418949193E+04  0.19418949193E+04  0.50400001928E-02 0. -1.
    10030    2    1    2    0    0  0.00000000000E+00  0.00000000000E+00 -0.13158485835E+04  0.25679412551E+04  0.22051904215E+04 0.  0.
        3    1    3    3  502    0  0.21489597822E+03 -0.64556091123E+03  0.35243315624E+03  0.76624950987E+03  0.10100000352E+00 0.  1.
       -3    1    3    3    0  502 -0.21489597822E+03  0.64556091123E+03 -0.16682817397E+04  0.18016917452E+04  0.10100000352E+00 0. -1.
</event>
<event>
 5   0  0.8003875E-06  0.2200574E+04  0.7818609E-02  0.8518189E-01
       -3   -1    0    0    0  501  0.00000000000E+00  0.00000000000E+00  0.13829884638E+04  0.13829884675E+04  0.10100000352E+00 0.  1.
        3   -1    0    0  501    0  0.00000000000E+00  0.00000000000E+00 -0.87537353762E+03  0.87537354345E+03  0.10100000352E+00 0. -1.
    10030    2    1    2    0    0  0.00000000000E+00  0.00000000000E+00  0.50761492621E+03  0.22583620110E+04  0.22005740295E+04 0.  0.
        3    1    3    3  502    0  0.93175284122E+03 -0.49973962349E+03  0.56631758712E+03  0.11994243069E+04  0.10100000352E+00 0. -1.
       -3    1    3    3    0  502 -0.93175284122E+03  0.49973962349E+03 -0.58702660901E+02  0.10589377040E+04  0.10100000352E+00 0.  1.
</event>
<event>
 5   0  0.2298329E-05  0.2195152E+04  0.7818609E-02  0.8520449E-01
       -2   -1    0    0    0  501  0.00000000000E+00  0.00000000000E+00  0.68080820974E+03  0.68080820975E+03  0.25500000920E-02 0. -1.
        2   -1    0    0  501    0  0.00000000000E+00  0.00000000000E+00 -0.17694748646E+04  0.17694748646E+04  0.25500000920E-02 0.  1.
    10030    2    1    2    0    0  0.00000000000E+00  0.00000000000E+00 -0.10886666549E+04  0.24502830744E+04  0.21951519444E+04 0.  0.
        4    1    3    3  502    0 -0.10790715878E+04  0.15064090857E+03 -0.69234670307E+03  0.12909042355E+04  0.12699999809E+01 0.  1.
       -4    1    3    3    0  502  0.10790715878E+04 -0.15064090857E+03 -0.39631995183E+03  0.11593788389E+04  0.12699999809E+01 0. -1.
</event>
<event>
 5   0  0.1071208E-05  0.2203086E+04  0.7818609E-02  0.8517145E-01
        1   -1    0    0  501    0  0.00000000000E+00  0.00000000000E+00  0.63455616115E+03  0.63455616117E+03  0.50400001928E-02 0.  1.
       -1   -1    0    0    0  501  0.00000000000E+00  0.00000000000E+00 -0.19121975200E+04  0.19121975200E+04  0.50400001928E-02 0. -1.
    10030    2    1    2    0    0  0.00000000000E+00  0.00000000000E+00 -0.12776413589E+04  0.25467536812E+04  0.22030857611E+04 0.  0.
        4    1    3    3  502    0 -0.10411421631E+04 -0.34696850725E+03 -0.52896502801E+03  0.12182650625E+04  0.12699999809E+01 0. -1.
       -4    1    3    3    0  502  0.10411421631E+04  0.34696850725E+03 -0.74867633086E+03  0.13284886187E+04  0.12699999809E+01 0.  1.
</event>
<event>
 5   0  0.1005538E-05  0.2202923E+04  0.7818609E-02  0.8517212E-01
        1   -1    0    0  501    0  0.00000000000E+00  0.00000000000E+00  0.94541068313E+03  0.94541068314E+03  0.50400001928E-02 0.  1.
       -1   -1    0    0    0  501  0.00000000000E+00  0.00000000000E+00 -0.12832704213E+04  0.12832704213E+04  0.50400001928E-02 0. -1.
    10030    2    1    2    0    0  0.00000000000E+00  0.00000000000E+00 -0.33785973812E+03  0.22286811044E+04  0.22029231177E+04 0.  0.
        3    1    3    3  502    0  0.25382874821E+01  0.75726067208E+03  0.64027714646E+03  0.99166778856E+03  0.10100000352E+00 0.  1.
       -3    1    3    3    0  502 -0.25382874821E+01 -0.75726067208E+03 -0.97813688458E+03  0.12370133158E+04  0.10100000352E+00 0. -1.
</event>
<event>
 5   0  0.2284329E-05  0.2192229E+04  0.7818609E-02  0.8521670E-01
        2   -1    0    0  501    0  0.00000000000E+00  0.00000000000E+00  0.10224213241E+04  0.10224213241E+04  0.25500000920E-02 0. -1.
       -2   -1    0    0    0  501  0.00000000000E+00  0.00000000000E+00 -0.11751190737E+04  0.11751190737E+04  0.25500000920E-02 0.  1.
    10030    2    1    2    0    0  0.00000000000E+00  0.00000000000E+00 -0.15269774961E+03  0.21975403977E+04  0.21922288195E+04 0.  0.
        2    1    3    3  502    0 -0.10702360903E+04  0.70205986327E+02  0.15032425906E+03  0.10830196454E+04  0.25500000920E-02 0. -1.
       -2    1    3    3    0  502  0.10702360903E+04 -0.70205986327E+02 -0.30302200867E+03  0.11145207523E+04  0.25500000920E-02 0.  1.
</event>
<event>
 5   0  0.1005538E-05  0.2201467E+04  0.7818609E-02  0.8517818E-01
        1   -1    0    0  501    0  0.00000000000E+00  0.00000000000E+00  0.22946512525E+04  0.22946512525E+04  0.50400001928E-02 0.  1.
       -1   -1    0    0    0  501  0.00000000000E+00  0.00000000000E+00 -0.52801678176E+03  0.52801678178E+03  0.50400001928E-02 0. -1.
    10030    2    1    2    0    0  0.00000000000E+00  0.00000000000E+00  0.17666344707E+04  0.28226680343E+04  0.22014671196E+04 0.  0.
        3    1    3    3  502    0 -0.10559265736E+04 -0.25517471055E+03  0.65568389728E+03  0.12688642343E+04  0.10100000352E+00 0.  1.
       -3    1    3    3    0  502  0.10559265736E+04  0.25517471055E+03  0.11109505734E+04  0.15538037999E+04  0.10100000352E+00 0. -1.
</event>
<event>
 5   0  0.2298329E-05  0.2191907E+04  0.7818609E-02  0.8521804E-01
        2   -1    0    0  501    0  0.00000000000E+00  0.00000000000E+00  0.26385884416E+04  0.26385884416E+04  0.25500000920E-02 0.  1.
       -2   -1    0    0    0  501  0.00000000000E+00  0.00000000000E+00 -0.45521082965E+03  0.45521082966E+03  0.25500000920E-02 0. -1.
    10030    2    1    2    0    0  0.00000000000E+00  0.00000000000E+00  0.21833776120E+04  0.30937992713E+04  0.21919069630E+04 0.  0.
        4    1    3    3  502    0 -0.21436158243E+02 -0.72731321969E+03  0.22484600188E+04  0.23632642885E+04  0.12699999809E+01 0.  1.
       -4    1    3    3    0  502  0.21436158243E+02  0.72731321969E+03 -0.65082406845E+02  0.73053498274E+03  0.12699999809E+01 0. -1.
</event>
<event>
 5   0  0.2229552E-05  0.2202576E+04  0.7818609E-02  0.8517357E-01
       -2   -1    0    0    0  501  0.00000000000E+00  0.00000000000E+00  0.11728165454E+04  0.11728165454E+04  0.25500000920E-02 0. -1.
        2   -1    0    0  501    0  0.00000000000E+00  0.00000000000E+00 -0.10341217411E+04  0.10341217411E+04  0.25500000920E-02 0.  1.
    10030    2    1    2    0    0  0.00000000000E+00  0.00000000000E+00  0.13869480426E+03  0.22069382865E+04  0.22025758447E+04 0.  0.
        1    1    3    3  502    0  0.97237339788E+03  0.13936805295E+03  0.56823072884E+03  0.11348214134E+04  0.50400001928E-02 0. -1.
       -1    1    3    3    0  502 -0.97237339788E+03 -0.13936805295E+03 -0.42953592458E+03  0.10721168731E+04  0.50400001928E-02 0.  1.
</event>
<event>
 5   0  0.2229552E-05  0.2196819E+04  0.7818609E-02  0.8519753E-01
        2   -1    0    0  501    0  0.00000000000E+00  0.00000000000E+00  0.23828791408E+04  0.23828791408E+04  0.25500000920E-02 0. -1.
       -2   -1    0    0    0  501  0.00000000000E+00  0.00000000000E+00 -0.50632186638E+03  0.50632186639E+03  0.25500000920E-02 0.  1.
    10030    2    1    2    0    0  0.00000000000E+00  0.00000000000E+00  0.18765572744E+04  0.28892010072E+04  0.21968193498E+04 0.  0.
        1    1    3    3  502    0  0.47889553897E+03  0.70525213855E+03  0.18492516731E+04  0.20362841812E+04  0.50400001928E-02 0. -1.
       -1    1    3    3    0  502 -0.47889553897E+03 -0.70525213855E+03  0.27305601350E+02  0.85291682600E+03  0.50400001928E-02 0.  1.
</event>
<event>
 5   0  0.2319707E-05  0.2199673E+04  0.7818609E-02  0.8518564E-01
        2   -1    0    0  501    0  0.00000000000E+00  0.00000000000E+00  0.22025878533E+04  0.22025878533E+04  0.25500000920E-02 0.  1.
       -2   -1    0    0    0  501  0.00000000000E+00  0.00000000000E+00 -0.54919041654E+03  0.54919041654E+03  0.25500000920E-02 0. -1.
    10030    2    1    2    0    0  0.00000000000E+00  0.00000000000E+00  0.16533974367E+04  0.27517782698E+04  0.21996728308E+04 0.  0.
        3    1    3    3  502    0 -0.10856907520E+04 -0.72436903163E+01  0.10464726498E+04  0.15079396198E+04  0.10100000352E+00 0. -1.
       -3    1    3    3    0  502  0.10856907520E+04  0.72436903163E+01  0.60692478700E+03  0.12438386500E+04  0.10100000352E+00 0.  1.
</event>
<event>
 5   0  0.2289708E-05  0.2192263E+04  0.7818609E-02  0.8521655E-01
        2   -1    0    0  501    0  0.00000000000E+00  0.00000000000E+00  0.17026568603E+04  0.17026568603E+04  0.25500000920E-02 0.  1.
       -2   -1    0    0    0  501  0.00000000000E+00  0.00000000000E+00 -0.70566461525E+03  0.70566461525E+03  0.25500000920E-02 0. -1.
    10030    2    1    2    0    0  0.00000000000E+00  0.00000000000E+00  0.99699224503E+03  0.24083214755E+04  0.21922633950E+04 0.  0.
        5    1    3    3  502    0 -0.12787167703E+03  0.10617840565E+04  0.76248334365E+03  0.13134456546E+04  0.46999998093E+01 0. -1.
       -5    1    3    3    0  502  0.12787167703E+03 -0.10617840565E+04  0.23450890138E+03  0.10948758209E+04  0.46999998093E+01 0.  1.
</event>
<event>
 5   0  0.1005538E-05  0.2195499E+04  0.7818609E-02  0.8520304E-01
       -1   -1    0    0    0  501  0.00000000000E+00  0.00000000000E+00  0.10083581473E+04  0.10083581473E+04  0.50400001928E-02 0. -1.
        1   -1    0    0  501    0  0.00000000000E+00  0.00000000000E+00 -0.11950659365E+04  0.11950659365E+04  0.50400001928E-02 0.  1.
    10030    2    1    2    0    0  0.00000000000E+00  0.00000000000E+00 -0.18670778915E+03  0.22034240838E+04  0.21954994636E+04 0.  0.
        3    1    3    3  502    0  0.56353944856E+03 -0.85745274526E+03  0.29825002884E+03  0.10685293680E+04  0.10100000352E+00 0. -1.
       -3    1    3    3    0  502 -0.56353944856E+03  0.85745274526E+03 -0.48495781799E+03  0.11348947158E+04  0.10100000352E+00 0.  1.
</event>
<event>
 5   0  0.1071208E-05  0.2209789E+04  0.7818609E-02  0.8514365E-01
       -1   -1    0    0    0  501  0.00000000000E+00  0.00000000000E+00  0.11274026686E+04  0.11274026686E+04  0.50400001928E-02 0. -1.
        1   -1    0    0  501    0  0.00000000000E+00  0.00000000000E+00 -0.10828353381E+04  0.10828353381E+04  0.50400001928E-02 0.  1.
    10030    2    1    2    0    0  0.00000000000E+00  0.00000000000E+00  0.44567330519E+02  0.22102380068E+04  0.22097886323E+04 0.  0.
        4    1    3    3  502    0  0.15212954866E+03 -0.50588780032E+03 -0.94833831102E+03  0.10855473417E+04  0.12699999809E+01 0.  1.
       -4    1    3    3    0  502 -0.15212954866E+03  0.50588780032E+03  0.99290564154E+03  0.11246906650E+04  0.12699999809E+01 0. -1.
</event>
<event>
 5   0  0.2298329E-05  0.2187505E+04  0.7818609E-02  0.8523647E-01
        2   -1    0    0  501    0  0.00000000000E+00  0.00000000000E+00  0.25521628666E+04  0.25521628666E+04  0.25500000920E-02 0. -1.
       -2   -1    0    0    0  501  0.00000000000E+00  0.00000000000E+00 -0.46873774495E+03  0.46873774495E+03  0.25500000920E-02 0.  1.
    10030    2    1    2    0    0  0.00000000000E+00  0.00000000000E+00  0.20834251217E+04  0.30209006116E+04  0.21875054897E+04 0.  0.
        4    1    3    3  502    0  0.17892861731E+03  0.64259949538E+03  0.22387470560E+04  0.23360093226E+04  0.12699999809E+01 0. -1.
       -4    1    3    3    0  502 -0.17892861731E+03 -0.64259949538E+03 -0.15532193432E+03  0.68489128899E+03  0.12699999809E+01 0.  1.
</event>
<event>
 5   0  0.1005538E-05  0.2197604E+04  0.7818609E-02  0.8519426E-01
        1   -1    0    0  501    0  0.00000000000E+00  0.00000000000E+00  0.94819886000E+03  0.94819886001E+03  0.50400001928E-02 0.  1.
       -1   -1    0    0    0  501  0.00000000000E+00  0.00000000000E+00 -0.12733261147E+04  0.12733261147E+04  0.50400001928E-02 0. -1.
    10030    2    1    2    0    0  0.00000000000E+00  0.00000000000E+00 -0.32512725466E+03  0.22215249747E+04  0.21976044870E+04 0.  0.
        3    1    3    3  502    0 -0.31807916785E+03 -0.41013728159E+03 -0.11415988579E+04  0.12540474112E+04  0.10100000352E+00 0. -1.
       -3    1    3    3    0  502  0.31807916785E+03  0.41013728159E+03  0.81647160328E+03  0.96747756353E+03  0.10100000352E+00 0.  1.
</event>
<event>
 5   0  0.1007682E-05  0.2209704E+04  0.7818609E-02  0.8514400E-01
       -1   -1    0    0    0  501  0.00000000000E+00  0.00000000000E+00  0.12670639695E+04  0.12670639695E+04  0.50400001928E-02 0. -1.
        1   -1    0    0  501    0  0.00000000000E+00  0.00000000000E+00 -0.96340709638E+03  0.96340709639E+03  0.50400001928E-02 0.  1.
    10030    2    1    2    0    0  0.00000000000E+00  0.00000000000E+00  0.30365687310E+03  0.22304710659E+04  0.22097044325E+04 0.  0.
        2    1    3    3  502    0 -0.40657129178E+03  0.10102912070E+04  0.33988520655E+03  0.11408376273E+04  0.25500000920E-02 0. -1.
       -2    1    3    3    0  502  0.40657129178E+03 -0.10102912070E+04 -0.36228333453E+02  0.10896334386E+04  0.25500000920E-02 0.  1.
</event>
<event>
 5   0  0.1005538E-05  0.2197570E+04  0.7818609E-02  0.8519440E-01
        1   -1    0    0  501    0  0.00000000000E+00  0.00000000000E+00  0.17692746503E+04  0.17692746503E+04  0.50400001928E-02 0.  1.
       -1   -1    0    0    0  501  0.00000000000E+00  0.00000000000E+00 -0.68238626451E+03  0.68238626453E+03  0.50400001928E-02 0. -1.
    10030    2    1    2    0    0  0.00000000000E+00  0.00000000000E+00  0.10868883857E+04  0.24516609148E+04  0.21975702214E+04 0.  0.
        3    1    3    3  502    0 -0.36468471259E+03 -0.24609527021E+03  0.16667229601E+04  0.17238106792E+04  0.10100000352E+00 0.  1.
       -3    1    3    3    0  502  0.36468471259E+03  0.24609527021E+03 -0.57983457439E+03  0.72785023561E+03  0.10100000352E+00 0. -1.
</event>
<event>
 5   0  0.1005538E-05  0.2204536E+04  0.7818609E-02  0.8516542E-01
       -1   -1    0    0    0  501  0.00000000000E+00  0.00000000000E+00  0.14107332733E+04  0.14107332733E+04  0.50400001928E-02 0. -1.
        1   -1    0    0  501    0  0.00000000000E+00  0.00000000000E+00 -0.86125083616E+03  0.86125083618E+03  0.50400001928E-02 0.  1.
    10030    2    1    2    0    0  0.00000000000E+00  0.00000000000E+00  0.54948243712E+03  0.22719841095E+04  0.22045364241E+04 0.  0.
        3    1    3    3  502    0 -0.33699052619E+03 -0.93209650520E+03 -0.22233118138E+03  0.10157744209E+04  0.10100000352E+00 0.  1.
       -3    1    3    3    0  502  0.33699052619E+03  0.93209650520E+03  0.77181361850E+03  0.12562096886E+04  0.10100000352E+00 0. -1.
</event>
<event>
 5   0  0.1033733E-05  0.2199853E+04  0.7818609E-02  0.8518489E-01
       -1   -1    0    0    0  501  0.00000000000E+00  0.00000000000E+00  0.11664878165E+04  0.11664878165E+04  0.50400001928E-02 0. -1.
        1   -1    0    0  501    0  0.00000000000E+00  0.00000000000E+00 -0.10371631715E+04  0.10371631715E+04  0.50400001928E-02 0.  1.
    10030    2    1    2    0    0  0.00000000000E+00  0.00000000000E+00  0.12932464498E+03  0.22036509880E+04  0.21998529072E+04 0.  0.
        5    1    3    3  502    0  0.85840767119E+03 -0.36245418318E+03 -0.52079463661E+03  0.10674670526E+04  0.46999998093E+01 0.  1.
       -5    1    3    3    0  502 -0.85840767119E+03  0.36245418318E+03  0.65011928159E+03  0.11361839354E+04  0.46999998093E+01 0. -1.
</event>
<event>
 5   0  0.1007682E-05  0.2197741E+04  0.7818609E-02  0.8519369E-01
        1   -1    0    0  501    0  0.00000000000E+00  0.00000000000E+00  0.18600009250E+04  0.18600009250E+04  0.50400001928E-02 0. -1.
       -1   -1    0    0    0  501  0.00000000000E+00  0.00000000000E+00 -0.64920231217E+03  0.64920231219E+03  0.50400001928E-02 0.  1.
    10030    2    1    2    0    0  0.00000000000E+00  0.00000000000E+00  0.12107986128E+04  0.25092032372E+04  0.21977414781E+04 0.  0.
        2    1    3    3  502    0 -0.32421109448E+03  0.14914233266E+03  0.17919967457E+04  0.18271859801E+04  0.25500000920E-02 0. -1.
       -2    1    3    3    0  502  0.32421109448E+03 -0.14914233266E+03 -0.58119813295E+03  0.68201725705E+03  0.25500000920E-02 0.  1.
</event>
<event>
 5   0  0.1007682E-05  0.2195384E+04  0.7818609E-02  0.8520352E-01
       -1   -1    0    0    0  501  0.00000000000E+00  0.00000000000E+00  0.94599268986E+03  0.94599268987E+03  0.50400001928E-02 0.  1.
        1   -1    0    0  501    0  0.00000000000E+00  0.00000000000E+00 -0.12737173179E+04  0.12737173179E+04  0.50400001928E-02 0. -1.
    10030    2    1    2    0    0  0.00000000000E+00  0.00000000000E+00 -0.32772462804E+03  0.22197100078E+04  0.21953835854E+04 0.  0.
        2    1    3    3  502    0  0.65732921699E+03 -0.41887110606E+03  0.61761384872E+03  0.99447552465E+03  0.25500000920E-02 0.  1.
       -2    1    3    3    0  502 -0.65732921699E+03  0.41887110606E+03 -0.94533847677E+03  0.12252344831E+04  0.25500000920E-02 0. -1.
</event>
<event>
 5   0  0.2289708E-05  0.2205894E+04  0.7818609E-02  0.8515979E-01
       -2   -1    0    0    0  501  0.00000000000E+00  0.00000000000E+00  0.89607428547E+03  0.89607428548E+03  0.25500000920E-02 0.  1.
        2   -1    0    0  501    0  0.00000000000E+00  0.00000000000E+00 -0.13575795080E+04  0.13575795080E+04  0.25500000920E-02 0. -1.
    10030    2    1    2    0    0  0.00000000000E+00  0.00000000000E+00 -0.46150522254E+03  0.22536537935E+04  0.22058940025E+04 0.  0.
        5    1    3    3  502    0 -0.90644955994E+03 -0.62824369565E+03 -0.24235866454E+03  0.11292035946E+04  0.46999998093E+01 0.  1.
       -5    1    3    3    0  502  0.90644955994E+03  0.62824369565E+03 -0.21914655800E+03  0.11244501989E+04  0.46999998093E+01 0. -1.
</event>
<event>
 5   0  0.1005538E-05  0.2196577E+04  0.7818609E-02  0.8519854E-01
       -1   -1    0    0    0  501  0.00000000000E+00  0.00000000000E+00  0.45862732568E+03  0.45862732571E+03  0.50400001928E-02 0. -1.
        1   -1    0    0  501    0  0.00000000000E+00  0.00000000000E+00 -0.26301052262E+04  0.26301052262E+04  0.50400001928E-02 0.  1.
    10030    2    1    2    0    0  0.00000000000E+00  0.00000000000E+00 -0.21714779005E+04  0.30887325519E+04  0.21965774525E+04 0.  0.
        3    1    3    3  502    0  0.47572323274E+03  0.41246191116E+03  0.17964655680E+03  0.65475974059E+03  0.10100000352E+00 0. -1.
       -3    1    3    3    0  502 -0.47572323274E+03 -0.41246191116E+03 -0.23511244573E+04  0.24339728114E+04  0.10100000352E+00 0.  1.
</event>
<event>
 5   0  0.2289708E-05  0.2190338E+04  0.7818609E-02  0.8522460E-01
       -2   -1    0    0    0  501  0.00000000000E+00  0.00000000000E+00  0.11485368388E+04  0.11485368388E+04  0.25500000920E-02 0.  1.
        2   -1    0    0  501    0  0.00000000000E+00  0.00000000000E+00 -0.10442811532E+04  0.10442811532E+04  0.25500000920E-02 0. -1.
    10030    2    1    2    0    0  0.00000000000E+00  0.00000000000E+00  0.10425568560E+03  0.21928179920E+04  0.21903382154E+04 0.  0.
        5    1    3    3  502    0 -0.11070900691E+03 -0.47214270641E+03  0.10351754111E+04  0.11431471651E+04  0.46999998093E+01 0.  1.
       -5    1    3    3    0  502  0.11070900691E+03  0.47214270641E+03 -0.93091972549E+03  0.10496708268E+04  0.46999998093E+01 0. -1.
</event>
<event>
 5   0  0.1005538E-05  0.2200699E+04  0.7818609E-02  0.8518137E-01
       -1   -1    0    0    0  501  0.00000000000E+00  0.00000000000E+00  0.70440424264E+03  0.70440424266E+03  0.50400001928E-02 0. -1.
        1   -1    0    0  501    0  0.00000000000E+00  0.00000000000E+00 -0.17188553962E+04  0.17188553962E+04  0.50400001928E-02 0.  1.
    10030    2    1    2    0    0  0.00000000000E+00  0.00000000000E+00 -0.10144511536E+04  0.24232596389E+04  0.22006990104E+04 0.  0.
        3    1    3    3  502    0 -0.10479503574E+04 -0.32255472147E+03 -0.40554201209E+03  0.11690619460E+04  0.10100000352E+00 0.  1.
       -3    1    3    3    0  502  0.10479503574E+04  0.32255472147E+03 -0.60890914149E+03  0.12541976928E+04  0.10100000352E+00 0. -1.
</event>
<event>
 5   0  0.2298329E-05  0.2197077E+04  0.7818609E-02  0.8519646E-01
       -2   -1    0    0    0  501  0.00000000000E+00  0.00000000000E+00  0.12500626692E+04  0.12500626692E+04  0.25500000920E-02 0. -1.
        2   -1    0    0  501    0  0.00000000000E+00  0.00000000000E+00 -0.96538120051E+03  0.96538120051E+03  0.25500000920E-02 0.  1.
    10030    2    1    2    0    0  0.00000000000E+00  0.00000000000E+00  0.28468146864E+03  0.22154438697E+04  0.21970771495E+04 0.  0.
        4    1    3    3  502    0  0.14238163782E+03  0.85083775113E+03 -0.54348316448E+03  0.10195945138E+04  0.12699999809E+01 0.  1.
       -4    1    3    3    0  502 -0.14238163782E+03 -0.85083775113E+03  0.82816463313E+03  0.11958493559E+04  0.12699999809E+01 0. -1.
</event>
<event>
 5   0  0.1071208E-05  0.2199174E+04  0.7818609E-02  0.8518772E-01
        1   -1    0    0  501    0  0.00000000000E+00  0.00000000000E+00  0.11814791705E+04  0.11814791705E+04  0.50400001928E-02 0.  1.
       -1   -1    0    0    0  501  0.00000000000E+00  0.00000000000E+00 -0.10233705983E+04  0.10233705983E+04  0.50400001928E-02 0. -1.
    10030    2    1    2    0    0  0.00000000000E+00  0.00000000000E+00  0.15810857217E+03  0.22048497688E+04  0.21991735225E+04 0.  0.
        4    1    3    3  502    0 -0.35023786440E+02 -0.84907031508E+03 -0.62055938374E+03  0.10522559704E+04  0.12699999809E+01 0. -1.
       -4    1    3    3    0  502  0.35023786440E+02  0.84907031508E+03  0.77866795591E+03  0.11525937984E+04  0.12699999809E+01 0.  1.
</event>
<event>
 5   0  0.2298329E-05  0.2189592E+04  0.7818609E-02  0.8522773E-01
       -2   -1    0    0    0  501  0.00000000000E+00  0.00000000000E+00  0.13325854044E+04  0.13325854044E+04  0.25500000920E-02 0.  1.
        2   -1    0    0  501    0  0.00000000000E+00  0.00000000000E+00 -0.89943807350E+03  0.89943807350E+03  0.25500000920E-02 0. -1.
    10030    2    1    2    0    0  0.00000000000E+00  0.00000000000E+00  0.43314733091E+03  0.22320234779E+04  0.21895917875E+04 0.  0.
        4    1    3    3  502    0  0.24319739585E+02  0.10608577444E+04  0.49117439961E+03  0.11693008626E+04  0.12699999809E+01 0.  1.
       -4    1    3    3    0  502 -0.24319739585E+02 -0.10608577444E+04 -0.58027068697E+02  0.10627226153E+04  0.12699999809E+01 0. -1.
</event>
<event>
 5   0  0.2284329E-05  0.2186381E+04  0.7818609E-02  0.8524118E-01
        2   -1    0    0  501    0  0.00000000000E+00  0.00000000000E+00  0.15030700336E+04  0.15030700336E+04  0.25500000920E-02 0. -1.
       -2   -1    0    0    0  501  0.00000000000E+00  0.00000000000E+00 -0.79508279382E+03  0.79508279383E+03  0.25500000920E-02 0.  1.
    10030    2    1    2    0    0  0.00000000000E+00  0.00000000000E+00  0.70798723976E+03  0.22981528274E+04  0.21863806820E+04 0.  0.
        2    1    3    3  502    0  0.10051108833E+04  0.34110890083E+03  0.78965080643E+02  0.10643489343E+04  0.25500000920E-02 0.  1.
       -2    1    3    3    0  502 -0.10051108833E+04 -0.34110890083E+03  0.62902215912E+03  0.12338038931E+04  0.25500000920E-02 0. -1.
</event>
<event>
 5   0  0.1049198E-05  0.2190196E+04  0.7818609E-02  0.8522520E-01
        1   -1    0    0  501    0  0.00000000000E+00  0.00000000000E+00  0.10095281293E+04  0.10095281293E+04  0.50400001928E-02 0. -1.
       -1   -1    0    0    0  501  0.00000000000E+00  0.00000000000E+00 -0.11879215063E+04  0.11879215064E+04  0.50400001928E-02 0.  1.
    10030    2    1    2    0    0  0.00000000000E+00  0.00000000000E+00 -0.17839337703E+03  0.21974496357E+04  0.21901964990E+04 0.  0.
        1    1    3    3  502    0  0.10140983851E+04  0.36399554612E+01 -0.50388299026E+03  0.11323898851E+04  0.50400001928E-02 0.  1.
       -1    1    3    3    0  502 -0.10140983851E+04 -0.36399554612E+01  0.32548961322E+03  0.10650597506E+04  0.50400001928E-02 0. -1.
</event>
<event>
 5   0  0.8003875E-06  0.2186172E+04  0.7818609E-02  0.8524206E-01
        3   -1    0    0  501    0  0.00000000000E+00  0.00000000000E+00  0.96288720873E+03  0.96288721403E+03  0.10100000352E+00 0.  1.
       -3   -1    0    0    0  501  0.00000000000E+00  0.00000000000E+00 -0.12408901676E+04  0.12408901717E+04  0.10100000352E+00 0. -1.
    10030    2    1    2    0    0  0.00000000000E+00  0.00000000000E+00 -0.27800295882E+03  0.22037773857E+04  0.21861722532E+04 0.  0.
        3    1    3    3  502    0 -0.11352151705E+03  0.29432444914E+03 -0.11940064315E+04  0.12349758641E+04  0.10100000352E+00 0. -1.
       -3    1    3    3    0  502  0.11352151705E+03 -0.29432444914E+03  0.91600347266E+03  0.96880152163E+03  0.10100000352E+00 0.  1.
</event>
<event>
 5   0  0.1049198E-05  0.2180427E+04  0.7818609E-02  0.8526619E-01
        1   -1    0    0  501    0  0.00000000000E+00  0.00000000000E+00  0.11562785150E+04  0.11562785150E+04  0.50400001928E-02 0. -1.
       -1   -1    0    0    0  501  0.00000000000E+00  0.00000000000E+00 -0.10279228990E+04  0.10279228990E+04  0.50400001928E-02 0.  1.
    10030    2    1    2    0    0  0.00000000000E+00  0.00000000000E+00  0.12835561602E+03  0.21842014141E+04  0.21804267135E+04 0.  0.
        1    1    3    3  502    0 -0.78502741266E+03 -0.59878794821E+03 -0.39895374573E+03  0.10648845650E+04  0.50400001928E-02 0. -1.
       -1    1    3    3    0  502  0.78502741266E+03  0.59878794821E+03  0.52730936175E+03  0.11193168490E+04  0.50400001928E-02 0.  1.
</event>
<event>
 5   0  0.2289708E-05  0.2199716E+04  0.7818609E-02  0.8518546E-01
        2   -1    0    0  501    0  0.00000000000E+00  0.00000000000E+00  0.11176629788E+04  0.11176629788E+04  0.25500000920E-02 0.  1.
       -2   -1    0    0    0  501  0.00000000000E+00  0.00000000000E+00 -0.10823368350E+04  0.10823368350E+04  0.25500000920E-02 0. -1.
    10030    2    1    2    0    0  0.00000000000E+00  0.00000000000E+00  0.35326143829E+02  0.21999998138E+04  0.21997161735E+04 0.  0.
        5    1    3    3  502    0 -0.33404577536E+03 -0.56522010396E+03  0.90016303282E+03  0.11141705083E+04  0.46999998093E+01 0.  1.
       -5    1    3    3    0  502  0.33404577536E+03  0.56522010396E+03 -0.86483688899E+03  0.10858293054E+04  0.46999998093E+01 0. -1.
</event>
<event>
 5   0  0.2319707E-05  0.2198083E+04  0.7818609E-02  0.8519226E-01
       -2   -1    0    0    0  501  0.00000000000E+00  0.00000000000E+00  0.12210512142E+04  0.12210512142E+04  0.25500000920E-02 0.  1.
        2   -1    0    0  501    0  0.00000000000E+00  0.00000000000E+00 -0.98922347346E+03  0.98922347347E+03  0.25500000920E-02 0. -1.
    10030    2    1    2    0    0  0.00000000000E+00  0.00000000000E+00  0.23182774077E+03  0.22102746877E+04  0.21980832772E+04 0.  0.
        3    1    3    3  502    0  0.79659630548E+03 -0.19004493464E+03  0.85292501653E+03  0.11824397850E+04  0.10100000352E+00 0.  1.
       -3    1    3    3    0  502 -0.79659630548E+03  0.19004493464E+03 -0.62109727576E+03  0.10278349027E+04  0.10100000352E+00 0. -1.
</event>
<event>
 5   0  0.2289708E-05  0.2206698E+04  0.7818609E-02  0.8515645E-01
        2   -1    0    0  501    0  0.00000000000E+00  0.00000000000E+00  0.10668740688E+04  0.10668740688E+04  0.25500000920E-02 0. -1.
       -2   -1    0    0    0  501  0.00000000000E+00  0.00000000000E+00 -0.11410712470E+04  0.11410712470E+04  0.25500000920E-02 0.  1.
    10030    2    1    2    0    0  0.00000000000E+00  0.00000000000E+00 -0.74197178204E+02  0.22079453158E+04  0.22066982794E+04 0.  0.
        5    1    3    3  502    0 -0.10925542309E+04 -0.10451592957E+01  0.11687597756E+03  0.10987984001E+04  0.46999998093E+01 0.  1.
       -5    1    3    3    0  502  0.10925542309E+04  0.10451592957E+01 -0.19107315577E+03  0.11091469158E+04  0.46999998093E+01 0. -1.
</event>
<event>
 5   0  0.1007682E-05  0.2191443E+04  0.7818609E-02  0.8521998E-01
       -1   -1    0    0    0  501  0.00000000000E+00  0.00000000000E+00  0.10642403787E+04  0.10642403788E+04  0.50400001928E-02 0. -1.
        1   -1    0    0  501    0  0.00000000000E+00  0.00000000000E+00 -0.11281339365E+04  0.11281339365E+04  0.50400001928E-02 0.  1.
    10030    2    1    2    0    0  0.00000000000E+00  0.00000000000E+00 -0.63893557717E+02  0.21923743152E+04  0.21914430751E+04 0.  0.
        2    1    3    3  502    0  0.98267055372E+03  0.18441898718E+02 -0.51653280177E+03  0.11103097118E+04  0.25500000920E-02 0. -1.
       -2    1    3    3    0  502 -0.98267055372E+03 -0.18441898718E+02  0.45263924405E+03  0.10820646034E+04  0.25500000920E-02 0.  1.
</event>
<event>
 5   0  0.2298329E-05  0.2209951E+04  0.7818609E-02  0.8514298E-01
        2   -1    0    0  501    0  0.00000000000E+00  0.00000000000E+00  0.12056730484E+04  0.12056730484E+04  0.25500000920E-02 0. -1.
       -2   -1    0    0    0  501  0.00000000000E+00  0.00000000000E+00 -0.10126885427E+04  0.10126885427E+04  0.25500000920E-02 0.  1.
    10030    2    1    2    0    0  0.00000000000E+00  0.00000000000E+00  0.19298450563E+03  0.22183615911E+04  0.22099513862E+04 0.  0.
        4    1    3    3  502    0 -0.53756089895E+02 -0.51174883377E+03  0.10780648280E+04  0.11945718783E+04  0.12699999809E+01 0. -1.
       -4    1    3    3    0  502  0.53756089895E+02  0.51174883377E+03 -0.88508032241E+03  0.10237897128E+04  0.12699999809E+01 0.  1.
</event>
<event>
 5   0  0.1049198E-05  0.2200830E+04  0.7818609E-02  0.8518083E-01
       -1   -1    0    0    0  501  0.00000000000E+00  0.00000000000E+00  0.76640229716E+03  0.76640229718E+03  0.50400001928E-02 0.  1.
        1   -1    0    0  501    0  0.00000000000E+00  0.00000000000E+00 -0.15799966810E+04  0.15799966810E+04  0.50400001928E-02 0. -1.
    10030    2    1    2    0    0  0.00000000000E+00  0.00000000000E+00 -0.81359438387E+03  0.23463989782E+04  0.22008299215E+04 0.  0.
        1    1    3    3  502    0 -0.26897366826E+03  0.49435639179E+03  0.60135795459E+03  0.82363005403E+03  0.50400001928E-02 0.  1.
       -1    1    3    3    0  502  0.26897366826E+03 -0.49435639179E+03 -0.14149523385E+04  0.15227689242E+04  0.50400001928E-02 0. -1.
</event>
<event>
 5   0  0.2319707E-05  0.2203398E+04  0.7818609E-02  0.8517015E-01
        2   -1    0    0  501    0  0.00000000000E+00  0.00000000000E+00  0.25598485470E+04  0.25598485470E+04  0.25500000920E-02 0.  1.
       -2   -1    0    0    0  501  0.00000000000E+00  0.00000000000E+00 -0.47414568948E+03  0.47414568949E+03  0.25500000920E-02 0. -1.
    10030    2    1    2    0    0  0.00000000000E+00  0.00000000000E+00  0.20857028575E+04  0.30339942365E+04  0.22033984245E+04 0.  0.
        3    1    3    3  502    0  0.69357461299E+03 -0.12583829046E+03  0.22086913664E+04  0.23184474507E+04  0.10100000352E+00 0.  1.
       -3    1    3    3    0  502 -0.69357461299E+03  0.12583829046E+03 -0.12298850894E+03  0.71554678580E+03  0.10100000352E+00 0. -1.
</event>
<event>
 5   0  0.1049198E-05  0.2196703E+04  0.7818609E-02  0.8519802E-01
        1   -1    0    0  501    0  0.00000000000E+00  0.00000000000E+00  0.17960004077E+04  0.17960004077E+04  0.50400001928E-02 0. -1.
       -1   -1    0    0    0  501  0.00000000000E+00  0.00000000000E+00 -0.67170132781E+03  0.67170132783E+03  0.50400001928E-02 0.  1.
    10030    2    1    2    0    0  0.00000000000E+00  0.00000000000E+00  0.11242990799E+04  0.24677017356E+04  0.21967028553E+04 0.  0.
        1    1    3    3  502    0 -0.26126021963E+02  0.13404604884E+02 -0.67126030393E+03  0.67190226084E+03  0.50400001928E-02 0.  1.
       -1    1    3    3    0  502  0.26126021963E+02 -0.13404604884E+02  0.17955593838E+04  0.17957994747E+04  0.50400001928E-02 0. -1.
</event>
<event>
 5   0  0.2289708E-05  0.2200363E+04  0.7818609E-02  0.8518277E-01
       -2   -1    0    0    0  501  0.00000000000E+00  0.00000000000E+00  0.77172459787E+03  0.77172459787E+03  0.25500000920E-02 0. -1.
        2   -1    0    0  501    0  0.00000000000E+00  0.00000000000E+00 -0.15684347581E+04  0.15684347581E+04  0.25500000920E-02 0.  1.
    10030    2    1    2    0    0  0.00000000000E+00  0.00000000000E+00 -0.79671016025E+03  0.23401593560E+04  0.22003633182E+04 0.  0.
        5    1    3    3  502    0 -0.83917544147E+03 -0.71136610289E+03 -0.38668336254E+03  0.11661060272E+04  0.46999998093E+01 0.  1.
       -5    1    3    3    0  502  0.83917544147E+03  0.71136610289E+03 -0.41002679771E+03  0.11740533287E+04  0.46999998093E+01 0. -1.
</event>
<event>
 5   0  0.1071208E-05  0.2196782E+04  0.7818609E-02  0.8519769E-01
       -1   -1    0    0    0  501  0.00000000000E+00  0.00000000000E+00  0.10466314208E+04  0.10466314208E+04  0.50400001928E-02 0. -1.
        1   -1    0    0  501    0  0.00000000000E+00  0.00000000000E+00 -0.11527105134E+04  0.11527105134E+04  0.50400001928E-02 0.  1.
    10030    2    1    2    0    0  0.00000000000E+00  0.00000000000E+00 -0.10607909259E+03  0.21993419343E+04  0.21967822309E+04 0.  0.
        4    1    3    3  502    0 -0.75366659754E+03 -0.76093495842E+03  0.19101914804E+03  0.10878994802E+04  0.12699999809E+01 0. -1.
       -4    1    3    3    0  502  0.75366659754E+03  0.76093495842E+03 -0.29709824063E+03  0.11114424541E+04  0.12699999809E+01 0.  1.
</event>
<event>
 5   0  0.2284329E-05  0.2197581E+04  0.7818609E-02  0.8519436E-01
       -2   -1    0    0    0  501  0.00000000000E+00  0.00000000000E+00  0.53284654452E+03  0.53284654452E+03  0.25500000920E-02 0.  1.
        2   -1    0    0  501    0  0.00000000000E+00  0.00000000000E+00 -0.22658320291E+04  0.22658320291E+04  0.25500000920E-02 0. -1.
    10030    2    1    2    0    0  0.00000000000E+00  0.00000000000E+00 -0.17329854846E+04  0.27986785737E+04  0.21975811859E+04 0.  0.
        2    1    3    3  502    0  0.10068731758E+04  0.30901823900E+03 -0.12652813578E+04  0.16462754261E+04  0.25500000920E-02 0. -1.
       -2    1    3    3    0  502 -0.10068731758E+04 -0.30901823900E+03 -0.46770412678E+03  0.11524031475E+04  0.25500000920E-02 0.  1.
</event>
<event>
 5   0  0.2319707E-05  0.2192453E+04  0.7818609E-02  0.8521576E-01
        2   -1    0    0  501    0  0.00000000000E+00  0.00000000000E+00  0.14993668300E+04  0.14993668300E+04  0.25500000920E-02 0.  1.
       -2   -1    0    0    0  501  0.00000000000E+00  0.00000000000E+00 -0.80147996496E+03  0.80147996496E+03  0.25500000920E-02 0. -1.
    10030    2    1    2    0    0  0.00000000000E+00  0.00000000000E+00  0.69788686504E+03  0.23008467950E+04  0.21924529408E+04 0.  0.
        3    1    3    3  502    0  0.37123775343E+03  0.39805289764E+03  0.13475384398E+04  0.14533146376E+04  0.10100000352E+00 0.  1.
       -3    1    3    3    0  502 -0.37123775343E+03 -0.39805289764E+03 -0.64965157480E+03  0.84753215734E+03  0.10100000352E+00 0. -1.
</event>
<event>
 5   0  0.1033733E-05  0.2210369E+04  0.7818609E-02  0.8514125E-01
        1   -1    0    0  501    0  0.00000000000E+00  0.00000000000E+00  0.96447218746E+03  0.96447218747E+03  0.50400001928E-02 0.  1.
       -1   -1    0    0    0  501  0.00000000000E+00  0.00000000000E+00 -0.12664260994E+04  0.12664260994E+04  0.50400001928E-02 0. -1.
    10030    2    1    2    0    0  0.00000000000E+00  0.00000000000E+00 -0.30195391193E+03  0.22308982869E+04  0.22103689741E+04 0.  0.
        5    1    3    3  502    0  0.75754456638E+03  0.80464754391E+03 -0.15996020577E+03  0.11166650337E+04  0.46999998093E+01 0.  1.
       -5    1    3    3    0  502 -0.75754456638E+03 -0.80464754391E+03 -0.14199370616E+03  0.11142332532E+04  0.46999998093E+01 0. -1.
</event>
<event>
 5   0  0.8003875E-06  0.2200638E+04  0.7818609E-02  0.8518162E-01
        4   -1    0    0  501    0  0.00000000000E+00  0.00000000000E+00  0.94543582528E+03  0.94543667828E+03  0.12699999809E+01 0.  1.
       -4   -1    0    0    0  501  0.00000000000E+00  0.00000000000E+00 -0.12805740293E+04  0.12805746591E+04  0.12699999809E+01 0. -1.
    10030    2    1    2    0    0  0.00000000000E+00  0.00000000000E+00 -0.33513820404E+03  0.22260113374E+04  0.22006382843E+04 0.  0.
        1    1    3    3  502    0  0.38183408086E+03 -0.26511793369E+03  0.84123477071E+03  0.96112471800E+03  0.50400001928E-02 0.  1.
       -1    1    3    3    0  502 -0.38183408086E+03  0.26511793369E+03 -0.11763729748E+04  0.12648866194E+04  0.50400001928E-02 0. -1.
</event>
<event>
 5   0  0.2298329E-05  0.2235235E+04  0.7818609E-02  0.8503904E-01
        2   -1    0    0  501    0  0.00000000000E+00  0.00000000000E+00  0.27722841308E+04  0.27722841308E+04  0.25500000920E-02 0. -1.
       -2   -1    0    0    0  501  0.00000000000E+00  0.00000000000E+00 -0.45055602079E+03  0.45055602080E+03  0.25500000920E-02 0.  1.
    10030    2    1    2    0    0  0.00000000000E+00  0.00000000000E+00  0.23217281100E+04  0.32228401516E+04  0.22352353849E+04 0.  0.
        4    1    3    3  502    0  0.78474171205E+03  0.66377477522E+03  0.52801323666E+03  0.11555155117E+04  0.12699999809E+01 0.  1.
       -4    1    3    3    0  502 -0.78474171205E+03 -0.66377477522E+03  0.17937148733E+04  0.20673246399E+04  0.12699999809E+01 0. -1.
</event>
<event>
 5   0  0.2284329E-05  0.2195425E+04  0.7818609E-02  0.8520335E-01
       -2   -1    0    0    0  501  0.00000000000E+00  0.00000000000E+00  0.67318390613E+03  0.67318390613E+03  0.25500000920E-02 0.  1.
        2   -1    0    0  501    0  0.00000000000E+00  0.00000000000E+00 -0.17899600708E+04  0.17899600708E+04  0.25500000920E-02 0. -1.
    10030    2    1    2    0    0  0.00000000000E+00  0.00000000000E+00 -0.11167761647E+04  0.24631439770E+04  0.21954246171E+04 0.  0.
        2    1    3    3  502    0  0.64264731940E+03 -0.87668787657E+03 -0.72999458573E+03  0.13093774495E+04  0.25500000920E-02 0. -1.
       -2    1    3    3    0  502 -0.64264731940E+03  0.87668787657E+03 -0.38678157898E+03  0.11537665275E+04  0.25500000920E-02 0.  1.
</event>
<event>
 5   0  0.1007682E-05  0.2197525E+04  0.7818609E-02  0.8519459E-01
       -1   -1    0    0    0  501  0.00000000000E+00  0.00000000000E+00  0.13768056723E+04  0.13768056724E+04  0.50400001928E-02 0. -1.
        1   -1    0    0  501    0  0.00000000000E+00  0.00000000000E+00 -0.87686953739E+03  0.87686953740E+03  0.50400001928E-02 0.  1.
    10030    2    1    2    0    0  0.00000000000E+00  0.00000000000E+00  0.49993613496E+03  0.22536752098E+04  0.21975249287E+04 0.  0.
        2    1    3    3  502    0 -0.43141422289E+03 -0.56572765611E+03 -0.60875179539E+03  0.93634649622E+03  0.25500000920E-02 0.  1.
       -2    1    3    3    0  502  0.43141422289E+03  0.56572765611E+03  0.11086879303E+04  0.13173287135E+04  0.25500000920E-02 0. -1.
</event>
<event>
 5   0  0.2284329E-05  0.2168317E+04  0.7818609E-02  0.8531732E-01
        2   -1    0    0  501    0  0.00000000000E+00  0.00000000000E+00  0.20851671348E+04  0.20851671348E+04  0.25500000920E-02 0. -1.
       -2   -1    0    0    0  501  0.00000000000E+00  0.00000000000E+00 -0.56369585864E+03  0.56369585864E+03  0.25500000920E-02 0.  1.
    10030    2    1    2    0    0  0.00000000000E+00  0.00000000000E+00  0.15214712761E+04  0.26488629934E+04  0.21683173923E+04 0.  0.
        2    1    3    3  502    0  0.12948857312E+02 -0.65518090988E+03 -0.29437362194E+03  0.71839092901E+03  0.25500000920E-02 0.  1.
       -2    1    3    3    0  502 -0.12948857312E+02  0.65518090988E+03  0.18158448981E+04  0.19304720644E+04  0.25500000920E-02 0. -1.
</event>
<event>
 5   0  0.2289708E-05  0.2204616E+04  0.7818609E-02  0.8516509E-01
        2   -1    0    0  501    0  0.00000000000E+00  0.00000000000E+00  0.13164321025E+04  0.13164321025E+04  0.25500000920E-02 0.  1.
       -2   -1    0    0    0  501  0.00000000000E+00  0.00000000000E+00 -0.92301196405E+03  0.92301196406E+03  0.25500000920E-02 0. -1.
    10030    2    1    2    0    0  0.00000000000E+00  0.00000000000E+00  0.39342013842E+03  0.22394440665E+04  0.22046156857E+04 0.  0.
        5    1    3    3  502    0  0.25448706771E+03  0.98240846353E+03  0.63382249108E+03  0.11965128905E+04  0.46999998093E+01 0.  1.
       -5    1    3    3    0  502 -0.25448706771E+03 -0.98240846353E+03 -0.24040235266E+03  0.10429311761E+04  0.46999998093E+01 0. -1.
</event>
<event>
 5   0  0.2298329E-05  0.2202856E+04  0.7818609E-02  0.8517240E-01
       -2   -1    0    0    0  501  0.00000000000E+00  0.00000000000E+00  0.58692307703E+03  0.58692307704E+03  0.25500000920E-02 0.  1.
        2   -1    0    0  501    0  0.00000000000E+00  0.00000000000E+00 -0.20669547809E+04  0.20669547809E+04  0.25500000920E-02 0. -1.
    10030    2    1    2    0    0  0.00000000000E+00  0.00000000000E+00 -0.14800317038E+04  0.26538778579E+04  0.22028558374E+04 0.  0.
        4    1    3    3  502    0  0.56905371719E+03 -0.32674799266E+03 -0.18057586796E+04  0.19212892561E+04  0.12699999809E+01 0. -1.
       -4    1    3    3    0  502 -0.56905371719E+03  0.32674799266E+03  0.32572697581E+03  0.73258860176E+03  0.12699999809E+01 0.  1.
</event>
<event>
 5   0  0.2284329E-05  0.2212651E+04  0.7818609E-02  0.8513181E-01
        2   -1    0    0  501    0  0.00000000000E+00  0.00000000000E+00  0.15682467831E+04  0.15682467831E+04  0.25500000920E-02 0. -1.
       -2   -1    0    0    0  501  0.00000000000E+00  0.00000000000E+00 -0.78046123524E+03  0.78046123524E+03  0.25500000920E-02 0.  1.
    10030    2    1    2    0    0  0.00000000000E+00  0.00000000000E+00  0.78778554786E+03  0.23487080183E+04  0.22126507375E+04 0.  0.
        2    1    3    3  502    0  0.10737139805E+04  0.25730117075E+03  0.46812290638E+03  0.11992517083E+04  0.25500000920E-02 0. -1.
       -2    1    3    3    0  502 -0.10737139805E+04 -0.25730117075E+03  0.31966264147E+03  0.11494563101E+04  0.25500000920E-02 0.  1.
</event>
<event>
 5   0  0.2289708E-05  0.2189489E+04  0.7818609E-02  0.8522816E-01
       -2   -1    0    0    0  501  0.00000000000E+00  0.00000000000E+00  0.10893270497E+04  0.10893270498E+04  0.25500000920E-02 0.  1.
        2   -1    0    0  501    0  0.00000000000E+00  0.00000000000E+00 -0.11001888663E+04  0.11001888663E+04  0.25500000920E-02 0. -1.
    10030    2    1    2    0    0  0.00000000000E+00  0.00000000000E+00 -0.10861816571E+02  0.21895159161E+04  0.21894889741E+04 0.  0.
        5    1    3    3  502    0  0.20355568672E+03  0.15591135022E+03  0.10588660481E+04  0.10894781616E+04  0.46999998093E+01 0.  1.
       -5    1    3    3    0  502 -0.20355568672E+03 -0.15591135022E+03 -0.10697278647E+04  0.11000377545E+04  0.46999998093E+01 0. -1.
</event>
<event>
 5   0  0.1049198E-05  0.2185825E+04  0.7818609E-02  0.8524351E-01
       -1   -1    0    0    0  501  0.00000000000E+00  0.00000000000E+00  0.11754002337E+04  0.11754002338E+04  0.50400001928E-02 0.  1.
        1   -1    0    0  501    0  0.00000000000E+00  0.00000000000E+00 -0.10162133871E+04  0.10162133871E+04  0.50400001928E-02 0. -1.
    10030    2    1    2    0    0  0.00000000000E+00  0.00000000000E+00  0.15918684667E+03  0.21916136208E+04  0.21858247439E+04 0.  0.
        1    1    3    3  502    0  0.31741035015E+02 -0.92327106188E+03 -0.50592275566E+03  0.10532781122E+04  0.50400001928E-02 0.  1.
       -1    1    3    3    0  502 -0.31741035015E+02  0.92327106188E+03  0.66510960232E+03  0.11383355086E+04  0.50400001928E-02 0. -1.
</event>
<event>
 5   0  0.2319707E-05  0.2225495E+04  0.7818609E-02  0.8507891E-01
       -2   -1    0    0    0  501  0.00000000000E+00  0.00000000000E+00  0.64614366449E+03  0.64614366449E+03  0.25500000920E-02 0.  1.
        2   -1    0    0  501    0  0.00000000000E+00  0.00000000000E+00 -0.19163025186E+04  0.19163025186E+04  0.25500000920E-02 0. -1.
    10030    2    1    2    0    0  0.00000000000E+00  0.00000000000E+00 -0.12701588541E+04  0.25624461831E+04  0.22254947599E+04 0.  0.
        3    1    3    3  502    0 -0.23758734319E+03  0.10868089340E+04 -0.60675119040E+03  0.12671812901E+04  0.10100000352E+00 0. -1.
       -3    1    3    3    0  502  0.23758734319E+03 -0.10868089340E+04 -0.66340766367E+03  0.12952648930E+04  0.10100000352E+00 0.  1.
</event>
<event>
 5   0  0.1049198E-05  0.2204288E+04  0.7818609E-02  0.8516645E-01
       -1   -1    0    0    0  501  0.00000000000E+00  0.00000000000E+00  0.12254519515E+04  0.12254519515E+04  0.50400001928E-02 0.  1.
        1   -1    0    0  501    0  0.00000000000E+00  0.00000000000E+00 -0.99124378153E+03  0.99124378155E+03  0.50400001928E-02 0. -1.
    10030    2    1    2    0    0  0.00000000000E+00  0.00000000000E+00  0.23420816994E+03  0.22166957330E+04  0.22042882085E+04 0.  0.
        1    1    3    3  502    0  0.28597778754E+03 -0.10329897205E+04 -0.14099318754E+03  0.10810782287E+04  0.50400001928E-02 0.  1.
       -1    1    3    3    0  502 -0.28597778754E+03  0.10329897205E+04  0.37520135748E+03  0.11356175044E+04  0.50400001928E-02 0. -1.
</event>
<event>
 5   0  0.2284329E-05  0.2192001E+04  0.7818609E-02  0.8521765E-01
       -2   -1    0    0    0  501  0.00000000000E+00  0.00000000000E+00  0.49650656983E+03  0.49650656983E+03  0.25500000920E-02 0. -1.
        2   -1    0    0  501    0  0.00000000000E+00  0.00000000000E+00 -0.24193381589E+04  0.24193381589E+04  0.25500000920E-02 0.  1.
    10030    2    1    2    0    0  0.00000000000E+00  0.00000000000E+00 -0.19228315891E+04  0.29158447287E+04  0.21920011775E+04 0.  0.
        2    1    3    3  502    0 -0.56289294759E+03  0.70508598298E+03 -0.17891748602E+04  0.20037817731E+04  0.25500000920E-02 0.  1.
       -2    1    3    3    0  502  0.56289294759E+03 -0.70508598298E+03 -0.13365672886E+03  0.91206295562E+03  0.25500000920E-02 0. -1.
</event>
<event>
 5   0  0.2289708E-05  0.2213666E+04  0.7818609E-02  0.8512762E-01
        2   -1    0    0  501    0  0.00000000000E+00  0.00000000000E+00  0.16773245716E+04  0.16773245716E+04  0.25500000920E-02 0. -1.
       -2   -1    0    0    0  501  0.00000000000E+00  0.00000000000E+00 -0.73037689171E+03  0.73037689171E+03  0.25500000920E-02 0.  1.
    10030    2    1    2    0    0  0.00000000000E+00  0.00000000000E+00  0.94694767988E+03  0.24077014633E+04  0.22136658348E+04 0.  0.
        5    1    3    3  502    0 -0.24069201910E+03 -0.10634835401E+04  0.68020564584E+03  0.12851582388E+04  0.46999998093E+01 0. -1.
       -5    1    3    3    0  502  0.24069201910E+03  0.10634835401E+04  0.26674203404E+03  0.11225432245E+04  0.46999998093E+01 0.  1.
</event>
<event>
 5   0  0.1005538E-05  0.2201029E+04  0.7818609E-02  0.8518000E-01
        1   -1    0    0  501    0  0.00000000000E+00  0.00000000000E+00  0.25998027144E+04  0.25998027144E+04  0.50400001928E-02 0. -1.
       -1   -1    0    0    0  501  0.00000000000E+00  0.00000000000E+00 -0.46585559948E+03  0.46585559951E+03  0.50400001928E-02 0.  1.
    10030    2    1    2    0    0  0.00000000000E+00  0.00000000000E+00  0.21339471149E+04  0.30656583139E+04  0.22010294429E+04 0.  0.
        3    1    3    3  502    0  0.56805214294E+02  0.25910019324E+03 -0.42066523276E+03  0.49731176416E+03  0.10100000352E+00 0.  1.
       -3    1    3    3    0  502 -0.56805214294E+02 -0.25910019324E+03  0.25546123477E+04  0.25683465497E+04  0.10100000352E+00 0. -1.
</event>
<event>
 5   0  0.1049198E-05  0.2126195E+04  0.7818609E-02  0.8549791E-01
       -1   -1    0    0    0  501  0.00000000000E+00  0.00000000000E+00  0.30066034100E+04  0.30066034100E+04  0.50400001928E-02 0.  1.
        1   -1    0    0  501    0  0.00000000000E+00  0.00000000000E+00 -0.37589808225E+03  0.37589808228E+03  0.50400001928E-02 0. -1.
    10030    2    1    2    0    0  0.00000000000E+00  0.00000000000E+00  0.26307053278E+04  0.33825014923E+04  0.21261951519E+04 0.  0.
        1    1    3    3  502    0 -0.62440563042E+03 -0.37791002012E+03  0.85662038525E+02  0.73487166191E+03  0.50400001928E-02 0. -1.
       -1    1    3    3    0  502  0.62440563042E+03  0.37791002012E+03  0.25450432892E+04  0.26476298304E+04  0.50400001928E-02 0.  1.
</event>
<event>
 5   0  0.1033733E-05  0.2203161E+04  0.7818609E-02  0.8517114E-01
       -1   -1    0    0    0  501  0.00000000000E+00  0.00000000000E+00  0.12221214582E+04  0.12221214582E+04  0.50400001928E-02 0. -1.
        1   -1    0    0  501    0  0.00000000000E+00  0.00000000000E+00 -0.99292863270E+03  0.99292863271E+03  0.50400001928E-02 0.  1.
    10030    2    1    2    0    0  0.00000000000E+00  0.00000000000E+00  0.22919282546E+03  0.22150500909E+04  0.22031608098E+04 0.  0.
        5    1    3    3  502    0  0.10635175643E+04 -0.13210964370E+03  0.37079449639E+03  0.11340340454E+04  0.46999998093E+01 0. -1.
       -5    1    3    3    0  502 -0.10635175643E+04  0.13210964370E+03 -0.14160167093E+03  0.10810160455E+04  0.46999998093E+01 0.  1.
</event>
<event>
 5   0  0.8003875E-06  0.2196619E+04  0.7818609E-02  0.8519837E-01
        3   -1    0    0  501    0  0.00000000000E+00  0.00000000000E+00  0.10956142827E+04  0.10956142873E+04  0.10100000352E+00 0.  1.
       -3   -1    0    0    0  501  0.00000000000E+00  0.00000000000E+00 -0.11010115460E+04  0.11010115507E+04  0.10100000352E+00 0. -1.
    10030    2    1    2    0    0  0.00000000000E+00  0.00000000000E+00 -0.53972633837E+01  0.21966258380E+04  0.21966192073E+04 0.  0.
        1    1    3    3  502    0  0.65739148844E+03 -0.28801749059E+03  0.82866802277E+03  0.10962701930E+04  0.50400001928E-02 0.  1.
       -1    1    3    3    0  502 -0.65739148844E+03  0.28801749059E+03 -0.83406528616E+03  0.11003556450E+04  0.50400001928E-02 0. -1.
</event>
<event>
 5   0  0.1005538E-05  0.2201784E+04  0.7818609E-02  0.8517686E-01
       -1   -1    0    0    0  501  0.00000000000E+00  0.00000000000E+00  0.59608756586E+03  0.59608756588E+03  0.50400001928E-02 0. -1.
        1   -1    0    0  501    0  0.00000000000E+00  0.00000000000E+00 -0.20331964838E+04  0.20331964838E+04  0.50400001928E-02 0.  1.
    10030    2    1    2    0    0  0.00000000000E+00  0.00000000000E+00 -0.14371089179E+04  0.26292840496E+04  0.22017839521E+04 0.  0.
        3    1    3    3  502    0  0.10077629711E+04 -0.43741331993E+03 -0.63372268200E+03  0.12682748386E+04  0.10100000352E+00 0.  1.
       -3    1    3    3    0  502 -0.10077629711E+04  0.43741331993E+03 -0.80338623589E+03  0.13610092110E+04  0.10100000352E+00 0. -1.
</event>
<event>
 5   0  0.2289708E-05  0.2206294E+04  0.7818609E-02  0.8515813E-01
       -2   -1    0    0    0  501  0.00000000000E+00  0.00000000000E+00  0.51041263749E+03  0.51041263750E+03  0.25500000920E-02 0. -1.
        2   -1    0    0  501    0  0.00000000000E+00  0.00000000000E+00 -0.23842146246E+04  0.23842146246E+04  0.25500000920E-02 0.  1.
    10030    2    1    2    0    0  0.00000000000E+00  0.00000000000E+00 -0.18738019871E+04  0.28946272621E+04  0.22062939740E+04 0.  0.
        5    1    3    3  502    0  0.84423436922E+03  0.36909064965E+03 -0.14106308680E+03  0.93213757691E+03  0.46999998093E+01 0. -1.
       -5    1    3    3    0  502 -0.84423436922E+03 -0.36909064965E+03 -0.17327389003E+04  0.19624896852E+04  0.46999998093E+01 0.  1.
</event>
<event>
 5   0  0.8003875E-06  0.2207364E+04  0.7818609E-02  0.8515369E-01
       -3   -1    0    0    0  501  0.00000000000E+00  0.00000000000E+00  0.12920469794E+04  0.12920469834E+04  0.10100000352E+00 0.  1.
        3   -1    0    0  501    0  0.00000000000E+00  0.00000000000E+00 -0.94277829758E+03  0.94277830299E+03  0.10100000352E+00 0. -1.
    10030    2    1    2    0    0  0.00000000000E+00  0.00000000000E+00  0.34926868186E+03  0.22348252864E+04  0.22073639139E+04 0.  0.
        1    1    3    3  502    0  0.77537766851E+03  0.92427038109E+02  0.96431257807E+03  0.12408271574E+04  0.50400001928E-02 0.  1.
       -1    1    3    3    0  502 -0.77537766851E+03 -0.92427038109E+02 -0.61504389621E+03  0.99399812902E+03  0.50400001928E-02 0. -1.
</event>
<event>
 5   0  0.2289708E-05  0.2194805E+04  0.7818609E-02  0.8520593E-01
        2   -1    0    0  501    0  0.00000000000E+00  0.00000000000E+00  0.75041258835E+03  0.75041258835E+03  0.25500000920E-02 0.  1.
       -2   -1    0    0    0  501  0.00000000000E+00  0.00000000000E+00 -0.16048405688E+04  0.16048405688E+04  0.25500000920E-02 0. -1.
    10030    2    1    2    0    0  0.00000000000E+00  0.00000000000E+00 -0.85442798045E+03  0.23552531572E+04  0.21948052899E+04 0.  0.
        5    1    3    3  502    0  0.74107250766E+03  0.67246761939E+03  0.56122714815E+02  0.10022838968E+04  0.46999998093E+01 0. -1.
       -5    1    3    3    0  502 -0.74107250766E+03 -0.67246761939E+03 -0.91055069527E+03  0.13529692603E+04  0.46999998093E+01 0.  1.
</event>
<event>
 5   0  0.1049198E-05  0.2196618E+04  0.7818609E-02  0.8519837E-01
        1   -1    0    0  501    0  0.00000000000E+00  0.00000000000E+00  0.83974497565E+03  0.83974497567E+03  0.50400001928E-02 0. -1.
       -1   -1    0    0    0  501  0.00000000000E+00  0.00000000000E+00 -0.14364872115E+04  0.14364872115E+04  0.50400001928E-02 0.  1.
    10030    2    1    2    0    0  0.00000000000E+00  0.00000000000E+00 -0.59674223586E+03  0.22762321872E+04  0.21966182358E+04 0.  0.
        1    1    3    3  502    0  0.36168056353E+03 -0.70773594019E+03 -0.10838548602E+04  0.13440403079E+04  0.50400001928E-02 0.  1.
       -1    1    3    3    0  502 -0.36168056353E+03  0.70773594019E+03  0.48711262436E+03  0.93219187934E+03  0.50400001928E-02 0. -1.
</event>
<event>
 5   0  0.1033733E-05  0.2206154E+04  0.7818609E-02  0.8515871E-01
       -1   -1    0    0    0  501  0.00000000000E+00  0.00000000000E+00  0.11522057398E+04  0.11522057398E+04  0.50400001928E-02 0. -1.
        1   -1    0    0  501    0  0.00000000000E+00  0.00000000000E+00 -0.10560428578E+04  0.10560428578E+04  0.50400001928E-02 0.  1.
    10030    2    1    2    0    0  0.00000000000E+00  0.00000000000E+00  0.96162881993E+02  0.22082485976E+04  0.22061537954E+04 0.  0.
        5    1    3    3  502    0 -0.25649982192E+03  0.26662981378E+03  0.10882375092E+04  0.11494201072E+04  0.46999998093E+01 0. -1.
       -5    1    3    3    0  502  0.25649982192E+03 -0.26662981378E+03 -0.99207462723E+03  0.10588284905E+04  0.46999998093E+01 0.  1.
</event>
<event>
 5   0  0.2319707E-05  0.2198173E+04  0.7818609E-02  0.8519189E-01
        2   -1    0    0  501    0  0.00000000000E+00  0.00000000000E+00  0.18953523248E+04  0.18953523248E+04  0.25500000920E-02 0.  1.
       -2   -1    0    0    0  501  0.00000000000E+00  0.00000000000E+00 -0.63734368134E+03  0.63734368134E+03  0.25500000920E-02 0. -1.
    10030    2    1    2    0    0  0.00000000000E+00  0.00000000000E+00  0.12580086435E+04  0.25326960062E+04  0.21981727213E+04 0.  0.
        3    1    3    3  502    0 -0.90926091821E+03 -0.25475862814E+03  0.12770323718E+04  0.15882282786E+04  0.10100000352E+00 0.  1.
       -3    1    3    3    0  502  0.90926091821E+03  0.25475862814E+03 -0.19023728340E+02  0.94446772758E+03  0.10100000352E+00 0. -1.
</event>
<event>
 5   0  0.2289708E-05  0.2191722E+04  0.7818609E-02  0.8521881E-01
       -2   -1    0    0    0  501  0.00000000000E+00  0.00000000000E+00  0.10614811688E+04  0.10614811688E+04  0.25500000920E-02 0. -1.
        2   -1    0    0  501    0  0.00000000000E+00  0.00000000000E+00 -0.11313548132E+04  0.11313548132E+04  0.25500000920E-02 0.  1.
    10030    2    1    2    0    0  0.00000000000E+00  0.00000000000E+00 -0.69873644320E+02  0.21928359820E+04  0.21917224546E+04 0.  0.
        5    1    3    3  502    0 -0.10446991884E+04  0.47834732675E+02 -0.36252519909E+03  0.11068564342E+04  0.46999998093E+01 0.  1.
       -5    1    3    3    0  502  0.10446991884E+04 -0.47834732675E+02  0.29265155477E+03  0.10859795479E+04  0.46999998093E+01 0. -1.
</event>
<event>
 5   0  0.8003875E-06  0.2199518E+04  0.7818609E-02  0.8518629E-01
        3   -1    0    0  501    0  0.00000000000E+00  0.00000000000E+00  0.56540427953E+03  0.56540428855E+03  0.10100000352E+00 0. -1.
       -3   -1    0    0    0  501  0.00000000000E+00  0.00000000000E+00 -0.21391235818E+04  0.21391235842E+04  0.10100000352E+00 0.  1.
    10030    2    1    2    0    0  0.00000000000E+00  0.00000000000E+00 -0.15737193023E+04  0.27045278728E+04  0.21995178045E+04 0.  0.
        3    1    3    3  502    0  0.99719057892E+03 -0.13653811783E+03 -0.13318347367E+04  0.16693757769E+04  0.10100000352E+00 0.  1.
       -3    1    3    3    0  502 -0.99719057892E+03  0.13653811783E+03 -0.24188456555E+03  0.10351520959E+04  0.10100000352E+00 0. -1.
</event>
<event>
 5   0  0.2298329E-05  0.2199712E+04  0.7818609E-02  0.8518548E-01
        2   -1    0    0  501    0  0.00000000000E+00  0.00000000000E+00  0.83499143951E+03  0.83499143951E+03  0.25500000920E-02 0.  1.
       -2   -1    0    0    0  501  0.00000000000E+00  0.00000000000E+00 -0.14487367130E+04  0.14487367130E+04  0.25500000920E-02 0. -1.
    10030    2    1    2    0    0  0.00000000000E+00  0.00000000000E+00 -0.61374527352E+03  0.22837281525E+04  0.21997115752E+04 0.  0.
        4    1    3    3  502    0  0.22380707879E+03 -0.88027881698E+03  0.33705961029E+03  0.96880916487E+03  0.12699999809E+01 0.  1.
       -4    1    3    3    0  502 -0.22380707879E+03  0.88027881698E+03 -0.95080488382E+03  0.13149189877E+04  0.12699999809E+01 0. -1.
</event>
<event>
 5   0  0.1005538E-05  0.2198033E+04  0.7818609E-02  0.8519247E-01
       -1   -1    0    0    0  501  0.00000000000E+00  0.00000000000E+00  0.81774206738E+03  0.81774206739E+03  0.50400001928E-02 0.  1.
        1   -1    0    0  501    0  0.00000000000E+00  0.00000000000E+00 -0.14770395177E+04  0.14770395177E+04  0.50400001928E-02 0. -1.
    10030    2    1    2    0    0  0.00000000000E+00  0.00000000000E+00 -0.65929745036E+03  0.22947815851E+04  0.21980330742E+04 0.  0.
        3    1    3    3  502    0  0.19488451734E+03  0.51407618517E+03 -0.13231565070E+04  0.14328284794E+04  0.10100000352E+00 0. -1.
       -3    1    3    3    0  502 -0.19488451734E+03 -0.51407618517E+03  0.66385905660E+03  0.86195310574E+03  0.10100000352E+00 0.  1.
</event>
<event>
 5   0  0.1071208E-05  0.2200479E+04  0.7818609E-02  0.8518229E-01
       -1   -1    0    0    0  501  0.00000000000E+00  0.00000000000E+00  0.13763241791E+04  0.13763241791E+04  0.50400001928E-02 0. -1.
        1   -1    0    0  501    0  0.00000000000E+00  0.00000000000E+00 -0.87953627956E+03  0.87953627958E+03  0.50400001928E-02 0.  1.
    10030    2    1    2    0    0  0.00000000000E+00  0.00000000000E+00  0.49678789954E+03  0.22558604587E+04  0.22004790824E+04 0.  0.
        4    1    3    3  502    0 -0.94924084659E+03  0.22677644370E+03 -0.27236680424E+03  0.10132477630E+04  0.12699999809E+01 0. -1.
       -4    1    3    3    0  502  0.94924084659E+03 -0.22677644370E+03  0.76915470378E+03  0.12426126957E+04  0.12699999809E+01 0.  1.
</event>
<event>
 5   0  0.1071208E-05  0.2212907E+04  0.7818609E-02  0.8513075E-01
        1   -1    0    0  501    0  0.00000000000E+00  0.00000000000E+00  0.18996590476E+04  0.18996590476E+04  0.50400001928E-02 0.  1.
       -1   -1    0    0    0  501  0.00000000000E+00  0.00000000000E+00 -0.64445242146E+03  0.64445242148E+03  0.50400001928E-02 0. -1.
    10030    2    1    2    0    0  0.00000000000E+00  0.00000000000E+00  0.12552066261E+04  0.25441114690E+04  0.22129074750E+04 0.  0.
        4    1    3    3  502    0 -0.26846844781E+03 -0.89528009647E+03  0.13083749327E+04  0.16079329389E+04  0.12699999809E+01 0.  1.
       -4    1    3    3    0  502  0.26846844781E+03  0.89528009647E+03 -0.53168306578E+02  0.93617853016E+03  0.12699999809E+01 0. -1.
</event>
<event>
 5   0  0.1071208E-05  0.2312567E+04  0.7818609E-02  0.8472983E-01
        1   -1    0    0  501    0  0.00000000000E+00  0.00000000000E+00  0.16297279788E+04  0.16297279788E+04  0.50400001928E-02 0. -1.
       -1   -1    0    0    0  501  0.00000000000E+00  0.00000000000E+00 -0.82037720826E+03  0.82037720827E+03  0.50400001928E-02 0.  1.
    10030    2    1    2    0    0  0.00000000000E+00  0.00000000000E+00  0.80935077057E+03  0.24501051871E+04  0.23125671359E+04 0.  0.
        4    1    3    3  502    0 -0.35510886826E+03 -0.21542721721E+03  0.15479648163E+04  0.16027189023E+04  0.12699999809E+01 0. -1.
       -4    1    3    3    0  502  0.35510886826E+03  0.21542721721E+03 -0.73861404576E+03  0.84738628483E+03  0.12699999809E+01 0.  1.
</event>
<event>
 5   0  0.1049198E-05  0.2202362E+04  0.7818609E-02  0.8517445E-01
       -1   -1    0    0    0  501  0.00000000000E+00  0.00000000000E+00  0.15026549700E+04  0.15026549700E+04  0.50400001928E-02 0.  1.
        1   -1    0    0  501    0  0.00000000000E+00  0.00000000000E+00 -0.80697166682E+03  0.80697166683E+03  0.50400001928E-02 0. -1.
    10030    2    1    2    0    0  0.00000000000E+00  0.00000000000E+00  0.69568330313E+03  0.23096266368E+04  0.22023623551E+04 0.  0.
        1    1    3    3  502    0  0.50782473214E+03 -0.81494309712E+03  0.91315233262E+03  0.13250907111E+04  0.50400001928E-02 0. -1.
       -1    1    3    3    0  502 -0.50782473214E+03  0.81494309712E+03 -0.21746902948E+03  0.98453592567E+03  0.50400001928E-02 0.  1.
</event>
<event>
 5   0  0.1033733E-05  0.2203323E+04  0.7818609E-02  0.8517046E-01
       -1   -1    0    0    0  501  0.00000000000E+00  0.00000000000E+00  0.15447729583E+04  0.15447729583E+04  0.50400001928E-02 0. -1.
        1   -1    0    0  501    0  0.00000000000E+00  0.00000000000E+00 -0.78565481633E+03  0.78565481635E+03  0.50400001928E-02 0.  1.
    10030    2    1    2    0    0  0.00000000000E+00  0.00000000000E+00  0.75911814199E+03  0.23304277747E+04  0.22033232308E+04 0.  0.
        5    1    3    3  502    0  0.52277098521E+03 -0.23261156608E-01  0.14052144017E+04  0.14993128787E+04  0.46999998093E+01 0. -1.
       -5    1    3    3    0  502 -0.52277098521E+03  0.23261156608E-01 -0.64609625970E+03  0.83111489598E+03  0.46999998093E+01 0.  1.
</event>
<event>
 5   0  0.2298329E-05  0.2195633E+04  0.7818609E-02  0.8520248E-01
        2   -1    0    0  501    0  0.00000000000E+00  0.00000000000E+00  0.95138907611E+03  0.95138907611E+03  0.25500000920E-02 0. -1.
       -2   -1    0    0    0  501  0.00000000000E+00  0.00000000000E+00 -0.12667800194E+04  0.12667800194E+04  0.25500000920E-02 0.  1.
    10030    2    1    2    0    0  0.00000000000E+00  0.00000000000E+00 -0.31539094326E+03  0.22181690955E+04  0.21956326398E+04 0.  0.
        4    1    3    3  502    0  0.32065542688E+03 -0.10351604461E+04 -0.33505945445E+03  0.11343030912E+04  0.12699999809E+01 0. -1.
       -4    1    3    3    0  502 -0.32065542688E+03  0.10351604461E+04  0.19668511193E+02  0.10838660042E+04  0.12699999809E+01 0.  1.
</event>
<event>
 5   0  0.1033733E-05  0.2176706E+04  0.7818609E-02  0.8528186E-01
       -1   -1    0    0    0  501  0.00000000000E+00  0.00000000000E+00  0.24894146142E+04  0.24894146142E+04  0.50400001928E-02 0. -1.
        1   -1    0    0  501    0  0.00000000000E+00  0.00000000000E+00 -0.47581974742E+03  0.47581974745E+03  0.50400001928E-02 0.  1.
    10030    2    1    2    0    0  0.00000000000E+00  0.00000000000E+00  0.20135948668E+04  0.29652343616E+04  0.21767063495E+04 0.  0.
        5    1    3    3  502    0 -0.84250976013E+03  0.25161659934E+03  0.18805100181E+04  0.20759271729E+04  0.46999998093E+01 0. -1.
       -5    1    3    3    0  502  0.84250976013E+03 -0.25161659934E+03  0.13308484864E+03  0.88930718872E+03  0.46999998093E+01 0.  1.
</event>
<event>
 5   0  0.2298329E-05  0.2195909E+04  0.7818609E-02  0.8520133E-01
       -2   -1    0    0    0  501  0.00000000000E+00  0.00000000000E+00  0.82304113097E+03  0.82304113098E+03  0.25500000920E-02 0. -1.
        2   -1    0    0  501    0  0.00000000000E+00  0.00000000000E+00 -0.14646944594E+04  0.14646944594E+04  0.25500000920E-02 0.  1.
    10030    2    1    2    0    0  0.00000000000E+00  0.00000000000E+00 -0.64165332843E+03  0.22877355904E+04  0.21959087271E+04 0.  0.
        4    1    3    3  502    0 -0.66472478121E+03 -0.66400648240E+03 -0.91268388553E+03  0.13098691275E+04  0.12699999809E+01 0.  1.
       -4    1    3    3    0  502  0.66472478121E+03  0.66400648240E+03  0.27103055710E+03  0.97786646287E+03  0.12699999809E+01 0. -1.
</event>
<event>
 5   0  0.1049198E-05  0.2180723E+04  0.7818609E-02  0.8526495E-01
        1   -1    0    0  501    0  0.00000000000E+00  0.00000000000E+00  0.12303743324E+04  0.12303743324E+04  0.50400001928E-02 0.  1.
       -1   -1    0    0    0  501  0.00000000000E+00  0.00000000000E+00 -0.96628144434E+03  0.96628144435E+03  0.50400001928E-02 0. -1.
    10030    2    1    2    0    0  0.00000000000E+00  0.00000000000E+00  0.26409288802E+03  0.21966557767E+04  0.21807227123E+04 0.  0.
        1    1    3    3  502    0  0.36745667540E+03 -0.35694320214E+03  0.11016043045E+04  0.12148929589E+04  0.50400001928E-02 0.  1.
       -1    1    3    3    0  502 -0.36745667540E+03  0.35694320214E+03 -0.83751141643E+03  0.98176281786E+03  0.50400001928E-02 0. -1.
</event>
<event>
 5   0  0.2229552E-05  0.2190608E+04  0.7818609E-02  0.8522348E-01
        2   -1    0    0  501    0  0.00000000000E+00  0.00000000000E+00  0.22049224076E+04  0.22049224076E+04  0.25500000920E-02 0. -1.
       -2   -1    0    0    0  501  0.00000000000E+00  0.00000000000E+00 -0.54409651242E+03  0.54409651242E+03  0.25500000920E-02 0.  1.
    10030    2    1    2    0    0  0.00000000000E+00  0.00000000000E+00  0.16608258952E+04  0.27490189200E+04  0.21906077624E+04 0.  0.
        1    1    3    3  502    0  0.26826234971E+03  0.16375495381E+02  0.21629007561E+04  0.21795349333E+04  0.50400001928E-02 0. -1.
       -1    1    3    3    0  502 -0.26826234971E+03 -0.16375495381E+02 -0.50207486088E+03  0.56948398667E+03  0.50400001928E-02 0.  1.
</event>
<event>
 5   0  0.1005538E-05  0.2202152E+04  0.7818609E-02  0.8517533E-01
        1   -1    0    0  501    0  0.00000000000E+00  0.00000000000E+00  0.13672018453E+04  0.13672018453E+04  0.50400001928E-02 0. -1.
       -1   -1    0    0    0  501  0.00000000000E+00  0.00000000000E+00 -0.88675127705E+03  0.88675127706E+03  0.50400001928E-02 0.  1.
    10030    2    1    2    0    0  0.00000000000E+00  0.00000000000E+00  0.48045056824E+03  0.22539531224E+04  0.22021516590E+04 0.  0.
        3    1    3    3  502    0  0.90988090022E+03  0.42990761926E+03  0.69757425950E+03  0.12244646469E+04  0.10100000352E+00 0. -1.
       -3    1    3    3    0  502 -0.90988090022E+03 -0.42990761926E+03 -0.21712369126E+03  0.10294884755E+04  0.10100000352E+00 0.  1.
</event>
<event>
 5   0  0.2284329E-05  0.2166768E+04  0.7818609E-02  0.8532389E-01
        2   -1    0    0  501    0  0.00000000000E+00  0.00000000000E+00  0.22340995642E+04  0.22340995642E+04  0.25500000920E-02 0. -1.
       -2   -1    0    0    0  501  0.00000000000E+00  0.00000000000E+00 -0.52536644203E+03  0.52536644204E+03  0.25500000920E-02 0.  1.
    10030    2    1    2    0    0  0.00000000000E+00  0.00000000000E+00  0.17087331222E+04  0.27594660063E+04  0.21667680441E+04 0.  0.
        2    1    3    3  502    0 -0.85231978706E+01 -0.57116844110E+02 -0.52340487973E+03  0.52658109244E+03  0.25500000920E-02 0.  1.
       -2    1    3    3    0  502  0.85231978706E+01  0.57116844110E+02  0.22321380019E+04  0.22328849138E+04  0.25500000920E-02 0. -1.
</event>
<event>
 5   0  0.1049198E-05  0.2198843E+04  0.7818609E-02  0.8518910E-01
        1   -1    0    0  501    0  0.00000000000E+00  0.00000000000E+00  0.89317920707E+03  0.89317920709E+03  0.50400001928E-02 0. -1.
       -1   -1    0    0    0  501  0.00000000000E+00  0.00000000000E+00 -0.13532873437E+04  0.13532873437E+04  0.50400001928E-02 0.  1.
    10030    2    1    2    0    0  0.00000000000E+00  0.00000000000E+00 -0.46010813664E+03  0.22464665508E+04  0.21988434384E+04 0.  0.
        1    1    3    3  502    0  0.10565300181E+04  0.16730868828E+03  0.29375200699E+02  0.10700984902E+04  0.50400001928E-02 0. -1.
       -1    1    3    3    0  502 -0.10565300181E+04 -0.16730868828E+03 -0.48948333734E+03  0.11763680606E+04  0.50400001928E-02 0.  1.
</event>
<event>
 5   0  0.1005538E-05  0.2263631E+04  0.7818609E-02  0.8492400E-01
        1   -1    0    0  501    0  0.00000000000E+00  0.00000000000E+00  0.99246678221E+03  0.99246678222E+03  0.50400001928E-02 0. -1.
       -1   -1    0    0    0  501  0.00000000000E+00  0.00000000000E+00 -0.12907299026E+04  0.12907299026E+04  0.50400001928E-02 0.  1.
    10030    2    1    2    0    0  0.00000000000E+00  0.00000000000E+00 -0.29826312035E+03  0.22831966848E+04  0.22636312006E+04 0.  0.
        3    1    3    3  502    0 -0.95603576437E+03  0.53216020865E+03 -0.44112933611E+03  0.11797431804E+04  0.10100000352E+00 0.  1.
       -3    1    3    3    0  502  0.95603576437E+03 -0.53216020865E+03  0.14286621576E+03  0.11034535043E+04  0.10100000352E+00 0. -1.
</event>
<event>
 5   0  0.1049198E-05  0.2185751E+04  0.7818609E-02  0.8524382E-01
       -1   -1    0    0    0  501  0.00000000000E+00  0.00000000000E+00  0.10550580885E+04  0.10550580885E+04  0.50400001928E-02 0.  1.
        1   -1    0    0  501    0  0.00000000000E+00  0.00000000000E+00 -0.11320481828E+04  0.11320481828E+04  0.50400001928E-02 0. -1.
    10030    2    1    2    0    0  0.00000000000E+00  0.00000000000E+00 -0.76990094240E+02  0.21871062713E+04  0.21857507560E+04 0.  0.
        1    1    3    3  502    0 -0.64006031172E+03  0.88567211890E+03 -0.55366315896E+02  0.10941470348E+04  0.50400001928E-02 0. -1.
       -1    1    3    3    0  502  0.64006031172E+03 -0.88567211890E+03 -0.21623778343E+02  0.10929592365E+04  0.50400001928E-02 0.  1.
</event>
<event>
 5   0  0.2289708E-05  0.2166832E+04  0.7818609E-02  0.8532361E-01
        2   -1    0    0  501    0  0.00000000000E+00  0.00000000000E+00  0.16490758337E+04  0.16490758337E+04  0.25500000920E-02 0.  1.
       -2   -1    0    0    0  501  0.00000000000E+00  0.00000000000E+00 -0.71178685526E+03  0.71178685526E+03  0.25500000920E-02 0. -1.
    10030    2    1    2    0    0  0.00000000000E+00  0.00000000000E+00  0.93728897841E+03  0.23608626889E+04  0.21668322517E+04 0.  0.
        5    1    3    3  502    0  0.69398278550E+03  0.75747809217E+03  0.93765968300E+02  0.10316003652E+04  0.46999998093E+01 0.  1.
       -5    1    3    3    0  502 -0.69398278550E+03 -0.75747809217E+03  0.84352301011E+03  0.13292623237E+04  0.46999998093E+01 0. -1.
</event>
<event>
 5   0  0.2319707E-05  0.2221828E+04  0.7818609E-02  0.8509397E-01
       -2   -1    0    0    0  501  0.00000000000E+00  0.00000000000E+00  0.91178623509E+03  0.91178623509E+03  0.25500000920E-02 0.  1.
        2   -1    0    0  501    0  0.00000000000E+00  0.00000000000E+00 -0.13535298230E+04  0.13535298230E+04  0.25500000920E-02 0. -1.
    10030    2    1    2    0    0  0.00000000000E+00  0.00000000000E+00 -0.44174358795E+03  0.22653160581E+04  0.22218279514E+04 0.  0.
        3    1    3    3  502    0  0.62908154998E+03 -0.79866035696E+03 -0.67744010839E+03  0.12216902525E+04  0.10100000352E+00 0.  1.
       -3    1    3    3    0  502 -0.62908154998E+03  0.79866035696E+03  0.23569652044E+03  0.10436258057E+04  0.10100000352E+00 0. -1.
</event>
<event>
 5   0  0.2229552E-05  0.2211854E+04  0.7818609E-02  0.8513511E-01
        2   -1    0    0  501    0  0.00000000000E+00  0.00000000000E+00  0.12817954657E+04  0.12817954657E+04  0.25500000920E-02 0.  1.
       -2   -1    0    0    0  501  0.00000000000E+00  0.00000000000E+00 -0.95418814513E+03  0.95418814513E+03  0.25500000920E-02 0. -1.
    10030    2    1    2    0    0  0.00000000000E+00  0.00000000000E+00  0.32760732058E+03  0.22359836108E+04  0.22118535556E+04 0.  0.
        1    1    3    3  502    0 -0.75864066428E+03  0.70765281974E+03 -0.22347608040E+03  0.10612491363E+04  0.50400001928E-02 0.  1.
       -1    1    3    3    0  502  0.75864066428E+03 -0.70765281974E+03  0.55108340097E+03  0.11747344745E+04  0.50400001928E-02 0. -1.
</event>
<event>
 5   0  0.1007682E-05  0.2194471E+04  0.7818609E-02  0.8520733E-01
       -1   -1    0    0    0  501  0.00000000000E+00  0.00000000000E+00  0.80074441632E+03  0.80074441633E+03  0.50400001928E-02 0.  1.
        1   -1    0    0  501    0  0.00000000000E+00  0.00000000000E+00 -0.15035076398E+04  0.15035076398E+04  0.50400001928E-02 0. -1.
    10030    2    1    2    0    0  0.00000000000E+00  0.00000000000E+00 -0.70276322347E+03  0.23042520561E+04  0.21944706400E+04 0.  0.
        2    1    3    3  502    0  0.64180487092E+03 -0.12026868977E+03  0.57451739248E+03  0.86974035455E+03  0.25500000920E-02 0.  1.
       -2    1    3    3    0  502 -0.64180487092E+03  0.12026868977E+03 -0.12772806159E+04  0.14345117016E+04  0.25500000920E-02 0. -1.
</event>
<event>
 5   0  0.1049198E-05  0.2189335E+04  0.7818609E-02  0.8522880E-01
       -1   -1    0    0    0  501  0.00000000000E+00  0.00000000000E+00  0.71215036508E+03  0.71215036510E+03  0.50400001928E-02 0.  1.
        1   -1    0    0  501    0  0.00000000000E+00  0.00000000000E+00 -0.16826466501E+04  0.16826466501E+04  0.50400001928E-02 0. -1.
    10030    2    1    2    0    0  0.00000000000E+00  0.00000000000E+00 -0.97049628500E+03  0.23947970152E+04  0.21893354482E+04 0.  0.
        1    1    3    3  502    0  0.29243619069E+02  0.96339598488E+03  0.82404903232E+02  0.96735597432E+03  0.50400001928E-02 0.  1.
       -1    1    3    3    0  502 -0.29243619069E+02 -0.96339598488E+03 -0.10529011882E+04  0.14274410409E+04  0.50400001928E-02 0. -1.
</event>
<event>
 5   0  0.2289708E-05  0.2201606E+04  0.7818609E-02  0.8517760E-01
       -2   -1    0    0    0  501  0.00000000000E+00  0.00000000000E+00  0.79592992132E+03  0.79592992132E+03  0.25500000920E-02 0.  1.
        2   -1    0    0  501    0  0.00000000000E+00  0.00000000000E+00 -0.15224540101E+04  0.15224540101E+04  0.25500000920E-02 0. -1.
    10030    2    1    2    0    0  0.00000000000E+00  0.00000000000E+00 -0.72652408881E+03  0.23183839314E+04  0.22016055055E+04 0.  0.
        5    1    3    3  502    0  0.85013771279E+03 -0.48026907087E+03 -0.89850610028E+03  0.13269241928E+04  0.46999998093E+01 0. -1.
       -5    1    3    3    0  502 -0.85013771279E+03  0.48026907087E+03  0.17198201146E+03  0.99145973867E+03  0.46999998093E+01 0.  1.
</event>
<event>
 5   0  0.1033733E-05  0.2177618E+04  0.7818609E-02  0.8527802E-01
       -1   -1    0    0    0  501  0.00000000000E+00  0.00000000000E+00  0.67720912716E+03  0.67720912717E+03  0.50400001928E-02 0.  1.
        1   -1    0    0  501    0  0.00000000000E+00  0.00000000000E+00 -0.17505743092E+04  0.17505743092E+04  0.50400001928E-02 0. -1.
    10030    2    1    2    0    0  0.00000000000E+00  0.00000000000E+00 -0.10733651821E+04  0.24277834364E+04  0.21776178728E+04 0.  0.
        5    1    3    3  502    0  0.53169678618E+03 -0.69200951391E+03 -0.12625580544E+04  0.15348138553E+04  0.46999998093E+01 0. -1.
       -5    1    3    3    0  502 -0.53169678618E+03  0.69200951391E+03  0.18919287233E+03  0.89296958107E+03  0.46999998093E+01 0.  1.
</event>
<event>
 5   0  0.1071208E-05  0.2199541E+04  0.7818609E-02  0.8518619E-01
       -1   -1    0    0    0  501  0.00000000000E+00  0.00000000000E+00  0.96079650630E+03  0.96079650631E+03  0.50400001928E-02 0. -1.
        1   -1    0    0  501    0  0.00000000000E+00  0.00000000000E+00 -0.12588467913E+04  0.12588467913E+04  0.50400001928E-02 0.  1.
    10030    2    1    2    0    0  0.00000000000E+00  0.00000000000E+00 -0.29805028498E+03  0.22196432976E+04  0.21995414059E+04 0.  0.
        4    1    3    3  502    0  0.21100109306E+03 -0.97221673623E+03 -0.62210278811E+03  0.11733457868E+04  0.12699999809E+01 0.  1.
       -4    1    3    3    0  502 -0.21100109306E+03  0.97221673623E+03  0.32405250313E+03  0.10462975108E+04  0.12699999809E+01 0. -1.
</event>
<event>
 5   0  0.2289708E-05  0.2201354E+04  0.7818609E-02  0.8517865E-01
        2   -1    0    0  501    0  0.00000000000E+00  0.00000000000E+00  0.24359649262E+04  0.24359649262E+04  0.25500000920E-02 0. -1.
       -2   -1    0    0    0  501  0.00000000000E+00  0.00000000000E+00 -0.49733472390E+03  0.49733472390E+03  0.25500000920E-02 0.  1.
    10030    2    1    2    0    0  0.00000000000E+00  0.00000000000E+00  0.19386302023E+04  0.29332996501E+04  0.22013540779E+04 0.  0.
        5    1    3    3  502    0  0.87394010700E+03  0.50891748444E+03  0.15481463191E+04  0.18492018364E+04  0.46999998093E+01 0. -1.
       -5    1    3    3    0  502 -0.87394010700E+03 -0.50891748444E+03  0.39048388325E+03  0.10840978137E+04  0.46999998093E+01 0.  1.
</event>
<event>
 5   0  0.8003875E-06  0.2201230E+04  0.7818609E-02  0.8517917E-01
        3   -1    0    0  501    0  0.00000000000E+00  0.00000000000E+00  0.49036487076E+03  0.49036488117E+03  0.10100000352E+00 0. -1.
       -3   -1    0    0    0  501  0.00000000000E+00  0.00000000000E+00 -0.24703093346E+04  0.24703093366E+04  0.10100000352E+00 0.  1.
    10030    2    1    2    0    0  0.00000000000E+00  0.00000000000E+00 -0.19799444638E+04  0.29606742178E+04  0.22012295982E+04 0.  0.
        2    1    3    3  502    0  0.54054167913E+03  0.65275524388E+03 -0.45513060983E+02  0.84873208613E+03  0.25500000920E-02 0. -1.
       -2    1    3    3    0  502 -0.54054167913E+03 -0.65275524388E+03 -0.19344314028E+04  0.21119421317E+04  0.25500000920E-02 0.  1.
</event>
<event>
 5   0  0.2289708E-05  0.2190518E+04  0.7818609E-02  0.8522385E-01
       -2   -1    0    0    0  501  0.00000000000E+00  0.00000000000E+00  0.15843426072E+04  0.15843426072E+04  0.25500000920E-02 0.  1.
        2   -1    0    0  501    0  0.00000000000E+00  0.00000000000E+00 -0.75715471527E+03  0.75715471528E+03  0.25500000920E-02 0. -1.
    10030    2    1    2    0    0  0.00000000000E+00  0.00000000000E+00  0.82718789195E+03  0.23414973225E+04  0.21905181813E+04 0.  0.
        5    1    3    3  502    0  0.10755591133E+04  0.53390527991E+02  0.62709108229E+03  0.12461714450E+04  0.46999998093E+01 0.  1.
       -5    1    3    3    0  502 -0.10755591133E+04 -0.53390527991E+02  0.20009680966E+03  0.10953258775E+04  0.46999998093E+01 0. -1.
</event>
<event>
 5   0  0.2298329E-05  0.2213020E+04  0.7818609E-02  0.8513028E-01
       -2   -1    0    0    0  501  0.00000000000E+00  0.00000000000E+00  0.15835691457E+04  0.15835691457E+04  0.25500000920E-02 0.  1.
        2   -1    0    0  501    0  0.00000000000E+00  0.00000000000E+00 -0.77316744450E+03  0.77316744450E+03  0.25500000920E-02 0. -1.
    10030    2    1    2    0    0  0.00000000000E+00  0.00000000000E+00  0.81040170123E+03  0.23567365902E+04  0.22130197555E+04 0.  0.
        4    1    3    3  502    0 -0.21517664810E+03 -0.71659776370E+02 -0.74814917969E+03  0.78177037639E+03  0.12699999809E+01 0. -1.
       -4    1    3    3    0  502  0.21517664810E+03  0.71659776370E+02  0.15585508809E+04  0.15749662138E+04  0.12699999809E+01 0.  1.
</event>
<event>
 5   0  0.2229552E-05  0.2172389E+04  0.7818609E-02  0.8530009E-01
       -2   -1    0    0    0  501  0.00000000000E+00  0.00000000000E+00  0.45109600268E+03  0.45109600269E+03  0.25500000920E-02 0. -1.
        2   -1    0    0  501    0  0.00000000000E+00  0.00000000000E+00 -0.26154491803E+04  0.26154491803E+04  0.25500000920E-02 0.  1.
    10030    2    1    2    0    0  0.00000000000E+00  0.00000000000E+00 -0.21643531776E+04  0.30665451830E+04  0.21723891644E+04 0.  0.
        1    1    3    3  502    0 -0.10318207262E+04 -0.44912074423E+02 -0.15570024297E+04  0.18684024383E+04  0.50400001928E-02 0.  1.
       -1    1    3    3    0  502  0.10318207262E+04  0.44912074423E+02 -0.60735074787E+03  0.11981427446E+04  0.50400001928E-02 0. -1.
</event>
<event>
 5   0  0.2229552E-05  0.2200512E+04  0.7818609E-02  0.8518215E-01
       -2   -1    0    0    0  501  0.00000000000E+00  0.00000000000E+00  0.12557857545E+04  0.12557857545E+04  0.25500000920E-02 0.  1.
        2   -1    0    0  501    0  0.00000000000E+00  0.00000000000E+00 -0.96398872572E+03  0.96398872572E+03  0.25500000920E-02 0. -1.
    10030    2    1    2    0    0  0.00000000000E+00  0.00000000000E+00  0.29179702875E+03  0.22197744802E+04  0.22005120397E+04 0.  0.
        1    1    3    3  502    0  0.52193559226E+03  0.28278089446E+03  0.10803885660E+04  0.12327291877E+04  0.50400001928E-02 0.  1.
       -1    1    3    3    0  502 -0.52193559226E+03 -0.28278089446E+03 -0.78859153724E+03  0.98704529246E+03  0.50400001928E-02 0. -1.
</event>
<event>
 5   0  0.1007682E-05  0.2189685E+04  0.7818609E-02  0.8522734E-01
        1   -1    0    0  501    0  0.00000000000E+00  0.00000000000E+00  0.10576600144E+04  0.10576600144E+04  0.50400001928E-02 0.  1.
       -1   -1    0    0    0  501  0.00000000000E+00  0.00000000000E+00 -0.11333325364E+04  0.11333325364E+04  0.50400001928E-02 0. -1.
    10030    2    1    2    0    0  0.00000000000E+00  0.00000000000E+00 -0.75672522020E+02  0.21909925508E+04  0.21896853718E+04 0.  0.
        2    1    3    3  502    0  0.30508793187E+03 -0.21149438106E+03  0.99276501277E+03  0.10599013586E+04  0.25500000920E-02 0.  1.
       -2    1    3    3    0  502 -0.30508793187E+03  0.21149438106E+03 -0.10684375348E+04  0.11310911922E+04  0.25500000920E-02 0. -1.
</event>
<event>
 5   0  0.2229552E-05  0.2233324E+04  0.7818609E-02  0.8504684E-01
        2   -1    0    0  501    0  0.00000000000E+00  0.00000000000E+00  0.10653822881E+04  0.10653822881E+04  0.25500000920E-02 0.  1.
       -2   -1    0    0    0  501  0.00000000000E+00  0.00000000000E+00 -0.11704101477E+04  0.11704101477E+04  0.25500000920E-02 0. -1.
    10030    2    1    2    0    0  0.00000000000E+00  0.00000000000E+00 -0.10502785959E+03  0.22357924358E+04  0.22333241961E+04 0.  0.
        1    1    3    3  502    0 -0.62748384596E+03 -0.31227833022E+03  0.81774566796E+03  0.10770151856E+04  0.50400001928E-02 0.  1.
       -1    1    3    3    0  502  0.62748384596E+03  0.31227833022E+03 -0.92277352755E+03  0.11587772502E+04  0.50400001928E-02 0. -1.
</event>
<event>
 5   0  0.1033733E-05  0.2210343E+04  0.7818609E-02  0.8514136E-01
       -1   -1    0    0    0  501  0.00000000000E+00  0.00000000000E+00  0.88090534731E+03  0.88090534733E+03  0.50400001928E-02 0. -1.
        1   -1    0    0  501    0  0.00000000000E+00  0.00000000000E+00 -0.13865324435E+04  0.13865324435E+04  0.50400001928E-02 0.  1.
    10030    2    1    2    0    0  0.00000000000E+00  0.00000000000E+00 -0.50562709614E+03  0.22674377908E+04  0.22103428184E+04 0.  0.
        5    1    3    3  502    0 -0.99980583043E+03 -0.42356884330E+03 -0.41682985125E+02  0.10866378536E+04  0.46999998093E+01 0. -1.
       -5    1    3    3    0  502  0.99980583043E+03  0.42356884330E+03 -0.46394411102E+03  0.11807999372E+04  0.46999998093E+01 0.  1.
</event>
<event>
 5   0  0.1005538E-05  0.2225248E+04  0.7818609E-02  0.8507992E-01
       -1   -1    0    0    0  501  0.00000000000E+00  0.00000000000E+00  0.10621946222E+04  0.10621946222E+04  0.50400001928E-02 0. -1.
        1   -1    0    0  501    0  0.00000000000E+00  0.00000000000E+00 -0.11654473145E+04  0.11654473145E+04  0.50400001928E-02 0.  1.
    10030    2    1    2    0    0  0.00000000000E+00  0.00000000000E+00 -0.10325269225E+03  0.22276419367E+04  0.22252477344E+04 0.  0.
        3    1    3    3  502    0  0.31560687400E+03  0.10668624794E+04 -0.40273470685E+02  0.11132947550E+04  0.10100000352E+00 0.  1.
       -3    1    3    3    0  502 -0.31560687400E+03 -0.10668624794E+04 -0.62979221569E+02  0.11143471817E+04  0.10100000352E+00 0. -1.
</event>
<event>
 5   0  0.2298329E-05  0.2121278E+04  0.7818609E-02  0.8551928E-01
        2   -1    0    0  501    0  0.00000000000E+00  0.00000000000E+00  0.21054600308E+04  0.21054600308E+04  0.25500000920E-02 0.  1.
       -2   -1    0    0    0  501  0.00000000000E+00  0.00000000000E+00 -0.53430362344E+03  0.53430362344E+03  0.25500000920E-02 0. -1.
    10030    2    1    2    0    0  0.00000000000E+00  0.00000000000E+00  0.15711564073E+04  0.26397636542E+04  0.21212778445E+04 0.  0.
        4    1    3    3  502    0  0.77168624840E+03  0.61192360373E+03  0.29564401354E+03  0.10282787358E+04  0.12699999809E+01 0. -1.
       -4    1    3    3    0  502 -0.77168624840E+03 -0.61192360373E+03  0.12755123938E+04  0.16114849184E+04  0.12699999809E+01 0.  1.
</event>
<event>
 5   0  0.1049198E-05  0.2205240E+04  0.7818609E-02  0.8516250E-01
       -1   -1    0    0    0  501  0.00000000000E+00  0.00000000000E+00  0.11549862333E+04  0.11549862333E+04  0.50400001928E-02 0.  1.
        1   -1    0    0  501    0  0.00000000000E+00  0.00000000000E+00 -0.10526279759E+04  0.10526279759E+04  0.50400001928E-02 0. -1.
    10030    2    1    2    0    0  0.00000000000E+00  0.00000000000E+00  0.10235825742E+03  0.22076142091E+04  0.22052399605E+04 0.  0.
        1    1    3    3  502    0  0.76358895402E+03  0.34778168668E+03  0.76731679963E+03  0.11370115493E+04  0.50400001928E-02 0.  1.
       -1    1    3    3    0  502 -0.76358895402E+03 -0.34778168668E+03 -0.66495854222E+03  0.10706026598E+04  0.50400001928E-02 0. -1.
</event>
<event>
 5   0  0.2319707E-05  0.2199857E+04  0.7818609E-02  0.8518488E-01
        2   -1    0    0  501    0  0.00000000000E+00  0.00000000000E+00  0.19168910245E+04  0.19168910245E+04  0.25500000920E-02 0.  1.
       -2   -1    0    0    0  501  0.00000000000E+00  0.00000000000E+00 -0.63114853777E+03  0.63114853777E+03  0.25500000920E-02 0. -1.
    10030    2    1    2    0    0  0.00000000000E+00  0.00000000000E+00  0.12857424868E+04  0.25480395623E+04  0.21998572383E+04 0.  0.
        3    1    3    3  502    0 -0.46977551277E+03 -0.71210546447E+03 -0.16132510457E+03  0.86822175998E+03  0.10100000352E+00 0. -1.
       -3    1    3    3    0  502  0.46977551277E+03  0.71210546447E+03  0.14470675913E+04  0.16798178023E+04  0.10100000352E+00 0.  1.
</event>
<event>
 5   0  0.2319707E-05  0.2190132E+04  0.7818609E-02  0.8522547E-01
       -2   -1    0    0    0  501  0.00000000000E+00  0.00000000000E+00  0.16565470770E+04  0.16565470770E+04  0.25500000920E-02 0. -1.
        2   -1    0    0  501    0  0.00000000000E+00  0.00000000000E+00 -0.72389686408E+03  0.72389686409E+03  0.25500000920E-02 0.  1.
    10030    2    1    2    0    0  0.00000000000E+00  0.00000000000E+00  0.93265021289E+03  0.23804439411E+04  0.21901317168E+04 0.  0.
        3    1    3    3  502    0  0.20035037257E+03  0.90852736011E+03 -0.16145173919E+03  0.94426103920E+03  0.10100000352E+00 0.  1.
       -3    1    3    3    0  502 -0.20035037257E+03 -0.90852736011E+03  0.10941019521E+04  0.14361829019E+04  0.10100000352E+00 0. -1.
</event>
<event>
 5   0  0.2319707E-05  0.2213591E+04  0.7818609E-02  0.8512792E-01
       -2   -1    0    0    0  501  0.00000000000E+00  0.00000000000E+00  0.73051347543E+03  0.73051347544E+03  0.25500000920E-02 0.  1.
        2   -1    0    0  501    0  0.00000000000E+00  0.00000000000E+00 -0.16768980285E+04  0.16768980285E+04  0.25500000920E-02 0. -1.
    10030    2    1    2    0    0  0.00000000000E+00  0.00000000000E+00 -0.94638455310E+03  0.24074115040E+04  0.22135912963E+04 0.  0.
        3    1    3    3  502    0 -0.38112817189E+03  0.54852205606E+03 -0.14329972637E+04  0.15810174880E+04  0.10100000352E+00 0. -1.
       -3    1    3    3    0  502  0.38112817189E+03 -0.54852205606E+03  0.48661271057E+03  0.82639401600E+03  0.10100000352E+00 0.  1.
</event>
<event>
 5   0  0.1007682E-05  0.2196756E+04  0.7818609E-02  0.8519780E-01
        1   -1    0    0  501    0  0.00000000000E+00  0.00000000000E+00  0.15523709146E+04  0.15523709146E+04  0.50400001928E-02 0. -1.
       -1   -1    0    0    0  501  0.00000000000E+00  0.00000000000E+00 -0.77715573560E+03  0.77715573562E+03  0.50400001928E-02 0.  1.
    10030    2    1    2    0    0  0.00000000000E+00  0.00000000000E+00  0.77521517901E+03  0.23295266502E+04  0.21967557535E+04 0.  0.
        2    1    3    3  502    0 -0.21881307121E+02 -0.86792352069E+03 -0.32585935361E+03  0.92733723516E+03  0.25500000920E-02 0.  1.
       -2    1    3    3    0  502  0.21881307121E+02  0.86792352069E+03  0.11010745326E+04  0.14021894151E+04  0.25500000920E-02 0. -1.
</event>
<event>
 5   0  0.2289708E-05  0.2168685E+04  0.7818609E-02  0.8531576E-01
        2   -1    0    0  501    0  0.00000000000E+00  0.00000000000E+00  0.10847160738E+04  0.10847160738E+04  0.25500000920E-02 0. -1.
       -2   -1    0    0    0  501  0.00000000000E+00  0.00000000000E+00 -0.10839689919E+04  0.10839689919E+04  0.25500000920E-02 0.  1.
    10030    2    1    2    0    0  0.00000000000E+00  0.00000000000E+00  0.74708189880E+00  0.21686850657E+04  0.21686849370E+04 0.  0.
        5    1    3    3  502    0 -0.57284550300E+03  0.92000801302E+03  0.35155502215E+02  0.10843545148E+04  0.46999998093E+01 0.  1.
       -5    1    3    3    0  502  0.57284550300E+03 -0.92000801302E+03 -0.34408420316E+02  0.10843305509E+04  0.46999998093E+01 0. -1.
</event>
<event>
 5   0  0.2289708E-05  0.2222210E+04  0.7818609E-02  0.8509240E-01
       -2   -1    0    0    0  501  0.00000000000E+00  0.00000000000E+00  0.58637872356E+03  0.58637872357E+03  0.25500000920E-02 0.  1.
        2   -1    0    0  501    0  0.00000000000E+00  0.00000000000E+00 -0.21053870531E+04  0.21053870531E+04  0.25500000920E-02 0. -1.
    10030    2    1    2    0    0  0.00000000000E+00  0.00000000000E+00 -0.15190083295E+04  0.26917657766E+04  0.22222098666E+04 0.  0.
        5    1    3    3  502    0 -0.60916070662E+03  0.85143552296E+03 -0.12103180191E+04  0.16002846664E+04  0.46999998093E+01 0.  1.
       -5    1    3    3    0  502  0.60916070662E+03 -0.85143552296E+03 -0.30869031044E+03  0.10914811102E+04  0.46999998093E+01 0. -1.
</event>
<event>
 5   0  0.2298329E-05  0.2201993E+04  0.7818609E-02  0.8517599E-01
       -2   -1    0    0    0  501  0.00000000000E+00  0.00000000000E+00  0.58848558833E+03  0.58848558834E+03  0.25500000920E-02 0. -1.
        2   -1    0    0  501    0  0.00000000000E+00  0.00000000000E+00 -0.20598526831E+04  0.20598526831E+04  0.25500000920E-02 0.  1.
    10030    2    1    2    0    0  0.00000000000E+00  0.00000000000E+00 -0.14713670947E+04  0.26483382714E+04  0.22019932952E+04 0.  0.
        4    1    3    3  502    0 -0.93836812680E+03 -0.37357085528E+03 -0.20854655078E+03  0.10313017027E+04  0.12699999809E+01 0.  1.
       -4    1    3    3    0  502  0.93836812680E+03  0.37357085528E+03 -0.12628205439E+04  0.16170365687E+04  0.12699999809E+01 0. -1.
</event>
<event>
 5   0  0.2298329E-05  0.2199888E+04  0.7818609E-02  0.8518475E-01
        2   -1    0    0  501    0  0.00000000000E+00  0.00000000000E+00  0.22512340374E+04  0.22512340374E+04  0.25500000920E-02 0.  1.
       -2   -1    0    0    0  501  0.00000000000E+00  0.00000000000E+00 -0.53742811821E+03  0.53742811822E+03  0.25500000920E-02 0. -1.
    10030    2    1    2    0    0  0.00000000000E+00  0.00000000000E+00  0.17138059192E+04  0.27886621557E+04  0.21998876993E+04 0.  0.
        4    1    3    3  502    0  0.81650894592E+02  0.21518089486E+03  0.22203688358E+04  0.22322654560E+04  0.12699999809E+01 0.  1.
       -4    1    3    3    0  502 -0.81650894592E+02 -0.21518089486E+03 -0.50656291655E+03  0.55639669969E+03  0.12699999809E+01 0. -1.
</event>
<event>
 5   0  0.1007682E-05  0.2187362E+04  0.7818609E-02  0.8523707E-01
        1   -1    0    0  501    0  0.00000000000E+00  0.00000000000E+00  0.81745176204E+03  0.81745176205E+03  0.50400001928E-02 0. -1.
       -1   -1    0    0    0  501  0.00000000000E+00  0.00000000000E+00 -0.14632522729E+04  0.14632522729E+04  0.50400001928E-02 0.  1.
    10030    2    1    2    0    0  0.00000000000E+00  0.00000000000E+00 -0.64580051081E+03  0.22807040349E+04  0.21873620174E+04 0.  0.
        2    1    3    3  502    0  0.41841360786E+03 -0.87797057766E+03  0.19868228225E+03  0.99266153939E+03  0.25500000920E-02 0. -1.
       -2    1    3    3    0  502 -0.41841360786E+03  0.87797057766E+03 -0.84448279307E+03  0.12880424955E+04  0.25500000920E-02 0.  1.
</event>
<event>
 5   0  0.2319707E-05  0.2192690E+04  0.7818609E-02  0.8521477E-01
        2   -1    0    0  501    0  0.00000000000E+00  0.00000000000E+00  0.23310324191E+04  0.23310324191E+04  0.25500000920E-02 0. -1.
       -2   -1    0    0    0  501  0.00000000000E+00  0.00000000000E+00 -0.51563928758E+03  0.51563928759E+03  0.25500000920E-02 0.  1.
    10030    2    1    2    0    0  0.00000000000E+00  0.00000000000E+00  0.18153931315E+04  0.28466717067E+04  0.21926895776E+04 0.  0.
        3    1    3    3  502    0 -0.66539008934E+02 -0.10422797895E+04  0.13406162443E+04  0.16994194667E+04  0.10100000352E+00 0. -1.
       -3    1    3    3    0  502  0.66539008934E+02  0.10422797895E+04  0.47477688723E+03  0.11472522400E+04  0.10100000352E+00 0.  1.
</event>
<event>
 5   0  0.1071208E-05  0.2199114E+04  0.7818609E-02  0.8518797E-01
        1   -1    0    0  501    0  0.00000000000E+00  0.00000000000E+00  0.13479870091E+04  0.13479870091E+04  0.50400001928E-02 0.  1.
       -1   -1    0    0    0  501  0.00000000000E+00  0.00000000000E+00 -0.89691179917E+03  0.89691179918E+03  0.50400001928E-02 0. -1.
    10030    2    1    2    0    0  0.00000000000E+00  0.00000000000E+00  0.45107520988E+03  0.22448988082E+04  0.21991138702E+04 0.  0.
        4    1    3    3  502    0 -0.98860966605E+03  0.10962825652E+02  0.71675726970E+03  0.12211518546E+04  0.12699999809E+01 0.  1.
       -4    1    3    3    0  502  0.98860966605E+03 -0.10962825652E+02 -0.26568205982E+03  0.10237469537E+04  0.12699999809E+01 0. -1.
</event>
<event>
 5   0  0.2229552E-05  0.2196003E+04  0.7818609E-02  0.8520094E-01
       -2   -1    0    0    0  501  0.00000000000E+00  0.00000000000E+00  0.42777003365E+03  0.42777003365E+03  0.25500000920E-02 0. -1.
        2   -1    0    0  501    0  0.00000000000E+00  0.00000000000E+00 -0.28183543036E+04  0.28183543036E+04  0.25500000920E-02 0.  1.
    10030    2    1    2    0    0  0.00000000000E+00  0.00000000000E+00 -0.23905842700E+04  0.32461243373E+04  0.21960032015E+04 0.  0.
        1    1    3    3  502    0  0.87090679483E+03 -0.61164911707E+03 -0.15947177654E+04  0.19172162213E+04  0.50400001928E-02 0. -1.
       -1    1    3    3    0  502 -0.87090679483E+03  0.61164911707E+03 -0.79586650453E+03  0.13289081160E+04  0.50400001928E-02 0.  1.
</event>
<event>
 5   0  0.2284329E-05  0.2197478E+04  0.7818609E-02  0.8519478E-01
        2   -1    0    0  501    0  0.00000000000E+00  0.00000000000E+00  0.86450797797E+03  0.86450797797E+03  0.25500000920E-02 0.  1.
       -2   -1    0    0    0  501  0.00000000000E+00  0.00000000000E+00 -0.13964331801E+04  0.13964331801E+04  0.25500000920E-02 0. -1.
    10030    2    1    2    0    0  0.00000000000E+00  0.00000000000E+00 -0.53192520210E+03  0.22609411580E+04  0.21974782137E+04 0.  0.
        2    1    3    3  502    0 -0.77832837053E+03  0.57836462085E+03  0.26560791427E+03  0.10054094943E+04  0.25500000920E-02 0.  1.
       -2    1    3    3    0  502  0.77832837053E+03 -0.57836462085E+03 -0.79753311637E+03  0.12555316638E+04  0.25500000920E-02 0. -1.
</event>
<event>
 5   0  0.1071208E-05  0.2204535E+04  0.7818609E-02  0.8516543E-01
        1   -1    0    0  501    0  0.00000000000E+00  0.00000000000E+00  0.27715369781E+04  0.27715369782E+04  0.50400001928E-02 0. -1.
       -1   -1    0    0    0  501  0.00000000000E+00  0.00000000000E+00 -0.43838264083E+03  0.43838264086E+03  0.50400001928E-02 0.  1.
    10030    2    1    2    0    0  0.00000000000E+00  0.00000000000E+00  0.23331543373E+04  0.32099196190E+04  0.22045350527E+04 0.  0.
        4    1    3    3  502    0  0.62777715867E+02 -0.77294448174E+02 -0.43181917606E+03  0.44315334484E+03  0.12699999809E+01 0.  1.
       -4    1    3    3    0  502 -0.62777715867E+02  0.77294448174E+02  0.27649735134E+04  0.27667662742E+04  0.12699999809E+01 0. -1.
</event>
<event>
 5   0  0.1007682E-05  0.2199912E+04  0.7818609E-02  0.8518465E-01
        1   -1    0    0  501    0  0.00000000000E+00  0.00000000000E+00  0.10616156561E+04  0.10616156561E+04  0.50400001928E-02 0.  1.
       -1   -1    0    0    0  501  0.00000000000E+00  0.00000000000E+00 -0.11396813099E+04  0.11396813099E+04  0.50400001928E-02 0. -1.
    10030    2    1    2    0    0  0.00000000000E+00  0.00000000000E+00 -0.78065653782E+02  0.22012969660E+04  0.21999122906E+04 0.  0.
        2    1    3    3  502    0  0.11166326887E+03 -0.36944515748E+03 -0.10697030450E+04  0.11371996370E+04  0.25500000920E-02 0. -1.
       -2    1    3    3    0  502 -0.11166326887E+03  0.36944515748E+03  0.99163739118E+03  0.10640973290E+04  0.25500000920E-02 0.  1.
</event>
<event>
 5   0  0.2298329E-05  0.2202698E+04  0.7818609E-02  0.8517306E-01
        2   -1    0    0  501    0  0.00000000000E+00  0.00000000000E+00  0.39962097180E+03  0.39962097181E+03  0.25500000920E-02 0.  1.
       -2   -1    0    0    0  501  0.00000000000E+00  0.00000000000E+00 -0.30352991968E+04  0.30352991968E+04  0.25500000920E-02 0. -1.
    10030    2    1    2    0    0  0.00000000000E+00  0.00000000000E+00 -0.26356782250E+04  0.34349201687E+04  0.22026976322E+04 0.  0.
        4    1    3    3  502    0 -0.37085951244E+03 -0.27902712169E+03 -0.28753621313E+04  0.29125765074E+04  0.12699999809E+01 0. -1.
       -4    1    3    3    0  502  0.37085951244E+03  0.27902712169E+03  0.23968390626E+03  0.52234366123E+03  0.12699999809E+01 0.  1.
</event>
<event>
 5   0  0.2298329E-05  0.2146679E+04  0.7818609E-02  0.8540955E-01
       -2   -1    0    0    0  501  0.00000000000E+00  0.00000000000E+00  0.16840206775E+04  0.16840206775E+04  0.25500000920E-02 0. -1.
        2   -1    0    0  501    0  0.00000000000E+00  0.00000000000E+00 -0.68411109762E+03  0.68411109763E+03  0.25500000920E-02 0.  1.
    10030    2    1    2    0    0  0.00000000000E+00  0.00000000000E+00  0.99990957992E+03  0.23681317752E+04  0.21466785825E+04 0.  0.
        4    1    3    3  502    0  0.11463355765E+02 -0.72314681255E+03 -0.37494489700E+03  0.81465207893E+03  0.12699999809E+01 0.  1.
       -4    1    3    3    0  502 -0.11463355765E+02  0.72314681255E+03  0.13748544769E+04  0.15534796962E+04  0.12699999809E+01 0. -1.
</event>
<event>
 5   0  0.1071208E-05  0.2195305E+04  0.7818609E-02  0.8520385E-01
        1   -1    0    0  501    0  0.00000000000E+00  0.00000000000E+00  0.19621384054E+04  0.19621384054E+04  0.50400001928E-02 0.  1.
       -1   -1    0    0    0  501  0.00000000000E+00  0.00000000000E+00 -0.61404466425E+03  0.61404466427E+03  0.50400001928E-02 0. -1.
    10030    2    1    2    0    0  0.00000000000E+00  0.00000000000E+00  0.13480937411E+04  0.25761830697E+04  0.21953046425E+04 0.  0.
        4    1    3    3  502    0  0.10754921076E+04  0.20102515044E+03  0.57077500846E+03  0.12340502858E+04  0.12699999809E+01 0. -1.
       -4    1    3    3    0  502 -0.10754921076E+04 -0.20102515044E+03  0.77731873269E+03  0.13421327839E+04  0.12699999809E+01 0.  1.
</event>
<event>
 5   0  0.1007682E-05  0.2198972E+04  0.7818609E-02  0.8518856E-01
        1   -1    0    0  501    0  0.00000000000E+00  0.00000000000E+00  0.82829289668E+03  0.82829289670E+03  0.50400001928E-02 0.  1.
       -1   -1    0    0    0  501  0.00000000000E+00  0.00000000000E+00 -0.14594707177E+04  0.14594707177E+04  0.50400001928E-02 0. -1.
    10030    2    1    2    0    0  0.00000000000E+00  0.00000000000E+00 -0.63117782103E+03  0.22877636144E+04  0.21989717856E+04 0.  0.
        2    1    3    3  502    0  0.75021531628E+03 -0.25368517382E+03 -0.11090713235E+04  0.13627980000E+04  0.25500000920E-02 0. -1.
       -2    1    3    3    0  502 -0.75021531628E+03  0.25368517382E+03  0.47789350245E+03  0.92496561444E+03  0.25500000920E-02 0.  1.
</event>
<event>
 5   0  0.2289708E-05  0.2200415E+04  0.7818609E-02  0.8518255E-01
        2   -1    0    0  501    0  0.00000000000E+00  0.00000000000E+00  0.16786241480E+04  0.16786241480E+04  0.25500000920E-02 0.  1.
       -2   -1    0    0    0  501  0.00000000000E+00  0.00000000000E+00 -0.72110045363E+03  0.72110045363E+03  0.25500000920E-02 0. -1.
    10030    2    1    2    0    0  0.00000000000E+00  0.00000000000E+00  0.95752369439E+03  0.23997246017E+04  0.22004150832E+04 0.  0.
        5    1    3    3  502    0  0.21383827742E+03  0.83362907072E+03 -0.26871814515E+03  0.90160732471E+03  0.46999998093E+01 0. -1.
       -5    1    3    3    0  502 -0.21383827742E+03 -0.83362907072E+03  0.12262418395E+04  0.14981172769E+04  0.46999998093E+01 0.  1.
</event>
<event>
 5   0  0.2289708E-05  0.2179265E+04  0.7818609E-02  0.8527109E-01
       -2   -1    0    0    0  501  0.00000000000E+00  0.00000000000E+00  0.10677296629E+04  0.10677296629E+04  0.25500000920E-02 0. -1.
        2   -1    0    0  501    0  0.00000000000E+00  0.00000000000E+00 -0.11119841647E+04  0.11119841648E+04  0.25500000920E-02 0.  1.
    10030    2    1    2    0    0  0.00000000000E+00  0.00000000000E+00 -0.44254501802E+02  0.21797138277E+04  0.21792645341E+04 0.  0.
        5    1    3    3  502    0  0.91484689886E+03 -0.59081632396E+03  0.13483606306E+02  0.10891339103E+04  0.46999998093E+01 0.  1.
       -5    1    3    3    0  502 -0.91484689886E+03  0.59081632396E+03 -0.57738108108E+02  0.10905799174E+04  0.46999998093E+01 0. -1.
</event>
<event>
 5   0  0.1033733E-05  0.2206039E+04  0.7818609E-02  0.8515919E-01
        1   -1    0    0  501    0  0.00000000000E+00  0.00000000000E+00  0.10492292563E+04  0.10492292563E+04  0.50400001928E-02 0.  1.
       -1   -1    0    0    0  501  0.00000000000E+00  0.00000000000E+00 -0.11595671337E+04  0.11595671337E+04  0.50400001928E-02 0. -1.
    10030    2    1    2    0    0  0.00000000000E+00  0.00000000000E+00 -0.11033787740E+03  0.22087963900E+04  0.22060387678E+04 0.  0.
        5    1    3    3  502    0 -0.59362048562E+02 -0.97446158079E+03 -0.56916281176E+03  0.11300741664E+04  0.46999998093E+01 0. -1.
       -5    1    3    3    0  502  0.59362048562E+02  0.97446158079E+03  0.45882493435E+03  0.10787222236E+04  0.46999998093E+01 0.  1.
</event>
<event>
 5   0  0.2284329E-05  0.2162013E+04  0.7818609E-02  0.8534408E-01
        2   -1    0    0  501    0  0.00000000000E+00  0.00000000000E+00  0.17615783080E+04  0.17615783080E+04  0.25500000920E-02 0. -1.
       -2   -1    0    0    0  501  0.00000000000E+00  0.00000000000E+00 -0.66336826189E+03  0.66336826189E+03  0.25500000920E-02 0.  1.
    10030    2    1    2    0    0  0.00000000000E+00  0.00000000000E+00  0.10982100462E+04  0.24249465699E+04  0.21620130808E+04 0.  0.
        2    1    3    3  502    0  0.63074985698E+03 -0.66930436182E+03  0.11863180884E+04  0.15010544020E+04  0.25500000920E-02 0. -1.
       -2    1    3    3    0  502 -0.63074985698E+03  0.66930436182E+03 -0.88108042277E+02  0.92389216793E+03  0.25500000920E-02 0.  1.
</event>
<event>
 5   0  0.1071208E-05  0.2198412E+04  0.7818609E-02  0.8519089E-01
       -1   -1    0    0    0  501  0.00000000000E+00  0.00000000000E+00  0.18638051997E+04  0.18638051997E+04  0.50400001928E-02 0.  1.
        1   -1    0    0  501    0  0.00000000000E+00  0.00000000000E+00 -0.64827245128E+03  0.64827245130E+03  0.50400001928E-02 0. -1.
    10030    2    1    2    0    0  0.00000000000E+00  0.00000000000E+00  0.12155327484E+04  0.25120776510E+04  0.21984117590E+04 0.  0.
        4    1    3    3  502    0 -0.66186789955E+03 -0.60764981540E+03 -0.11577966787E+03  0.90593264595E+03  0.12699999809E+01 0. -1.
       -4    1    3    3    0  502  0.66186789955E+03  0.60764981540E+03  0.13313124163E+04  0.16061450051E+04  0.12699999809E+01 0.  1.
</event>
<event>
 5   0  0.2319707E-05  0.2178127E+04  0.7818609E-02  0.8527588E-01
        2   -1    0    0  501    0  0.00000000000E+00  0.00000000000E+00  0.20212219982E+04  0.20212219982E+04  0.25500000920E-02 0. -1.
       -2   -1    0    0    0  501  0.00000000000E+00  0.00000000000E+00 -0.58680295402E+03  0.58680295402E+03  0.25500000920E-02 0.  1.
    10030    2    1    2    0    0  0.00000000000E+00  0.00000000000E+00  0.14344190442E+04  0.26080249522E+04  0.21781267542E+04 0.  0.
        3    1    3    3  502    0  0.10831726039E+04  0.15804041114E+02  0.58309133828E+03  0.12302472014E+04  0.10100000352E+00 0.  1.
       -3    1    3    3    0  502 -0.10831726039E+04 -0.15804041114E+02  0.85132770592E+03  0.13777777508E+04  0.10100000352E+00 0. -1.
</event>
<event>
 5   0  0.8003875E-06  0.2068729E+04  0.7818609E-02  0.8575145E-01
        4   -1    0    0  501    0  0.00000000000E+00  0.00000000000E+00  0.95547041610E+03  0.95547126013E+03  0.12699999809E+01 0. -1.
       -4   -1    0    0    0  501  0.00000000000E+00  0.00000000000E+00 -0.11197716953E+04  0.11197724155E+04  0.12699999809E+01 0.  1.
    10030    2    1    2    0    0  0.00000000000E+00  0.00000000000E+00 -0.16430127921E+03  0.20752436756E+04  0.20687294175E+04 0.  0.
        4    1    3    3  502    0 -0.55564101436E+03 -0.80844705288E+03 -0.41118526397E+03  0.10636721809E+04  0.12699999809E+01 0. -1.
       -4    1    3    3    0  502  0.55564101436E+03  0.80844705288E+03  0.24688398476E+03  0.10115714948E+04  0.12699999809E+01 0.  1.
</event>
<event>
 5   0  0.2284329E-05  0.2189493E+04  0.7818609E-02  0.8522814E-01
       -2   -1    0    0    0  501  0.00000000000E+00  0.00000000000E+00  0.12247751053E+04  0.12247751053E+04  0.25500000920E-02 0. -1.
        2   -1    0    0  501    0  0.00000000000E+00  0.00000000000E+00 -0.97852205727E+03  0.97852205728E+03  0.25500000920E-02 0.  1.
    10030    2    1    2    0    0  0.00000000000E+00  0.00000000000E+00  0.24625304803E+03  0.22032971626E+04  0.21894925949E+04 0.  0.
        2    1    3    3  502    0  0.38231227172E+03 -0.25844067712E+03 -0.87586374473E+03  0.98999573536E+03  0.25500000920E-02 0.  1.
       -2    1    3    3    0  502 -0.38231227172E+03  0.25844067712E+03  0.11221167928E+04  0.12133014272E+04  0.25500000920E-02 0. -1.
</event>
<event>
 5   0  0.1005538E-05  0.2199297E+04  0.7818609E-02  0.8518721E-01
        1   -1    0    0  501    0  0.00000000000E+00  0.00000000000E+00  0.10064677239E+04  0.10064677239E+04  0.50400001928E-02 0.  1.
       -1   -1    0    0    0  501  0.00000000000E+00  0.00000000000E+00 -0.12014561688E+04  0.12014561688E+04  0.50400001928E-02 0. -1.
    10030    2    1    2    0    0  0.00000000000E+00  0.00000000000E+00 -0.19498844493E+03  0.22079238927E+04  0.21992970291E+04 0.  0.
        3    1    3    3  502    0  0.35460753229E+03  0.93564237864E+03 -0.55541243343E+03  0.11444020902E+04  0.10100000352E+00 0. -1.
       -3    1    3    3    0  502 -0.35460753229E+03 -0.93564237864E+03  0.36042398850E+03  0.10635218025E+04  0.10100000352E+00 0.  1.
</event>
<event>
 5   0  0.2284329E-05  0.2199599E+04  0.7818609E-02  0.8518595E-01
       -2   -1    0    0    0  501  0.00000000000E+00  0.00000000000E+00  0.87157830092E+03  0.87157830092E+03  0.25500000920E-02 0. -1.
        2   -1    0    0  501    0  0.00000000000E+00  0.00000000000E+00 -0.13877794234E+04  0.13877794234E+04  0.25500000920E-02 0.  1.
    10030    2    1    2    0    0  0.00000000000E+00  0.00000000000E+00 -0.51620112251E+03  0.22593577244E+04  0.21995985379E+04 0.  0.
        2    1    3    3  502    0  0.53341348156E+03  0.35348627757E+02 -0.12453470781E+04  0.13552375485E+04  0.25500000920E-02 0.  1.
       -2    1    3    3    0  502 -0.53341348156E+03 -0.35348627757E+02  0.72914595563E+03  0.90412017587E+03  0.25500000920E-02 0. -1.
</event>
<event>
 5   0  0.1033733E-05  0.2189697E+04  0.7818609E-02  0.8522729E-01
        1   -1    0    0  501    0  0.00000000000E+00  0.00000000000E+00  0.16610869322E+04  0.16610869322E+04  0.50400001928E-02 0. -1.
       -1   -1    0    0    0  501  0.00000000000E+00  0.00000000000E+00 -0.72163187036E+03  0.72163187038E+03  0.50400001928E-02 0.  1.
    10030    2    1    2    0    0  0.00000000000E+00  0.00000000000E+00  0.93945506183E+03  0.23827188026E+04  0.21896970290E+04 0.  0.
        5    1    3    3  502    0  0.79388119383E+03 -0.68958638037E+03  0.80138032132E+03  0.13221230031E+04  0.46999998093E+01 0. -1.
       -5    1    3    3    0  502 -0.79388119383E+03  0.68958638037E+03  0.13807474051E+03  0.10605957995E+04  0.46999998093E+01 0.  1.
</event>
<event>
 5   0  0.1071208E-05  0.2186179E+04  0.7818609E-02  0.8524203E-01
        1   -1    0    0  501    0  0.00000000000E+00  0.00000000000E+00  0.90876755821E+03  0.90876755823E+03  0.50400001928E-02 0.  1.
       -1   -1    0    0    0  501  0.00000000000E+00  0.00000000000E+00 -0.13147968765E+04  0.13147968765E+04  0.50400001928E-02 0. -1.
    10030    2    1    2    0    0  0.00000000000E+00  0.00000000000E+00 -0.40602931824E+03  0.22235644347E+04  0.21861790841E+04 0.  0.
        4    1    3    3  502    0 -0.15308385140E+03 -0.96323885937E+03 -0.70499213910E+03  0.12034447619E+04  0.12699999809E+01 0. -1.
       -4    1    3    3    0  502  0.15308385140E+03  0.96323885937E+03  0.29896282086E+03  0.10201196728E+04  0.12699999809E+01 0.  1.
</event>
<event>
 5   0  0.2319707E-05  0.2194429E+04  0.7818609E-02  0.8520751E-01
       -2   -1    0    0    0  501  0.00000000000E+00  0.00000000000E+00  0.60374367001E+03  0.60374367002E+03  0.25500000920E-02 0. -1.
        2   -1    0    0  501    0  0.00000000000E+00  0.00000000000E+00 -0.19940238656E+04  0.19940238656E+04  0.25500000920E-02 0.  1.
    10030    2    1    2    0    0  0.00000000000E+00  0.00000000000E+00 -0.13902801956E+04  0.25977675356E+04  0.21944286607E+04 0.  0.
        3    1    3    3  502    0 -0.83249809764E+02 -0.48068908403E+03  0.46829436078E+03  0.67623379454E+03  0.10100000352E+00 0. -1.
       -3    1    3    3    0  502  0.83249809764E+02  0.48068908403E+03 -0.18585745564E+04  0.19215337411E+04  0.10100000352E+00 0.  1.
</event>
<event>
 5   0  0.1005538E-05  0.2197925E+04  0.7818609E-02  0.8519292E-01
        1   -1    0    0  501    0  0.00000000000E+00  0.00000000000E+00  0.20956945184E+04  0.20956945184E+04  0.50400001928E-02 0.  1.
       -1   -1    0    0    0  501  0.00000000000E+00  0.00000000000E+00 -0.57628554030E+03  0.57628554032E+03  0.50400001928E-02 0. -1.
    10030    2    1    2    0    0  0.00000000000E+00  0.00000000000E+00  0.15194089781E+04  0.26719800587E+04  0.21979248830E+04 0.  0.
        3    1    3    3  502    0 -0.22111785727E+03 -0.99103086515E+03  0.12707010061E+04  0.16265658116E+04  0.10100000352E+00 0.  1.
       -3    1    3    3    0  502  0.22111785727E+03  0.99103086515E+03  0.24870797200E+03  0.10454142471E+04  0.10100000352E+00 0. -1.
</event>
<event>
 5   0  0.1007682E-05  0.2195546E+04  0.7818609E-02  0.8520284E-01
       -1   -1    0    0    0  501  0.00000000000E+00  0.00000000000E+00  0.96014093588E+03  0.96014093590E+03  0.50400001928E-02 0.  1.
        1   -1    0    0  501    0  0.00000000000E+00  0.00000000000E+00 -0.12551345407E+04  0.12551345407E+04  0.50400001928E-02 0. -1.
    10030    2    1    2    0    0  0.00000000000E+00  0.00000000000E+00 -0.29499360480E+03  0.22152754766E+04  0.21955464491E+04 0.  0.
        2    1    3    3  502    0 -0.10377238313E+04 -0.35767697836E+03 -0.16504508844E+03  0.11099745277E+04  0.25500000920E-02 0.  1.
       -2    1    3    3    0  502  0.10377238313E+04  0.35767697836E+03 -0.12994851636E+03  0.11053009489E+04  0.25500000920E-02 0. -1.
</event>
<event>
 5   0  0.1007682E-05  0.2186396E+04  0.7818609E-02  0.8524112E-01
       -1   -1    0    0    0  501  0.00000000000E+00  0.00000000000E+00  0.10431535597E+04  0.10431535597E+04  0.50400001928E-02 0.  1.
        1   -1    0    0  501    0  0.00000000000E+00  0.00000000000E+00 -0.11456436402E+04  0.11456436402E+04  0.50400001928E-02 0. -1.
    10030    2    1    2    0    0  0.00000000000E+00  0.00000000000E+00 -0.10249008052E+03  0.21887971999E+04  0.21863963423E+04 0.  0.
        2    1    3    3  502    0 -0.83846537270E+03  0.63191826641E+03 -0.35610754093E+03  0.11086737380E+04  0.25500000920E-02 0. -1.
       -2    1    3    3    0  502  0.83846537270E+03 -0.63191826641E+03  0.25361746041E+03  0.10801234619E+04  0.25500000920E-02 0.  1.
</event>
<event>
 5   0  0.2298329E-05  0.2182799E+04  0.7818609E-02  0.8525622E-01
       -2   -1    0    0    0  501  0.00000000000E+00  0.00000000000E+00  0.53559245529E+03  0.53559245530E+03  0.25500000920E-02 0.  1.
        2   -1    0    0  501    0  0.00000000000E+00  0.00000000000E+00 -0.22239907592E+04  0.22239907592E+04  0.25500000920E-02 0. -1.
    10030    2    1    2    0    0  0.00000000000E+00  0.00000000000E+00 -0.16883983039E+04  0.27595832145E+04  0.21827988192E+04 0.  0.
        4    1    3    3  502    0  0.76443547637E+03  0.56290487460E+03 -0.16346970611E+03  0.96330029227E+03  0.12699999809E+01 0. -1.
       -4    1    3    3    0  502 -0.76443547637E+03 -0.56290487460E+03 -0.15249285978E+04  0.17962829222E+04  0.12699999809E+01 0.  1.
</event>
<event>
 5   0  0.1049198E-05  0.2189085E+04  0.7818609E-02  0.8522985E-01
        1   -1    0    0  501    0  0.00000000000E+00  0.00000000000E+00  0.14661203427E+04  0.14661203427E+04  0.50400001928E-02 0. -1.
       -1   -1    0    0    0  501  0.00000000000E+00  0.00000000000E+00 -0.81713813798E+03  0.81713813800E+03  0.50400001928E-02 0.  1.
    10030    2    1    2    0    0  0.00000000000E+00  0.00000000000E+00  0.64898220470E+03  0.22832584807E+04  0.21890846004E+04 0.  0.
        1    1    3    3  502    0 -0.94561554214E+03  0.28966388855E+03  0.81363169937E+03  0.12806601673E+04  0.50400001928E-02 0. -1.
       -1    1    3    3    0  502  0.94561554214E+03 -0.28966388855E+03 -0.16464949468E+03  0.10025983134E+04  0.50400001928E-02 0.  1.
</event>
<event>
 5   0  0.1049198E-05  0.2204518E+04  0.7818609E-02  0.8516550E-01
       -1   -1    0    0    0  501  0.00000000000E+00  0.00000000000E+00  0.11784603230E+04  0.11784603230E+04  0.50400001928E-02 0. -1.
        1   -1    0    0  501    0  0.00000000000E+00  0.00000000000E+00 -0.10309846291E+04  0.10309846291E+04  0.50400001928E-02 0.  1.
    10030    2    1    2    0    0  0.00000000000E+00  0.00000000000E+00  0.14747569393E+03  0.22094449520E+04  0.22045176152E+04 0.  0.
        1    1    3    3  502    0 -0.50252375952E+02 -0.10360141464E+04  0.44756464515E+03  0.11296746100E+04  0.50400001928E-02 0. -1.
       -1    1    3    3    0  502  0.50252375952E+02  0.10360141464E+04 -0.30008895123E+03  0.10797703420E+04  0.50400001928E-02 0.  1.
</event>
<event>
 5   0  0.2289708E-05  0.2214658E+04  0.7818609E-02  0.8512352E-01
       -2   -1    0    0    0  501  0.00000000000E+00  0.00000000000E+00  0.99000390856E+03  0.99000390857E+03  0.25500000920E-02 0.  1.
        2   -1    0    0  501    0  0.00000000000E+00  0.00000000000E+00 -0.12385579956E+04  0.12385579956E+04  0.25500000920E-02 0. -1.
    10030    2    1    2    0    0  0.00000000000E+00  0.00000000000E+00 -0.24855408703E+03  0.22285619042E+04  0.22146577674E+04 0.  0.
        5    1    3    3  502    0 -0.86661978881E+03 -0.57382389104E+03  0.26002567304E+03  0.10714192256E+04  0.46999998093E+01 0.  1.
       -5    1    3    3    0  502  0.86661978881E+03  0.57382389104E+03 -0.50857976007E+03  0.11571426786E+04  0.46999998093E+01 0. -1.
</event>
<event>
 5   0  0.2229552E-05  0.2176398E+04  0.7818609E-02  0.8528316E-01
        2   -1    0    0  501    0  0.00000000000E+00  0.00000000000E+00  0.31407781480E+04  0.31407781480E+04  0.25500000920E-02 0. -1.
       -2   -1    0    0    0  501  0.00000000000E+00  0.00000000000E+00 -0.37703318637E+03  0.37703318638E+03  0.25500000920E-02 0.  1.
    10030    2    1    2    0    0  0.00000000000E+00  0.00000000000E+00  0.27637449616E+04  0.35178113344E+04  0.21763984864E+04 0.  0.
        1    1    3    3  502    0  0.10077542272E+04  0.30612882605E+03  0.93953057674E+03  0.14113827069E+04  0.50400001928E-02 0.  1.
       -1    1    3    3    0  502 -0.10077542272E+04 -0.30612882605E+03  0.18242143849E+04  0.21064286275E+04  0.50400001928E-02 0. -1.
</event>
<event>
 5   0  0.2229552E-05  0.2193723E+04  0.7818609E-02  0.8521045E-01
       -2   -1    0    0    0  501  0.00000000000E+00  0.00000000000E+00  0.15700725801E+04  0.15700725801E+04  0.25500000920E-02 0.  1.
        2   -1    0    0  501    0  0.00000000000E+00  0.00000000000E+00 -0.76627365551E+03  0.76627365552E+03  0.25500000920E-02 0. -1.
    10030    2    1    2    0    0  0.00000000000E+00  0.00000000000E+00  0.80379892454E+03  0.23363462356E+04  0.21937230959E+04 0.  0.
        1    1    3    3  502    0 -0.70770308262E+01 -0.68592350864E+03  0.13134446765E+04  0.14817820563E+04  0.50400001928E-02 0.  1.
       -1    1    3    3    0  502  0.70770308262E+01  0.68592350864E+03 -0.50964575194E+03  0.85456417931E+03  0.50400001928E-02 0. -1.
</event>
<event>
 5   0  0.1005538E-05  0.2192612E+04  0.7818609E-02  0.8521510E-01
        1   -1    0    0  501    0  0.00000000000E+00  0.00000000000E+00  0.59021307562E+03  0.59021307564E+03  0.50400001928E-02 0.  1.
       -1   -1    0    0    0  501  0.00000000000E+00  0.00000000000E+00 -0.20363601834E+04  0.20363601834E+04  0.50400001928E-02 0. -1.
    10030    2    1    2    0    0  0.00000000000E+00  0.00000000000E+00 -0.14461471078E+04  0.26265732590E+04  0.21926115998E+04 0.  0.
        3    1    3    3  502    0 -0.24153521151E+03  0.49474014649E+03  0.41260218465E+03  0.68800264820E+03  0.10100000352E+00 0.  1.
       -3    1    3    3    0  502  0.24153521151E+03 -0.49474014649E+03 -0.18587492924E+04  0.19385706108E+04  0.10100000352E+00 0. -1.
</event>
<event>
 5   0  0.2289708E-05  0.2194556E+04  0.7818609E-02  0.8520697E-01
       -2   -1    0    0    0  501  0.00000000000E+00  0.00000000000E+00  0.23948428369E+04  0.23948428369E+04  0.25500000920E-02 0. -1.
        2   -1    0    0  501    0  0.00000000000E+00  0.00000000000E+00 -0.50275503502E+03  0.50275503502E+03  0.25500000920E-02 0.  1.
    10030    2    1    2    0    0  0.00000000000E+00  0.00000000000E+00  0.18920878019E+04  0.28975978719E+04  0.21945562598E+04 0.  0.
        5    1    3    3  502    0  0.90457359174E+01  0.10630928208E+04  0.13046102767E+04  0.16829373829E+04  0.46999998093E+01 0. -1.
       -5    1    3    3    0  502 -0.90457359174E+01 -0.10630928208E+04  0.58747752524E+03  0.12146604890E+04  0.46999998093E+01 0.  1.
</event>
<event>
 5   0  0.2284329E-05  0.2235023E+04  0.7818609E-02  0.8503991E-01
        2   -1    0    0  501    0  0.00000000000E+00  0.00000000000E+00  0.72744655768E+03  0.72744655768E+03  0.25500000920E-02 0. -1.
       -2   -1    0    0    0  501  0.00000000000E+00  0.00000000000E+00 -0.17167332006E+04  0.17167332006E+04  0.25500000920E-02 0.  1.
    10030    2    1    2    0    0  0.00000000000E+00  0.00000000000E+00 -0.98928664292E+03  0.24441797583E+04  0.22350227357E+04 0.  0.
        2    1    3    3  502    0 -0.55217503071E+02  0.97419051244E+03  0.10106816327E+03  0.98097446491E+03  0.25500000920E-02 0. -1.
       -2    1    3    3    0  502  0.55217503071E+02 -0.97419051244E+03 -0.10903548062E+04  0.14632052934E+04  0.25500000920E-02 0.  1.
</event>
<event>
 5   0  0.1033733E-05  0.2195258E+04  0.7818609E-02  0.8520404E-01
        1   -1    0    0  501    0  0.00000000000E+00  0.00000000000E+00  0.21910242353E+04  0.21910242353E+04  0.50400001928E-02 0.  1.
       -1   -1    0    0    0  501  0.00000000000E+00  0.00000000000E+00 -0.54987504108E+03  0.54987504111E+03  0.50400001928E-02 0. -1.
    10030    2    1    2    0    0  0.00000000000E+00  0.00000000000E+00  0.16411491942E+04  0.27408992764E+04  0.21952581092E+04 0.  0.
        5    1    3    3  502    0 -0.70701313192E+03  0.82458619937E+03  0.62332874727E+03  0.12523461127E+04  0.46999998093E+01 0. -1.
       -5    1    3    3    0  502  0.70701313192E+03 -0.82458619937E+03  0.10178204470E+04  0.14885531637E+04  0.46999998093E+01 0.  1.
</event>
<event>
 5   0  0.2229552E-05  0.2187139E+04  0.7818609E-02  0.8523800E-01
       -2   -1    0    0    0  501  0.00000000000E+00  0.00000000000E+00  0.11834666735E+04  0.11834666735E+04  0.25500000920E-02 0.  1.
        2   -1    0    0  501    0  0.00000000000E+00  0.00000000000E+00 -0.10105011837E+04  0.10105011837E+04  0.25500000920E-02 0. -1.
    10030    2    1    2    0    0  0.00000000000E+00  0.00000000000E+00  0.17296548975E+03  0.21939678572E+04  0.21871392040E+04 0.  0.
        1    1    3    3  502    0 -0.96691494343E+03  0.48955450203E+03  0.23290545007E+03  0.11085274318E+04  0.50400001928E-02 0.  1.
       -1    1    3    3    0  502  0.96691494343E+03 -0.48955450203E+03 -0.59939960321E+02  0.10854404254E+04  0.50400001928E-02 0. -1.
</event>
<event>
 5   0  0.2298329E-05  0.2200701E+04  0.7818609E-02  0.8518136E-01
       -2   -1    0    0    0  501  0.00000000000E+00  0.00000000000E+00  0.12653617433E+04  0.12653617433E+04  0.25500000920E-02 0.  1.
        2   -1    0    0  501    0  0.00000000000E+00  0.00000000000E+00 -0.95685812900E+03  0.95685812900E+03  0.25500000920E-02 0. -1.
    10030    2    1    2    0    0  0.00000000000E+00  0.00000000000E+00  0.30850361428E+03  0.22222198723E+04  0.22007014065E+04 0.  0.
        4    1    3    3  502    0 -0.50021666872E+03  0.94993672546E+03  0.39780213805E+03  0.11449212427E+04  0.12699999809E+01 0.  1.
       -4    1    3    3    0  502  0.50021666872E+03 -0.94993672546E+03 -0.89298523774E+02  0.10772986296E+04  0.12699999809E+01 0. -1.
</event>
<event>
 5   0  0.2229552E-05  0.2200420E+04  0.7818609E-02  0.8518253E-01
        2   -1    0    0  501    0  0.00000000000E+00  0.00000000000E+00  0.20349250720E+04  0.20349250720E+04  0.25500000920E-02 0.  1.
       -2   -1    0    0    0  501  0.00000000000E+00  0.00000000000E+00 -0.59484346464E+03  0.59484346465E+03  0.25500000920E-02 0. -1.
    10030    2    1    2    0    0  0.00000000000E+00  0.00000000000E+00  0.14400816073E+04  0.26297685366E+04  0.22004198509E+04 0.  0.
        1    1    3    3  502    0  0.58575677925E+03  0.87844213941E+03  0.10897377735E+04  0.15173331908E+04  0.50400001928E-02 0. -1.
       -1    1    3    3    0  502 -0.58575677925E+03 -0.87844213941E+03  0.35034383377E+03  0.11124353458E+04  0.50400001928E-02 0.  1.
</event>
<event>
 5   0  0.2284329E-05  0.2197580E+04  0.7818609E-02  0.8519436E-01
       -2   -1    0    0    0  501  0.00000000000E+00  0.00000000000E+00  0.10543599828E+04  0.10543599828E+04  0.25500000920E-02 0.  1.
        2   -1    0    0  501    0  0.00000000000E+00  0.00000000000E+00 -0.11450927567E+04  0.11450927567E+04  0.25500000920E-02 0. -1.
    10030    2    1    2    0    0  0.00000000000E+00  0.00000000000E+00 -0.90732773970E+02  0.21994527395E+04  0.21975804689E+04 0.  0.
        2    1    3    3  502    0 -0.62707040116E+03  0.12203390642E+03  0.84939214822E+03  0.10628154044E+04  0.25500000920E-02 0.  1.
       -2    1    3    3    0  502  0.62707040116E+03 -0.12203390642E+03 -0.94012492219E+03  0.11366373351E+04  0.25500000920E-02 0. -1.
</event>
<event>
 5   0  0.1007682E-05  0.2195770E+04  0.7818609E-02  0.8520191E-01
        1   -1    0    0  501    0  0.00000000000E+00  0.00000000000E+00  0.15729527469E+04  0.15729527469E+04  0.50400001928E-02 0. -1.
       -1   -1    0    0    0  501  0.00000000000E+00  0.00000000000E+00 -0.76629845327E+03  0.76629845328E+03  0.50400001928E-02 0.  1.
    10030    2    1    2    0    0  0.00000000000E+00  0.00000000000E+00  0.80665429363E+03  0.23392512002E+04  0.21957698031E+04 0.  0.
        2    1    3    3  502    0  0.79326889484E+02  0.90517548320E+03 -0.25314969974E+03  0.94324979791E+03  0.25500000920E-02 0.  1.
       -2    1    3    3    0  502 -0.79326889484E+02 -0.90517548320E+03  0.10598039934E+04  0.13960014023E+04  0.25500000920E-02 0. -1.
</event>
<event>
 5   0  0.1007682E-05  0.2192514E+04  0.7818609E-02  0.8521550E-01
        1   -1    0    0  501    0  0.00000000000E+00  0.00000000000E+00  0.12167697764E+04  0.12167697764E+04  0.50400001928E-02 0.  1.
       -1   -1    0    0    0  501  0.00000000000E+00  0.00000000000E+00 -0.98768050188E+03  0.98768050189E+03  0.50400001928E-02 0. -1.
    10030    2    1    2    0    0  0.00000000000E+00  0.00000000000E+00  0.22908927455E+03  0.22044502783E+04  0.21925143406E+04 0.  0.
        2    1    3    3  502    0 -0.89298466410E+03  0.10546904538E+03 -0.51595326508E+03  0.10367029959E+04  0.25500000920E-02 0. -1.
       -2    1    3    3    0  502  0.89298466410E+03 -0.10546904538E+03  0.74504253963E+03  0.11677472825E+04  0.25500000920E-02 0.  1.
</event>
<event>
 5   0  0.2229552E-05  0.2204271E+04  0.7818609E-02  0.8516652E-01
       -2   -1    0    0    0  501  0.00000000000E+00  0.00000000000E+00  0.68209411751E+03  0.68209411751E+03  0.25500000920E-02 0. -1.
        2   -1    0    0  501    0  0.00000000000E+00  0.00000000000E+00 -0.17808433807E+04  0.17808433807E+04  0.25500000920E-02 0.  1.
    10030    2    1    2    0    0  0.00000000000E+00  0.00000000000E+00 -0.10987492632E+04  0.24629374982E+04  0.22042711214E+04 0.  0.
        1    1    3    3  502    0  0.74609253740E+03 -0.73853995082E+03 -0.92432342716E+03  0.13987384070E+04  0.50400001928E-02 0.  1.
       -1    1    3    3    0  502 -0.74609253740E+03  0.73853995082E+03 -0.17442583602E+03  0.10641990912E+04  0.50400001928E-02 0. -1.
</event>
<event>
 5   0  0.1049198E-05  0.2206546E+04  0.7818609E-02  0.8515708E-01
       -1   -1    0    0    0  501  0.00000000000E+00  0.00000000000E+00  0.67998905263E+03  0.67998905265E+03  0.50400001928E-02 0. -1.
        1   -1    0    0  501    0  0.00000000000E+00  0.00000000000E+00 -0.17900460421E+04  0.17900460422E+04  0.50400001928E-02 0.  1.
    10030    2    1    2    0    0  0.00000000000E+00  0.00000000000E+00 -0.11100569895E+04  0.24700350948E+04  0.22065463624E+04 0.  0.
        1    1    3    3  502    0 -0.20342641428E+03 -0.49889084768E+03 -0.16327715991E+04  0.17193654291E+04  0.50400001928E-02 0.  1.
       -1    1    3    3    0  502  0.20342641428E+03  0.49889084768E+03  0.52271460958E+03  0.75066966571E+03  0.50400001928E-02 0. -1.
</event>
<event>
 5   0  0.1033733E-05  0.2197874E+04  0.7818609E-02  0.8519314E-01
       -1   -1    0    0    0  501  0.00000000000E+00  0.00000000000E+00  0.91205632477E+03  0.91205632479E+03  0.50400001928E-02 0. -1.
        1   -1    0    0  501    0  0.00000000000E+00  0.00000000000E+00 -0.13241095693E+04  0.13241095693E+04  0.50400001928E-02 0.  1.
    10030    2    1    2    0    0  0.00000000000E+00  0.00000000000E+00 -0.41205324452E+03  0.22361658941E+04  0.21978739795E+04 0.  0.
        5    1    3    3  502    0  0.31846014752E+03 -0.57590006206E+03 -0.11014522358E+04  0.12830810048E+04  0.46999998093E+01 0.  1.
       -5    1    3    3    0  502 -0.31846014752E+03  0.57590006206E+03  0.68939899130E+03  0.95308488931E+03  0.46999998093E+01 0. -1.
</event>
<event>
 5   0  0.2229552E-05  0.2234527E+04  0.7818609E-02  0.8504193E-01
        2   -1    0    0  501    0  0.00000000000E+00  0.00000000000E+00  0.15682839803E+04  0.15682839803E+04  0.25500000920E-02 0.  1.
       -2   -1    0    0    0  501  0.00000000000E+00  0.00000000000E+00 -0.79595139100E+03  0.79595139101E+03  0.25500000920E-02 0. -1.
    10030    2    1    2    0    0  0.00000000000E+00  0.00000000000E+00  0.77233258929E+03  0.23642353713E+04  0.22345270780E+04 0.  0.
        1    1    3    3  502    0  0.10364931859E+04 -0.19956290224E+03  0.77366930062E+03  0.13087045744E+04  0.50400001928E-02 0. -1.
       -1    1    3    3    0  502 -0.10364931859E+04  0.19956290224E+03 -0.13367113318E+01  0.10555307969E+04  0.50400001928E-02 0.  1.
</event>
<event>
 5   0  0.1071208E-05  0.2204478E+04  0.7818609E-02  0.8516567E-01
        1   -1    0    0  501    0  0.00000000000E+00  0.00000000000E+00  0.78422937659E+03  0.78422937661E+03  0.50400001928E-02 0. -1.
       -1   -1    0    0    0  501  0.00000000000E+00  0.00000000000E+00 -0.15492029434E+04  0.15492029434E+04  0.50400001928E-02 0.  1.
    10030    2    1    2    0    0  0.00000000000E+00  0.00000000000E+00 -0.76497356679E+03  0.23334323200E+04  0.22044776783E+04 0.  0.
        4    1    3    3  502    0 -0.13744626885E+03  0.81480205603E+03  0.38966096024E+03  0.91358149289E+03  0.12699999809E+01 0. -1.
       -4    1    3    3    0  502  0.13744626885E+03 -0.81480205603E+03 -0.11546345270E+04  0.14198508271E+04  0.12699999809E+01 0.  1.
</event>
<event>
 5   0  0.2284329E-05  0.2191194E+04  0.7818609E-02  0.8522102E-01
       -2   -1    0    0    0  501  0.00000000000E+00  0.00000000000E+00  0.11081504856E+04  0.11081504856E+04  0.25500000920E-02 0.  1.
        2   -1    0    0  501    0  0.00000000000E+00  0.00000000000E+00 -0.10831859817E+04  0.10831859817E+04  0.25500000920E-02 0. -1.
    10030    2    1    2    0    0  0.00000000000E+00  0.00000000000E+00  0.24964503827E+02  0.21913364673E+04  0.21911942603E+04 0.  0.
        2    1    3    3  502    0  0.28065744721E+03 -0.41673401832E+03  0.98614557497E+03  0.11067605612E+04  0.25500000920E-02 0.  1.
       -2    1    3    3    0  502 -0.28065744721E+03  0.41673401832E+03 -0.96118107114E+03  0.10845759062E+04  0.25500000920E-02 0. -1.
</event>
<event>
 5   0  0.1071208E-05  0.2189289E+04  0.7818609E-02  0.8522899E-01
       -1   -1    0    0    0  501  0.00000000000E+00  0.00000000000E+00  0.12927206290E+04  0.12927206290E+04  0.50400001928E-02 0.  1.
        1   -1    0    0  501    0  0.00000000000E+00  0.00000000000E+00 -0.92691846162E+03  0.92691846163E+03  0.50400001928E-02 0. -1.
    10030    2    1    2    0    0  0.00000000000E+00  0.00000000000E+00  0.36580216742E+03  0.22196390907E+04  0.21892890324E+04 0.  0.
        4    1    3    3  502    0 -0.76611200011E+03  0.86238675514E+02  0.97077131890E+03  0.12396625639E+04  0.12699999809E+01 0.  1.
       -4    1    3    3    0  502  0.76611200011E+03 -0.86238675514E+02 -0.60496915148E+03  0.97997652677E+03  0.12699999809E+01 0. -1.
</event>
<event>
 5   0  0.1049198E-05  0.2208009E+04  0.7818609E-02  0.8515102E-01
        1   -1    0    0  501    0  0.00000000000E+00  0.00000000000E+00  0.66134863181E+03  0.66134863183E+03  0.50400001928E-02 0.  1.
       -1   -1    0    0    0  501  0.00000000000E+00  0.00000000000E+00 -0.18429405954E+04  0.18429405954E+04  0.50400001928E-02 0. -1.
    10030    2    1    2    0    0  0.00000000000E+00  0.00000000000E+00 -0.11815919636E+04  0.25042892272E+04  0.22080092765E+04 0.  0.
        1    1    3    3  502    0  0.28899627037E+03 -0.58750636778E+03  0.41738064066E+03  0.77645938445E+03  0.50400001928E-02 0.  1.
       -1    1    3    3    0  502 -0.28899627037E+03  0.58750636778E+03 -0.15989726042E+04  0.17278298428E+04  0.50400001928E-02 0. -1.
</event>
<event>
 5   0  0.2289708E-05  0.2196284E+04  0.7818609E-02  0.8519977E-01
        2   -1    0    0  501    0  0.00000000000E+00  0.00000000000E+00  0.23645395718E+04  0.23645395718E+04  0.25500000920E-02 0.  1.
       -2   -1    0    0    0  501  0.00000000000E+00  0.00000000000E+00 -0.51000007422E+03  0.51000007423E+03  0.25500000920E-02 0. -1.
    10030    2    1    2    0    0  0.00000000000E+00  0.00000000000E+00  0.18545394975E+04  0.28745396460E+04  0.21962835492E+04 0.  0.
        5    1    3    3  502    0 -0.45139631044E+03  0.98796150177E+03  0.71595831505E+03  0.13009400282E+04  0.46999998093E+01 0.  1.
       -5    1    3    3    0  502  0.45139631044E+03 -0.98796150177E+03  0.11385811825E+04  0.15735996178E+04  0.46999998093E+01 0. -1.
</event>
<event>
 5   0  0.1005538E-05  0.2198797E+04  0.7818609E-02  0.8518929E-01
       -1   -1    0    0    0  501  0.00000000000E+00  0.00000000000E+00  0.11040970026E+04  0.11040970026E+04  0.50400001928E-02 0. -1.
        1   -1    0    0  501    0  0.00000000000E+00  0.00000000000E+00 -0.10947197992E+04  0.10947197992E+04  0.50400001928E-02 0.  1.
    10030    2    1    2    0    0  0.00000000000E+00  0.00000000000E+00  0.93772033690E+01  0.21988168018E+04  0.21987968064E+04 0.  0.
        3    1    3    3  502    0  0.58315241510E+03 -0.76503948987E+03  0.53697595969E+03  0.11016784248E+04  0.10100000352E+00 0.  1.
       -3    1    3    3    0  502 -0.58315241510E+03  0.76503948987E+03 -0.52759875632E+03  0.10971383769E+04  0.10100000352E+00 0. -1.
</event>
<event>
 5   0  0.1005538E-05  0.2203041E+04  0.7818609E-02  0.8517164E-01
       -1   -1    0    0    0  501  0.00000000000E+00  0.00000000000E+00  0.12866696268E+04  0.12866696268E+04  0.50400001928E-02 0. -1.
        1   -1    0    0  501    0  0.00000000000E+00  0.00000000000E+00 -0.94301362776E+03  0.94301362778E+03  0.50400001928E-02 0.  1.
    10030    2    1    2    0    0  0.00000000000E+00  0.00000000000E+00  0.34365599899E+03  0.22296832545E+04  0.22030406192E+04 0.  0.
        3    1    3    3  502    0  0.10215690023E+04 -0.38980336811E+03  0.36808912925E+02  0.10940314431E+04  0.10100000352E+00 0.  1.
       -3    1    3    3    0  502 -0.10215690023E+04  0.38980336811E+03  0.30684708607E+03  0.11356518114E+04  0.10100000352E+00 0. -1.
</event>
<event>
 5   0  0.2284329E-05  0.2195881E+04  0.7818609E-02  0.8520144E-01
        2   -1    0    0  501    0  0.00000000000E+00  0.00000000000E+00  0.23452278333E+04  0.23452278333E+04  0.25500000920E-02 0.  1.
       -2   -1    0    0    0  501  0.00000000000E+00  0.00000000000E+00 -0.51401130210E+03  0.51401130210E+03  0.25500000920E-02 0. -1.
    10030    2    1    2    0    0  0.00000000000E+00  0.00000000000E+00  0.18312165312E+04  0.28592391354E+04  0.21958812466E+04 0.  0.
        2    1    3    3  502    0  0.90778068459E+03  0.46081582563E+03  0.38023372425E+03  0.10867357920E+04  0.25500000920E-02 0. -1.
       -2    1    3    3    0  502 -0.90778068459E+03 -0.46081582563E+03  0.14509828070E+04  0.17725033435E+04  0.25500000920E-02 0.  1.
</event>
<event>
 5   0  0.2298329E-05  0.2197032E+04  0.7818609E-02  0.8519664E-01
       -2   -1    0    0    0  501  0.00000000000E+00  0.00000000000E+00  0.10707592327E+04  0.10707592327E+04  0.25500000920E-02 0. -1.
        2   -1    0    0  501    0  0.00000000000E+00  0.00000000000E+00 -0.11269925913E+04  0.11269925913E+04  0.25500000920E-02 0.  1.
    10030    2    1    2    0    0  0.00000000000E+00  0.00000000000E+00 -0.56233358621E+02  0.21977518240E+04  0.21970322913E+04 0.  0.
        4    1    3    3  502    0  0.99534833444E+03  0.78916165624E+02  0.43006175446E+03  0.10871526082E+04  0.12699999809E+01 0. -1.
       -4    1    3    3    0  502 -0.99534833444E+03 -0.78916165624E+02 -0.48629511308E+03  0.11105992157E+04  0.12699999809E+01 0.  1.
</event>
<event>
 5   0  0.1005538E-05  0.2193017E+04  0.7818609E-02  0.8521340E-01
       -1   -1    0    0    0  501  0.00000000000E+00  0.00000000000E+00  0.86646643957E+03  0.86646643958E+03  0.50400001928E-02 0. -1.
        1   -1    0    0  501    0  0.00000000000E+00  0.00000000000E+00 -0.13876250427E+04  0.13876250427E+04  0.50400001928E-02 0.  1.
    10030    2    1    2    0    0  0.00000000000E+00  0.00000000000E+00 -0.52115860315E+03  0.22540914823E+04  0.21930166714E+04 0.  0.
        3    1    3    3  502    0  0.66686022344E+03  0.25773209530E+03  0.59396019096E+03  0.92947141387E+03  0.10100000352E+00 0. -1.
       -3    1    3    3    0  502 -0.66686022344E+03 -0.25773209530E+03 -0.11151187941E+04  0.13246200685E+04  0.10100000352E+00 0.  1.
</event>
<event>
 5   0  0.2284329E-05  0.2254781E+04  0.7818609E-02  0.8495967E-01
       -2   -1    0    0    0  501  0.00000000000E+00  0.00000000000E+00  0.58165007997E+03  0.58165007998E+03  0.25500000920E-02 0. -1.
        2   -1    0    0  501    0  0.00000000000E+00  0.00000000000E+00 -0.21851795606E+04  0.21851795606E+04  0.25500000920E-02 0.  1.
    10030    2    1    2    0    0  0.00000000000E+00  0.00000000000E+00 -0.16035294806E+04  0.27668296405E+04  0.22547814672E+04 0.  0.
        2    1    3    3  502    0  0.70440801559E+03  0.77237837722E+03 -0.13198410997E+04  0.16836684764E+04  0.25500000920E-02 0.  1.
       -2    1    3    3    0  502 -0.70440801559E+03 -0.77237837722E+03 -0.28368838090E+03  0.10831611641E+04  0.25500000920E-02 0. -1.
</event>
<event>
 5   0  0.2298329E-05  0.2192679E+04  0.7818609E-02  0.8521481E-01
        2   -1    0    0  501    0  0.00000000000E+00  0.00000000000E+00  0.20960077240E+04  0.20960077240E+04  0.25500000920E-02 0.  1.
       -2   -1    0    0    0  501  0.00000000000E+00  0.00000000000E+00 -0.57345233738E+03  0.57345233739E+03  0.25500000920E-02 0. -1.
    10030    2    1    2    0    0  0.00000000000E+00  0.00000000000E+00  0.15225553866E+04  0.26694600614E+04  0.21926792091E+04 0.  0.
        4    1    3    3  502    0  0.73889809991E+03  0.70205400099E+03  0.26959277952E+03  0.10542922280E+04  0.12699999809E+01 0.  1.
       -4    1    3    3    0  502 -0.73889809991E+03 -0.70205400099E+03  0.12529626071E+04  0.16151678334E+04  0.12699999809E+01 0. -1.
</event>
<event>
 5   0  0.2319707E-05  0.2207867E+04  0.7818609E-02  0.8515161E-01
       -2   -1    0    0    0  501  0.00000000000E+00  0.00000000000E+00  0.20188852302E+04  0.20188852302E+04  0.25500000920E-02 0.  1.
        2   -1    0    0  501    0  0.00000000000E+00  0.00000000000E+00 -0.60363450882E+03  0.60363450883E+03  0.25500000920E-02 0. -1.
    10030    2    1    2    0    0  0.00000000000E+00  0.00000000000E+00  0.14152507214E+04  0.26225197390E+04  0.22078666575E+04 0.  0.
        3    1    3    3  502    0 -0.21880791140E+03 -0.32817384389E+02 -0.57702793688E+03  0.61799282597E+03  0.10100000352E+00 0. -1.
       -3    1    3    3    0  502  0.21880791140E+03  0.32817384389E+02  0.19922786583E+04  0.20045269131E+04  0.10100000352E+00 0.  1.
</event>
<event>
 5   0  0.1005538E-05  0.2193274E+04  0.7818609E-02  0.8521233E-01
       -1   -1    0    0    0  501  0.00000000000E+00  0.00000000000E+00  0.18301299010E+04  0.18301299010E+04  0.50400001928E-02 0.  1.
        1   -1    0    0  501    0  0.00000000000E+00  0.00000000000E+00 -0.65711850125E+03  0.65711850127E+03  0.50400001928E-02 0. -1.
    10030    2    1    2    0    0  0.00000000000E+00  0.00000000000E+00  0.11730113998E+04  0.24872484023E+04  0.21932735513E+04 0.  0.
        3    1    3    3  502    0  0.47356933933E+03 -0.27091299617E+03 -0.49228888072E+03  0.73485381058E+03  0.10100000352E+00 0. -1.
       -3    1    3    3    0  502 -0.47356933933E+03  0.27091299617E+03  0.16653002805E+04  0.17523945917E+04  0.10100000352E+00 0.  1.
</event>
<event>
 5   0  0.2284329E-05  0.2192807E+04  0.7818609E-02  0.8521428E-01
        2   -1    0    0  501    0  0.00000000000E+00  0.00000000000E+00  0.11266703839E+04  0.11266703839E+04  0.25500000920E-02 0. -1.
       -2   -1    0    0    0  501  0.00000000000E+00  0.00000000000E+00 -0.10669501664E+04  0.10669501664E+04  0.25500000920E-02 0.  1.
    10030    2    1    2    0    0  0.00000000000E+00  0.00000000000E+00  0.59720217502E+02  0.21936205503E+04  0.21928074731E+04 0.  0.
        2    1    3    3  502    0 -0.79623854703E+03  0.34873659591E+02  0.78305970538E+03  0.11173157558E+04  0.25500000920E-02 0. -1.
       -2    1    3    3    0  502  0.79623854703E+03 -0.34873659591E+02 -0.72333948788E+03  0.10763047945E+04  0.25500000920E-02 0.  1.
</event>
<event>
 5   0  0.8003875E-06  0.2202604E+04  0.7818609E-02  0.8517345E-01
        3   -1    0    0  501    0  0.00000000000E+00  0.00000000000E+00  0.12212337997E+04  0.12212338039E+04  0.10100000352E+00 0.  1.
       -3   -1    0    0    0  501  0.00000000000E+00  0.00000000000E+00 -0.99314831317E+03  0.99314831830E+03  0.10100000352E+00 0. -1.
    10030    2    1    2    0    0  0.00000000000E+00  0.00000000000E+00  0.22808548653E+03  0.22143821222E+04  0.22026041846E+04 0.  0.
        4    1    3    3  502    0  0.11932210194E+03  0.65529660989E+03  0.99578060906E+03  0.11980117050E+04  0.12699999809E+01 0.  1.
       -4    1    3    3    0  502 -0.11932210194E+03 -0.65529660989E+03 -0.76769512253E+03  0.10163704172E+04  0.12699999809E+01 0. -1.
</event>
<event>
 5   0  0.1071208E-05  0.2203613E+04  0.7818609E-02  0.8516926E-01
       -1   -1    0    0    0  501  0.00000000000E+00  0.00000000000E+00  0.12614285435E+04  0.12614285435E+04  0.50400001928E-02 0. -1.
        1   -1    0    0  501    0  0.00000000000E+00  0.00000000000E+00 -0.96238348653E+03  0.96238348654E+03  0.50400001928E-02 0.  1.
    10030    2    1    2    0    0  0.00000000000E+00  0.00000000000E+00  0.29904505695E+03  0.22238120300E+04  0.22036133960E+04 0.  0.
        4    1    3    3  502    0 -0.82052169660E+03  0.60647240073E+03  0.56916065198E+03  0.11683364619E+04  0.12699999809E+01 0. -1.
       -4    1    3    3    0  502  0.82052169660E+03 -0.60647240073E+03 -0.27011559502E+03  0.10554755682E+04  0.12699999809E+01 0.  1.
</event>
<event>
 5   0  0.2284329E-05  0.2099811E+04  0.7818609E-02  0.8561327E-01
       -2   -1    0    0    0  501  0.00000000000E+00  0.00000000000E+00  0.69899827635E+03  0.69899827635E+03  0.25500000920E-02 0.  1.
        2   -1    0    0  501    0  0.00000000000E+00  0.00000000000E+00 -0.15769727462E+04  0.15769727462E+04  0.25500000920E-02 0. -1.
    10030    2    1    2    0    0  0.00000000000E+00  0.00000000000E+00 -0.87797446989E+03  0.22759710226E+04  0.20998106881E+04 0.  0.
        2    1    3    3  502    0  0.63860529879E+03  0.81042671915E+03 -0.22855263428E+03  0.10568086399E+04  0.25500000920E-02 0.  1.
       -2    1    3    3    0  502 -0.63860529879E+03 -0.81042671915E+03 -0.64942183562E+03  0.12191623827E+04  0.25500000920E-02 0. -1.
</event>
<event>
 5   0  0.1033733E-05  0.2204418E+04  0.7818609E-02  0.8516592E-01
        1   -1    0    0  501    0  0.00000000000E+00  0.00000000000E+00  0.16031814146E+04  0.16031814147E+04  0.50400001928E-02 0.  1.
       -1   -1    0    0    0  501  0.00000000000E+00  0.00000000000E+00 -0.75778362744E+03  0.75778362746E+03  0.50400001928E-02 0. -1.
    10030    2    1    2    0    0  0.00000000000E+00  0.00000000000E+00  0.84539778720E+03  0.23609650421E+04  0.22044179530E+04 0.  0.
        5    1    3    3  502    0  0.73486498163E+03 -0.17357345985E+03  0.12826435359E+04  0.14884054614E+04  0.46999998093E+01 0.  1.
       -5    1    3    3    0  502 -0.73486498163E+03  0.17357345985E+03 -0.43724574871E+03  0.87255958075E+03  0.46999998093E+01 0. -1.
</event>
<event>
 5   0  0.1033733E-05  0.2255578E+04  0.7818609E-02  0.8495645E-01
        1   -1    0    0  501    0  0.00000000000E+00  0.00000000000E+00  0.76583332997E+03  0.76583332998E+03  0.50400001928E-02 0.  1.
       -1   -1    0    0    0  501  0.00000000000E+00  0.00000000000E+00 -0.16608151985E+04  0.16608151985E+04  0.50400001928E-02 0. -1.
    10030    2    1    2    0    0  0.00000000000E+00  0.00000000000E+00 -0.89498186853E+03  0.24266485285E+04  0.22555776501E+04 0.  0.
        5    1    3    3  502    0  0.99423786868E+03  0.17667755482E+00  0.12521418859E+03  0.10021026164E+04  0.46999998093E+01 0.  1.
       -5    1    3    3    0  502 -0.99423786868E+03 -0.17667755482E+00 -0.10201960571E+04  0.14245459121E+04  0.46999998093E+01 0. -1.
</event>
<event>
 5   0  0.1005538E-05  0.2199229E+04  0.7818609E-02  0.8518749E-01
        1   -1    0    0  501    0  0.00000000000E+00  0.00000000000E+00  0.15540152625E+04  0.15540152625E+04  0.50400001928E-02 0. -1.
       -1   -1    0    0    0  501  0.00000000000E+00  0.00000000000E+00 -0.77808279139E+03  0.77808279140E+03  0.50400001928E-02 0.  1.
    10030    2    1    2    0    0  0.00000000000E+00  0.00000000000E+00  0.77593247114E+03  0.23320980539E+04  0.21992294408E+04 0.  0.
        3    1    3    3  502    0 -0.76146662027E+03  0.30025788492E+02  0.12285889356E+04  0.14457398607E+04  0.10100000352E+00 0. -1.
       -3    1    3    3    0  502  0.76146662027E+03 -0.30025788492E+02 -0.45265646448E+03  0.88635819328E+03  0.10100000352E+00 0.  1.
</event>
<event>
 5   0  0.1007682E-05  0.2169907E+04  0.7818609E-02  0.8531059E-01
       -1   -1    0    0    0  501  0.00000000000E+00  0.00000000000E+00  0.10145083366E+04  0.10145083367E+04  0.50400001928E-02 0.  1.
        1   -1    0    0  501    0  0.00000000000E+00  0.00000000000E+00 -0.11602896873E+04  0.11602896873E+04  0.50400001928E-02 0. -1.
    10030    2    1    2    0    0  0.00000000000E+00  0.00000000000E+00 -0.14578135068E+03  0.21747980240E+04  0.21699065056E+04 0.  0.
        2    1    3    3  502    0  0.33284251608E+03  0.32420571853E+03 -0.10555242126E+04  0.11532670341E+04  0.25500000920E-02 0. -1.
       -2    1    3    3    0  502 -0.33284251608E+03 -0.32420571853E+03  0.90974286196E+03  0.10215309899E+04  0.25500000920E-02 0.  1.
</event>
<event>
 5   0  0.2289708E-05  0.2198160E+04  0.7818609E-02  0.8519194E-01
        2   -1    0    0  501    0  0.00000000000E+00  0.00000000000E+00  0.21283497648E+04  0.21283497648E+04  0.25500000920E-02 0.  1.
       -2   -1    0    0    0  501  0.00000000000E+00  0.00000000000E+00 -0.56756507766E+03  0.56756507767E+03  0.25500000920E-02 0. -1.
    10030    2    1    2    0    0  0.00000000000E+00  0.00000000000E+00  0.15607846871E+04  0.26959148425E+04  0.21981601394E+04 0.  0.
        5    1    3    3  502    0  0.76937048313E+03 -0.74824145667E+03  0.10710323086E+04  0.15162217892E+04  0.46999998093E+01 0. -1.
       -5    1    3    3    0  502 -0.76937048313E+03  0.74824145667E+03  0.48975237851E+03  0.11796930533E+04  0.46999998093E+01 0.  1.
</event>
<event>
 5   0  0.1071208E-05  0.2204622E+04  0.7818609E-02  0.8516507E-01
       -1   -1    0    0    0  501  0.00000000000E+00  0.00000000000E+00  0.55871309038E+03  0.55871309040E+03  0.50400001928E-02 0.  1.
        1   -1    0    0  501    0  0.00000000000E+00  0.00000000000E+00 -0.21748011628E+04  0.21748011628E+04  0.50400001928E-02 0. -1.
    10030    2    1    2    0    0  0.00000000000E+00  0.00000000000E+00 -0.16160880724E+04  0.27335142532E+04  0.22046223066E+04 0.  0.
        4    1    3    3  502    0 -0.14503477838E+03 -0.52124313723E+03 -0.19988392662E+04  0.20707702722E+04  0.12699999809E+01 0. -1.
       -4    1    3    3    0  502  0.14503477838E+03  0.52124313723E+03  0.38275119384E+03  0.66274398099E+03  0.12699999809E+01 0.  1.
</event>
<event>
 5   0  0.1033733E-05  0.2182259E+04  0.7818609E-02  0.8525849E-01
        1   -1    0    0  501    0  0.00000000000E+00  0.00000000000E+00  0.22842174921E+04  0.22842174921E+04  0.50400001928E-02 0. -1.
       -1   -1    0    0    0  501  0.00000000000E+00  0.00000000000E+00 -0.52121300896E+03  0.52121300898E+03  0.50400001928E-02 0.  1.
    10030    2    1    2    0    0  0.00000000000E+00  0.00000000000E+00  0.17630044831E+04  0.28054305011E+04  0.21822592625E+04 0.  0.
        5    1    3    3  502    0  0.81672994490E+03  0.40840619952E+03  0.11370999450E+03  0.92021490944E+03  0.46999998093E+01 0.  1.
       -5    1    3    3    0  502 -0.81672994490E+03 -0.40840619952E+03  0.16492944886E+04  0.18852155916E+04  0.46999998093E+01 0. -1.
</event>
<event>
 5   0  0.2284329E-05  0.2212830E+04  0.7818609E-02  0.8513107E-01
       -2   -1    0    0    0  501  0.00000000000E+00  0.00000000000E+00  0.10744074809E+04  0.10744074809E+04  0.25500000920E-02 0. -1.
        2   -1    0    0  501    0  0.00000000000E+00  0.00000000000E+00 -0.11393763746E+04  0.11393763746E+04  0.25500000920E-02 0.  1.
    10030    2    1    2    0    0  0.00000000000E+00  0.00000000000E+00 -0.64968893743E+02  0.22137838555E+04  0.22128303147E+04 0.  0.
        2    1    3    3  502    0  0.46001983495E+03  0.44704068202E+03 -0.93436660769E+03  0.11333598623E+04  0.25500000920E-02 0.  1.
       -2    1    3    3    0  502 -0.46001983495E+03 -0.44704068202E+03  0.86939771395E+03  0.10804239931E+04  0.25500000920E-02 0. -1.
</event>
<event>
 5   0  0.1007682E-05  0.2210793E+04  0.7818609E-02  0.8513949E-01
        1   -1    0    0  501    0  0.00000000000E+00  0.00000000000E+00  0.89758929391E+03  0.89758929392E+03  0.50400001928E-02 0.  1.
       -1   -1    0    0    0  501  0.00000000000E+00  0.00000000000E+00 -0.13613145925E+04  0.13613145925E+04  0.50400001928E-02 0. -1.
    10030    2    1    2    0    0  0.00000000000E+00  0.00000000000E+00 -0.46372529856E+03  0.22589038864E+04  0.22107929834E+04 0.  0.
        2    1    3    3  502    0  0.23870272079E+02  0.56590407332E+03 -0.12017747125E+04  0.13285630093E+04  0.25500000920E-02 0. -1.
       -2    1    3    3    0  502 -0.23870272079E+02 -0.56590407332E+03  0.73804941396E+03  0.93034087707E+03  0.25500000920E-02 0.  1.
</event>
<event>
 5   0  0.2289708E-05  0.2200906E+04  0.7818609E-02  0.8518051E-01
       -2   -1    0    0    0  501  0.00000000000E+00  0.00000000000E+00  0.11697665453E+04  0.11697665453E+04  0.25500000920E-02 0.  1.
        2   -1    0    0  501    0  0.00000000000E+00  0.00000000000E+00 -0.10352466878E+04  0.10352466878E+04  0.25500000920E-02 0. -1.
    10030    2    1    2    0    0  0.00000000000E+00  0.00000000000E+00  0.13451985745E+03  0.22050132331E+04  0.22009061239E+04 0.  0.
        5    1    3    3  502    0  0.90233388834E+03 -0.62143823979E+03 -0.35805361342E+02  0.10962189771E+04  0.46999998093E+01 0. -1.
       -5    1    3    3    0  502 -0.90233388834E+03  0.62143823979E+03  0.17032521880E+03  0.11087942560E+04  0.46999998093E+01 0.  1.
</event>
<event>
 5   0  0.1049198E-05  0.2163955E+04  0.7818609E-02  0.8533582E-01
        1   -1    0    0  501    0  0.00000000000E+00  0.00000000000E+00  0.16595843826E+04  0.16595843826E+04  0.50400001928E-02 0.  1.
       -1   -1    0    0    0  501  0.00000000000E+00  0.00000000000E+00 -0.70540283288E+03  0.70540283290E+03  0.50400001928E-02 0. -1.
    10030    2    1    2    0    0  0.00000000000E+00  0.00000000000E+00  0.95418154972E+03  0.23649872155E+04  0.21639551982E+04 0.  0.
        1    1    3    3  502    0  0.47320751078E+03 -0.34284771756E+03  0.14722937155E+04  0.15840197885E+04  0.50400001928E-02 0.  1.
       -1    1    3    3    0  502 -0.47320751078E+03  0.34284771756E+03 -0.51811216577E+03  0.78096742700E+03  0.50400001928E-02 0. -1.
</event>
<event>
 5   0  0.2319707E-05  0.2207424E+04  0.7818609E-02  0.8515345E-01
        2   -1    0    0  501    0  0.00000000000E+00  0.00000000000E+00  0.23331946351E+04  0.23331946351E+04  0.25500000920E-02 0. -1.
       -2   -1    0    0    0  501  0.00000000000E+00  0.00000000000E+00 -0.52210817570E+03  0.52210817571E+03  0.25500000920E-02 0.  1.
    10030    2    1    2    0    0  0.00000000000E+00  0.00000000000E+00  0.18110864594E+04  0.28553028108E+04  0.22074238329E+04 0.  0.
        3    1    3    3  502    0 -0.66922322988E+03  0.12343917078E+03 -0.21845026813E+03  0.71471497125E+03  0.10100000352E+00 0.  1.
       -3    1    3    3    0  502  0.66922322988E+03 -0.12343917078E+03  0.20295367276E+04  0.21405878396E+04  0.10100000352E+00 0. -1.
</event>
<event>
 5   0  0.2289708E-05  0.2205181E+04  0.7818609E-02  0.8516275E-01
       -2   -1    0    0    0  501  0.00000000000E+00  0.00000000000E+00  0.11049838232E+04  0.11049838232E+04  0.25500000920E-02 0. -1.
        2   -1    0    0  501    0  0.00000000000E+00  0.00000000000E+00 -0.11002020250E+04  0.11002020250E+04  0.25500000920E-02 0.  1.
    10030    2    1    2    0    0  0.00000000000E+00  0.00000000000E+00  0.47817981167E+01  0.22051858482E+04  0.22051806637E+04 0.  0.
        5    1    3    3  502    0 -0.99966326112E+03 -0.79943093822E+02  0.46061224653E+03  0.11035865465E+04  0.46999998093E+01 0.  1.
       -5    1    3    3    0  502  0.99966326112E+03  0.79943093822E+02 -0.45583044842E+03  0.11015993017E+04  0.46999998093E+01 0. -1.
</event>
<event>
 5   0  0.1049198E-05  0.2200948E+04  0.7818609E-02  0.8518034E-01
        1   -1    0    0  501    0  0.00000000000E+00  0.00000000000E+00  0.18596231287E+04  0.18596231287E+04  0.50400001928E-02 0.  1.
       -1   -1    0    0    0  501  0.00000000000E+00  0.00000000000E+00 -0.65123016176E+03  0.65123016178E+03  0.50400001928E-02 0. -1.
    10030    2    1    2    0    0  0.00000000000E+00  0.00000000000E+00  0.12083929669E+04  0.25108532904E+04  0.22009476785E+04 0.  0.
        1    1    3    3  502    0  0.71814938586E+03  0.75277362283E+03  0.10133562179E+04  0.14523420713E+04  0.50400001928E-02 0.  1.
       -1    1    3    3    0  502 -0.71814938586E+03 -0.75277362283E+03  0.19503674903E+03  0.10585112192E+04  0.50400001928E-02 0. -1.
</event>
<event>
 5   0  0.2284329E-05  0.2208527E+04  0.7818609E-02  0.8514888E-01
        2   -1    0    0  501    0  0.00000000000E+00  0.00000000000E+00  0.13125191424E+04  0.13125191424E+04  0.25500000920E-02 0.  1.
       -2   -1    0    0    0  501  0.00000000000E+00  0.00000000000E+00 -0.92905116250E+03  0.92905116250E+03  0.25500000920E-02 0. -1.
    10030    2    1    2    0    0  0.00000000000E+00  0.00000000000E+00  0.38346797992E+03  0.22415703049E+04  0.22085265994E+04 0.  0.
        2    1    3    3  502    0  0.71571420149E+03 -0.78273161096E+03 -0.12024396460E+03  0.10674147292E+04  0.25500000920E-02 0. -1.
       -2    1    3    3    0  502 -0.71571420149E+03  0.78273161096E+03  0.50371194452E+03  0.11741555758E+04  0.25500000920E-02 0.  1.
</event>
<event>
 5   0  0.2289708E-05  0.2203686E+04  0.7818609E-02  0.8516896E-01
        2   -1    0    0  501    0  0.00000000000E+00  0.00000000000E+00  0.15280961757E+04  0.15280961757E+04  0.25500000920E-02 0.  1.
       -2   -1    0    0    0  501  0.00000000000E+00  0.00000000000E+00 -0.79449036731E+03  0.79449036732E+03  0.25500000920E-02 0. -1.
    10030    2    1    2    0    0  0.00000000000E+00  0.00000000000E+00  0.73360580842E+03  0.23225865431E+04  0.22036857235E+04 0.  0.
        5    1    3    3  502    0 -0.50284583317E+02 -0.94779522974E+03 -0.22302738097E+03  0.97499109713E+03  0.46999998093E+01 0. -1.
       -5    1    3    3    0  502  0.50284583317E+02  0.94779522974E+03  0.95663318939E+03  0.13475954459E+04  0.46999998093E+01 0.  1.
</event>
<event>
 5   0  0.1007682E-05  0.2220187E+04  0.7818609E-02  0.8510073E-01
        1   -1    0    0  501    0  0.00000000000E+00  0.00000000000E+00  0.87003509153E+03  0.87003509155E+03  0.50400001928E-02 0.  1.
       -1   -1    0    0    0  501  0.00000000000E+00  0.00000000000E+00 -0.14163881719E+04  0.14163881719E+04  0.50400001928E-02 0. -1.
    10030    2    1    2    0    0  0.00000000000E+00  0.00000000000E+00 -0.54635308039E+03  0.22864232635E+04  0.22201868505E+04 0.  0.
        2    1    3    3  502    0 -0.74580977775E+03 -0.66816484863E+03  0.22031792947E+03  0.10252884860E+04  0.25500000920E-02 0.  1.
       -2    1    3    3    0  502  0.74580977775E+03  0.66816484863E+03 -0.76667100987E+03  0.12611347775E+04  0.25500000920E-02 0. -1.
</event>
<event>
 5   0  0.2289708E-05  0.2325962E+04  0.7818609E-02  0.8467754E-01
       -2   -1    0    0    0  501  0.00000000000E+00  0.00000000000E+00  0.86948578634E+03  0.86948578635E+03  0.25500000920E-02 0. -1.
        2   -1    0    0  501    0  0.00000000000E+00  0.00000000000E+00 -0.15555461173E+04  0.15555461173E+04  0.25500000920E-02 0.  1.
    10030    2    1    2    0    0  0.00000000000E+00  0.00000000000E+00 -0.68606033098E+03  0.24250319037E+04  0.23259623720E+04 0.  0.
        5    1    3    3  502    0  0.13258587331E+03 -0.59577350610E+03 -0.13751329488E+04  0.15045058329E+04  0.46999998093E+01 0.  1.
       -5    1    3    3    0  502 -0.13258587331E+03  0.59577350610E+03  0.68907261781E+03  0.92052607078E+03  0.46999998093E+01 0. -1.
</event>
<event>
 5   0  0.1071208E-05  0.2198871E+04  0.7818609E-02  0.8518898E-01
        1   -1    0    0  501    0  0.00000000000E+00  0.00000000000E+00  0.75168366522E+03  0.75168366523E+03  0.50400001928E-02 0.  1.
       -1   -1    0    0    0  501  0.00000000000E+00  0.00000000000E+00 -0.16080677886E+04  0.16080677886E+04  0.50400001928E-02 0. -1.
    10030    2    1    2    0    0  0.00000000000E+00  0.00000000000E+00 -0.85638412334E+03  0.23597514538E+04  0.21988708823E+04 0.  0.
        4    1    3    3  502    0  0.16664051992E+02 -0.33763399069E+03  0.69452649303E+03  0.77242673744E+03  0.12699999809E+01 0.  1.
       -4    1    3    3    0  502 -0.16664051992E+02  0.33763399069E+03 -0.15509106164E+04  0.15873247164E+04  0.12699999809E+01 0. -1.
</event>
<event>
 5   0  0.1033733E-05  0.2208201E+04  0.7818609E-02  0.8515022E-01
        1   -1    0    0  501    0  0.00000000000E+00  0.00000000000E+00  0.23301835252E+04  0.23301835253E+04  0.50400001928E-02 0. -1.
       -1   -1    0    0    0  501  0.00000000000E+00  0.00000000000E+00 -0.52315110890E+03  0.52315110892E+03  0.50400001928E-02 0.  1.
    10030    2    1    2    0    0  0.00000000000E+00  0.00000000000E+00  0.18070324163E+04  0.28533346342E+04  0.22082011640E+04 0.  0.
        5    1    3    3  502    0 -0.95890208965E+03 -0.25939071966E+03  0.15262205249E+04  0.18210293638E+04  0.46999998093E+01 0. -1.
       -5    1    3    3    0  502  0.95890208965E+03  0.25939071966E+03  0.28081189143E+03  0.10323052704E+04  0.46999998093E+01 0.  1.
</event>
<event>
 5   0  0.1033733E-05  0.2172727E+04  0.7818609E-02  0.8529866E-01
       -1   -1    0    0    0  501  0.00000000000E+00  0.00000000000E+00  0.89770612658E+03  0.89770612659E+03  0.50400001928E-02 0.  1.
        1   -1    0    0  501    0  0.00000000000E+00  0.00000000000E+00 -0.13146675789E+04  0.13146675789E+04  0.50400001928E-02 0. -1.
    10030    2    1    2    0    0  0.00000000000E+00  0.00000000000E+00 -0.41696145236E+03  0.22123737055E+04  0.21727265268E+04 0.  0.
        5    1    3    3  502    0 -0.92758416351E+03 -0.49202101948E+03  0.75290823362E+02  0.10527050214E+04  0.46999998093E+01 0.  1.
       -5    1    3    3    0  502  0.92758416351E+03  0.49202101948E+03 -0.49225227572E+03  0.11596686841E+04  0.46999998093E+01 0. -1.
</event>
<event>
 5   0  0.8003875E-06  0.2201920E+04  0.7818609E-02  0.8517629E-01
       -3   -1    0    0    0  501  0.00000000000E+00  0.00000000000E+00  0.70033196180E+03  0.70033196908E+03  0.10100000352E+00 0.  1.
        3   -1    0    0  501    0  0.00000000000E+00  0.00000000000E+00 -0.17307689002E+04  0.17307689032E+04  0.10100000352E+00 0. -1.
    10030    2    1    2    0    0  0.00000000000E+00  0.00000000000E+00 -0.10304369384E+04  0.24311008722E+04  0.22019198820E+04 0.  0.
        1    1    3    3  502    0 -0.10409207076E+04 -0.21005160709E+03 -0.83611577176E+03  0.13515647158E+04  0.50400001928E-02 0. -1.
       -1    1    3    3    0  502  0.10409207076E+04  0.21005160709E+03 -0.19432116665E+03  0.10795361564E+04  0.50400001928E-02 0.  1.
</event>
<event>
 5   0  0.2319707E-05  0.2200755E+04  0.7818609E-02  0.8518114E-01
       -2   -1    0    0    0  501  0.00000000000E+00  0.00000000000E+00  0.29054370785E+04  0.29054370785E+04  0.25500000920E-02 0. -1.
        2   -1    0    0  501    0  0.00000000000E+00  0.00000000000E+00 -0.41674645109E+03  0.41674645110E+03  0.25500000920E-02 0.  1.
    10030    2    1    2    0    0  0.00000000000E+00  0.00000000000E+00  0.24886906274E+04  0.33221835296E+04  0.22007549535E+04 0.  0.
        3    1    3    3  502    0 -0.11969421816E+03  0.24860701448E+03 -0.36367732709E+03  0.45650121790E+03  0.10100000352E+00 0.  1.
       -3    1    3    3    0  502  0.11969421816E+03 -0.24860701448E+03  0.28523679545E+04  0.28656823117E+04  0.10100000352E+00 0. -1.
</event>
<event>
 5   0  0.1033733E-05  0.2198182E+04  0.7818609E-02  0.8519185E-01
        1   -1    0    0  501    0  0.00000000000E+00  0.00000000000E+00  0.18687573386E+04  0.18687573386E+04  0.50400001928E-02 0. -1.
       -1   -1    0    0    0  501  0.00000000000E+00  0.00000000000E+00 -0.64641927979E+03  0.64641927981E+03  0.50400001928E-02 0.  1.
    10030    2    1    2    0    0  0.00000000000E+00  0.00000000000E+00  0.12223380588E+04  0.25151766184E+04  0.21981817695E+04 0.  0.
        5    1    3    3  502    0  0.13612242657E+03 -0.41422383875E+03  0.17655538608E+04  0.18186019985E+04  0.46999998093E+01 0. -1.
       -5    1    3    3    0  502 -0.13612242657E+03  0.41422383875E+03 -0.54321580197E+03  0.69657461992E+03  0.46999998093E+01 0.  1.
</event>
<event>
 5   0  0.1033733E-05  0.2202089E+04  0.7818609E-02  0.8517559E-01
        1   -1    0    0  501    0  0.00000000000E+00  0.00000000000E+00  0.14092165853E+04  0.14092165853E+04  0.50400001928E-02 0.  1.
       -1   -1    0    0    0  501  0.00000000000E+00  0.00000000000E+00 -0.86026485811E+03  0.86026485812E+03  0.50400001928E-02 0. -1.
    10030    2    1    2    0    0  0.00000000000E+00  0.00000000000E+00  0.54895172719E+03  0.22694814434E+04  0.22020894676E+04 0.  0.
        5    1    3    3  502    0  0.68415694347E+02  0.10979910051E+04  0.32070922126E+03  0.11459238409E+04  0.46999998093E+01 0.  1.
       -5    1    3    3    0  502 -0.68415694347E+02 -0.10979910051E+04  0.22824250592E+03  0.11235576025E+04  0.46999998093E+01 0. -1.
</event>
<event>
 5   0  0.2319707E-05  0.2200165E+04  0.7818609E-02  0.8518360E-01
        2   -1    0    0  501    0  0.00000000000E+00  0.00000000000E+00  0.17029935530E+04  0.17029935530E+04  0.25500000920E-02 0.  1.
       -2   -1    0    0    0  501  0.00000000000E+00  0.00000000000E+00 -0.71061996114E+03  0.71061996114E+03  0.25500000920E-02 0. -1.
    10030    2    1    2    0    0  0.00000000000E+00  0.00000000000E+00  0.99237359184E+03  0.24136135141E+04  0.22001647324E+04 0.  0.
        3    1    3    3  502    0 -0.17320107669E+03 -0.93896322434E+03 -0.10319975662E+03  0.96036490439E+03  0.10100000352E+00 0. -1.
       -3    1    3    3    0  502  0.17320107669E+03  0.93896322434E+03  0.10955733485E+04  0.14532486097E+04  0.10100000352E+00 0.  1.
</event>
<event>
 5   0  0.2229552E-05  0.2208828E+04  0.7818609E-02  0.8514763E-01
       -2   -1    0    0    0  501  0.00000000000E+00  0.00000000000E+00  0.95593510901E+03  0.95593510901E+03  0.25500000920E-02 0. -1.
        2   -1    0    0  501    0  0.00000000000E+00  0.00000000000E+00 -0.12759545467E+04  0.12759545468E+04  0.25500000920E-02 0.  1.
    10030    2    1    2    0    0  0.00000000000E+00  0.00000000000E+00 -0.32001943774E+03  0.22318896558E+04  0.22088275159E+04 0.  0.
        1    1    3    3  502    0 -0.51298241309E+03  0.49771000722E+03  0.69072123633E+03  0.99396279295E+03  0.50400001928E-02 0. -1.
       -1    1    3    3    0  502  0.51298241309E+03 -0.49771000722E+03 -0.10107406741E+04  0.12379268628E+04  0.50400001928E-02 0.  1.
</event>
<event>
 5   0  0.2298329E-05  0.2233692E+04  0.7818609E-02  0.8504534E-01
       -2   -1    0    0    0  501  0.00000000000E+00  0.00000000000E+00  0.90375158929E+03  0.90375158929E+03  0.25500000920E-02 0. -1.
        2   -1    0    0  501    0  0.00000000000E+00  0.00000000000E+00 -0.13801861492E+04  0.13801861492E+04  0.25500000920E-02 0.  1.
    10030    2    1    2    0    0  0.00000000000E+00  0.00000000000E+00 -0.47643455994E+03  0.22839377385E+04  0.22336923923E+04 0.  0.
        4    1    3    3  502    0  0.36752484263E+03 -0.57805809953E+03  0.66373521574E+03  0.95381954577E+03  0.12699999809E+01 0. -1.
       -4    1    3    3    0  502 -0.36752484263E+03  0.57805809953E+03 -0.11401697757E+04  0.13301181927E+04  0.12699999809E+01 0.  1.
</event>
<event>
 5   0  0.1007682E-05  0.2240253E+04  0.7818609E-02  0.8501858E-01
       -1   -1    0    0    0  501  0.00000000000E+00  0.00000000000E+00  0.93716371244E+03  0.93716371245E+03  0.50400001928E-02 0. -1.
        1   -1    0    0  501    0  0.00000000000E+00  0.00000000000E+00 -0.13388090871E+04  0.13388090872E+04  0.50400001928E-02 0.  1.
    10030    2    1    2    0    0  0.00000000000E+00  0.00000000000E+00 -0.40164537470E+03  0.22759727996E+04  0.22402529271E+04 0.  0.
        2    1    3    3  502    0  0.56545576140E+03 -0.30275410207E+03 -0.11337690899E+04  0.13026252775E+04  0.25500000920E-02 0.  1.
       -2    1    3    3    0  502 -0.56545576140E+03  0.30275410207E+03  0.73212371519E+03  0.97334752209E+03  0.25500000920E-02 0. -1.
</event>
<event>
 5   0  0.2289708E-05  0.2205986E+04  0.7818609E-02  0.8515941E-01
       -2   -1    0    0    0  501  0.00000000000E+00  0.00000000000E+00  0.50571851407E+03  0.50571851408E+03  0.25500000920E-02 0.  1.
        2   -1    0    0  501    0  0.00000000000E+00  0.00000000000E+00 -0.24056743848E+04  0.24056743848E+04  0.25500000920E-02 0. -1.
    10030    2    1    2    0    0  0.00000000000E+00  0.00000000000E+00 -0.18999558708E+04  0.29113928989E+04  0.22059864689E+04 0.  0.
        5    1    3    3  502    0 -0.10986801218E+04 -0.97194681583E+02 -0.95685708710E+03  0.14601857387E+04  0.46999998093E+01 0.  1.
       -5    1    3    3    0  502  0.10986801218E+04  0.97194681583E+02 -0.94309878366E+03  0.14512071603E+04  0.46999998093E+01 0. -1.
</event>
<event>
 5   0  0.1071208E-05  0.2187144E+04  0.7818609E-02  0.8523798E-01
       -1   -1    0    0    0  501  0.00000000000E+00  0.00000000000E+00  0.68283658768E+03  0.68283658770E+03  0.50400001928E-02 0.  1.
        1   -1    0    0  501    0  0.00000000000E+00  0.00000000000E+00 -0.17513695241E+04  0.17513695241E+04  0.50400001928E-02 0. -1.
    10030    2    1    2    0    0  0.00000000000E+00  0.00000000000E+00 -0.10685329364E+04  0.24342061118E+04  0.21871435157E+04 0.  0.
        4    1    3    3  502    0  0.96604406759E+03 -0.24205863307E+03 -0.31503452540E+02  0.99640734782E+03  0.12699999809E+01 0.  1.
       -4    1    3    3    0  502 -0.96604406759E+03  0.24205863307E+03 -0.10370294839E+04  0.14377987640E+04  0.12699999809E+01 0. -1.
</event>
<event>
 5   0  0.2229552E-05  0.2182750E+04  0.7818609E-02  0.8525642E-01
        2   -1    0    0  501    0  0.00000000000E+00  0.00000000000E+00  0.12027407323E+04  0.12027407323E+04  0.25500000920E-02 0.  1.
       -2   -1    0    0    0  501  0.00000000000E+00  0.00000000000E+00 -0.99032129438E+03  0.99032129438E+03  0.25500000920E-02 0. -1.
    10030    2    1    2    0    0  0.00000000000E+00  0.00000000000E+00  0.21241943789E+03  0.21930620267E+04  0.21827503373E+04 0.  0.
        1    1    3    3  502    0 -0.90458660043E+03  0.60945873252E+03  0.68846750970E+02  0.10929120456E+04  0.50400001928E-02 0.  1.
       -1    1    3    3    0  502  0.90458660043E+03 -0.60945873252E+03  0.14357268692E+03  0.11001499810E+04  0.50400001928E-02 0. -1.
</event>
<event>
 5   0  0.2289708E-05  0.2190042E+04  0.7818609E-02  0.8522584E-01
        2   -1    0    0  501    0  0.00000000000E+00  0.00000000000E+00  0.21260505671E+04  0.21260505671E+04  0.25500000920E-02 0.  1.
       -2   -1    0    0    0  501  0.00000000000E+00  0.00000000000E+00 -0.56398990628E+03  0.56398990629E+03  0.25500000920E-02 0. -1.
    10030    2    1    2    0    0  0.00000000000E+00  0.00000000000E+00  0.15620606608E+04  0.26900404734E+04  0.21900420636E+04 0.  0.
        5    1    3    3  502    0 -0.10331744197E+04  0.19969858013E+03  0.40903410227E+03  0.11290083663E+04  0.46999998093E+01 0. -1.
       -5    1    3    3    0  502  0.10331744197E+04 -0.19969858013E+03  0.11530265585E+04  0.15610321070E+04  0.46999998093E+01 0.  1.
</event>
<event>
 5   0  0.2284329E-05  0.2202921E+04  0.7818609E-02  0.8517213E-01
        2   -1    0    0  501    0  0.00000000000E+00  0.00000000000E+00  0.18792253817E+04  0.18792253817E+04  0.25500000920E-02 0. -1.
       -2   -1    0    0    0  501  0.00000000000E+00  0.00000000000E+00 -0.64559323135E+03  0.64559323135E+03  0.25500000920E-02 0.  1.
    10030    2    1    2    0    0  0.00000000000E+00  0.00000000000E+00  0.12336321503E+04  0.25248186130E+04  0.22029209578E+04 0.  0.
        2    1    3    3  502    0 -0.13417590258E+03  0.73024644098E+02 -0.63339327942E+03  0.65155415577E+03  0.25500000920E-02 0.  1.
       -2    1    3    3    0  502  0.13417590258E+03 -0.73024644098E+02  0.18670254297E+04  0.18732644573E+04  0.25500000920E-02 0. -1.
</event>
<event>
 5   0  0.1049198E-05  0.2203714E+04  0.7818609E-02  0.8516884E-01
       -1   -1    0    0    0  501  0.00000000000E+00  0.00000000000E+00  0.12912438366E+04  0.12912438366E+04  0.50400001928E-02 0. -1.
        1   -1    0    0  501    0  0.00000000000E+00  0.00000000000E+00 -0.94024749090E+03  0.94024749091E+03  0.50400001928E-02 0.  1.
    10030    2    1    2    0    0  0.00000000000E+00  0.00000000000E+00  0.35099634573E+03  0.22314913276E+04  0.22037139357E+04 0.  0.
        1    1    3    3  502    0  0.39177298548E+03  0.51752156636E+03 -0.72610352563E+03  0.97393068221E+03  0.50400001928E-02 0.  1.
       -1    1    3    3    0  502 -0.39177298548E+03 -0.51752156636E+03  0.10770998714E+04  0.12575606453E+04  0.50400001928E-02 0. -1.
</event>
<event>
 5   0  0.1071208E-05  0.2200008E+04  0.7818609E-02  0.8518425E-01
       -1   -1    0    0    0  501  0.00000000000E+00  0.00000000000E+00  0.79314286623E+03  0.79314286625E+03  0.50400001928E-02 0.  1.
        1   -1    0    0  501    0  0.00000000000E+00  0.00000000000E+00 -0.15255877797E+04  0.15255877797E+04  0.50400001928E-02 0. -1.
    10030    2    1    2    0    0  0.00000000000E+00  0.00000000000E+00 -0.73244491342E+03  0.23187306459E+04  0.22000082402E+04 0.  0.
        4    1    3    3  502    0  0.75997041879E+03 -0.29010425611E+03  0.41420389125E+03  0.91284280863E+03  0.12699999809E+01 0.  1.
       -4    1    3    3    0  502 -0.75997041879E+03  0.29010425611E+03 -0.11466488047E+04  0.14058878373E+04  0.12699999809E+01 0. -1.
</event>
<event>
 5   0  0.2284329E-05  0.2199809E+04  0.7818609E-02  0.8518507E-01
        2   -1    0    0  501    0  0.00000000000E+00  0.00000000000E+00  0.22358099804E+04  0.22358099804E+04  0.25500000920E-02 0.  1.
       -2   -1    0    0    0  501  0.00000000000E+00  0.00000000000E+00 -0.54109716209E+03  0.54109716209E+03  0.25500000920E-02 0. -1.
    10030    2    1    2    0    0  0.00000000000E+00  0.00000000000E+00  0.16947128183E+04  0.27769071425E+04  0.21998094785E+04 0.  0.
        2    1    3    3  502    0 -0.78548793633E+03 -0.68262636100E+03  0.39781383487E+03  0.11141031793E+04  0.25500000920E-02 0. -1.
       -2    1    3    3    0  502  0.78548793633E+03  0.68262636100E+03  0.12968989834E+04  0.16628039632E+04  0.25500000920E-02 0.  1.
</event>
<event>
 5   0  0.2289708E-05  0.2186873E+04  0.7818609E-02  0.8523912E-01
        2   -1    0    0  501    0  0.00000000000E+00  0.00000000000E+00  0.72662640349E+03  0.72662640350E+03  0.25500000920E-02 0.  1.
       -2   -1    0    0    0  501  0.00000000000E+00  0.00000000000E+00 -0.16454175121E+04  0.16454175121E+04  0.25500000920E-02 0. -1.
    10030    2    1    2    0    0  0.00000000000E+00  0.00000000000E+00 -0.91879110863E+03  0.23720439156E+04  0.21868733928E+04 0.  0.
        5    1    3    3  502    0 -0.19713331213E+03 -0.10319882429E+04 -0.13089798812E+03  0.10587812094E+04  0.46999998093E+01 0.  1.
       -5    1    3    3    0  502  0.19713331213E+03  0.10319882429E+04 -0.78789312051E+03  0.13132627062E+04  0.46999998093E+01 0. -1.
</event>
<event>
 5   0  0.1071208E-05  0.2208767E+04  0.7818609E-02  0.8514788E-01
        1   -1    0    0  501    0  0.00000000000E+00  0.00000000000E+00  0.23750625272E+04  0.23750625272E+04  0.50400001928E-02 0.  1.
       -1   -1    0    0    0  501  0.00000000000E+00  0.00000000000E+00 -0.51352869489E+03  0.51352869492E+03  0.50400001928E-02 0. -1.
    10030    2    1    2    0    0  0.00000000000E+00  0.00000000000E+00  0.18615338323E+04  0.28885912221E+04  0.22087668595E+04 0.  0.
        4    1    3    3  502    0  0.41490199638E+03  0.27878639931E+02  0.22687655632E+04  0.23065601399E+04  0.12699999809E+01 0.  1.
       -4    1    3    3    0  502 -0.41490199638E+03 -0.27878639931E+02 -0.40723173089E+03  0.58203108225E+03  0.12699999809E+01 0. -1.
</event>
<event>
 5   0  0.1007682E-05  0.2200385E+04  0.7818609E-02  0.8518268E-01
        1   -1    0    0  501    0  0.00000000000E+00  0.00000000000E+00  0.15280349380E+04  0.15280349380E+04  0.50400001928E-02 0. -1.
       -1   -1    0    0    0  501  0.00000000000E+00  0.00000000000E+00 -0.79214375975E+03  0.79214375977E+03  0.50400001928E-02 0.  1.
    10030    2    1    2    0    0  0.00000000000E+00  0.00000000000E+00  0.73589117824E+03  0.23201786978E+04  0.22003848217E+04 0.  0.
        2    1    3    3  502    0  0.54177619525E+03  0.94433014173E+03  0.53514195694E+03  0.12131190281E+04  0.25500000920E-02 0.  1.
       -2    1    3    3    0  502 -0.54177619525E+03 -0.94433014173E+03  0.20074922130E+03  0.11070596697E+04  0.25500000920E-02 0. -1.
</event>
<event>
 5   0  0.2298329E-05  0.2205361E+04  0.7818609E-02  0.8516200E-01
        2   -1    0    0  501    0  0.00000000000E+00  0.00000000000E+00  0.91029202025E+03  0.91029202025E+03  0.25500000920E-02 0. -1.
       -2   -1    0    0    0  501  0.00000000000E+00  0.00000000000E+00 -0.13357295670E+04  0.13357295670E+04  0.25500000920E-02 0.  1.
    10030    2    1    2    0    0  0.00000000000E+00  0.00000000000E+00 -0.42543754677E+03  0.22460215873E+04  0.22053607107E+04 0.  0.
        4    1    3    3  502    0  0.41561992300E+03 -0.93460731475E+03 -0.63222544355E+03  0.12024730257E+04  0.12699999809E+01 0.  1.
       -4    1    3    3    0  502 -0.41561992300E+03  0.93460731475E+03  0.20678789679E+03  0.10435485616E+04  0.12699999809E+01 0. -1.
</event>
<event>
 5   0  0.8003875E-06  0.2204450E+04  0.7818609E-02  0.8516578E-01
        3   -1    0    0  501    0  0.00000000000E+00  0.00000000000E+00  0.11878602233E+04  0.11878602276E+04  0.10100000352E+00 0. -1.
       -3   -1    0    0    0  501  0.00000000000E+00  0.00000000000E+00 -0.10227636369E+04  0.10227636419E+04  0.10100000352E+00 0.  1.
    10030    2    1    2    0    0  0.00000000000E+00  0.00000000000E+00  0.16509658633E+03  0.22106238695E+04  0.22044502738E+04 0.  0.
        2    1    3    3  502    0  0.72092403342E+03 -0.79354974173E+03  0.33909202244E+03  0.11244714555E+04  0.25500000920E-02 0. -1.
       -2    1    3    3    0  502 -0.72092403342E+03  0.79354974173E+03 -0.17399543612E+03  0.10861524140E+04  0.25500000920E-02 0.  1.
</event>
<event>
 5   0  0.2298329E-05  0.2188136E+04  0.7818609E-02  0.8523382E-01
       -2   -1    0    0    0  501  0.00000000000E+00  0.00000000000E+00  0.10241959189E+04  0.10241959189E+04  0.25500000920E-02 0.  1.
        2   -1    0    0  501    0  0.00000000000E+00  0.00000000000E+00 -0.11687072220E+04  0.11687072220E+04  0.25500000920E-02 0. -1.
    10030    2    1    2    0    0  0.00000000000E+00  0.00000000000E+00 -0.14451130312E+03  0.21929031409E+04  0.21881363460E+04 0.  0.
        4    1    3    3  502    0  0.18292551229E+03  0.98742633737E+02  0.10042219836E+04  0.10255121920E+04  0.12699999809E+01 0.  1.
       -4    1    3    3    0  502 -0.18292551229E+03 -0.98742633737E+02 -0.11487332867E+04  0.11673909489E+04  0.12699999809E+01 0. -1.
</event>
<event>
 5   0  0.2298329E-05  0.2200830E+04  0.7818609E-02  0.8518083E-01
       -2   -1    0    0    0  501  0.00000000000E+00  0.00000000000E+00  0.69747000448E+03  0.69747000448E+03  0.25500000920E-02 0. -1.
        2   -1    0    0  501    0  0.00000000000E+00  0.00000000000E+00 -0.17361505478E+04  0.17361505478E+04  0.25500000920E-02 0.  1.
    10030    2    1    2    0    0  0.00000000000E+00  0.00000000000E+00 -0.10386805433E+04  0.24336205523E+04  0.22008297802E+04 0.  0.
        4    1    3    3  502    0  0.55642758741E+00  0.64789172316E+03  0.46420666894E+03  0.79702787840E+03  0.12699999809E+01 0. -1.
       -4    1    3    3    0  502 -0.55642758741E+00 -0.64789172316E+03 -0.15028872123E+04  0.16365926739E+04  0.12699999809E+01 0.  1.
</event>
<event>
 5   0  0.2319707E-05  0.2199925E+04  0.7818609E-02  0.8518459E-01
       -2   -1    0    0    0  501  0.00000000000E+00  0.00000000000E+00  0.65343960253E+03  0.65343960254E+03  0.25500000920E-02 0. -1.
        2   -1    0    0  501    0  0.00000000000E+00  0.00000000000E+00 -0.18516132062E+04  0.18516132062E+04  0.25500000920E-02 0.  1.
    10030    2    1    2    0    0  0.00000000000E+00  0.00000000000E+00 -0.11981736036E+04  0.25050528087E+04  0.21999249055E+04 0.  0.
        3    1    3    3  502    0 -0.10641098550E+04  0.27424245554E+03 -0.54355049603E+03  0.12259632375E+04  0.10100000352E+00 0. -1.
       -3    1    3    3    0  502  0.10641098550E+04 -0.27424245554E+03 -0.65462310761E+03  0.12790895712E+04  0.10100000352E+00 0.  1.
</event>
<event>
 5   0  0.1007682E-05  0.2200981E+04  0.7818609E-02  0.8518020E-01
        1   -1    0    0  501    0  0.00000000000E+00  0.00000000000E+00  0.18395551617E+04  0.18395551617E+04  0.50400001928E-02 0. -1.
       -1   -1    0    0    0  501  0.00000000000E+00  0.00000000000E+00 -0.65835432094E+03  0.65835432096E+03  0.50400001928E-02 0.  1.
    10030    2    1    2    0    0  0.00000000000E+00  0.00000000000E+00  0.11812008408E+04  0.24979094827E+04  0.22009807717E+04 0.  0.
        2    1    3    3  502    0  0.62107329546E+02 -0.43045788961E+03  0.17378833970E+04  0.17914770489E+04  0.25500000920E-02 0. -1.
       -2    1    3    3    0  502 -0.62107329546E+02  0.43045788961E+03 -0.55668255622E+03  0.70643243379E+03  0.25500000920E-02 0.  1.
</event>
<event>
 5   0  0.1049198E-05  0.2204765E+04  0.7818609E-02  0.8516448E-01
       -1   -1    0    0    0  501  0.00000000000E+00  0.00000000000E+00  0.99653337653E+03  0.99653337655E+03  0.50400001928E-02 0. -1.
        1   -1    0    0  501    0  0.00000000000E+00  0.00000000000E+00 -0.12194743747E+04  0.12194743747E+04  0.50400001928E-02 0.  1.
    10030    2    1    2    0    0  0.00000000000E+00  0.00000000000E+00 -0.22294099815E+03  0.22160077512E+04  0.22047647641E+04 0.  0.
        1    1    3    3  502    0 -0.82476645860E+03 -0.33656300306E+02 -0.84586359871E+03  0.11818873404E+04  0.50400001928E-02 0.  1.
       -1    1    3    3    0  502  0.82476645860E+03  0.33656300306E+02  0.62292260056E+03  0.10341204108E+04  0.50400001928E-02 0. -1.
</event>
<event>
 5   0  0.1033733E-05  0.2186151E+04  0.7818609E-02  0.8524215E-01
       -1   -1    0    0    0  501  0.00000000000E+00  0.00000000000E+00  0.83151422312E+03  0.83151422313E+03  0.50400001928E-02 0. -1.
        1   -1    0    0  501    0  0.00000000000E+00  0.00000000000E+00 -0.14369134516E+04  0.14369134516E+04  0.50400001928E-02 0.  1.
    10030    2    1    2    0    0  0.00000000000E+00  0.00000000000E+00 -0.60539922851E+03  0.22684276748E+04  0.21861509302E+04 0.  0.
        5    1    3    3  502    0  0.90742158767E+03 -0.39454547430E+03  0.17922794227E+03  0.10055967454E+04  0.46999998093E+01 0. -1.
       -5    1    3    3    0  502 -0.90742158767E+03  0.39454547430E+03 -0.78462717078E+03  0.12628309294E+04  0.46999998093E+01 0.  1.
</event>
<event>
 5   0  0.2229552E-05  0.2208666E+04  0.7818609E-02  0.8514830E-01
        2   -1    0    0  501    0  0.00000000000E+00  0.00000000000E+00  0.16934929184E+04  0.16934929184E+04  0.25500000920E-02 0. -1.
       -2   -1    0    0    0  501  0.00000000000E+00  0.00000000000E+00 -0.72013977318E+03  0.72013977318E+03  0.25500000920E-02 0.  1.
    10030    2    1    2    0    0  0.00000000000E+00  0.00000000000E+00  0.97335314527E+03  0.24136326916E+04  0.22086662094E+04 0.  0.
        1    1    3    3  502    0  0.11657913084E+03 -0.99595506014E+03 -0.18895310882E+02  0.10029328035E+04  0.50400001928E-02 0. -1.
       -1    1    3    3    0  502 -0.11657913084E+03  0.99595506014E+03  0.99224845615E+03  0.14106998881E+04  0.50400001928E-02 0.  1.
</event>
<event>
 5   0  0.2289708E-05  0.2208251E+04  0.7818609E-02  0.8515002E-01
        2   -1    0    0  501    0  0.00000000000E+00  0.00000000000E+00  0.94377870858E+03  0.94377870858E+03  0.25500000920E-02 0.  1.
       -2   -1    0    0    0  501  0.00000000000E+00  0.00000000000E+00 -0.12917145920E+04  0.12917145920E+04  0.25500000920E-02 0. -1.
    10030    2    1    2    0    0  0.00000000000E+00  0.00000000000E+00 -0.34793588341E+03  0.22354933006E+04  0.22082506465E+04 0.  0.
        5    1    3    3  502    0 -0.16712603920E+03 -0.10075577941E+04 -0.59862700449E+03  0.11838412908E+04  0.46999998093E+01 0.  1.
       -5    1    3    3    0  502  0.16712603920E+03  0.10075577941E+04  0.25069112108E+03  0.10516520097E+04  0.46999998093E+01 0. -1.
</event>
<event>
 5   0  0.2298329E-05  0.2204592E+04  0.7818609E-02  0.8516519E-01
        2   -1    0    0  501    0  0.00000000000E+00  0.00000000000E+00  0.87610059911E+03  0.87610059912E+03  0.25500000920E-02 0. -1.
       -2   -1    0    0    0  501  0.00000000000E+00  0.00000000000E+00 -0.13868915312E+04  0.13868915312E+04  0.25500000920E-02 0.  1.
    10030    2    1    2    0    0  0.00000000000E+00  0.00000000000E+00 -0.51079093211E+03  0.22629921303E+04  0.22045920270E+04 0.  0.
        4    1    3    3  502    0 -0.46377593552E+03 -0.11542210362E+03  0.76421706112E+03  0.90135437525E+03  0.12699999809E+01 0. -1.
       -4    1    3    3    0  502  0.46377593552E+03  0.11542210362E+03 -0.12750079932E+04  0.13616377551E+04  0.12699999809E+01 0.  1.
</event>
<event>
 5   0  0.1033733E-05  0.2195834E+04  0.7818609E-02  0.8520164E-01
       -1   -1    0    0    0  501  0.00000000000E+00  0.00000000000E+00  0.81337137313E+03  0.81337137314E+03  0.50400001928E-02 0.  1.
        1   -1    0    0  501    0  0.00000000000E+00  0.00000000000E+00 -0.14820070834E+04  0.14820070834E+04  0.50400001928E-02 0. -1.
    10030    2    1    2    0    0  0.00000000000E+00  0.00000000000E+00 -0.66863571026E+03  0.22953784565E+04  0.21958343621E+04 0.  0.
        5    1    3    3  502    0  0.78277136548E+03 -0.59264631106E+03  0.17932208072E+03  0.99806771277E+03  0.46999998093E+01 0.  1.
       -5    1    3    3    0  502 -0.78277136548E+03  0.59264631106E+03 -0.84795779097E+03  0.12973107438E+04  0.46999998093E+01 0. -1.
</event>
<event>
 5   0  0.1049198E-05  0.2206336E+04  0.7818609E-02  0.8515795E-01
        1   -1    0    0  501    0  0.00000000000E+00  0.00000000000E+00  0.14010568543E+04  0.14010568543E+04  0.50400001928E-02 0.  1.
       -1   -1    0    0    0  501  0.00000000000E+00  0.00000000000E+00 -0.86861558710E+03  0.86861558712E+03  0.50400001928E-02 0. -1.
    10030    2    1    2    0    0  0.00000000000E+00  0.00000000000E+00  0.53244126715E+03  0.22696724414E+04  0.22063361684E+04 0.  0.
        1    1    3    3  502    0 -0.39381087283E+03 -0.59972835944E+03  0.11282611916E+04  0.13370618629E+04  0.50400001928E-02 0.  1.
       -1    1    3    3    0  502  0.39381087283E+03  0.59972835944E+03 -0.59581992447E+03  0.93261057848E+03  0.50400001928E-02 0. -1.
</event>
<event>
 5   0  0.1007682E-05  0.2204406E+04  0.7818609E-02  0.8516596E-01
        1   -1    0    0  501    0  0.00000000000E+00  0.00000000000E+00  0.16317675886E+04  0.16317675886E+04  0.50400001928E-02 0.  1.
       -1   -1    0    0    0  501  0.00000000000E+00  0.00000000000E+00 -0.74450049593E+03  0.74450049595E+03  0.50400001928E-02 0. -1.
    10030    2    1    2    0    0  0.00000000000E+00  0.00000000000E+00  0.88726709263E+03  0.23762680845E+04  0.22044062955E+04 0.  0.
        2    1    3    3  502    0 -0.38783964342E+03  0.92072098738E+03 -0.58175298414E+02  0.10007652527E+04  0.25500000920E-02 0. -1.
       -2    1    3    3    0  502  0.38783964342E+03 -0.92072098738E+03  0.94544239105E+03  0.13755028318E+04  0.25500000920E-02 0.  1.
</event>
<event>
 5   0  0.1007682E-05  0.2185222E+04  0.7818609E-02  0.8524604E-01
       -1   -1    0    0    0  501  0.00000000000E+00  0.00000000000E+00  0.73165754771E+03  0.73165754773E+03  0.50400001928E-02 0. -1.
        1   -1    0    0  501    0  0.00000000000E+00  0.00000000000E+00 -0.16316356986E+04  0.16316356986E+04  0.50400001928E-02 0.  1.
    10030    2    1    2    0    0  0.00000000000E+00  0.00000000000E+00 -0.89997815086E+03  0.23632932463E+04  0.21852217956E+04 0.  0.
        2    1    3    3  502    0 -0.10483470717E+04 -0.25391571384E+03 -0.63822346830E+03  0.12533291539E+04  0.25500000920E-02 0.  1.
       -2    1    3    3    0  502  0.10483470717E+04  0.25391571384E+03 -0.26175468256E+03  0.11099640924E+04  0.25500000920E-02 0. -1.
</event>
<event>
 5   0  0.1033733E-05  0.2241335E+04  0.7818609E-02  0.8501418E-01
       -1   -1    0    0    0  501  0.00000000000E+00  0.00000000000E+00  0.96772728916E+03  0.96772728917E+03  0.50400001928E-02 0.  1.
        1   -1    0    0  501    0  0.00000000000E+00  0.00000000000E+00 -0.12977789477E+04  0.12977789477E+04  0.50400001928E-02 0. -1.
    10030    2    1    2    0    0  0.00000000000E+00  0.00000000000E+00 -0.33005165852E+03  0.22655062369E+04  0.22413354082E+04 0.  0.
        5    1    3    3  502    0 -0.49163322240E+03  0.13400717654E+03  0.84384248625E+03  0.98577552228E+03  0.46999998093E+01 0.  1.
       -5    1    3    3    0  502  0.49163322240E+03 -0.13400717654E+03 -0.11738941448E+04  0.12797307146E+04  0.46999998093E+01 0. -1.
</event>
<event>
 5   0  0.2229552E-05  0.2193964E+04  0.7818609E-02  0.8520945E-01
       -2   -1    0    0    0  501  0.00000000000E+00  0.00000000000E+00  0.11005779615E+04  0.11005779616E+04  0.25500000920E-02 0. -1.
        2   -1    0    0  501    0  0.00000000000E+00  0.00000000000E+00 -0.10933978102E+04  0.10933978102E+04  0.25500000920E-02 0.  1.
    10030    2    1    2    0    0  0.00000000000E+00  0.00000000000E+00  0.71801513392E+01  0.21939757718E+04  0.21939640226E+04 0.  0.
        1    1    3    3  502    0  0.10424820979E+04 -0.11443067320E+03  0.32531563917E+03  0.10980407864E+04  0.50400001928E-02 0. -1.
       -1    1    3    3    0  502 -0.10424820979E+04  0.11443067320E+03 -0.31813548783E+03  0.10959349854E+04  0.50400001928E-02 0.  1.
</event>
<event>
 5   0  0.1007682E-05  0.2193483E+04  0.7818609E-02  0.8521145E-01
       -1   -1    0    0    0  501  0.00000000000E+00  0.00000000000E+00  0.87564912510E+03  0.87564912512E+03  0.50400001928E-02 0. -1.
        1   -1    0    0  501    0  0.00000000000E+00  0.00000000000E+00 -0.13736575744E+04  0.13736575744E+04  0.50400001928E-02 0.  1.
    10030    2    1    2    0    0  0.00000000000E+00  0.00000000000E+00 -0.49800844928E+03  0.22493066995E+04  0.21934831235E+04 0.  0.
        2    1    3    3  502    0  0.52013777823E+03 -0.53361659509E+03 -0.10741899924E+04  0.13073538613E+04  0.25500000920E-02 0.  1.
       -2    1    3    3    0  502 -0.52013777823E+03  0.53361659509E+03  0.57618154307E+03  0.94195283824E+03  0.25500000920E-02 0. -1.
</event>
<event>
 5   0  0.1049198E-05  0.2196428E+04  0.7818609E-02  0.8519916E-01
        1   -1    0    0  501    0  0.00000000000E+00  0.00000000000E+00  0.16636679876E+04  0.16636679876E+04  0.50400001928E-02 0. -1.
       -1   -1    0    0    0  501  0.00000000000E+00  0.00000000000E+00 -0.72494900824E+03  0.72494900825E+03  0.50400001928E-02 0.  1.
    10030    2    1    2    0    0  0.00000000000E+00  0.00000000000E+00  0.93871897935E+03  0.23886169958E+04  0.21964284260E+04 0.  0.
        1    1    3    3  502    0  0.94049024415E+03  0.49118556379E+03  0.77750674145E+03  0.13154094003E+04  0.50400001928E-02 0. -1.
       -1    1    3    3    0  502 -0.94049024415E+03 -0.49118556379E+03  0.16121223790E+03  0.10732075955E+04  0.50400001928E-02 0.  1.
</event>
<event>
 5   0  0.2298329E-05  0.2193904E+04  0.7818609E-02  0.8520970E-01
       -2   -1    0    0    0  501  0.00000000000E+00  0.00000000000E+00  0.10822818264E+04  0.10822818264E+04  0.25500000920E-02 0.  1.
        2   -1    0    0  501    0  0.00000000000E+00  0.00000000000E+00 -0.11118213545E+04  0.11118213545E+04  0.25500000920E-02 0. -1.
    10030    2    1    2    0    0  0.00000000000E+00  0.00000000000E+00 -0.29539528052E+02  0.21941031809E+04  0.21939043244E+04 0.  0.
        4    1    3    3  502    0  0.10671805063E+03  0.28826924077E+01  0.10770733843E+04  0.10823519484E+04  0.12699999809E+01 0.  1.
       -4    1    3    3    0  502 -0.10671805063E+03 -0.28826924077E+01 -0.11066129123E+04  0.11117512325E+04  0.12699999809E+01 0. -1.
</event>
<event>
 5   0  0.1033733E-05  0.2198693E+04  0.7818609E-02  0.8518972E-01
        1   -1    0    0  501    0  0.00000000000E+00  0.00000000000E+00  0.15628980687E+04  0.15628980687E+04  0.50400001928E-02 0.  1.
       -1   -1    0    0    0  501  0.00000000000E+00  0.00000000000E+00 -0.77328343751E+03  0.77328343752E+03  0.50400001928E-02 0. -1.
    10030    2    1    2    0    0  0.00000000000E+00  0.00000000000E+00  0.78961463117E+03  0.23361815062E+04  0.21986934221E+04 0.  0.
        5    1    3    3  502    0  0.57478136411E+03 -0.41712912265E+03 -0.49681494821E+03  0.86672804516E+03  0.46999998093E+01 0. -1.
       -5    1    3    3    0  502 -0.57478136411E+03  0.41712912265E+03  0.12864295794E+04  0.14694534611E+04  0.46999998093E+01 0.  1.
</event>
<event>
 5   0  0.1033733E-05  0.2202629E+04  0.7818609E-02  0.8517335E-01
       -1   -1    0    0    0  501  0.00000000000E+00  0.00000000000E+00  0.87662988578E+03  0.87662988580E+03  0.50400001928E-02 0.  1.
        1   -1    0    0  501    0  0.00000000000E+00  0.00000000000E+00 -0.13835865824E+04  0.13835865824E+04  0.50400001928E-02 0. -1.
    10030    2    1    2    0    0  0.00000000000E+00  0.00000000000E+00 -0.50695669659E+03  0.22602164682E+04  0.22026287456E+04 0.  0.
        5    1    3    3  502    0  0.48619815089E+03  0.30778356192E+03 -0.12170453816E+04  0.13462321174E+04  0.46999998093E+01 0. -1.
       -5    1    3    3    0  502 -0.48619815089E+03 -0.30778356192E+03  0.71008868503E+03  0.91398435081E+03  0.46999998093E+01 0.  1.
</event>
<event>
 5   0  0.1007682E-05  0.2204007E+04  0.7818609E-02  0.8516762E-01
        1   -1    0    0  501    0  0.00000000000E+00  0.00000000000E+00  0.24405812282E+04  0.24405812282E+04  0.50400001928E-02 0.  1.
       -1   -1    0    0    0  501  0.00000000000E+00  0.00000000000E+00 -0.49759118024E+03  0.49759118026E+03  0.50400001928E-02 0. -1.
    10030    2    1    2    0    0  0.00000000000E+00  0.00000000000E+00  0.19429900480E+04  0.29381724085E+04  0.22040069817E+04 0.  0.
        2    1    3    3  502    0  0.11690713238E+03 -0.41730611884E+03 -0.37922377479E+03  0.57586660417E+03  0.25500000920E-02 0. -1.
       -2    1    3    3    0  502 -0.11690713238E+03  0.41730611884E+03  0.23222138228E+04  0.23623058043E+04  0.25500000920E-02 0.  1.
</event>
<event>
 5   0  0.2229552E-05  0.2194285E+04  0.7818609E-02  0.8520811E-01
        2   -1    0    0  501    0  0.00000000000E+00  0.00000000000E+00  0.10618899424E+04  0.10618899424E+04  0.25500000920E-02 0.  1.
       -2   -1    0    0    0  501  0.00000000000E+00  0.00000000000E+00 -0.11335653516E+04  0.11335653516E+04  0.25500000920E-02 0. -1.
    10030    2    1    2    0    0  0.00000000000E+00  0.00000000000E+00 -0.71675409169E+02  0.21954552940E+04  0.21942849823E+04 0.  0.
        1    1    3    3  502    0 -0.28142673018E+03  0.10595241531E+04  0.81084999063E+01  0.10962929276E+04  0.50400001928E-02 0. -1.
       -1    1    3    3    0  502  0.28142673018E+03 -0.10595241531E+04 -0.79783909076E+02  0.10991623663E+04  0.50400001928E-02 0.  1.
</event>
<event>
 5   0  0.1071208E-05  0.2203382E+04  0.7818609E-02  0.8517022E-01
       -1   -1    0    0    0  501  0.00000000000E+00  0.00000000000E+00  0.10984074270E+04  0.10984074270E+04  0.50400001928E-02 0.  1.
        1   -1    0    0  501    0  0.00000000000E+00  0.00000000000E+00 -0.11049841454E+04  0.11049841454E+04  0.50400001928E-02 0. -1.
    10030    2    1    2    0    0  0.00000000000E+00  0.00000000000E+00 -0.65767184032E+01  0.22033915725E+04  0.22033817573E+04 0.  0.
        4    1    3    3  502    0  0.10402559756E+04  0.36192830571E+03 -0.27713577567E+02  0.11017686910E+04  0.12699999809E+01 0. -1.
       -4    1    3    3    0  502 -0.10402559756E+04 -0.36192830571E+03  0.21136859163E+02  0.11016228815E+04  0.12699999809E+01 0.  1.
</event>
<event>
 5   0  0.2229552E-05  0.2214424E+04  0.7818609E-02  0.8512448E-01
       -2   -1    0    0    0  501  0.00000000000E+00  0.00000000000E+00  0.13311977029E+04  0.13311977029E+04  0.25500000920E-02 0.  1.
        2   -1    0    0  501    0  0.00000000000E+00  0.00000000000E+00 -0.92091401023E+03  0.92091401023E+03  0.25500000920E-02 0. -1.
    10030    2    1    2    0    0  0.00000000000E+00  0.00000000000E+00  0.41028369268E+03  0.22521117131E+04  0.22144241825E+04 0.  0.
        1    1    3    3  502    0 -0.13957918568E+03 -0.89050031667E+03 -0.44879863596E+03  0.10069227273E+04  0.50400001928E-02 0. -1.
       -1    1    3    3    0  502  0.13957918568E+03  0.89050031667E+03  0.85908232864E+03  0.12451889858E+04  0.50400001928E-02 0.  1.
</event>
<event>
 5   0  0.2319707E-05  0.2281781E+04  0.7818609E-02  0.8485140E-01
       -2   -1    0    0    0  501  0.00000000000E+00  0.00000000000E+00  0.55235317525E+03  0.55235317526E+03  0.25500000920E-02 0.  1.
        2   -1    0    0  501    0  0.00000000000E+00  0.00000000000E+00 -0.23565191538E+04  0.23565191538E+04  0.25500000920E-02 0. -1.
    10030    2    1    2    0    0  0.00000000000E+00  0.00000000000E+00 -0.18041659786E+04  0.29088723291E+04  0.22817807407E+04 0.  0.
        3    1    3    3  502    0 -0.46153581939E+03  0.77346932522E+03 -0.17947892613E+04  0.20081181769E+04  0.10100000352E+00 0. -1.
       -3    1    3    3    0  502  0.46153581939E+03 -0.77346932522E+03 -0.93767172355E+01  0.90075415217E+03  0.10100000352E+00 0.  1.
</event>
<event>
 5   0  0.2319707E-05  0.2202443E+04  0.7818609E-02  0.8517412E-01
       -2   -1    0    0    0  501  0.00000000000E+00  0.00000000000E+00  0.10327071788E+04  0.10327071788E+04  0.25500000920E-02 0.  1.
        2   -1    0    0  501    0  0.00000000000E+00  0.00000000000E+00 -0.11742816399E+04  0.11742816399E+04  0.25500000920E-02 0. -1.
    10030    2    1    2    0    0  0.00000000000E+00  0.00000000000E+00 -0.14157446109E+03  0.22069888188E+04  0.22024432611E+04 0.  0.
        3    1    3    3  502    0  0.79969972048E+03  0.44600978241E+03  0.54223077877E+03  0.10641703795E+04  0.10100000352E+00 0.  1.
       -3    1    3    3    0  502 -0.79969972048E+03 -0.44600978241E+03 -0.68380523986E+03  0.11428184393E+04  0.10100000352E+00 0. -1.
</event>
<event>
 5   0  0.1049198E-05  0.2201728E+04  0.7818609E-02  0.8517709E-01
       -1   -1    0    0    0  501  0.00000000000E+00  0.00000000000E+00  0.11428956431E+04  0.11428956431E+04  0.50400001928E-02 0. -1.
        1   -1    0    0  501    0  0.00000000000E+00  0.00000000000E+00 -0.10603783462E+04  0.10603783462E+04  0.50400001928E-02 0.  1.
    10030    2    1    2    0    0  0.00000000000E+00  0.00000000000E+00  0.82517296875E+02  0.22032739893E+04  0.22017282230E+04 0.  0.
        1    1    3    3  502    0 -0.86139542859E+03  0.17055965459E+03  0.70565934558E+03  0.11265202138E+04  0.50400001928E-02 0. -1.
       -1    1    3    3    0  502  0.86139542859E+03 -0.17055965459E+03 -0.62314204870E+03  0.10767537755E+04  0.50400001928E-02 0.  1.
</event>
<event>
 5   0  0.1033733E-05  0.2185470E+04  0.7818609E-02  0.8524500E-01
        1   -1    0    0  501    0  0.00000000000E+00  0.00000000000E+00  0.13712353784E+04  0.13712353784E+04  0.50400001928E-02 0. -1.
       -1   -1    0    0    0  501  0.00000000000E+00  0.00000000000E+00 -0.87079836962E+03  0.87079836964E+03  0.50400001928E-02 0.  1.
    10030    2    1    2    0    0  0.00000000000E+00  0.00000000000E+00  0.50043700874E+03  0.22420337480E+04  0.21854697727E+04 0.  0.
        5    1    3    3  502    0  0.66338071622E+03  0.26175395221E+03 -0.59913380593E+03  0.93143572702E+03  0.46999998093E+01 0.  1.
       -5    1    3    3    0  502 -0.66338071622E+03 -0.26175395221E+03  0.10995708147E+04  0.13105980210E+04  0.46999998093E+01 0. -1.
</event>
<event>
 5   0  0.2319707E-05  0.2208085E+04  0.7818609E-02  0.8515070E-01
       -2   -1    0    0    0  501  0.00000000000E+00  0.00000000000E+00  0.14321092713E+04  0.14321092713E+04  0.25500000920E-02 0. -1.
        2   -1    0    0  501    0  0.00000000000E+00  0.00000000000E+00 -0.85112917312E+03  0.85112917312E+03  0.25500000920E-02 0.  1.
    10030    2    1    2    0    0  0.00000000000E+00  0.00000000000E+00  0.58098009816E+03  0.22832384444E+04  0.22080851251E+04 0.  0.
        3    1    3    3  502    0  0.15157470119E+03  0.52781627344E+02 -0.83900109387E+03  0.85421521641E+03  0.10100000352E+00 0.  1.
       -3    1    3    3    0  502 -0.15157470119E+03 -0.52781627344E+02  0.14199811920E+04  0.14290232280E+04  0.10100000352E+00 0. -1.
</event>
<event>
 5   0  0.1033733E-05  0.2208178E+04  0.7818609E-02  0.8515032E-01
       -1   -1    0    0    0  501  0.00000000000E+00  0.00000000000E+00  0.67596159931E+03  0.67596159933E+03  0.50400001928E-02 0.  1.
        1   -1    0    0  501    0  0.00000000000E+00  0.00000000000E+00 -0.18033753625E+04  0.18033753625E+04  0.50400001928E-02 0. -1.
    10030    2    1    2    0    0  0.00000000000E+00  0.00000000000E+00 -0.11274137632E+04  0.24793369618E+04  0.22081779767E+04 0.  0.
        5    1    3    3  502    0 -0.70879745601E+03 -0.31110497528E+03  0.32024955603E+03  0.83771236556E+03  0.46999998093E+01 0.  1.
       -5    1    3    3    0  502  0.70879745601E+03  0.31110497528E+03 -0.14476633192E+04  0.16416245963E+04  0.46999998093E+01 0. -1.
</event>
<event>
 5   0  0.2284329E-05  0.2215982E+04  0.7818609E-02  0.8511805E-01
       -2   -1    0    0    0  501  0.00000000000E+00  0.00000000000E+00  0.55563840761E+03  0.55563840762E+03  0.25500000920E-02 0. -1.
        2   -1    0    0  501    0  0.00000000000E+00  0.00000000000E+00 -0.22094296617E+04  0.22094296617E+04  0.25500000920E-02 0.  1.
    10030    2    1    2    0    0  0.00000000000E+00  0.00000000000E+00 -0.16537912541E+04  0.27650680693E+04  0.22159819304E+04 0.  0.
        2    1    3    3  502    0  0.57837600864E+03 -0.63410100399E+03 -0.17012722323E+04  0.19054999604E+04  0.25500000920E-02 0.  1.
       -2    1    3    3    0  502 -0.57837600864E+03  0.63410100399E+03  0.47480978185E+02  0.85956810895E+03  0.25500000920E-02 0. -1.
</event>
<event>
 5   0  0.1005538E-05  0.2204608E+04  0.7818609E-02  0.8516512E-01
       -1   -1    0    0    0  501  0.00000000000E+00  0.00000000000E+00  0.91424664878E+03  0.91424664879E+03  0.50400001928E-02 0.  1.
        1   -1    0    0  501    0  0.00000000000E+00  0.00000000000E+00 -0.13290446275E+04  0.13290446275E+04  0.50400001928E-02 0. -1.
    10030    2    1    2    0    0  0.00000000000E+00  0.00000000000E+00 -0.41479797875E+03  0.22432912763E+04  0.22046084431E+04 0.  0.
        3    1    3    3  502    0  0.77973872046E+03 -0.77750473945E+03 -0.15582941726E+03  0.11121101157E+04  0.10100000352E+00 0.  1.
       -3    1    3    3    0  502 -0.77973872046E+03  0.77750473945E+03 -0.25896856149E+03  0.11311811606E+04  0.10100000352E+00 0. -1.
</event>
<event>
 5   0  0.1049198E-05  0.2185841E+04  0.7818609E-02  0.8524345E-01
        1   -1    0    0  501    0  0.00000000000E+00  0.00000000000E+00  0.11267784696E+04  0.11267784696E+04  0.50400001928E-02 0.  1.
       -1   -1    0    0    0  501  0.00000000000E+00  0.00000000000E+00 -0.10600800488E+04  0.10600800488E+04  0.50400001928E-02 0. -1.
    10030    2    1    2    0    0  0.00000000000E+00  0.00000000000E+00  0.66698420848E+02  0.21868585184E+04  0.21858411425E+04 0.  0.
        1    1    3    3  502    0  0.10556036695E+04 -0.79161064589E+02 -0.23864088298E+03  0.10851336564E+04  0.50400001928E-02 0. -1.
       -1    1    3    3    0  502 -0.10556036695E+04  0.79161064589E+02  0.30533930382E+03  0.11017248620E+04  0.50400001928E-02 0.  1.
</event>
<event>
 5   0  0.1071208E-05  0.2202138E+04  0.7818609E-02  0.8517539E-01
       -1   -1    0    0    0  501  0.00000000000E+00  0.00000000000E+00  0.11532862163E+04  0.11532862163E+04  0.50400001928E-02 0. -1.
        1   -1    0    0  501    0  0.00000000000E+00  0.00000000000E+00 -0.10512162045E+04  0.10512162046E+04  0.50400001928E-02 0.  1.
    10030    2    1    2    0    0  0.00000000000E+00  0.00000000000E+00  0.10207001178E+03  0.22045024209E+04  0.22021381965E+04 0.  0.
        4    1    3    3  502    0 -0.18948210926E+03 -0.17371939009E+03  0.11228242812E+04  0.11518758073E+04  0.12699999809E+01 0. -1.
       -4    1    3    3    0  502  0.18948210926E+03  0.17371939009E+03 -0.10207542694E+04  0.10526266136E+04  0.12699999809E+01 0.  1.
</event>
<event>
 5   0  0.2298329E-05  0.2207409E+04  0.7818609E-02  0.8515351E-01
        2   -1    0    0  501    0  0.00000000000E+00  0.00000000000E+00  0.77597507588E+03  0.77597507588E+03  0.25500000920E-02 0. -1.
       -2   -1    0    0    0  501  0.00000000000E+00  0.00000000000E+00 -0.15698485374E+04  0.15698485374E+04  0.25500000920E-02 0.  1.
    10030    2    1    2    0    0  0.00000000000E+00  0.00000000000E+00 -0.79387346153E+03  0.23458236133E+04  0.22074087414E+04 0.  0.
        4    1    3    3  502    0  0.68337197668E+03  0.47282463110E+03  0.37497126287E+03  0.91168275796E+03  0.12699999809E+01 0. -1.
       -4    1    3    3    0  502 -0.68337197668E+03 -0.47282463110E+03 -0.11688447244E+04  0.14341408553E+04  0.12699999809E+01 0.  1.
</event>
<event>
 5   0  0.1005538E-05  0.2208561E+04  0.7818609E-02  0.8514873E-01
        1   -1    0    0  501    0  0.00000000000E+00  0.00000000000E+00  0.22189440010E+04  0.22189440010E+04  0.50400001928E-02 0.  1.
       -1   -1    0    0    0  501  0.00000000000E+00  0.00000000000E+00 -0.54955670994E+03  0.54955670996E+03  0.50400001928E-02 0. -1.
    10030    2    1    2    0    0  0.00000000000E+00  0.00000000000E+00  0.16693872910E+04  0.27685007109E+04  0.22085611286E+04 0.  0.
        3    1    3    3  502    0 -0.81778590228E+02  0.78021846181E+03 -0.13952444490E+03  0.79680340542E+03  0.10100000352E+00 0. -1.
       -3    1    3    3    0  502  0.81778590228E+02 -0.78021846181E+03  0.18089117359E+04  0.19716973055E+04  0.10100000352E+00 0.  1.
</event>
<event>
 5   0  0.1033733E-05  0.2207561E+04  0.7818609E-02  0.8515288E-01
        1   -1    0    0  501    0  0.00000000000E+00  0.00000000000E+00  0.19372028956E+04  0.19372028956E+04  0.50400001928E-02 0. -1.
       -1   -1    0    0    0  501  0.00000000000E+00  0.00000000000E+00 -0.62891262713E+03  0.62891262715E+03  0.50400001928E-02 0.  1.
    10030    2    1    2    0    0  0.00000000000E+00  0.00000000000E+00  0.13082902684E+04  0.25661155227E+04  0.22075609730E+04 0.  0.
        5    1    3    3  502    0 -0.11678571313E+03  0.70971644518E+03 -0.31908180470E+03  0.78687459194E+03  0.46999998093E+01 0.  1.
       -5    1    3    3    0  502  0.11678571313E+03 -0.70971644518E+03  0.16273720731E+04  0.17792409308E+04  0.46999998093E+01 0. -1.
</event>
<event>
 5   0  0.1071208E-05  0.2187994E+04  0.7818609E-02  0.8523442E-01
        1   -1    0    0  501    0  0.00000000000E+00  0.00000000000E+00  0.30407405085E+04  0.30407405085E+04  0.50400001928E-02 0.  1.
       -1   -1    0    0    0  501  0.00000000000E+00  0.00000000000E+00 -0.39359793507E+03  0.39359793510E+03  0.50400001928E-02 0. -1.
    10030    2    1    2    0    0  0.00000000000E+00  0.00000000000E+00  0.26471425734E+04  0.34343384436E+04  0.21879937708E+04 0.  0.
        4    1    3    3  502    0  0.68331335948E+03  0.33889996208E+03  0.92580569625E+02  0.76833788551E+03  0.12699999809E+01 0. -1.
       -4    1    3    3    0  502 -0.68331335948E+03 -0.33889996208E+03  0.25545620038E+04  0.26660005580E+04  0.12699999809E+01 0.  1.
</event>
<event>
 5   0  0.2284329E-05  0.2199934E+04  0.7818609E-02  0.8518456E-01
        2   -1    0    0  501    0  0.00000000000E+00  0.00000000000E+00  0.24359459274E+04  0.24359459274E+04  0.25500000920E-02 0.  1.
       -2   -1    0    0    0  501  0.00000000000E+00  0.00000000000E+00 -0.49669718373E+03  0.49669718373E+03  0.25500000920E-02 0. -1.
    10030    2    1    2    0    0  0.00000000000E+00  0.00000000000E+00  0.19392487436E+04  0.29326431111E+04  0.21999340734E+04 0.  0.
        2    1    3    3  502    0  0.57953257887E+03  0.35291177333E+03 -0.18447168878E+03  0.70316038974E+03  0.25500000920E-02 0. -1.
       -2    1    3    3    0  502 -0.57953257887E+03 -0.35291177333E+03  0.21237204324E+04  0.22294827213E+04  0.25500000920E-02 0.  1.
</event>
<event>
 5   0  0.2298329E-05  0.2190953E+04  0.7818609E-02  0.8522203E-01
        2   -1    0    0  501    0  0.00000000000E+00  0.00000000000E+00  0.85996421607E+03  0.85996421608E+03  0.25500000920E-02 0. -1.
       -2   -1    0    0    0  501  0.00000000000E+00  0.00000000000E+00 -0.13954867527E+04  0.13954867527E+04  0.25500000920E-02 0.  1.
    10030    2    1    2    0    0  0.00000000000E+00  0.00000000000E+00 -0.53552253663E+03  0.22554509688E+04  0.21909529172E+04 0.  0.
        4    1    3    3  502    0  0.32043412211E+03 -0.10432119956E+04 -0.16957117329E+03  0.11044117394E+04  0.12699999809E+01 0. -1.
       -4    1    3    3    0  502 -0.32043412211E+03  0.10432119956E+04 -0.36595136333E+03  0.11510392294E+04  0.12699999809E+01 0.  1.
</event>
<event>
 5   0  0.2298329E-05  0.2206017E+04  0.7818609E-02  0.8515928E-01
        2   -1    0    0  501    0  0.00000000000E+00  0.00000000000E+00  0.16887857595E+04  0.16887857595E+04  0.25500000920E-02 0. -1.
       -2   -1    0    0    0  501  0.00000000000E+00  0.00000000000E+00 -0.72041578424E+03  0.72041578425E+03  0.25500000920E-02 0.  1.
    10030    2    1    2    0    0  0.00000000000E+00  0.00000000000E+00  0.96836997526E+03  0.24092015438E+04  0.22060171508E+04 0.  0.
        4    1    3    3  502    0  0.85413658440E+03 -0.67217449105E+03  0.27911794123E+03  0.11221748033E+04  0.12699999809E+01 0. -1.
       -4    1    3    3    0  502 -0.85413658440E+03  0.67217449105E+03  0.68925203403E+03  0.12870267404E+04  0.12699999809E+01 0.  1.
</event>
<event>
 5   0  0.1071208E-05  0.2201252E+04  0.7818609E-02  0.8517907E-01
       -1   -1    0    0    0  501  0.00000000000E+00  0.00000000000E+00  0.16687038214E+04  0.16687038214E+04  0.50400001928E-02 0. -1.
        1   -1    0    0  501    0  0.00000000000E+00  0.00000000000E+00 -0.72593894110E+03  0.72593894112E+03  0.50400001928E-02 0.  1.
    10030    2    1    2    0    0  0.00000000000E+00  0.00000000000E+00  0.94276488031E+03  0.23946427625E+04  0.22012515396E+04 0.  0.
        4    1    3    3  502    0  0.68960479133E+03  0.11442482002E+03  0.13962049685E+04  0.15614217030E+04  0.12699999809E+01 0. -1.
       -4    1    3    3    0  502 -0.68960479133E+03 -0.11442482002E+03 -0.45344008815E+03  0.83322105957E+03  0.12699999809E+01 0.  1.
</event>
<event>
 5   0  0.2284329E-05  0.2198239E+04  0.7818609E-02  0.8519162E-01
       -2   -1    0    0    0  501  0.00000000000E+00  0.00000000000E+00  0.64187037940E+03  0.64187037940E+03  0.25500000920E-02 0. -1.
        2   -1    0    0  501    0  0.00000000000E+00  0.00000000000E+00 -0.18820984820E+04  0.18820984820E+04  0.25500000920E-02 0.  1.
    10030    2    1    2    0    0  0.00000000000E+00  0.00000000000E+00 -0.12402281026E+04  0.25239688614E+04  0.21982386283E+04 0.  0.
        2    1    3    3  502    0  0.38232940788E+03  0.99109163942E+02  0.55757439876E+03  0.68329174784E+03  0.25500000920E-02 0. -1.
       -2    1    3    3    0  502 -0.38232940788E+03 -0.99109163942E+02 -0.17978025014E+04  0.18406771136E+04  0.25500000920E-02 0.  1.
</event>
<event>
 5   0  0.2298329E-05  0.2198669E+04  0.7818609E-02  0.8518982E-01
        2   -1    0    0  501    0  0.00000000000E+00  0.00000000000E+00  0.17443023059E+04  0.17443023059E+04  0.25500000920E-02 0.  1.
       -2   -1    0    0    0  501  0.00000000000E+00  0.00000000000E+00 -0.69284784647E+03  0.69284784647E+03  0.25500000920E-02 0. -1.
    10030    2    1    2    0    0  0.00000000000E+00  0.00000000000E+00  0.10514544594E+04  0.24371501524E+04  0.21986687756E+04 0.  0.
        4    1    3    3  502    0  0.31760751756E+03 -0.57662535857E+03  0.15016580552E+04  0.16396188176E+04  0.12699999809E+01 0.  1.
       -4    1    3    3    0  502 -0.31760751756E+03  0.57662535857E+03 -0.45020359579E+03  0.79753133476E+03  0.12699999809E+01 0. -1.
</event>
<event>
 5   0  0.2289708E-05  0.2199872E+04  0.7818609E-02  0.8518482E-01
       -2   -1    0    0    0  501  0.00000000000E+00  0.00000000000E+00  0.51350222617E+03  0.51350222618E+03  0.25500000920E-02 0. -1.
        2   -1    0    0  501    0  0.00000000000E+00  0.00000000000E+00 -0.23560924120E+04  0.23560924120E+04  0.25500000920E-02 0.  1.
    10030    2    1    2    0    0  0.00000000000E+00  0.00000000000E+00 -0.18425901858E+04  0.28695946382E+04  0.21998715405E+04 0.  0.
        5    1    3    3  502    0 -0.44227853000E+03  0.12194837972E+03 -0.22253116470E+04  0.22721170132E+04  0.46999998093E+01 0.  1.
       -5    1    3    3    0  502  0.44227853000E+03 -0.12194837972E+03  0.38272146122E+03  0.59747762493E+03  0.46999998093E+01 0. -1.
</event>
<event>
 5   0  0.8003875E-06  0.2160340E+04  0.7818609E-02  0.8535119E-01
        4   -1    0    0  501    0  0.00000000000E+00  0.00000000000E+00  0.92450702558E+03  0.92450789789E+03  0.12699999809E+01 0.  1.
       -4   -1    0    0    0  501  0.00000000000E+00  0.00000000000E+00 -0.12620404053E+04  0.12620410443E+04  0.12699999809E+01 0. -1.
    10030    2    1    2    0    0  0.00000000000E+00  0.00000000000E+00 -0.33753337973E+03  0.21865489422E+04  0.21603396710E+04 0.  0.
        5    1    3    3  502    0  0.16827640431E+02  0.57765813749E+03  0.75486834762E+03  0.95069469627E+03  0.46999998093E+01 0.  1.
       -5    1    3    3    0  502 -0.16827640431E+02 -0.57765813749E+03 -0.10924017273E+04  0.12358542459E+04  0.46999998093E+01 0. -1.
</event>
<event>
 5   0  0.2289708E-05  0.2099161E+04  0.7818609E-02  0.8561613E-01
       -2   -1    0    0    0  501  0.00000000000E+00  0.00000000000E+00  0.67038600260E+03  0.67038600260E+03  0.25500000920E-02 0. -1.
        2   -1    0    0  501    0  0.00000000000E+00  0.00000000000E+00 -0.16432608018E+04  0.16432608018E+04  0.25500000920E-02 0.  1.
    10030    2    1    2    0    0  0.00000000000E+00  0.00000000000E+00 -0.97287479918E+03  0.23136468044E+04  0.20991608229E+04 0.  0.
        5    1    3    3  502    0 -0.68281287521E+03  0.45113146626E+03 -0.12107311827E+04  0.14613846548E+04  0.46999998093E+01 0.  1.
       -5    1    3    3    0  502  0.68281287521E+03 -0.45113146626E+03  0.23785638356E+03  0.85226214958E+03  0.46999998093E+01 0. -1.
</event>
<event>
 5   0  0.1033733E-05  0.2207666E+04  0.7818609E-02  0.8515244E-01
       -1   -1    0    0    0  501  0.00000000000E+00  0.00000000000E+00  0.33099713322E+04  0.33099713322E+04  0.50400001928E-02 0. -1.
        1   -1    0    0  501    0  0.00000000000E+00  0.00000000000E+00 -0.36811413183E+03  0.36811413186E+03  0.50400001928E-02 0.  1.
    10030    2    1    2    0    0  0.00000000000E+00  0.00000000000E+00  0.29418572004E+04  0.36780854641E+04  0.22076659380E+04 0.  0.
        5    1    3    3  502    0  0.97080992222E+03 -0.46423736768E+03  0.10613478562E+04  0.15114461951E+04  0.46999998093E+01 0. -1.
       -5    1    3    3    0  502 -0.97080992222E+03  0.46423736768E+03  0.18805093442E+04  0.21666392690E+04  0.46999998093E+01 0.  1.
</event>
<event>
 5   0  0.1007682E-05  0.2196910E+04  0.7818609E-02  0.8519715E-01
        1   -1    0    0  501    0  0.00000000000E+00  0.00000000000E+00  0.14384843470E+04  0.14384843470E+04  0.50400001928E-02 0.  1.
       -1   -1    0    0    0  501  0.00000000000E+00  0.00000000000E+00 -0.83880161102E+03  0.83880161103E+03  0.50400001928E-02 0. -1.
    10030    2    1    2    0    0  0.00000000000E+00  0.00000000000E+00  0.59968273594E+03  0.22772859580E+04  0.21969096364E+04 0.  0.
        2    1    3    3  502    0  0.20237238547E+03 -0.75587239580E+03  0.10989580295E+04  0.13490761327E+04  0.25500000920E-02 0.  1.
       -2    1    3    3    0  502 -0.20237238547E+03  0.75587239580E+03 -0.49927529354E+03  0.92820982535E+03  0.25500000920E-02 0. -1.
</event>
<event>
 5   0  0.2229552E-05  0.2180164E+04  0.7818609E-02  0.8526730E-01
        2   -1    0    0  501    0  0.00000000000E+00  0.00000000000E+00  0.64467382860E+03  0.64467382861E+03  0.25500000920E-02 0.  1.
       -2   -1    0    0    0  501  0.00000000000E+00  0.00000000000E+00 -0.18432242119E+04  0.18432242119E+04  0.25500000920E-02 0. -1.
    10030    2    1    2    0    0  0.00000000000E+00  0.00000000000E+00 -0.11985503833E+04  0.24878980405E+04  0.21801636724E+04 0.  0.
        1    1    3    3  502    0  0.60940141512E+02  0.30216923367E+03  0.59390189079E+03  0.66913332194E+03  0.50400001928E-02 0.  1.
       -1    1    3    3    0  502 -0.60940141512E+02 -0.30216923367E+03 -0.17924522741E+04  0.18187647185E+04  0.50400001928E-02 0. -1.
</event>
<event>
 5   0  0.1071208E-05  0.2197875E+04  0.7818609E-02  0.8519313E-01
       -1   -1    0    0    0  501  0.00000000000E+00  0.00000000000E+00  0.88093404427E+03  0.88093404428E+03  0.50400001928E-02 0. -1.
        1   -1    0    0  501    0  0.00000000000E+00  0.00000000000E+00 -0.13708905428E+04  0.13708905428E+04  0.50400001928E-02 0.  1.
    10030    2    1    2    0    0  0.00000000000E+00  0.00000000000E+00 -0.48995649849E+03  0.22518245871E+04  0.21978754743E+04 0.  0.
        4    1    3    3  502    0 -0.16942278066E+03 -0.95138094027E+03 -0.78111327402E+03  0.12425656248E+04  0.12699999809E+01 0.  1.
       -4    1    3    3    0  502  0.16942278066E+03  0.95138094027E+03  0.29115677553E+03  0.10092589623E+04  0.12699999809E+01 0. -1.
</event>
<event>
 5   0  0.2319707E-05  0.2209014E+04  0.7818609E-02  0.8514686E-01
        2   -1    0    0  501    0  0.00000000000E+00  0.00000000000E+00  0.77190895317E+03  0.77190895318E+03  0.25500000920E-02 0. -1.
       -2   -1    0    0    0  501  0.00000000000E+00  0.00000000000E+00 -0.15804139209E+04  0.15804139209E+04  0.25500000920E-02 0.  1.
    10030    2    1    2    0    0  0.00000000000E+00  0.00000000000E+00 -0.80850496770E+03  0.23523228741E+04  0.22090139477E+04 0.  0.
        3    1    3    3  502    0 -0.49617594708E+03  0.24490230576E+03 -0.14221790077E+04  0.15260278012E+04  0.10100000352E+00 0.  1.
       -3    1    3    3    0  502  0.49617594708E+03 -0.24490230576E+03  0.61367404002E+03  0.82629507285E+03  0.10100000352E+00 0. -1.
</event>
<event>
 5   0  0.1033733E-05  0.2199545E+04  0.7818609E-02  0.8518618E-01
        1   -1    0    0  501    0  0.00000000000E+00  0.00000000000E+00  0.17856627216E+04  0.17856627216E+04  0.50400001928E-02 0. -1.
       -1   -1    0    0    0  501  0.00000000000E+00  0.00000000000E+00 -0.67733931784E+03  0.67733931786E+03  0.50400001928E-02 0.  1.
    10030    2    1    2    0    0  0.00000000000E+00  0.00000000000E+00  0.11083234038E+04  0.24630020395E+04  0.21995450164E+04 0.  0.
        5    1    3    3  502    0  0.75666451080E+03 -0.67096631958E+03  0.10380567419E+04  0.14492483822E+04  0.46999998093E+01 0. -1.
       -5    1    3    3    0  502 -0.75666451080E+03  0.67096631958E+03  0.70266661886E+02  0.10137536573E+04  0.46999998093E+01 0.  1.
</event>
<event>
 5   0  0.1005538E-05  0.2189237E+04  0.7818609E-02  0.8522921E-01
       -1   -1    0    0    0  501  0.00000000000E+00  0.00000000000E+00  0.16424525613E+04  0.16424525613E+04  0.50400001928E-02 0. -1.
        1   -1    0    0  501    0  0.00000000000E+00  0.00000000000E+00 -0.72951247233E+03  0.72951247235E+03  0.50400001928E-02 0.  1.
    10030    2    1    2    0    0  0.00000000000E+00  0.00000000000E+00  0.91294008893E+03  0.23719650336E+04  0.21892369709E+04 0.  0.
        3    1    3    3  502    0  0.18068379143E+03  0.71984068727E+03 -0.41528122609E+03  0.85045620374E+03  0.10100000352E+00 0.  1.
       -3    1    3    3    0  502 -0.18068379143E+03 -0.71984068727E+03  0.13282213150E+04  0.15215088299E+04  0.10100000352E+00 0. -1.
</event>
<event>
 5   0  0.8003875E-06  0.2195661E+04  0.7818609E-02  0.8520236E-01
        3   -1    0    0  501    0  0.00000000000E+00  0.00000000000E+00  0.15473217184E+04  0.15473217217E+04  0.10100000352E+00 0.  1.
       -3   -1    0    0    0  501  0.00000000000E+00  0.00000000000E+00 -0.77891514786E+03  0.77891515441E+03  0.10100000352E+00 0. -1.
    10030    2    1    2    0    0  0.00000000000E+00  0.00000000000E+00  0.76840657056E+03  0.23262368761E+04  0.21956614826E+04 0.  0.
        1    1    3    3  502    0 -0.21671961323E+03  0.12426972030E+03  0.15168066446E+04  0.15372419300E+04  0.50400001928E-02 0.  1.
       -1    1    3    3    0  502  0.21671961323E+03 -0.12426972030E+03 -0.74840007406E+03  0.78899494613E+03  0.50400001928E-02 0. -1.
</event>
<event>
 5   0  0.2284329E-05  0.2199061E+04  0.7818609E-02  0.8518819E-01
        2   -1    0    0  501    0  0.00000000000E+00  0.00000000000E+00  0.11402544430E+04  0.11402544430E+04  0.25500000920E-02 0. -1.
       -2   -1    0    0    0  501  0.00000000000E+00  0.00000000000E+00 -0.10602609199E+04  0.10602609199E+04  0.25500000920E-02 0.  1.
    10030    2    1    2    0    0  0.00000000000E+00  0.00000000000E+00  0.79993523131E+02  0.22005153629E+04  0.21990609129E+04 0.  0.
        2    1    3    3  502    0 -0.39342586193E+02 -0.80561381020E+03  0.78775653132E+03  0.11274403767E+04  0.25500000920E-02 0. -1.
       -2    1    3    3    0  502  0.39342586193E+02  0.80561381020E+03 -0.70776300819E+03  0.10730749862E+04  0.25500000920E-02 0.  1.
</event>
<event>
 5   0  0.2289708E-05  0.2205793E+04  0.7818609E-02  0.8516021E-01
       -2   -1    0    0    0  501  0.00000000000E+00  0.00000000000E+00  0.10657226926E+04  0.10657226926E+04  0.25500000920E-02 0. -1.
        2   -1    0    0  501    0  0.00000000000E+00  0.00000000000E+00 -0.11413664678E+04  0.11413664678E+04  0.25500000920E-02 0.  1.
    10030    2    1    2    0    0  0.00000000000E+00  0.00000000000E+00 -0.75643775167E+02  0.22070891604E+04  0.22057925063E+04 0.  0.
        5    1    3    3  502    0 -0.60160552498E+03  0.88794267813E+03 -0.29485155507E+03  0.11123537822E+04  0.46999998093E+01 0. -1.
       -5    1    3    3    0  502  0.60160552498E+03 -0.88794267813E+03  0.21920777990E+03  0.10947353781E+04  0.46999998093E+01 0.  1.
</event>
<event>
 5   0  0.1071208E-05  0.2201096E+04  0.7818609E-02  0.8517972E-01
       -1   -1    0    0    0  501  0.00000000000E+00  0.00000000000E+00  0.86470701752E+03  0.86470701754E+03  0.50400001928E-02 0. -1.
        1   -1    0    0  501    0  0.00000000000E+00  0.00000000000E+00 -0.14007121314E+04  0.14007121314E+04  0.50400001928E-02 0.  1.
    10030    2    1    2    0    0  0.00000000000E+00  0.00000000000E+00 -0.53600511383E+03  0.22654191489E+04  0.22010957358E+04 0.  0.
        4    1    3    3  502    0  0.15309084716E+02 -0.66136846428E+03  0.63722345558E+03  0.91853032550E+03  0.12699999809E+01 0. -1.
       -4    1    3    3    0  502 -0.15309084716E+02  0.66136846428E+03 -0.11732285694E+04  0.13468888234E+04  0.12699999809E+01 0.  1.
</event>
<event>
 5   0  0.2298329E-05  0.2198483E+04  0.7818609E-02  0.8519060E-01
        2   -1    0    0  501    0  0.00000000000E+00  0.00000000000E+00  0.12422352610E+04  0.12422352610E+04  0.25500000920E-02 0.  1.
       -2   -1    0    0    0  501  0.00000000000E+00  0.00000000000E+00 -0.97270799610E+03  0.97270799610E+03  0.25500000920E-02 0. -1.
    10030    2    1    2    0    0  0.00000000000E+00  0.00000000000E+00  0.26952726486E+03  0.22149432571E+04  0.21984832693E+04 0.  0.
        4    1    3    3  502    0 -0.76896798829E+03 -0.12419798920E+02  0.92605120100E+03  0.12037601332E+04  0.12699999809E+01 0.  1.
       -4    1    3    3    0  502  0.76896798829E+03  0.12419798920E+02 -0.65652393614E+03  0.10111831239E+04  0.12699999809E+01 0. -1.
</event>
<event>
 5   0  0.1033733E-05  0.2186735E+04  0.7818609E-02  0.8523970E-01
        1   -1    0    0  501    0  0.00000000000E+00  0.00000000000E+00  0.15440555348E+04  0.15440555348E+04  0.50400001928E-02 0.  1.
       -1   -1    0    0    0  501  0.00000000000E+00  0.00000000000E+00 -0.77422871107E+03  0.77422871109E+03  0.50400001928E-02 0. -1.
    10030    2    1    2    0    0  0.00000000000E+00  0.00000000000E+00  0.76982682373E+03  0.23182842459E+04  0.21867346675E+04 0.  0.
        5    1    3    3  502    0 -0.94224478870E+03 -0.52636238196E+03  0.57020597411E+03  0.12206717585E+04  0.46999998093E+01 0.  1.
       -5    1    3    3    0  502  0.94224478870E+03  0.52636238196E+03  0.19962084962E+03  0.10976124874E+04  0.46999998093E+01 0. -1.
</event>
<event>
 5   0  0.2284329E-05  0.2166914E+04  0.7818609E-02  0.8532327E-01
       -2   -1    0    0    0  501  0.00000000000E+00  0.00000000000E+00  0.84930858426E+03  0.84930858427E+03  0.25500000920E-02 0. -1.
        2   -1    0    0  501    0  0.00000000000E+00  0.00000000000E+00 -0.13821582979E+04  0.13821582979E+04  0.25500000920E-02 0.  1.
    10030    2    1    2    0    0  0.00000000000E+00  0.00000000000E+00 -0.53284971365E+03  0.22314668822E+04  0.21669138490E+04 0.  0.
        2    1    3    3  502    0 -0.85924089089E+03  0.27130074403E+03 -0.88599578497E+03  0.12636801547E+04  0.25500000920E-02 0.  1.
       -2    1    3    3    0  502  0.85924089089E+03 -0.27130074403E+03  0.35314607132E+03  0.96778672753E+03  0.25500000920E-02 0. -1.
</event>
<event>
 5   0  0.2319707E-05  0.2191986E+04  0.7818609E-02  0.8521771E-01
       -2   -1    0    0    0  501  0.00000000000E+00  0.00000000000E+00  0.97668789291E+03  0.97668789292E+03  0.25500000920E-02 0. -1.
        2   -1    0    0  501    0  0.00000000000E+00  0.00000000000E+00 -0.12298714367E+04  0.12298714367E+04  0.25500000920E-02 0.  1.
    10030    2    1    2    0    0  0.00000000000E+00  0.00000000000E+00 -0.25318354379E+03  0.22065593296E+04  0.21919858960E+04 0.  0.
        3    1    3    3  502    0 -0.47344233057E+03 -0.82803839549E+03  0.41681692185E+03  0.10409282306E+04  0.10100000352E+00 0. -1.
       -3    1    3    3    0  502  0.47344233057E+03  0.82803839549E+03 -0.67000046564E+03  0.11656310990E+04  0.10100000352E+00 0.  1.
</event>
<event>
 5   0  0.1007682E-05  0.2200458E+04  0.7818609E-02  0.8518237E-01
        1   -1    0    0  501    0  0.00000000000E+00  0.00000000000E+00  0.91027552534E+03  0.91027552536E+03  0.50400001928E-02 0.  1.
       -1   -1    0    0    0  501  0.00000000000E+00  0.00000000000E+00 -0.13298214498E+04  0.13298214499E+04  0.50400001928E-02 0. -1.
    10030    2    1    2    0    0  0.00000000000E+00  0.00000000000E+00 -0.41954592450E+03  0.22400969752E+04  0.22004580604E+04 0.  0.
        2    1    3    3  502    0 -0.38152607530E+03 -0.46263117706E+03  0.72929408539E+03  0.94417139075E+03  0.25500000920E-02 0.  1.
       -2    1    3    3    0  502  0.38152607530E+03  0.46263117706E+03 -0.11488400099E+04  0.12959255845E+04  0.25500000920E-02 0. -1.
</event>
<event>
 5   0  0.1033733E-05  0.2210393E+04  0.7818609E-02  0.8514115E-01
       -1   -1    0    0    0  501  0.00000000000E+00  0.00000000000E+00  0.85929326439E+03  0.85929326440E+03  0.50400001928E-02 0.  1.
        1   -1    0    0  501    0  0.00000000000E+00  0.00000000000E+00 -0.14214696690E+04  0.14214696690E+04  0.50400001928E-02 0. -1.
    10030    2    1    2    0    0  0.00000000000E+00  0.00000000000E+00 -0.56217640458E+03  0.22807629334E+04  0.22103930077E+04 0.  0.
        5    1    3    3  502    0  0.33271007795E+03 -0.10310605089E+04 -0.55837087043E+02  0.10848601934E+04  0.46999998093E+01 0.  1.
       -5    1    3    3    0  502 -0.33271007795E+03  0.10310605089E+04 -0.50633931753E+03  0.11959027400E+04  0.46999998093E+01 0. -1.
</event>
<event>
 5   0  0.2319707E-05  0.2205370E+04  0.7818609E-02  0.8516196E-01
       -2   -1    0    0    0  501  0.00000000000E+00  0.00000000000E+00  0.54880944346E+03  0.54880944347E+03  0.25500000920E-02 0. -1.
        2   -1    0    0  501    0  0.00000000000E+00  0.00000000000E+00 -0.22155496980E+04  0.22155496980E+04  0.25500000920E-02 0.  1.
    10030    2    1    2    0    0  0.00000000000E+00  0.00000000000E+00 -0.16667402546E+04  0.27643591415E+04  0.22053703514E+04 0.  0.
        3    1    3    3  502    0 -0.10257090056E+04  0.36773596215E+03 -0.10453724527E+04  0.15100040652E+04  0.10100000352E+00 0.  1.
       -3    1    3    3    0  502  0.10257090056E+04 -0.36773596215E+03 -0.62136780184E+03  0.12543550762E+04  0.10100000352E+00 0. -1.
</event>
<event>
 5   0  0.2319707E-05  0.2194179E+04  0.7818609E-02  0.8520855E-01
       -2   -1    0    0    0  501  0.00000000000E+00  0.00000000000E+00  0.70088830258E+03  0.70088830258E+03  0.25500000920E-02 0. -1.
        2   -1    0    0  501    0  0.00000000000E+00  0.00000000000E+00 -0.17172571162E+04  0.17172571162E+04  0.25500000920E-02 0.  1.
    10030    2    1    2    0    0  0.00000000000E+00  0.00000000000E+00 -0.10163688136E+04  0.24181454188E+04  0.21941790495E+04 0.  0.
        3    1    3    3  502    0  0.90865860647E+03 -0.19973309422E+03 -0.11489539721E+04  0.14783940653E+04  0.10100000352E+00 0.  1.
       -3    1    3    3    0  502 -0.90865860647E+03  0.19973309422E+03  0.13258515845E+03  0.93975135354E+03  0.10100000352E+00 0. -1.
</event>
<event>
 5   0  0.2284329E-05  0.2214756E+04  0.7818609E-02  0.8512311E-01
       -2   -1    0    0    0  501  0.00000000000E+00  0.00000000000E+00  0.81083570939E+03  0.81083570940E+03  0.25500000920E-02 0.  1.
        2   -1    0    0  501    0  0.00000000000E+00  0.00000000000E+00 -0.15123736829E+04  0.15123736829E+04  0.25500000920E-02 0. -1.
    10030    2    1    2    0    0  0.00000000000E+00  0.00000000000E+00 -0.70153797355E+03  0.23232093923E+04  0.22147564996E+04 0.  0.
        2    1    3    3  502    0  0.88935382357E+02  0.53297752189E+03  0.66316187983E+03  0.85542867613E+03  0.25500000920E-02 0.  1.
       -2    1    3    3    0  502 -0.88935382357E+02 -0.53297752189E+03 -0.13646998534E+04  0.14677807162E+04  0.25500000920E-02 0. -1.
</event>
<event>
 5   0  0.1049198E-05  0.2197976E+04  0.7818609E-02  0.8519271E-01
       -1   -1    0    0    0  501  0.00000000000E+00  0.00000000000E+00  0.60856824975E+03  0.60856824977E+03  0.50400001928E-02 0.  1.
        1   -1    0    0  501    0  0.00000000000E+00  0.00000000000E+00 -0.19846165143E+04  0.19846165143E+04  0.50400001928E-02 0. -1.
    10030    2    1    2    0    0  0.00000000000E+00  0.00000000000E+00 -0.13760482645E+04  0.25931847641E+04  0.21979759767E+04 0.  0.
        1    1    3    3  502    0 -0.67418183537E+03 -0.35509309803E+03 -0.16223545911E+04  0.17923857494E+04  0.50400001928E-02 0.  1.
       -1    1    3    3    0  502  0.67418183537E+03  0.35509309803E+03  0.24630632653E+03  0.80079901468E+03  0.50400001928E-02 0. -1.
</event>
<event>
 5   0  0.2298329E-05  0.2195951E+04  0.7818609E-02  0.8520115E-01
        2   -1    0    0  501    0  0.00000000000E+00  0.00000000000E+00  0.14671781423E+04  0.14671781423E+04  0.25500000920E-02 0.  1.
       -2   -1    0    0    0  501  0.00000000000E+00  0.00000000000E+00 -0.82167986024E+03  0.82167986024E+03  0.25500000920E-02 0. -1.
    10030    2    1    2    0    0  0.00000000000E+00  0.00000000000E+00  0.64549828202E+03  0.22888580025E+04  0.21959514848E+04 0.  0.
        4    1    3    3  502    0 -0.50161858590E+03  0.85704247363E+03  0.81097465235E+03  0.12821171971E+04  0.12699999809E+01 0.  1.
       -4    1    3    3    0  502  0.50161858590E+03 -0.85704247363E+03 -0.16547637033E+03  0.10067408055E+04  0.12699999809E+01 0. -1.
</event>
<event>
 5   0  0.2319707E-05  0.2144787E+04  0.7818609E-02  0.8541767E-01
       -2   -1    0    0    0  501  0.00000000000E+00  0.00000000000E+00  0.67952934547E+03  0.67952934548E+03  0.25500000920E-02 0.  1.
        2   -1    0    0  501    0  0.00000000000E+00  0.00000000000E+00 -0.16923892936E+04  0.16923892936E+04  0.25500000920E-02 0. -1.
    10030    2    1    2    0    0  0.00000000000E+00  0.00000000000E+00 -0.10128599481E+04  0.23719186390E+04  0.21447873451E+04 0.  0.
        3    1    3    3  502    0  0.54726538276E+03 -0.11520958928E+03 -0.15183462045E+04  0.16180691751E+04  0.10100000352E+00 0. -1.
       -3    1    3    3    0  502 -0.54726538276E+03  0.11520958928E+03  0.50548625640E+03  0.75384946391E+03  0.10100000352E+00 0.  1.
</event>
<event>
 5   0  0.1007682E-05  0.2204353E+04  0.7818609E-02  0.8516619E-01
        1   -1    0    0  501    0  0.00000000000E+00  0.00000000000E+00  0.12834408049E+04  0.12834408049E+04  0.50400001928E-02 0. -1.
       -1   -1    0    0    0  501  0.00000000000E+00  0.00000000000E+00 -0.94651252997E+03  0.94651252998E+03  0.50400001928E-02 0.  1.
    10030    2    1    2    0    0  0.00000000000E+00  0.00000000000E+00  0.33692827492E+03  0.22299533349E+04  0.22043527878E+04 0.  0.
        2    1    3    3  502    0 -0.66344918887E+03  0.69066948666E+03  0.72033033196E+03  0.11983592755E+04  0.25500000920E-02 0. -1.
       -2    1    3    3    0  502  0.66344918887E+03 -0.69066948666E+03 -0.38340205704E+03  0.10315940594E+04  0.25500000920E-02 0.  1.
</event>
<event>
 5   0  0.1049198E-05  0.2202169E+04  0.7818609E-02  0.8517526E-01
        1   -1    0    0  501    0  0.00000000000E+00  0.00000000000E+00  0.12080408636E+04  0.12080408636E+04  0.50400001928E-02 0.  1.
       -1   -1    0    0    0  501  0.00000000000E+00  0.00000000000E+00 -0.10035973897E+04  0.10035973897E+04  0.50400001928E-02 0. -1.
    10030    2    1    2    0    0  0.00000000000E+00  0.00000000000E+00  0.20444347394E+03  0.22116382533E+04  0.22021686196E+04 0.  0.
        1    1    3    3  502    0 -0.34816405171E+03  0.55170691000E+03 -0.78860320726E+03  0.10234714163E+04  0.50400001928E-02 0. -1.
       -1    1    3    3    0  502  0.34816405171E+03 -0.55170691000E+03  0.99304668120E+03  0.11881668370E+04  0.50400001928E-02 0.  1.
</event>
<event>
 5   0  0.2229552E-05  0.2188959E+04  0.7818609E-02  0.8523038E-01
       -2   -1    0    0    0  501  0.00000000000E+00  0.00000000000E+00  0.77450584665E+03  0.77450584665E+03  0.25500000920E-02 0.  1.
        2   -1    0    0  501    0  0.00000000000E+00  0.00000000000E+00 -0.15466440333E+04  0.15466440333E+04  0.25500000920E-02 0. -1.
    10030    2    1    2    0    0  0.00000000000E+00  0.00000000000E+00 -0.77213818664E+03  0.23211498799E+04  0.21889585163E+04 0.  0.
        1    1    3    3  502    0  0.33793276747E+03 -0.36216888763E+03 -0.14209793761E+04  0.15048412694E+04  0.50400001928E-02 0. -1.
       -1    1    3    3    0  502 -0.33793276747E+03  0.36216888763E+03  0.64884118950E+03  0.81630861059E+03  0.50400001928E-02 0.  1.
</event>
<event>
 5   0  0.1033733E-05  0.2174198E+04  0.7818609E-02  0.8529245E-01
       -1   -1    0    0    0  501  0.00000000000E+00  0.00000000000E+00  0.14984951066E+04  0.14984951066E+04  0.50400001928E-02 0.  1.
        1   -1    0    0  501    0  0.00000000000E+00  0.00000000000E+00 -0.78864705464E+03  0.78864705465E+03  0.50400001928E-02 0. -1.
    10030    2    1    2    0    0  0.00000000000E+00  0.00000000000E+00  0.70984805195E+03  0.22871421612E+04  0.21741975552E+04 0.  0.
        5    1    3    3  502    0  0.77700709499E+03 -0.17038391341E+03 -0.42450531917E+03  0.90166377304E+03  0.46999998093E+01 0. -1.
       -5    1    3    3    0  502 -0.77700709499E+03  0.17038391341E+03  0.11343533711E+04  0.13854783882E+04  0.46999998093E+01 0.  1.
</event>
<event>
 5   0  0.1049198E-05  0.2198835E+04  0.7818609E-02  0.8518913E-01
       -1   -1    0    0    0  501  0.00000000000E+00  0.00000000000E+00  0.13687513239E+04  0.13687513239E+04  0.50400001928E-02 0. -1.
        1   -1    0    0  501    0  0.00000000000E+00  0.00000000000E+00 -0.88308151160E+03  0.88308151162E+03  0.50400001928E-02 0.  1.
    10030    2    1    2    0    0  0.00000000000E+00  0.00000000000E+00  0.48566981230E+03  0.22518328355E+04  0.21988351354E+04 0.  0.
        1    1    3    3  502    0 -0.14917720418E+03  0.20141269447E+03  0.13391022436E+04  0.13623566826E+04  0.50400001928E-02 0. -1.
       -1    1    3    3    0  502  0.14917720418E+03 -0.20141269447E+03 -0.85343243133E+03  0.88947615292E+03  0.50400001928E-02 0.  1.
</event>
<event>
 5   0  0.2319707E-05  0.2202403E+04  0.7818609E-02  0.8517429E-01
       -2   -1    0    0    0  501  0.00000000000E+00  0.00000000000E+00  0.95928894703E+03  0.95928894704E+03  0.25500000920E-02 0. -1.
        2   -1    0    0  501    0  0.00000000000E+00  0.00000000000E+00 -0.12641081556E+04  0.12641081556E+04  0.25500000920E-02 0.  1.
    10030    2    1    2    0    0  0.00000000000E+00  0.00000000000E+00 -0.30481920857E+03  0.22233971026E+04  0.22024032161E+04 0.  0.
        3    1    3    3  502    0  0.35525431315E+01 -0.50734413828E+03 -0.11390869381E+04  0.12469682266E+04  0.10100000352E+00 0.  1.
       -3    1    3    3    0  502 -0.35525431315E+01  0.50734413828E+03  0.83426772958E+03  0.97642887607E+03  0.10100000352E+00 0. -1.
</event>
<event>
 5   0  0.1049198E-05  0.2200842E+04  0.7818609E-02  0.8518078E-01
        1   -1    0    0  501    0  0.00000000000E+00  0.00000000000E+00  0.81421121111E+03  0.81421121113E+03  0.50400001928E-02 0.  1.
       -1   -1    0    0    0  501  0.00000000000E+00  0.00000000000E+00 -0.14872382297E+04  0.14872382297E+04  0.50400001928E-02 0. -1.
    10030    2    1    2    0    0  0.00000000000E+00  0.00000000000E+00 -0.67302701856E+03  0.23014494408E+04  0.22008416937E+04 0.  0.
        1    1    3    3  502    0  0.40800726285E+03 -0.49250308899E+03 -0.12729360941E+04  0.14245685378E+04  0.50400001928E-02 0. -1.
       -1    1    3    3    0  502 -0.40800726285E+03  0.49250308899E+03  0.59990907551E+03  0.87688090304E+03  0.50400001928E-02 0.  1.
</event>
<event>
 5   0  0.1049198E-05  0.2195721E+04  0.7818609E-02  0.8520211E-01
        1   -1    0    0  501    0  0.00000000000E+00  0.00000000000E+00  0.15291168633E+04  0.15291168634E+04  0.50400001928E-02 0. -1.
       -1   -1    0    0    0  501  0.00000000000E+00  0.00000000000E+00 -0.78823155846E+03  0.78823155847E+03  0.50400001928E-02 0.  1.
    10030    2    1    2    0    0  0.00000000000E+00  0.00000000000E+00  0.74088530489E+03  0.23173484218E+04  0.21957214471E+04 0.  0.
        1    1    3    3  502    0 -0.92686919917E+03  0.47030176621E+03 -0.27366674294E+01  0.10393641099E+04  0.50400001928E-02 0.  1.
       -1    1    3    3    0  502  0.92686919917E+03 -0.47030176621E+03  0.74362197232E+03  0.12779843119E+04  0.50400001928E-02 0. -1.
</event>
<event>
 5   0  0.1007682E-05  0.2187256E+04  0.7818609E-02  0.8523751E-01
        1   -1    0    0  501    0  0.00000000000E+00  0.00000000000E+00  0.14345760820E+04  0.14345760820E+04  0.50400001928E-02 0. -1.
       -1   -1    0    0    0  501  0.00000000000E+00  0.00000000000E+00 -0.83371102055E+03  0.83371102057E+03  0.50400001928E-02 0.  1.
    10030    2    1    2    0    0  0.00000000000E+00  0.00000000000E+00  0.60086506148E+03  0.22682871026E+04  0.21872557138E+04 0.  0.
        2    1    3    3  502    0 -0.32164977561E+03 -0.20326196258E+02 -0.78334374510E+03  0.84705321875E+03  0.25500000920E-02 0.  1.
       -2    1    3    3    0  502  0.32164977561E+03  0.20326196258E+02  0.13842088066E+04  0.14212338839E+04  0.25500000920E-02 0. -1.
</event>
<event>
 5   0  0.2229552E-05  0.2199192E+04  0.7818609E-02  0.8518764E-01
       -2   -1    0    0    0  501  0.00000000000E+00  0.00000000000E+00  0.75392992335E+03  0.75392992335E+03  0.25500000920E-02 0.  1.
        2   -1    0    0  501    0  0.00000000000E+00  0.00000000000E+00 -0.16037453289E+04  0.16037453289E+04  0.25500000920E-02 0. -1.
    10030    2    1    2    0    0  0.00000000000E+00  0.00000000000E+00 -0.84981540551E+03  0.23576752522E+04  0.21991922088E+04 0.  0.
        1    1    3    3  502    0 -0.44308754253E+03 -0.61905125187E+03  0.42572006683E+03  0.87223196348E+03  0.50400001928E-02 0.  1.
       -1    1    3    3    0  502  0.44308754253E+03  0.61905125187E+03 -0.12755354723E+04  0.14854432887E+04  0.50400001928E-02 0. -1.
</event>
<event>
 5   0  0.8003875E-06  0.2196444E+04  0.7818609E-02  0.8519910E-01
       -3   -1    0    0    0  501  0.00000000000E+00  0.00000000000E+00  0.21090019892E+04  0.21090019917E+04  0.10100000352E+00 0. -1.
        3   -1    0    0  501    0  0.00000000000E+00  0.00000000000E+00 -0.57187788419E+03  0.57187789311E+03  0.10100000352E+00 0.  1.
    10030    2    1    2    0    0  0.00000000000E+00  0.00000000000E+00  0.15371241050E+04  0.26808798848E+04  0.21964440449E+04 0.  0.
        1    1    3    3  502    0 -0.77098539866E+03  0.33194385587E+03  0.16329063935E+04  0.18360251900E+04  0.50400001928E-02 0. -1.
       -1    1    3    3    0  502  0.77098539866E+03 -0.33194385587E+03 -0.95782288475E+02  0.84485469473E+03  0.50400001928E-02 0.  1.
</event>
<event>
 5   0  0.2319707E-05  0.2205430E+04  0.7818609E-02  0.8516171E-01
        2   -1    0    0  501    0  0.00000000000E+00  0.00000000000E+00  0.14508980616E+04  0.14508980616E+04  0.25500000920E-02 0.  1.
       -2   -1    0    0    0  501  0.00000000000E+00  0.00000000000E+00 -0.83808799379E+03  0.83808799380E+03  0.25500000920E-02 0. -1.
    10030    2    1    2    0    0  0.00000000000E+00  0.00000000000E+00  0.61281006778E+03  0.22889860554E+04  0.22054298861E+04 0.  0.
        3    1    3    3  502    0 -0.34960054592E+03  0.14561996436E+03 -0.76847397108E+03  0.85672514271E+03  0.10100000352E+00 0. -1.
       -3    1    3    3    0  502  0.34960054592E+03 -0.14561996436E+03  0.13812840389E+04  0.14322609127E+04  0.10100000352E+00 0.  1.
</event>
<event>
 5   0  0.2284329E-05  0.2207755E+04  0.7818609E-02  0.8515207E-01
        2   -1    0    0  501    0  0.00000000000E+00  0.00000000000E+00  0.89842817359E+03  0.89842817359E+03  0.25500000920E-02 0.  1.
       -2   -1    0    0    0  501  0.00000000000E+00  0.00000000000E+00 -0.13563076793E+04  0.13563076793E+04  0.25500000920E-02 0. -1.
    10030    2    1    2    0    0  0.00000000000E+00  0.00000000000E+00 -0.45787950571E+03  0.22547358529E+04  0.22077545435E+04 0.  0.
        2    1    3    3  502    0  0.54667969748E+03  0.88948625610E+03 -0.59503775538E+03  0.12017131196E+04  0.25500000920E-02 0.  1.
       -2    1    3    3    0  502 -0.54667969748E+03 -0.88948625610E+03  0.13715824967E+03  0.10530227333E+04  0.25500000920E-02 0. -1.
</event>
<event>
 5   0  0.2298329E-05  0.2191537E+04  0.7818609E-02  0.8521959E-01
        2   -1    0    0  501    0  0.00000000000E+00  0.00000000000E+00  0.73622170562E+03  0.73622170562E+03  0.25500000920E-02 0.  1.
       -2   -1    0    0    0  501  0.00000000000E+00  0.00000000000E+00 -0.16309067674E+04  0.16309067674E+04  0.25500000920E-02 0. -1.
    10030    2    1    2    0    0  0.00000000000E+00  0.00000000000E+00 -0.89468506173E+03  0.23671284730E+04  0.21915373252E+04 0.  0.
        4    1    3    3  502    0 -0.40774508544E+03  0.93812510591E+03 -0.87172558988E+03  0.13439649869E+04  0.12699999809E+01 0. -1.
       -4    1    3    3    0  502  0.40774508544E+03 -0.93812510591E+03 -0.22959471857E+02  0.10231634861E+04  0.12699999809E+01 0.  1.
</event>
<event>
 5   0  0.2319707E-05  0.2207827E+04  0.7818609E-02  0.8515177E-01
        2   -1    0    0  501    0  0.00000000000E+00  0.00000000000E+00  0.13548582927E+04  0.13548582927E+04  0.25500000920E-02 0. -1.
       -2   -1    0    0    0  501  0.00000000000E+00  0.00000000000E+00 -0.89944815017E+03  0.89944815018E+03  0.25500000920E-02 0.  1.
    10030    2    1    2    0    0  0.00000000000E+00  0.00000000000E+00  0.45541014255E+03  0.22543064429E+04  0.22078267913E+04 0.  0.
        3    1    3    3  502    0 -0.28790486943E+03  0.59608696590E+03  0.11297143499E+04  0.13093751973E+04  0.10100000352E+00 0. -1.
       -3    1    3    3    0  502  0.28790486943E+03 -0.59608696590E+03 -0.67430420731E+03  0.94493124563E+03  0.10100000352E+00 0.  1.
</event>
<event>
 5   0  0.1049198E-05  0.2206075E+04  0.7818609E-02  0.8515904E-01
        1   -1    0    0  501    0  0.00000000000E+00  0.00000000000E+00  0.83798089278E+03  0.83798089280E+03  0.50400001928E-02 0.  1.
       -1   -1    0    0    0  501  0.00000000000E+00  0.00000000000E+00 -0.14519330844E+04  0.14519330844E+04  0.50400001928E-02 0. -1.
    10030    2    1    2    0    0  0.00000000000E+00  0.00000000000E+00 -0.61395219158E+03  0.22899139772E+04  0.22060754133E+04 0.  0.
        1    1    3    3  502    0 -0.20308490118E+03  0.92285607763E+02 -0.14282755262E+04  0.14455902218E+04  0.50400001928E-02 0. -1.
       -1    1    3    3    0  502  0.20308490118E+03 -0.92285607763E+02  0.81432333465E+03  0.84432375537E+03  0.50400001928E-02 0.  1.
</event>
<event>
 5   0  0.8003875E-06  0.2201095E+04  0.7818609E-02  0.8517973E-01
        3   -1    0    0  501    0  0.00000000000E+00  0.00000000000E+00  0.12726493111E+04  0.12726493151E+04  0.10100000352E+00 0. -1.
       -3   -1    0    0    0  501  0.00000000000E+00  0.00000000000E+00 -0.95171916702E+03  0.95171917238E+03  0.10100000352E+00 0.  1.
    10030    2    1    2    0    0  0.00000000000E+00  0.00000000000E+00  0.32093014409E+03  0.22243684875E+04  0.22010949572E+04 0.  0.
        4    1    3    3  502    0 -0.70421380675E+03 -0.30824413551E+03  0.95636580732E+03  0.12270161788E+04  0.12699999809E+01 0. -1.
       -4    1    3    3    0  502  0.70421380675E+03  0.30824413551E+03 -0.63543566323E+03  0.99735230871E+03  0.12699999809E+01 0.  1.
</event>
<event>
 5   0  0.2298329E-05  0.2198508E+04  0.7818609E-02  0.8519049E-01
        2   -1    0    0  501    0  0.00000000000E+00  0.00000000000E+00  0.15292786176E+04  0.15292786176E+04  0.25500000920E-02 0.  1.
       -2   -1    0    0    0  501  0.00000000000E+00  0.00000000000E+00 -0.79015014699E+03  0.79015014699E+03  0.25500000920E-02 0. -1.
    10030    2    1    2    0    0  0.00000000000E+00  0.00000000000E+00  0.73912847063E+03  0.23194287646E+04  0.21985083348E+04 0.  0.
        4    1    3    3  502    0  0.19834409579E+02  0.91299869079E+03 -0.27597068361E+03  0.95400285340E+03  0.12699999809E+01 0. -1.
       -4    1    3    3    0  502 -0.19834409579E+02 -0.91299869079E+03  0.10150991542E+04  0.13654259112E+04  0.12699999809E+01 0.  1.
</event>
<event>
 5   0  0.2284329E-05  0.2188776E+04  0.7818609E-02  0.8523114E-01
        2   -1    0    0  501    0  0.00000000000E+00  0.00000000000E+00  0.53765362898E+03  0.53765362899E+03  0.25500000920E-02 0. -1.
       -2   -1    0    0    0  501  0.00000000000E+00  0.00000000000E+00 -0.22276152019E+04  0.22276152019E+04  0.25500000920E-02 0.  1.
    10030    2    1    2    0    0  0.00000000000E+00  0.00000000000E+00 -0.16899615729E+04  0.27652688309E+04  0.21887762766E+04 0.  0.
        2    1    3    3  502    0  0.68473386449E+03  0.59479798275E+02  0.23096640895E+03  0.72508192203E+03  0.25500000920E-02 0. -1.
       -2    1    3    3    0  502 -0.68473386449E+03 -0.59479798275E+02 -0.19209279819E+04  0.20401869089E+04  0.25500000920E-02 0.  1.
</event>
<event>
 5   0  0.1007682E-05  0.2228165E+04  0.7818609E-02  0.8506796E-01
       -1   -1    0    0    0  501  0.00000000000E+00  0.00000000000E+00  0.95928455684E+03  0.95928455685E+03  0.50400001928E-02 0. -1.
        1   -1    0    0  501    0  0.00000000000E+00  0.00000000000E+00 -0.12938603853E+04  0.12938603853E+04  0.50400001928E-02 0.  1.
    10030    2    1    2    0    0  0.00000000000E+00  0.00000000000E+00 -0.33457582849E+03  0.22531449422E+04  0.22281654215E+04 0.  0.
        2    1    3    3  502    0 -0.48470116218E+02  0.10221522014E+04  0.27814534917E+03  0.10604288332E+04  0.25500000920E-02 0. -1.
       -2    1    3    3    0  502  0.48470116218E+02 -0.10221522014E+04 -0.61272117766E+03  0.11927161090E+04  0.25500000920E-02 0.  1.
</event>
<event>
 5   0  0.1007682E-05  0.2187732E+04  0.7818609E-02  0.8523552E-01
       -1   -1    0    0    0  501  0.00000000000E+00  0.00000000000E+00  0.10553318779E+04  0.10553318779E+04  0.50400001928E-02 0.  1.
        1   -1    0    0  501    0  0.00000000000E+00  0.00000000000E+00 -0.11338072228E+04  0.11338072228E+04  0.50400001928E-02 0. -1.
    10030    2    1    2    0    0  0.00000000000E+00  0.00000000000E+00 -0.78475344924E+02  0.21891391007E+04  0.21877320729E+04 0.  0.
        2    1    3    3  502    0  0.78333437374E+02 -0.80749510976E+03 -0.77343868933E+03  0.11208888820E+04  0.25500000920E-02 0. -1.
       -2    1    3    3    0  502 -0.78333437374E+02  0.80749510976E+03  0.69496334440E+03  0.10682502187E+04  0.25500000920E-02 0.  1.
</event>
<event>
 5   0  0.2229552E-05  0.2203675E+04  0.7818609E-02  0.8516900E-01
        2   -1    0    0  501    0  0.00000000000E+00  0.00000000000E+00  0.16257389520E+04  0.16257389520E+04  0.25500000920E-02 0. -1.
       -2   -1    0    0    0  501  0.00000000000E+00  0.00000000000E+00 -0.74676541370E+03  0.74676541370E+03  0.25500000920E-02 0.  1.
    10030    2    1    2    0    0  0.00000000000E+00  0.00000000000E+00  0.87897353833E+03  0.23725043657E+04  0.22036747683E+04 0.  0.
        1    1    3    3  502    0 -0.85395741702E+02  0.46477864867E+03 -0.63212642946E+03  0.78923725698E+03  0.50400001928E-02 0.  1.
       -1    1    3    3    0  502  0.85395741702E+02 -0.46477864867E+03  0.15110999678E+04  0.15832671088E+04  0.50400001928E-02 0. -1.
</event>
<event>
 5   0  0.1049198E-05  0.2195389E+04  0.7818609E-02  0.8520350E-01
        1   -1    0    0  501    0  0.00000000000E+00  0.00000000000E+00  0.71595801283E+03  0.71595801285E+03  0.50400001928E-02 0.  1.
       -1   -1    0    0    0  501  0.00000000000E+00  0.00000000000E+00 -0.16829660242E+04  0.16829660242E+04  0.50400001928E-02 0. -1.
    10030    2    1    2    0    0  0.00000000000E+00  0.00000000000E+00 -0.96700801137E+03  0.23989240371E+04  0.21953888133E+04 0.  0.
        1    1    3    3  502    0 -0.47499968758E+03 -0.85808764581E+03 -0.10221491314E+04  0.14165902576E+04  0.50400001928E-02 0. -1.
       -1    1    3    3    0  502  0.47499968758E+03  0.85808764581E+03  0.55141120032E+02  0.98233377944E+03  0.50400001928E-02 0.  1.
</event>
<event>
 5   0  0.1033733E-05  0.2258905E+04  0.7818609E-02  0.8494303E-01
       -1   -1    0    0    0  501  0.00000000000E+00  0.00000000000E+00  0.10366748516E+04  0.10366748516E+04  0.50400001928E-02 0.  1.
        1   -1    0    0  501    0  0.00000000000E+00  0.00000000000E+00 -0.12305336172E+04  0.12305336172E+04  0.50400001928E-02 0. -1.
    10030    2    1    2    0    0  0.00000000000E+00  0.00000000000E+00 -0.19385876560E+03  0.22672084688E+04  0.22589052702E+04 0.  0.
        5    1    3    3  502    0  0.44280098531E+03  0.68435840628E+03 -0.88161001596E+03  0.12006987345E+04  0.46999998093E+01 0. -1.
       -5    1    3    3    0  502 -0.44280098531E+03 -0.68435840628E+03  0.68775125036E+03  0.10665097342E+04  0.46999998093E+01 0.  1.
</event>
<event>
 5   0  0.1049198E-05  0.2192548E+04  0.7818609E-02  0.8521536E-01
        1   -1    0    0  501    0  0.00000000000E+00  0.00000000000E+00  0.12045181939E+04  0.12045181939E+04  0.50400001928E-02 0.  1.
       -1   -1    0    0    0  501  0.00000000000E+00  0.00000000000E+00 -0.99775688377E+03  0.99775688378E+03  0.50400001928E-02 0. -1.
    10030    2    1    2    0    0  0.00000000000E+00  0.00000000000E+00  0.20676131009E+03  0.22022750777E+04  0.21925476684E+04 0.  0.
        1    1    3    3  502    0 -0.69571315636E+03 -0.28493494539E+03 -0.69803863934E+03  0.10258960284E+04  0.50400001928E-02 0. -1.
       -1    1    3    3    0  502  0.69571315636E+03  0.28493494539E+03  0.90479994943E+03  0.11763790493E+04  0.50400001928E-02 0.  1.
</event>
<event>
 5   0  0.1005538E-05  0.2217069E+04  0.7818609E-02  0.8511357E-01
        1   -1    0    0  501    0  0.00000000000E+00  0.00000000000E+00  0.10018582234E+04  0.10018582234E+04  0.50400001928E-02 0.  1.
       -1   -1    0    0    0  501  0.00000000000E+00  0.00000000000E+00 -0.12265697324E+04  0.12265697324E+04  0.50400001928E-02 0. -1.
    10030    2    1    2    0    0  0.00000000000E+00  0.00000000000E+00 -0.22471150905E+03  0.22284279559E+04  0.22170692123E+04 0.  0.
        3    1    3    3  502    0  0.86924596207E+02 -0.20910957673E+03 -0.12030726091E+04  0.12242003159E+04  0.10100000352E+00 0. -1.
       -3    1    3    3    0  502 -0.86924596207E+02  0.20910957673E+03  0.97836110005E+03  0.10042276399E+04  0.10100000352E+00 0.  1.
</event>
<event>
 5   0  0.2319707E-05  0.2191811E+04  0.7818609E-02  0.8521844E-01
        2   -1    0    0  501    0  0.00000000000E+00  0.00000000000E+00  0.14040419084E+04  0.14040419084E+04  0.25500000920E-02 0.  1.
       -2   -1    0    0    0  501  0.00000000000E+00  0.00000000000E+00 -0.85539369067E+03  0.85539369067E+03  0.25500000920E-02 0. -1.
    10030    2    1    2    0    0  0.00000000000E+00  0.00000000000E+00  0.54864821774E+03  0.22594355991E+04  0.21918107490E+04 0.  0.
        3    1    3    3  502    0  0.14531757826E+03 -0.18338820399E+02  0.13939064124E+04  0.14015807531E+04  0.10100000352E+00 0.  1.
       -3    1    3    3    0  502 -0.14531757826E+03  0.18338820399E+02 -0.84525819465E+03  0.85785484594E+03  0.10100000352E+00 0. -1.
</event>
<event>
 5   0  0.2229552E-05  0.2212662E+04  0.7818609E-02  0.8513176E-01
       -2   -1    0    0    0  501  0.00000000000E+00  0.00000000000E+00  0.65744774233E+03  0.65744774234E+03  0.25500000920E-02 0. -1.
        2   -1    0    0  501    0  0.00000000000E+00  0.00000000000E+00 -0.18616973849E+04  0.18616973849E+04  0.25500000920E-02 0.  1.
    10030    2    1    2    0    0  0.00000000000E+00  0.00000000000E+00 -0.12042496426E+04  0.25191451273E+04  0.22126624168E+04 0.  0.
        1    1    3    3  502    0 -0.66324677150E+03  0.30838164003E+03  0.34289126553E+03  0.80781800909E+03  0.50400001928E-02 0. -1.
       -1    1    3    3    0  502  0.66324677150E+03 -0.30838164003E+03 -0.15471409081E+04  0.17113271182E+04  0.50400001928E-02 0.  1.
</event>
<event>
 5   0  0.8003875E-06  0.2197091E+04  0.7818609E-02  0.8519640E-01
       -3   -1    0    0    0  501  0.00000000000E+00  0.00000000000E+00  0.62606574016E+03  0.62606574830E+03  0.10100000352E+00 0.  1.
        3   -1    0    0  501    0  0.00000000000E+00  0.00000000000E+00 -0.19275973151E+04  0.19275973177E+04  0.10100000352E+00 0. -1.
    10030    2    1    2    0    0  0.00000000000E+00  0.00000000000E+00 -0.13015315749E+04  0.25536630660E+04  0.21970913987E+04 0.  0.
        3    1    3    3  502    0  0.48061354577E+03  0.98261357176E+03 -0.76863298272E+03  0.13369051889E+04  0.10100000352E+00 0. -1.
       -3    1    3    3    0  502 -0.48061354577E+03 -0.98261357176E+03 -0.53289859221E+03  0.12167578771E+04  0.10100000352E+00 0.  1.
</event>
<event>
 5   0  0.2298329E-05  0.2196246E+04  0.7818609E-02  0.8519992E-01
       -2   -1    0    0    0  501  0.00000000000E+00  0.00000000000E+00  0.16721550922E+04  0.16721550922E+04  0.25500000920E-02 0. -1.
        2   -1    0    0  501    0  0.00000000000E+00  0.00000000000E+00 -0.72114966151E+03  0.72114966151E+03  0.25500000920E-02 0.  1.
    10030    2    1    2    0    0  0.00000000000E+00  0.00000000000E+00  0.95100543066E+03  0.23933047537E+04  0.21962459596E+04 0.  0.
        4    1    3    3  502    0  0.43155204950E+03  0.10066904042E+04  0.56137503470E+03  0.12307746682E+04  0.12699999809E+01 0. -1.
       -4    1    3    3    0  502 -0.43155204950E+03 -0.10066904042E+04  0.38963039595E+03  0.11625300855E+04  0.12699999809E+01 0.  1.
</event>
<event>
 5   0  0.1007682E-05  0.2199938E+04  0.7818609E-02  0.8518454E-01
        1   -1    0    0  501    0  0.00000000000E+00  0.00000000000E+00  0.11740429539E+04  0.11740429539E+04  0.50400001928E-02 0. -1.
       -1   -1    0    0    0  501  0.00000000000E+00  0.00000000000E+00 -0.10305688565E+04  0.10305688565E+04  0.50400001928E-02 0.  1.
    10030    2    1    2    0    0  0.00000000000E+00  0.00000000000E+00  0.14347409737E+03  0.22046118105E+04  0.21999382760E+04 0.  0.
        2    1    3    3  502    0  0.65911484874E+03 -0.17059785675E+03 -0.79404048536E+03  0.10459619042E+04  0.25500000920E-02 0.  1.
       -2    1    3    3    0  502 -0.65911484874E+03  0.17059785675E+03  0.93751458273E+03  0.11586499063E+04  0.25500000920E-02 0. -1.
</event>
<event>
 5   0  0.2289708E-05  0.2188917E+04  0.7818609E-02  0.8523055E-01
        2   -1    0    0  501    0  0.00000000000E+00  0.00000000000E+00  0.24074658058E+04  0.24074658058E+04  0.25500000920E-02 0.  1.
       -2   -1    0    0    0  501  0.00000000000E+00  0.00000000000E+00 -0.49755201633E+03  0.49755201633E+03  0.25500000920E-02 0. -1.
    10030    2    1    2    0    0  0.00000000000E+00  0.00000000000E+00  0.19099137894E+04  0.29050178221E+04  0.21889170527E+04 0.  0.
        5    1    3    3  502    0  0.10419546654E+03 -0.45388536546E+03 -0.35948882574E+03  0.58832212780E+03  0.46999998093E+01 0. -1.
       -5    1    3    3    0  502 -0.10419546654E+03  0.45388536546E+03  0.22694026152E+04  0.23166956943E+04  0.46999998093E+01 0.  1.
</event>
<event>
 5   0  0.2289708E-05  0.2204364E+04  0.7818609E-02  0.8516614E-01
       -2   -1    0    0    0  501  0.00000000000E+00  0.00000000000E+00  0.67203371097E+03  0.67203371097E+03  0.25500000920E-02 0.  1.
        2   -1    0    0  501    0  0.00000000000E+00  0.00000000000E+00 -0.18076551970E+04  0.18076551970E+04  0.25500000920E-02 0. -1.
    10030    2    1    2    0    0  0.00000000000E+00  0.00000000000E+00 -0.11356214861E+04  0.24796889080E+04  0.22043640627E+04 0.  0.
        5    1    3    3  502    0 -0.10172899647E+04  0.73500206666E+01 -0.10448667779E+04  0.14583214902E+04  0.46999998093E+01 0. -1.
       -5    1    3    3    0  502  0.10172899647E+04 -0.73500206666E+01 -0.90754708181E+02  0.10213674178E+04  0.46999998093E+01 0.  1.
</event>
<event>
 5   0  0.2319707E-05  0.2204663E+04  0.7818609E-02  0.8516490E-01
       -2   -1    0    0    0  501  0.00000000000E+00  0.00000000000E+00  0.95532387016E+03  0.95532387016E+03  0.25500000920E-02 0.  1.
        2   -1    0    0  501    0  0.00000000000E+00  0.00000000000E+00 -0.12719611878E+04  0.12719611878E+04  0.25500000920E-02 0. -1.
    10030    2    1    2    0    0  0.00000000000E+00  0.00000000000E+00 -0.31663731759E+03  0.22272850579E+04  0.22046631349E+04 0.  0.
        3    1    3    3  502    0  0.78930453762E+03  0.12683882776E+03  0.60844552645E+03  0.10046371037E+04  0.10100000352E+00 0.  1.
       -3    1    3    3    0  502 -0.78930453762E+03 -0.12683882776E+03 -0.92508284404E+03  0.12226479542E+04  0.10100000352E+00 0. -1.
</event>
<event>
 5   0  0.2289708E-05  0.2187446E+04  0.7818609E-02  0.8523672E-01
        2   -1    0    0  501    0  0.00000000000E+00  0.00000000000E+00  0.94571821357E+03  0.94571821358E+03  0.25500000920E-02 0.  1.
       -2   -1    0    0    0  501  0.00000000000E+00  0.00000000000E+00 -0.12648899456E+04  0.12648899456E+04  0.25500000920E-02 0. -1.
    10030    2    1    2    0    0  0.00000000000E+00  0.00000000000E+00 -0.31917173201E+03  0.22106081592E+04  0.21874455053E+04 0.  0.
        5    1    3    3  502    0  0.24948679850E+02  0.27664393591E+03 -0.12286404174E+04  0.12596561711E+04  0.46999998093E+01 0. -1.
       -5    1    3    3    0  502 -0.24948679850E+02 -0.27664393591E+03  0.90946868543E+03  0.95095198811E+03  0.46999998093E+01 0.  1.
</event>
<event>
 5   0  0.2284329E-05  0.2192203E+04  0.7818609E-02  0.8521680E-01
        2   -1    0    0  501    0  0.00000000000E+00  0.00000000000E+00  0.11280751234E+04  0.11280751234E+04  0.25500000920E-02 0.  1.
       -2   -1    0    0    0  501  0.00000000000E+00  0.00000000000E+00 -0.10650342222E+04  0.10650342222E+04  0.25500000920E-02 0. -1.
    10030    2    1    2    0    0  0.00000000000E+00  0.00000000000E+00  0.63040901207E+02  0.21931093457E+04  0.21922031034E+04 0.  0.
        2    1    3    3  502    0 -0.62166547821E+03 -0.77590851091E+03 -0.43012087895E+03  0.10832847985E+04  0.25500000920E-02 0. -1.
       -2    1    3    3    0  502  0.62166547821E+03  0.77590851091E+03  0.49316178015E+03  0.11098245472E+04  0.25500000920E-02 0.  1.
</event>
<event>
 5   0  0.2289708E-05  0.2206670E+04  0.7818609E-02  0.8515657E-01
        2   -1    0    0  501    0  0.00000000000E+00  0.00000000000E+00  0.95676966813E+03  0.95676966814E+03  0.25500000920E-02 0. -1.
       -2   -1    0    0    0  501  0.00000000000E+00  0.00000000000E+00 -0.12723522746E+04  0.12723522746E+04  0.25500000920E-02 0.  1.
    10030    2    1    2    0    0  0.00000000000E+00  0.00000000000E+00 -0.31558260644E+03  0.22291219427E+04  0.22066699468E+04 0.  0.
        5    1    3    3  502    0  0.54512823620E+03  0.75667600851E+03  0.43778574553E+03  0.10302435754E+04  0.46999998093E+01 0. -1.
       -5    1    3    3    0  502 -0.54512823620E+03 -0.75667600851E+03 -0.75336835196E+03  0.11988783673E+04  0.46999998093E+01 0.  1.
</event>
<event>
 5   0  0.2284329E-05  0.2201301E+04  0.7818609E-02  0.8517887E-01
        2   -1    0    0  501    0  0.00000000000E+00  0.00000000000E+00  0.15394973474E+04  0.15394973474E+04  0.25500000920E-02 0.  1.
       -2   -1    0    0    0  501  0.00000000000E+00  0.00000000000E+00 -0.78690045248E+03  0.78690045249E+03  0.25500000920E-02 0. -1.
    10030    2    1    2    0    0  0.00000000000E+00  0.00000000000E+00  0.75259689495E+03  0.23263977999E+04  0.22013006694E+04 0.  0.
        2    1    3    3  502    0 -0.93926447449E+03  0.46204073715E+03  0.16771954674E+02  0.10468909658E+04  0.25500000920E-02 0. -1.
       -2    1    3    3    0  502  0.93926447449E+03 -0.46204073715E+03  0.73582494028E+03  0.12795068341E+04  0.25500000920E-02 0.  1.
</event>
<event>
 5   0  0.2298329E-05  0.2206729E+04  0.7818609E-02  0.8515632E-01
       -2   -1    0    0    0  501  0.00000000000E+00  0.00000000000E+00  0.11652003905E+04  0.11652003905E+04  0.25500000920E-02 0. -1.
        2   -1    0    0  501    0  0.00000000000E+00  0.00000000000E+00 -0.10448104423E+04  0.10448104423E+04  0.25500000920E-02 0.  1.
    10030    2    1    2    0    0  0.00000000000E+00  0.00000000000E+00  0.12038994818E+03  0.22100108328E+04  0.22067292859E+04 0.  0.
        4    1    3    3  502    0  0.12654192762E+03 -0.66780817706E+03 -0.81025302607E+03  0.10575879159E+04  0.12699999809E+01 0.  1.
       -4    1    3    3    0  502 -0.12654192762E+03  0.66780817706E+03  0.93064297425E+03  0.11524229168E+04  0.12699999809E+01 0. -1.
</event>
<event>
 5   0  0.2229552E-05  0.2345570E+04  0.7818609E-02  0.8460167E-01
        2   -1    0    0  501    0  0.00000000000E+00  0.00000000000E+00  0.12134899052E+04  0.12134899052E+04  0.25500000920E-02 0.  1.
       -2   -1    0    0    0  501  0.00000000000E+00  0.00000000000E+00 -0.11334454492E+04  0.11334454492E+04  0.25500000920E-02 0. -1.
    10030    2    1    2    0    0  0.00000000000E+00  0.00000000000E+00  0.80044456017E+02  0.23469353543E+04  0.23455699611E+04 0.  0.
        1    1    3    3  502    0  0.52940644071E+03 -0.91069140142E+03  0.55587505493E+03  0.11910613271E+04  0.50400001928E-02 0.  1.
       -1    1    3    3    0  502 -0.52940644071E+03  0.91069140142E+03 -0.47583059891E+03  0.11558740273E+04  0.50400001928E-02 0. -1.
</event>
<event>
 5   0  0.1049198E-05  0.2192977E+04  0.7818609E-02  0.8521357E-01
       -1   -1    0    0    0  501  0.00000000000E+00  0.00000000000E+00  0.14016295418E+04  0.14016295418E+04  0.50400001928E-02 0. -1.
        1   -1    0    0  501    0  0.00000000000E+00  0.00000000000E+00 -0.85777814675E+03  0.85777814677E+03  0.50400001928E-02 0.  1.
    10030    2    1    2    0    0  0.00000000000E+00  0.00000000000E+00  0.54385139501E+03  0.22594076885E+04  0.21929771461E+04 0.  0.
        1    1    3    3  502    0 -0.10071340646E+04  0.40522347926E+03  0.11310653822E+03  0.10914752316E+04  0.50400001928E-02 0.  1.
       -1    1    3    3    0  502  0.10071340646E+04 -0.40522347926E+03  0.43074485679E+03  0.11679324569E+04  0.50400001928E-02 0. -1.
</event>
<event>
 5   0  0.1033733E-05  0.2178254E+04  0.7818609E-02  0.8527534E-01
       -1   -1    0    0    0  501  0.00000000000E+00  0.00000000000E+00  0.71811384461E+03  0.71811384463E+03  0.50400001928E-02 0. -1.
        1   -1    0    0  501    0  0.00000000000E+00  0.00000000000E+00 -0.16518232708E+04  0.16518232708E+04  0.50400001928E-02 0.  1.
    10030    2    1    2    0    0  0.00000000000E+00  0.00000000000E+00 -0.93370942619E+03  0.23699371154E+04  0.21782535754E+04 0.  0.
        5    1    3    3  502    0 -0.18096496199E+03  0.67375148525E+03 -0.13768052875E+04  0.15434714999E+04  0.46999998093E+01 0.  1.
       -5    1    3    3    0  502  0.18096496199E+03 -0.67375148525E+03  0.44309586131E+03  0.82646561553E+03  0.46999998093E+01 0. -1.
</event>
<event>
 5   0  0.1007682E-05  0.2192169E+04  0.7818609E-02  0.8521694E-01
        1   -1    0    0  501    0  0.00000000000E+00  0.00000000000E+00  0.50486866947E+03  0.50486866949E+03  0.50400001928E-02 0. -1.
       -1   -1    0    0    0  501  0.00000000000E+00  0.00000000000E+00 -0.23796319474E+04  0.23796319474E+04  0.50400001928E-02 0.  1.
    10030    2    1    2    0    0  0.00000000000E+00  0.00000000000E+00 -0.18747632779E+04  0.28845006169E+04  0.21921693503E+04 0.  0.
        2    1    3    3  502    0 -0.18434147948E+03  0.30132688985E+03 -0.23026818194E+04  0.23296186892E+04  0.25500000920E-02 0.  1.
       -2    1    3    3    0  502  0.18434147948E+03 -0.30132688985E+03  0.42791854144E+03  0.55488192773E+03  0.25500000920E-02 0. -1.
</event>
<event>
 5   0  0.1033733E-05  0.2200777E+04  0.7818609E-02  0.8518105E-01
       -1   -1    0    0    0  501  0.00000000000E+00  0.00000000000E+00  0.12748764131E+04  0.12748764131E+04  0.50400001928E-02 0. -1.
        1   -1    0    0  501    0  0.00000000000E+00  0.00000000000E+00 -0.94978225478E+03  0.94978225479E+03  0.50400001928E-02 0.  1.
    10030    2    1    2    0    0  0.00000000000E+00  0.00000000000E+00  0.32509415827E+03  0.22246586679E+04  0.22007771302E+04 0.  0.
        5    1    3    3  502    0  0.43452842981E+03  0.13323125632E+01  0.11844654487E+04  0.12616644643E+04  0.46999998093E+01 0. -1.
       -5    1    3    3    0  502 -0.43452842981E+03 -0.13323125632E+01 -0.85937129039E+03  0.96299420357E+03  0.46999998093E+01 0.  1.
</event>
<event>
 5   0  0.2229552E-05  0.2118740E+04  0.7818609E-02  0.8553033E-01
       -2   -1    0    0    0  501  0.00000000000E+00  0.00000000000E+00  0.55512762684E+03  0.55512762684E+03  0.25500000920E-02 0. -1.
        2   -1    0    0  501    0  0.00000000000E+00  0.00000000000E+00 -0.20216341305E+04  0.20216341305E+04  0.25500000920E-02 0.  1.
    10030    2    1    2    0    0  0.00000000000E+00  0.00000000000E+00 -0.14665065037E+04  0.25767617574E+04  0.21187401513E+04 0.  0.
        1    1    3    3  502    0  0.77813766172E+02  0.51239796490E+03 -0.18569227789E+04  0.19278923371E+04  0.50400001928E-02 0.  1.
       -1    1    3    3    0  502 -0.77813766172E+02 -0.51239796490E+03  0.39041627518E+03  0.64886942029E+03  0.50400001928E-02 0. -1.
</event>
<event>
 5   0  0.2298329E-05  0.2215716E+04  0.7818609E-02  0.8511915E-01
        2   -1    0    0  501    0  0.00000000000E+00  0.00000000000E+00  0.14490037859E+04  0.14490037860E+04  0.25500000920E-02 0.  1.
       -2   -1    0    0    0  501  0.00000000000E+00  0.00000000000E+00 -0.84703002109E+03  0.84703002109E+03  0.25500000920E-02 0. -1.
    10030    2    1    2    0    0  0.00000000000E+00  0.00000000000E+00  0.60197376486E+03  0.22960338070E+04  0.22157163242E+04 0.  0.
        4    1    3    3  502    0  0.92112723002E+03  0.13952064542E+03 -0.32024997132E+03  0.98514112766E+03  0.12699999809E+01 0. -1.
       -4    1    3    3    0  502 -0.92112723002E+03 -0.13952064542E+03  0.92222373618E+03  0.13108926794E+04  0.12699999809E+01 0.  1.
</event>
<event>
 5   0  0.1071208E-05  0.2196916E+04  0.7818609E-02  0.8519713E-01
        1   -1    0    0  501    0  0.00000000000E+00  0.00000000000E+00  0.13861196006E+04  0.13861196006E+04  0.50400001928E-02 0. -1.
       -1   -1    0    0    0  501  0.00000000000E+00  0.00000000000E+00 -0.87049509223E+03  0.87049509224E+03  0.50400001928E-02 0.  1.
    10030    2    1    2    0    0  0.00000000000E+00  0.00000000000E+00  0.51562450837E+03  0.22566146928E+04  0.21969163021E+04 0.  0.
        4    1    3    3  502    0 -0.73914751700E+03  0.78352672516E+02 -0.57294874659E+03  0.93848285669E+03  0.12699999809E+01 0.  1.
       -4    1    3    3    0  502  0.73914751700E+03 -0.78352672516E+02  0.10885732550E+04  0.13181318362E+04  0.12699999809E+01 0. -1.
</event>
<event>
 5   0  0.1007682E-05  0.2218869E+04  0.7818609E-02  0.8510615E-01
        1   -1    0    0  501    0  0.00000000000E+00  0.00000000000E+00  0.12108214080E+04  0.12108214080E+04  0.50400001928E-02 0.  1.
       -1   -1    0    0    0  501  0.00000000000E+00  0.00000000000E+00 -0.10165369303E+04  0.10165369304E+04  0.50400001928E-02 0. -1.
    10030    2    1    2    0    0  0.00000000000E+00  0.00000000000E+00  0.19428447764E+03  0.22273583384E+04  0.22188687904E+04 0.  0.
        2    1    3    3  502    0 -0.70230735878E+03 -0.39966222572E+03  0.86023438818E+03  0.11802409599E+04  0.25500000920E-02 0.  1.
       -2    1    3    3    0  502  0.70230735878E+03  0.39966222572E+03 -0.66594991054E+03  0.10471173784E+04  0.25500000920E-02 0. -1.
</event>
<event>
 5   0  0.1007682E-05  0.2195987E+04  0.7818609E-02  0.8520100E-01
       -1   -1    0    0    0  501  0.00000000000E+00  0.00000000000E+00  0.11083682369E+04  0.11083682369E+04  0.50400001928E-02 0. -1.
        1   -1    0    0  501    0  0.00000000000E+00  0.00000000000E+00 -0.10877161974E+04  0.10877161975E+04  0.50400001928E-02 0.  1.
    10030    2    1    2    0    0  0.00000000000E+00  0.00000000000E+00  0.20652039472E+02  0.21960844344E+04  0.21959873260E+04 0.  0.
        2    1    3    3  502    0  0.78335747263E+02  0.52518327593E+03  0.97142841339E+03  0.11070804510E+04  0.25500000920E-02 0. -1.
       -2    1    3    3    0  502 -0.78335747263E+02 -0.52518327593E+03 -0.95077637392E+03  0.10890039834E+04  0.25500000920E-02 0.  1.
</event>
<event>
 5   0  0.2284329E-05  0.2203608E+04  0.7818609E-02  0.8516928E-01
       -2   -1    0    0    0  501  0.00000000000E+00  0.00000000000E+00  0.16553227001E+04  0.16553227001E+04  0.25500000920E-02 0.  1.
        2   -1    0    0  501    0  0.00000000000E+00  0.00000000000E+00 -0.73337470169E+03  0.73337470169E+03  0.25500000920E-02 0. -1.
    10030    2    1    2    0    0  0.00000000000E+00  0.00000000000E+00  0.92194799838E+03  0.23886974018E+04  0.22036077612E+04 0.  0.
        2    1    3    3  502    0  0.39653808436E+03 -0.24590064592E+03  0.15429401464E+04  0.16119472309E+04  0.25500000920E-02 0.  1.
       -2    1    3    3    0  502 -0.39653808436E+03  0.24590064592E+03 -0.62099214799E+03  0.77675017083E+03  0.25500000920E-02 0. -1.
</event>
<event>
 5   0  0.1049198E-05  0.2200777E+04  0.7818609E-02  0.8518105E-01
        1   -1    0    0  501    0  0.00000000000E+00  0.00000000000E+00  0.13645588962E+04  0.13645588962E+04  0.50400001928E-02 0. -1.
       -1   -1    0    0    0  501  0.00000000000E+00  0.00000000000E+00 -0.88735985845E+03  0.88735985846E+03  0.50400001928E-02 0.  1.
    10030    2    1    2    0    0  0.00000000000E+00  0.00000000000E+00  0.47719903776E+03  0.22519187547E+04  0.22007769437E+04 0.  0.
        1    1    3    3  502    0 -0.60976013339E+03  0.56044678745E+03  0.97996834956E+03  0.12830611786E+04  0.50400001928E-02 0. -1.
       -1    1    3    3    0  502  0.60976013339E+03 -0.56044678745E+03 -0.50276931181E+03  0.96885757609E+03  0.50400001928E-02 0.  1.
</event>
<event>
 5   0  0.1007682E-05  0.2187029E+04  0.7818609E-02  0.8523846E-01
        1   -1    0    0  501    0  0.00000000000E+00  0.00000000000E+00  0.16377403747E+04  0.16377403747E+04  0.50400001928E-02 0.  1.
       -1   -1    0    0    0  501  0.00000000000E+00  0.00000000000E+00 -0.73013672097E+03  0.73013672099E+03  0.50400001928E-02 0. -1.
    10030    2    1    2    0    0  0.00000000000E+00  0.00000000000E+00  0.90760365373E+03  0.23678770957E+04  0.21870293889E+04 0.  0.
        2    1    3    3  502    0  0.80258274506E+03 -0.40974471296E+03 -0.21689410653E+03  0.92686182677E+03  0.25500000920E-02 0. -1.
       -2    1    3    3    0  502 -0.80258274506E+03  0.40974471296E+03  0.11244977603E+04  0.14410152689E+04  0.25500000920E-02 0.  1.
</event>
<event>
 5   0  0.1005538E-05  0.2184911E+04  0.7818609E-02  0.8524735E-01
       -1   -1    0    0    0  501  0.00000000000E+00  0.00000000000E+00  0.95593012896E+03  0.95593012897E+03  0.50400001928E-02 0. -1.
        1   -1    0    0  501    0  0.00000000000E+00  0.00000000000E+00 -0.12484788412E+04  0.12484788412E+04  0.50400001928E-02 0.  1.
    10030    2    1    2    0    0  0.00000000000E+00  0.00000000000E+00 -0.29254871226E+03  0.22044089702E+04  0.21849105608E+04 0.  0.
        3    1    3    3  502    0  0.57723029492E+03 -0.59450633512E+03  0.57199596249E+03  0.10068823105E+04  0.10100000352E+00 0. -1.
       -3    1    3    3    0  502 -0.57723029492E+03  0.59450633512E+03 -0.86454467476E+03  0.11975266597E+04  0.10100000352E+00 0.  1.
</event>
<event>
 5   0  0.1071208E-05  0.2207690E+04  0.7818609E-02  0.8515234E-01
        1   -1    0    0  501    0  0.00000000000E+00  0.00000000000E+00  0.69938409557E+03  0.69938409559E+03  0.50400001928E-02 0.  1.
       -1   -1    0    0    0  501  0.00000000000E+00  0.00000000000E+00 -0.17422093429E+04  0.17422093429E+04  0.50400001928E-02 0. -1.
    10030    2    1    2    0    0  0.00000000000E+00  0.00000000000E+00 -0.10428252473E+04  0.24415934385E+04  0.22076897478E+04 0.  0.
        4    1    3    3  502    0  0.69364965556E+03 -0.36160331296E+03  0.33992618399E+03  0.85291161562E+03  0.12699999809E+01 0.  1.
       -4    1    3    3    0  502 -0.69364965556E+03  0.36160331296E+03 -0.13827514313E+04  0.15886818229E+04  0.12699999809E+01 0. -1.
</event>
<event>
 5   0  0.2298329E-05  0.2195394E+04  0.7818609E-02  0.8520348E-01
        2   -1    0    0  501    0  0.00000000000E+00  0.00000000000E+00  0.21730584956E+04  0.21730584956E+04  0.25500000920E-02 0.  1.
       -2   -1    0    0    0  501  0.00000000000E+00  0.00000000000E+00 -0.55448977308E+03  0.55448977309E+03  0.25500000920E-02 0. -1.
    10030    2    1    2    0    0  0.00000000000E+00  0.00000000000E+00  0.16185687226E+04  0.27275482687E+04  0.21953940076E+04 0.  0.
        4    1    3    3  502    0  0.68356144297E+03  0.74214570935E+03  0.13463969324E+04  0.16825049220E+04  0.12699999809E+01 0.  1.
       -4    1    3    3    0  502 -0.68356144297E+03 -0.74214570935E+03  0.27217179018E+03  0.10450433467E+04  0.12699999809E+01 0. -1.
</event>
<event>
 5   0  0.2284329E-05  0.2197547E+04  0.7818609E-02  0.8519450E-01
       -2   -1    0    0    0  501  0.00000000000E+00  0.00000000000E+00  0.83400688011E+03  0.83400688011E+03  0.25500000920E-02 0. -1.
        2   -1    0    0  501    0  0.00000000000E+00  0.00000000000E+00 -0.14475938576E+04  0.14475938576E+04  0.25500000920E-02 0.  1.
    10030    2    1    2    0    0  0.00000000000E+00  0.00000000000E+00 -0.61358697749E+03  0.22816007377E+04  0.21975470296E+04 0.  0.
        2    1    3    3  502    0  0.92448197641E+03  0.58559714346E+03 -0.40911394394E+03  0.11683172336E+04  0.25500000920E-02 0.  1.
       -2    1    3    3    0  502 -0.92448197641E+03 -0.58559714346E+03 -0.20447303354E+03  0.11132835041E+04  0.25500000920E-02 0. -1.
</event>
<event>
 5   0  0.2289708E-05  0.2254004E+04  0.7818609E-02  0.8496281E-01
       -2   -1    0    0    0  501  0.00000000000E+00  0.00000000000E+00  0.56736904501E+03  0.56736904502E+03  0.25500000920E-02 0. -1.
        2   -1    0    0  501    0  0.00000000000E+00  0.00000000000E+00 -0.22386372212E+04  0.22386372212E+04  0.25500000920E-02 0.  1.
    10030    2    1    2    0    0  0.00000000000E+00  0.00000000000E+00 -0.16712681762E+04  0.28060062663E+04  0.22540039595E+04 0.  0.
        5    1    3    3  502    0  0.66134319351E+03 -0.52961769615E+02  0.29847573818E+03  0.72752293773E+03  0.46999998093E+01 0. -1.
       -5    1    3    3    0  502 -0.66134319351E+03  0.52961769615E+02 -0.19697439144E+04  0.20784833285E+04  0.46999998093E+01 0.  1.
</event>
<event>
 5   0  0.2319707E-05  0.2196893E+04  0.7818609E-02  0.8519722E-01
       -2   -1    0    0    0  501  0.00000000000E+00  0.00000000000E+00  0.71644752894E+03  0.71644752895E+03  0.25500000920E-02 0.  1.
        2   -1    0    0  501    0  0.00000000000E+00  0.00000000000E+00 -0.16841217189E+04  0.16841217189E+04  0.25500000920E-02 0. -1.
    10030    2    1    2    0    0  0.00000000000E+00  0.00000000000E+00 -0.96767418992E+03  0.24005692478E+04  0.21968931189E+04 0.  0.
        3    1    3    3  502    0 -0.60518065256E+03  0.84294842269E+03 -0.90189318293E+02  0.10416044301E+04  0.10100000352E+00 0.  1.
       -3    1    3    3    0  502  0.60518065256E+03 -0.84294842269E+03 -0.87748487163E+03  0.13589648177E+04  0.10100000352E+00 0. -1.
</event>
<event>
 5   0  0.2229552E-05  0.2198441E+04  0.7818609E-02  0.8519077E-01
        2   -1    0    0  501    0  0.00000000000E+00  0.00000000000E+00  0.24206285354E+04  0.24206285354E+04  0.25500000920E-02 0.  1.
       -2   -1    0    0    0  501  0.00000000000E+00  0.00000000000E+00 -0.49916182947E+03  0.49916182948E+03  0.25500000920E-02 0. -1.
    10030    2    1    2    0    0  0.00000000000E+00  0.00000000000E+00  0.19214667059E+04  0.29197903649E+04  0.21984406912E+04 0.  0.
        1    1    3    3  502    0  0.69397604821E+03 -0.78407887360E+03  0.14050142616E+04  0.17522692461E+04  0.50400001928E-02 0.  1.
       -1    1    3    3    0  502 -0.69397604821E+03  0.78407887360E+03  0.51645244434E+03  0.11675211188E+04  0.50400001928E-02 0. -1.
</event>
<event>
 5   0  0.1005538E-05  0.2223831E+04  0.7818609E-02  0.8508574E-01
       -1   -1    0    0    0  501  0.00000000000E+00  0.00000000000E+00  0.79054827964E+03  0.79054827966E+03  0.50400001928E-02 0. -1.
        1   -1    0    0  501    0  0.00000000000E+00  0.00000000000E+00 -0.15639218241E+04  0.15639218241E+04  0.50400001928E-02 0.  1.
    10030    2    1    2    0    0  0.00000000000E+00  0.00000000000E+00 -0.77337354448E+03  0.23544701038E+04  0.22238306658E+04 0.  0.
        3    1    3    3  502    0 -0.10096163212E+04  0.23256333935E+03  0.40690888665E+02  0.10368541756E+04  0.10100000352E+00 0. -1.
       -3    1    3    3    0  502  0.10096163212E+04 -0.23256333935E+03 -0.81406443315E+03  0.13176159282E+04  0.10100000352E+00 0.  1.
</event>
<event>
 5   0  0.1005538E-05  0.2151531E+04  0.7818609E-02  0.8538877E-01
       -1   -1    0    0    0  501  0.00000000000E+00  0.00000000000E+00  0.14378318979E+04  0.14378318979E+04  0.50400001928E-02 0.  1.
        1   -1    0    0  501    0  0.00000000000E+00  0.00000000000E+00 -0.80487273055E+03  0.80487273057E+03  0.50400001928E-02 0. -1.
    10030    2    1    2    0    0  0.00000000000E+00  0.00000000000E+00  0.63295916733E+03  0.22427046285E+04  0.21515312554E+04 0.  0.
        3    1    3    3  502    0 -0.19318287326E+03 -0.82438556398E+03  0.10081811083E+04  0.13165714329E+04  0.10100000352E+00 0.  1.
       -3    1    3    3    0  502  0.19318287326E+03  0.82438556398E+03 -0.37522194102E+03  0.92613319552E+03  0.10100000352E+00 0. -1.
</event>
<event>
 5   0  0.2289708E-05  0.2206193E+04  0.7818609E-02  0.8515855E-01
        2   -1    0    0  501    0  0.00000000000E+00  0.00000000000E+00  0.23887710335E+04  0.23887710335E+04  0.25500000920E-02 0.  1.
       -2   -1    0    0    0  501  0.00000000000E+00  0.00000000000E+00 -0.50939256522E+03  0.50939256522E+03  0.25500000920E-02 0. -1.
    10030    2    1    2    0    0  0.00000000000E+00  0.00000000000E+00  0.18793784683E+04  0.28981635987E+04  0.22061932866E+04 0.  0.
        5    1    3    3  502    0 -0.44403623462E+03  0.64418990799E+03  0.19611738584E+04  0.21114861610E+04  0.46999998093E+01 0.  1.
       -5    1    3    3    0  502  0.44403623462E+03 -0.64418990799E+03 -0.81795390100E+02  0.78667743774E+03  0.46999998093E+01 0. -1.
</event>
<event>
 5   0  0.1071208E-05  0.2195329E+04  0.7818609E-02  0.8520375E-01
        1   -1    0    0  501    0  0.00000000000E+00  0.00000000000E+00  0.25580976754E+04  0.25580976754E+04  0.50400001928E-02 0.  1.
       -1   -1    0    0    0  501  0.00000000000E+00  0.00000000000E+00 -0.47100123199E+03  0.47100123201E+03  0.50400001928E-02 0. -1.
    10030    2    1    2    0    0  0.00000000000E+00  0.00000000000E+00  0.20870964435E+04  0.30290989075E+04  0.21953288198E+04 0.  0.
        4    1    3    3  502    0  0.70633730674E+03  0.77012828819E+03  0.58002085503E+03  0.11951718606E+04  0.12699999809E+01 0. -1.
       -4    1    3    3    0  502 -0.70633730674E+03 -0.77012828819E+03  0.15070755884E+04  0.18339270469E+04  0.12699999809E+01 0.  1.
</event>
<event>
 5   0  0.2229552E-05  0.2210341E+04  0.7818609E-02  0.8514136E-01
        2   -1    0    0  501    0  0.00000000000E+00  0.00000000000E+00  0.21663098611E+04  0.21663098611E+04  0.25500000920E-02 0. -1.
       -2   -1    0    0    0  501  0.00000000000E+00  0.00000000000E+00 -0.56381658726E+03  0.56381658726E+03  0.25500000920E-02 0.  1.
    10030    2    1    2    0    0  0.00000000000E+00  0.00000000000E+00  0.16024932739E+04  0.27301264484E+04  0.22103406370E+04 0.  0.
        1    1    3    3  502    0 -0.46456603936E+02 -0.50459181230E+03 -0.41187404866E+03  0.65300179561E+03  0.50400001928E-02 0.  1.
       -1    1    3    3    0  502  0.46456603936E+02  0.50459181230E+03  0.20143673225E+04  0.20771246528E+04  0.50400001928E-02 0. -1.
</event>
<event>
 5   0  0.2319707E-05  0.2207178E+04  0.7818609E-02  0.8515446E-01
       -2   -1    0    0    0  501  0.00000000000E+00  0.00000000000E+00  0.92866287407E+03  0.92866287408E+03  0.25500000920E-02 0. -1.
        2   -1    0    0  501    0  0.00000000000E+00  0.00000000000E+00 -0.13114653284E+04  0.13114653284E+04  0.25500000920E-02 0.  1.
    10030    2    1    2    0    0  0.00000000000E+00  0.00000000000E+00 -0.38280245432E+03  0.22401282025E+04  0.22071784351E+04 0.  0.
        3    1    3    3  502    0 -0.62102185768E+03  0.60797129680E+03 -0.88171069839E+03  0.12380270640E+04  0.10100000352E+00 0.  1.
       -3    1    3    3    0  502  0.62102185768E+03 -0.60797129680E+03  0.49890824407E+03  0.10021011384E+04  0.10100000352E+00 0. -1.
</event>
<event>
 5   0  0.1005538E-05  0.2203520E+04  0.7818609E-02  0.8516964E-01
        1   -1    0    0  501    0  0.00000000000E+00  0.00000000000E+00  0.13503799892E+04  0.13503799892E+04  0.50400001928E-02 0.  1.
       -1   -1    0    0    0  501  0.00000000000E+00  0.00000000000E+00 -0.89891386026E+03  0.89891386027E+03  0.50400001928E-02 0. -1.
    10030    2    1    2    0    0  0.00000000000E+00  0.00000000000E+00  0.45146612895E+03  0.22492938495E+04  0.22035201737E+04 0.  0.
        3    1    3    3  502    0 -0.76761818196E+02 -0.51461826406E+03 -0.76560039960E+03  0.92567181901E+03  0.10100000352E+00 0. -1.
       -3    1    3    3    0  502  0.76761818196E+02  0.51461826406E+03  0.12170665286E+04  0.13236220305E+04  0.10100000352E+00 0.  1.
</event>
<event>
 5   0  0.2319707E-05  0.2217562E+04  0.7818609E-02  0.8511154E-01
        2   -1    0    0  501    0  0.00000000000E+00  0.00000000000E+00  0.27290799283E+04  0.27290799283E+04  0.25500000920E-02 0. -1.
       -2   -1    0    0    0  501  0.00000000000E+00  0.00000000000E+00 -0.45047967004E+03  0.45047967004E+03  0.25500000920E-02 0.  1.
    10030    2    1    2    0    0  0.00000000000E+00  0.00000000000E+00  0.22786002583E+04  0.31795595983E+04  0.22175617472E+04 0.  0.
        3    1    3    3  502    0  0.67278799358E+02  0.60684641437E+02  0.27237632983E+04  0.27252698175E+04  0.10100000352E+00 0. -1.
       -3    1    3    3    0  502 -0.67278799358E+02 -0.60684641437E+02 -0.44516304007E+03  0.45428978086E+03  0.10100000352E+00 0.  1.
</event>
<event>
 5   0  0.2229552E-05  0.2187584E+04  0.7818609E-02  0.8523614E-01
        2   -1    0    0  501    0  0.00000000000E+00  0.00000000000E+00  0.10208135911E+04  0.10208135911E+04  0.25500000920E-02 0.  1.
       -2   -1    0    0    0  501  0.00000000000E+00  0.00000000000E+00 -0.11719877722E+04  0.11719877722E+04  0.25500000920E-02 0. -1.
    10030    2    1    2    0    0  0.00000000000E+00  0.00000000000E+00 -0.15117418112E+03  0.21928013633E+04  0.21875840980E+04 0.  0.
        1    1    3    3  502    0 -0.10910894566E+04 -0.61436775979E+02 -0.29321116480E+02  0.10932110536E+04  0.50400001928E-02 0.  1.
       -1    1    3    3    0  502  0.10910894566E+04  0.61436775979E+02 -0.12185306464E+03  0.10995903097E+04  0.50400001928E-02 0. -1.
</event>
<event>
 5   0  0.1007682E-05  0.2192296E+04  0.7818609E-02  0.8521641E-01
       -1   -1    0    0    0  501  0.00000000000E+00  0.00000000000E+00  0.71468700550E+03  0.71468700552E+03  0.50400001928E-02 0.  1.
        1   -1    0    0  501    0  0.00000000000E+00  0.00000000000E+00 -0.16812123653E+04  0.16812123653E+04  0.50400001928E-02 0. -1.
    10030    2    1    2    0    0  0.00000000000E+00  0.00000000000E+00 -0.96652535982E+03  0.23958993708E+04  0.21922961762E+04 0.  0.
        2    1    3    3  502    0  0.83587928082E+03  0.49038537443E+03  0.76527546964E+02  0.97212573930E+03  0.25500000920E-02 0.  1.
       -2    1    3    3    0  502 -0.83587928082E+03 -0.49038537443E+03 -0.10430529068E+04  0.14237736316E+04  0.25500000920E-02 0. -1.
</event>
<event>
 5   0  0.2298329E-05  0.2219752E+04  0.7818609E-02  0.8510251E-01
       -2   -1    0    0    0  501  0.00000000000E+00  0.00000000000E+00  0.10778208888E+04  0.10778208888E+04  0.25500000920E-02 0.  1.
        2   -1    0    0  501    0  0.00000000000E+00  0.00000000000E+00 -0.11428849229E+04  0.11428849229E+04  0.25500000920E-02 0. -1.
    10030    2    1    2    0    0  0.00000000000E+00  0.00000000000E+00 -0.65064034129E+02  0.22207058117E+04  0.22197524577E+04 0.  0.
        4    1    3    3  502    0 -0.51019755505E+03  0.84683722053E+03  0.47205431585E+03  0.10955691276E+04  0.12699999809E+01 0.  1.
       -4    1    3    3    0  502  0.51019755505E+03 -0.84683722053E+03 -0.53711834998E+03  0.11251366842E+04  0.12699999809E+01 0. -1.
</event>
<event>
 5   0  0.2284329E-05  0.2201131E+04  0.7818609E-02  0.8517957E-01
        2   -1    0    0  501    0  0.00000000000E+00  0.00000000000E+00  0.10306337502E+04  0.10306337502E+04  0.25500000920E-02 0.  1.
       -2   -1    0    0    0  501  0.00000000000E+00  0.00000000000E+00 -0.11752426994E+04  0.11752426994E+04  0.25500000920E-02 0. -1.
    10030    2    1    2    0    0  0.00000000000E+00  0.00000000000E+00 -0.14460894921E+03  0.22058764496E+04  0.22011313370E+04 0.  0.
        2    1    3    3  502    0  0.83585282323E+02 -0.15841035977E+03  0.10159298393E+04  0.10315976832E+04  0.25500000920E-02 0.  1.
       -2    1    3    3    0  502 -0.83585282323E+02  0.15841035977E+03 -0.11605387885E+04  0.11742787664E+04  0.25500000920E-02 0. -1.
</event>
<event>
 5   0  0.1005538E-05  0.2196227E+04  0.7818609E-02  0.8520000E-01
       -1   -1    0    0    0  501  0.00000000000E+00  0.00000000000E+00  0.54006168947E+03  0.54006168949E+03  0.50400001928E-02 0.  1.
        1   -1    0    0  501    0  0.00000000000E+00  0.00000000000E+00 -0.22328067317E+04  0.22328067317E+04  0.50400001928E-02 0. -1.
    10030    2    1    2    0    0  0.00000000000E+00  0.00000000000E+00 -0.16927450422E+04  0.27728684212E+04  0.21962271065E+04 0.  0.
        3    1    3    3  502    0  0.28223660705E+03 -0.38477454727E+03 -0.20950592708E+04  0.21487164338E+04  0.10100000352E+00 0. -1.
       -3    1    3    3    0  502 -0.28223660705E+03  0.38477454727E+03  0.40231422859E+03  0.62415198735E+03  0.10100000352E+00 0.  1.
</event>
<event>
 5   0  0.1071208E-05  0.2196536E+04  0.7818609E-02  0.8519871E-01
       -1   -1    0    0    0  501  0.00000000000E+00  0.00000000000E+00  0.10685398006E+04  0.10685398006E+04  0.50400001928E-02 0. -1.
        1   -1    0    0  501    0  0.00000000000E+00  0.00000000000E+00 -0.11288230891E+04  0.11288230891E+04  0.50400001928E-02 0.  1.
    10030    2    1    2    0    0  0.00000000000E+00  0.00000000000E+00 -0.60283288457E+02  0.21973628897E+04  0.21965358167E+04 0.  0.
        4    1    3    3  502    0  0.45226357126E+03 -0.58306910309E+03 -0.84388438817E+03  0.11210059725E+04  0.12699999809E+01 0.  1.
       -4    1    3    3    0  502 -0.45226357126E+03  0.58306910309E+03  0.78360109971E+03  0.10763569172E+04  0.12699999809E+01 0. -1.
</event>
<event>
 5   0  0.1033733E-05  0.2207314E+04  0.7818609E-02  0.8515390E-01
       -1   -1    0    0    0  501  0.00000000000E+00  0.00000000000E+00  0.90394512770E+03  0.90394512771E+03  0.50400001928E-02 0.  1.
        1   -1    0    0  501    0  0.00000000000E+00  0.00000000000E+00 -0.13474914513E+04  0.13474914513E+04  0.50400001928E-02 0. -1.
    10030    2    1    2    0    0  0.00000000000E+00  0.00000000000E+00 -0.44354632362E+03  0.22514365790E+04  0.22073135999E+04 0.  0.
        5    1    3    3  502    0  0.58261543386E+03 -0.28350127711E+03 -0.11330653930E+04  0.13052482495E+04  0.46999998093E+01 0. -1.
       -5    1    3    3    0  502 -0.58261543386E+03  0.28350127711E+03  0.68951906942E+03  0.94618832956E+03  0.46999998093E+01 0.  1.
</event>
<event>
 5   0  0.1071208E-05  0.2196817E+04  0.7818609E-02  0.8519754E-01
       -1   -1    0    0    0  501  0.00000000000E+00  0.00000000000E+00  0.56762438686E+03  0.56762438688E+03  0.50400001928E-02 0.  1.
        1   -1    0    0  501    0  0.00000000000E+00  0.00000000000E+00 -0.21255265801E+04  0.21255265801E+04  0.50400001928E-02 0. -1.
    10030    2    1    2    0    0  0.00000000000E+00  0.00000000000E+00 -0.15579021933E+04  0.26931509670E+04  0.21968165348E+04 0.  0.
        4    1    3    3  502    0  0.27458111143E+03 -0.63073691667E+03 -0.18287362529E+04  0.19538428137E+04  0.12699999809E+01 0. -1.
       -4    1    3    3    0  502 -0.27458111143E+03  0.63073691667E+03  0.27083405968E+03  0.73930815334E+03  0.12699999809E+01 0.  1.
</event>
<event>
 5   0  0.1049198E-05  0.2307965E+04  0.7818609E-02  0.8474787E-01
        1   -1    0    0  501    0  0.00000000000E+00  0.00000000000E+00  0.12658227207E+04  0.12658227207E+04  0.50400001928E-02 0.  1.
       -1   -1    0    0    0  501  0.00000000000E+00  0.00000000000E+00 -0.10520241237E+04  0.10520241238E+04  0.50400001928E-02 0. -1.
    10030    2    1    2    0    0  0.00000000000E+00  0.00000000000E+00  0.21379859694E+03  0.23178468445E+04  0.23079653711E+04 0.  0.
        1    1    3    3  502    0  0.86972736117E+02 -0.34085457484E+03  0.12106635409E+04  0.12607348283E+04  0.50400001928E-02 0.  1.
       -1    1    3    3    0  502 -0.86972736117E+02  0.34085457484E+03 -0.99686494400E+03  0.10571120161E+04  0.50400001928E-02 0. -1.
</event>
<event>
 5   0  0.2289708E-05  0.2217665E+04  0.7818609E-02  0.8511111E-01
        2   -1    0    0  501    0  0.00000000000E+00  0.00000000000E+00  0.14819634215E+04  0.14819634215E+04  0.25500000920E-02 0.  1.
       -2   -1    0    0    0  501  0.00000000000E+00  0.00000000000E+00 -0.82964883501E+03  0.82964883502E+03  0.25500000920E-02 0. -1.
    10030    2    1    2    0    0  0.00000000000E+00  0.00000000000E+00  0.65231458652E+03  0.23116122565E+04  0.22176647413E+04 0.  0.
        5    1    3    3  502    0  0.45238641604E+03 -0.91128228991E+03 -0.13342710579E+03  0.10261158628E+04  0.46999998093E+01 0. -1.
       -5    1    3    3    0  502 -0.45238641604E+03  0.91128228991E+03  0.78574169231E+03  0.12854963938E+04  0.46999998093E+01 0.  1.
</event>
<event>
 5   0  0.1071208E-05  0.2202687E+04  0.7818609E-02  0.8517311E-01
       -1   -1    0    0    0  501  0.00000000000E+00  0.00000000000E+00  0.75667841488E+03  0.75667841490E+03  0.50400001928E-02 0.  1.
        1   -1    0    0  501    0  0.00000000000E+00  0.00000000000E+00 -0.16030023062E+04  0.16030023062E+04  0.50400001928E-02 0. -1.
    10030    2    1    2    0    0  0.00000000000E+00  0.00000000000E+00 -0.84632389134E+03  0.23596807211E+04  0.22026867632E+04 0.  0.
        4    1    3    3  502    0 -0.12743923768E+02  0.16593456670E+03  0.74312958749E+03  0.76153784195E+03  0.12699999809E+01 0.  1.
       -4    1    3    3    0  502  0.12743923768E+02 -0.16593456670E+03 -0.15894534788E+04  0.15981428792E+04  0.12699999809E+01 0. -1.
</event>
<event>
 5   0  0.8003875E-06  0.2203499E+04  0.7818609E-02  0.8516973E-01
        4   -1    0    0  501    0  0.00000000000E+00  0.00000000000E+00  0.13460468772E+04  0.13460474763E+04  0.12699999809E+01 0.  1.
       -4   -1    0    0    0  501  0.00000000000E+00  0.00000000000E+00 -0.90178918266E+03  0.90179007694E+03  0.12699999809E+01 0. -1.
    10030    2    1    2    0    0  0.00000000000E+00  0.00000000000E+00  0.44425769455E+03  0.22478375533E+04  0.22034992096E+04 0.  0.
        4    1    3    3  502    0  0.35286070025E+03  0.85125389919E+03 -0.39393240841E+03  0.10021617783E+04  0.12699999809E+01 0. -1.
       -4    1    3    3    0  502 -0.35286070025E+03 -0.85125389919E+03  0.83819010296E+03  0.12456757749E+04  0.12699999809E+01 0.  1.
</event>
<event>
 5   0  0.2319707E-05  0.2181057E+04  0.7818609E-02  0.8526354E-01
       -2   -1    0    0    0  501  0.00000000000E+00  0.00000000000E+00  0.13183319550E+04  0.13183319550E+04  0.25500000920E-02 0.  1.
        2   -1    0    0  501    0  0.00000000000E+00  0.00000000000E+00 -0.90208910858E+03  0.90208910859E+03  0.25500000920E-02 0. -1.
    10030    2    1    2    0    0  0.00000000000E+00  0.00000000000E+00  0.41624284638E+03  0.22204210635E+04  0.21810574482E+04 0.  0.
        3    1    3    3  502    0 -0.12655506025E+03 -0.33766705211E+03 -0.83963622935E+03  0.91379660166E+03  0.10100000352E+00 0. -1.
       -3    1    3    3    0  502  0.12655506025E+03  0.33766705211E+03  0.12558790757E+04  0.13066244619E+04  0.10100000352E+00 0.  1.
</event>
<event>
 5   0  0.2319707E-05  0.2204556E+04  0.7818609E-02  0.8516534E-01
        2   -1    0    0  501    0  0.00000000000E+00  0.00000000000E+00  0.11524399986E+04  0.11524399986E+04  0.25500000920E-02 0. -1.
       -2   -1    0    0    0  501  0.00000000000E+00  0.00000000000E+00 -0.10542991607E+04  0.10542991607E+04  0.25500000920E-02 0.  1.
    10030    2    1    2    0    0  0.00000000000E+00  0.00000000000E+00  0.98140837859E+02  0.22067391593E+04  0.22045557587E+04 0.  0.
        3    1    3    3  502    0  0.58472406363E+03  0.56381038324E+03 -0.69680657296E+03  0.10701980140E+04  0.10100000352E+00 0.  1.
       -3    1    3    3    0  502 -0.58472406363E+03 -0.56381038324E+03  0.79494741082E+03  0.11365411453E+04  0.10100000352E+00 0. -1.
</event>
<event>
 5   0  0.1033733E-05  0.2183303E+04  0.7818609E-02  0.8525410E-01
       -1   -1    0    0    0  501  0.00000000000E+00  0.00000000000E+00  0.53310959221E+03  0.53310959224E+03  0.50400001928E-02 0. -1.
        1   -1    0    0  501    0  0.00000000000E+00  0.00000000000E+00 -0.22353812495E+04  0.22353812495E+04  0.50400001928E-02 0.  1.
    10030    2    1    2    0    0  0.00000000000E+00  0.00000000000E+00 -0.17022716573E+04  0.27684908417E+04  0.21833031731E+04 0.  0.
        5    1    3    3  502    0 -0.89488925962E+03  0.70667867504E+02 -0.63466147680E+02  0.89992820624E+03  0.46999998093E+01 0.  1.
       -5    1    3    3    0  502  0.89488925962E+03 -0.70667867504E+02 -0.16388055096E+04  0.18685626355E+04  0.46999998093E+01 0. -1.
</event>
<event>
 5   0  0.2289708E-05  0.2139602E+04  0.7818609E-02  0.8543996E-01
        2   -1    0    0  501    0  0.00000000000E+00  0.00000000000E+00  0.57729063999E+03  0.57729063999E+03  0.25500000920E-02 0.  1.
       -2   -1    0    0    0  501  0.00000000000E+00  0.00000000000E+00 -0.19824927385E+04  0.19824927385E+04  0.25500000920E-02 0. -1.
    10030    2    1    2    0    0  0.00000000000E+00  0.00000000000E+00 -0.14052020985E+04  0.25597833785E+04  0.21396023011E+04 0.  0.
        5    1    3    3  502    0  0.39033981973E+03 -0.73194025074E+03  0.10560020838E+03  0.83622676322E+03  0.46999998093E+01 0.  1.
       -5    1    3    3    0  502 -0.39033981973E+03  0.73194025074E+03 -0.15108023069E+04  0.17235566152E+04  0.46999998093E+01 0. -1.
</event>
<event>
 5   0  0.2319707E-05  0.2181827E+04  0.7818609E-02  0.8526030E-01
       -2   -1    0    0    0  501  0.00000000000E+00  0.00000000000E+00  0.47215666003E+03  0.47215666004E+03  0.25500000920E-02 0. -1.
        2   -1    0    0  501    0  0.00000000000E+00  0.00000000000E+00 -0.25205446911E+04  0.25205446911E+04  0.25500000920E-02 0.  1.
    10030    2    1    2    0    0  0.00000000000E+00  0.00000000000E+00 -0.20483880311E+04  0.29927013511E+04  0.21818267235E+04 0.  0.
        3    1    3    3  502    0  0.62343637687E+03 -0.12652574786E+03  0.19140799948E+03  0.66431823198E+03  0.10100000352E+00 0. -1.
       -3    1    3    3    0  502 -0.62343637687E+03  0.12652574786E+03 -0.22397960305E+04  0.23283831191E+04  0.10100000352E+00 0.  1.
</event>
<event>
 5   0  0.1005538E-05  0.2189463E+04  0.7818609E-02  0.8522827E-01
        1   -1    0    0  501    0  0.00000000000E+00  0.00000000000E+00  0.12328371620E+04  0.12328371620E+04  0.50400001928E-02 0. -1.
       -1   -1    0    0    0  501  0.00000000000E+00  0.00000000000E+00 -0.97209667562E+03  0.97209667563E+03  0.50400001928E-02 0.  1.
    10030    2    1    2    0    0  0.00000000000E+00  0.00000000000E+00  0.26074048640E+03  0.22049338377E+04  0.21894628627E+04 0.  0.
        3    1    3    3  502    0 -0.96118077427E+03 -0.15880512735E+03 -0.37250713223E+03  0.10430000590E+04  0.10100000352E+00 0.  1.
       -3    1    3    3    0  502  0.96118077427E+03  0.15880512735E+03  0.63324761864E+03  0.11619337787E+04  0.10100000352E+00 0. -1.
</event>
<event>
 5   0  0.1005538E-05  0.2201099E+04  0.7818609E-02  0.8517971E-01
        1   -1    0    0  501    0  0.00000000000E+00  0.00000000000E+00  0.12004666013E+04  0.12004666013E+04  0.50400001928E-02 0.  1.
       -1   -1    0    0    0  501  0.00000000000E+00  0.00000000000E+00 -0.10089487309E+04  0.10089487309E+04  0.50400001928E-02 0. -1.
    10030    2    1    2    0    0  0.00000000000E+00  0.00000000000E+00  0.19151787042E+03  0.22094153323E+04  0.22010990472E+04 0.  0.
        3    1    3    3  502    0 -0.90755370730E+03  0.32058409748E+02  0.71982149552E+03  0.11588030328E+04  0.10100000352E+00 0.  1.
       -3    1    3    3    0  502  0.90755370730E+03 -0.32058409748E+02 -0.52830362509E+03  0.10506122994E+04  0.10100000352E+00 0. -1.
</event>
<event>
 5   0  0.1071208E-05  0.2200693E+04  0.7818609E-02  0.8518140E-01
        1   -1    0    0  501    0  0.00000000000E+00  0.00000000000E+00  0.22913758683E+04  0.22913758683E+04  0.50400001928E-02 0.  1.
       -1   -1    0    0    0  501  0.00000000000E+00  0.00000000000E+00 -0.52839967808E+03  0.52839967810E+03  0.50400001928E-02 0. -1.
    10030    2    1    2    0    0  0.00000000000E+00  0.00000000000E+00  0.17629761902E+04  0.28197755464E+04  0.22006928647E+04 0.  0.
        4    1    3    3  502    0 -0.89913262500E+03 -0.34513827840E+03  0.15633592265E+04  0.18362063045E+04  0.12699999809E+01 0. -1.
       -4    1    3    3    0  502  0.89913262500E+03  0.34513827840E+03  0.19961696368E+03  0.98356924192E+03  0.12699999809E+01 0.  1.
</event>
<event>
 5   0  0.2229552E-05  0.2133172E+04  0.7818609E-02  0.8546770E-01
       -2   -1    0    0    0  501  0.00000000000E+00  0.00000000000E+00  0.76158741616E+03  0.76158741616E+03  0.25500000920E-02 0. -1.
        2   -1    0    0  501    0  0.00000000000E+00  0.00000000000E+00 -0.14937296671E+04  0.14937296671E+04  0.25500000920E-02 0.  1.
    10030    2    1    2    0    0  0.00000000000E+00  0.00000000000E+00 -0.73214225095E+03  0.22553170833E+04  0.21331720208E+04 0.  0.
        1    1    3    3  502    0 -0.90158274984E+03 -0.43521847404E+03  0.22878574905E+02  0.10013940304E+04  0.50400001928E-02 0. -1.
       -1    1    3    3    0  502  0.90158274984E+03  0.43521847404E+03 -0.75502082586E+03  0.12539230528E+04  0.50400001928E-02 0.  1.
</event>
<event>
 5   0  0.8003875E-06  0.2148087E+04  0.7818609E-02  0.8540352E-01
       -4   -1    0    0    0  501  0.00000000000E+00  0.00000000000E+00  0.12739798645E+04  0.12739804976E+04  0.12699999809E+01 0.  1.
        4   -1    0    0  501    0  0.00000000000E+00  0.00000000000E+00 -0.90548357565E+03  0.90548446628E+03  0.12699999809E+01 0. -1.
    10030    2    1    2    0    0  0.00000000000E+00  0.00000000000E+00  0.36849628890E+03  0.21794649638E+04  0.21480870591E+04 0.  0.
        2    1    3    3  502    0 -0.46802885145E+03 -0.96245530618E+03  0.92381168792E+02  0.10741999360E+04  0.25500000920E-02 0. -1.
       -2    1    3    3    0  502  0.46802885145E+03  0.96245530618E+03  0.27611512011E+03  0.11052650278E+04  0.25500000920E-02 0.  1.
</event>
<event>
 5   0  0.2284329E-05  0.2209694E+04  0.7818609E-02  0.8514404E-01
       -2   -1    0    0    0  501  0.00000000000E+00  0.00000000000E+00  0.13268236846E+04  0.13268236846E+04  0.25500000920E-02 0. -1.
        2   -1    0    0  501    0  0.00000000000E+00  0.00000000000E+00 -0.92000679061E+03  0.92000679061E+03  0.25500000920E-02 0.  1.
    10030    2    1    2    0    0  0.00000000000E+00  0.00000000000E+00  0.40681689394E+03  0.22468304752E+04  0.22096939152E+04 0.  0.
        2    1    3    3  502    0  0.88017082271E+03  0.18166858048E+02 -0.47538572966E+03  0.10005110213E+04  0.25500000920E-02 0.  1.
       -2    1    3    3    0  502 -0.88017082271E+03 -0.18166858048E+02  0.88220262360E+03  0.12463194538E+04  0.25500000920E-02 0. -1.
</event>
<event>
 5   0  0.2319707E-05  0.2193117E+04  0.7818609E-02  0.8521299E-01
        2   -1    0    0  501    0  0.00000000000E+00  0.00000000000E+00  0.69216583851E+03  0.69216583851E+03  0.25500000920E-02 0.  1.
       -2   -1    0    0    0  501  0.00000000000E+00  0.00000000000E+00 -0.17372138486E+04  0.17372138486E+04  0.25500000920E-02 0. -1.
    10030    2    1    2    0    0  0.00000000000E+00  0.00000000000E+00 -0.10450480101E+04  0.24293796871E+04  0.21931165771E+04 0.  0.
        3    1    3    3  502    0 -0.86954252985E+02  0.26879984172E+03  0.65115993805E+03  0.70980537625E+03  0.10100000352E+00 0.  1.
       -3    1    3    3    0  502  0.86954252985E+02 -0.26879984172E+03 -0.16962079482E+04  0.17195743109E+04  0.10100000352E+00 0. -1.
</event>
<event>
 5   0  0.1007682E-05  0.2198074E+04  0.7818609E-02  0.8519230E-01
        1   -1    0    0  501    0  0.00000000000E+00  0.00000000000E+00  0.14373861698E+04  0.14373861698E+04  0.50400001928E-02 0. -1.
       -1   -1    0    0    0  501  0.00000000000E+00  0.00000000000E+00 -0.84033231920E+03  0.84033231921E+03  0.50400001928E-02 0.  1.
    10030    2    1    2    0    0  0.00000000000E+00  0.00000000000E+00  0.59705385056E+03  0.22777184890E+04  0.21980737509E+04 0.  0.
        2    1    3    3  502    0  0.92832145082E+03  0.58821516188E+03  0.28794612423E+03  0.11360857200E+04  0.25500000920E-02 0.  1.
       -2    1    3    3    0  502 -0.92832145082E+03 -0.58821516188E+03  0.30910772633E+03  0.11416327690E+04  0.25500000920E-02 0. -1.
</event>
<event>
 5   0  0.1049198E-05  0.2322240E+04  0.7818609E-02  0.8469204E-01
        1   -1    0    0  501    0  0.00000000000E+00  0.00000000000E+00  0.10916724726E+04  0.10916724726E+04  0.50400001928E-02 0. -1.
       -1   -1    0    0    0  501  0.00000000000E+00  0.00000000000E+00 -0.12349853560E+04  0.12349853560E+04  0.50400001928E-02 0.  1.
    10030    2    1    2    0    0  0.00000000000E+00  0.00000000000E+00 -0.14331288340E+03  0.23266578286E+04  0.23222398818E+04 0.  0.
        1    1    3    3  502    0 -0.27221910978E+03  0.11270050403E+04 -0.86407396499E+01  0.11594473973E+04  0.50400001928E-02 0. -1.
       -1    1    3    3    0  502  0.27221910978E+03 -0.11270050403E+04 -0.13467214375E+03  0.11672104313E+04  0.50400001928E-02 0.  1.
</event>
<event>
 5   0  0.2319707E-05  0.2207101E+04  0.7818609E-02  0.8515478E-01
       -2   -1    0    0    0  501  0.00000000000E+00  0.00000000000E+00  0.44478787305E+03  0.44478787306E+03  0.25500000920E-02 0.  1.
        2   -1    0    0  501    0  0.00000000000E+00  0.00000000000E+00 -0.27379878383E+04  0.27379878383E+04  0.25500000920E-02 0. -1.
    10030    2    1    2    0    0  0.00000000000E+00  0.00000000000E+00 -0.22931999653E+04  0.31827757114E+04  0.22071010734E+04 0.  0.
        3    1    3    3  502    0  0.56245369570E+03  0.81132426536E+03 -0.43540982935E+03  0.10789731012E+04  0.10100000352E+00 0.  1.
       -3    1    3    3    0  502 -0.56245369570E+03 -0.81132426536E+03 -0.18577901359E+04  0.21038026102E+04  0.10100000352E+00 0. -1.
</event>
<event>
 5   0  0.2289708E-05  0.2201772E+04  0.7818609E-02  0.8517691E-01
        2   -1    0    0  501    0  0.00000000000E+00  0.00000000000E+00  0.22462709412E+04  0.22462709413E+04  0.25500000920E-02 0.  1.
       -2   -1    0    0    0  501  0.00000000000E+00  0.00000000000E+00 -0.53953846640E+03  0.53953846640E+03  0.25500000920E-02 0. -1.
    10030    2    1    2    0    0  0.00000000000E+00  0.00000000000E+00  0.17067324749E+04  0.27858094077E+04  0.22017716310E+04 0.  0.
        5    1    3    3  502    0  0.10089508007E+04  0.36066948797E+03  0.53362049052E+03  0.11970117442E+04  0.46999998093E+01 0. -1.
       -5    1    3    3    0  502 -0.10089508007E+04 -0.36066948797E+03  0.11731119843E+04  0.15887976635E+04  0.46999998093E+01 0.  1.
</event>
<event>
 5   0  0.1005538E-05  0.2230864E+04  0.7818609E-02  0.8505690E-01
        1   -1    0    0  501    0  0.00000000000E+00  0.00000000000E+00  0.97850998396E+03  0.97850998397E+03  0.50400001928E-02 0.  1.
       -1   -1    0    0    0  501  0.00000000000E+00  0.00000000000E+00 -0.12715137791E+04  0.12715137791E+04  0.50400001928E-02 0. -1.
    10030    2    1    2    0    0  0.00000000000E+00  0.00000000000E+00 -0.29300379517E+03  0.22500237631E+04  0.22308643416E+04 0.  0.
        3    1    3    3  502    0 -0.32339601164E+03  0.64453984266E+01 -0.12231728530E+04  0.12652187013E+04  0.10100000352E+00 0. -1.
       -3    1    3    3    0  502  0.32339601164E+03 -0.64453984266E+01  0.93016905783E+03  0.98480506185E+03  0.10100000352E+00 0.  1.
</event>
<event>
 5   0  0.1007682E-05  0.2248775E+04  0.7818609E-02  0.8498397E-01
       -1   -1    0    0    0  501  0.00000000000E+00  0.00000000000E+00  0.15339326023E+04  0.15339326023E+04  0.50400001928E-02 0.  1.
        1   -1    0    0  501    0  0.00000000000E+00  0.00000000000E+00 -0.82418696903E+03  0.82418696905E+03  0.50400001928E-02 0. -1.
    10030    2    1    2    0    0  0.00000000000E+00  0.00000000000E+00  0.70974563330E+03  0.23581195714E+04  0.22487750108E+04 0.  0.
        2    1    3    3  502    0 -0.31175059121E+03  0.83903150382E+03  0.10684651205E+04  0.13938364356E+04  0.25500000920E-02 0.  1.
       -2    1    3    3    0  502  0.31175059121E+03 -0.83903150382E+03 -0.35871948715E+03  0.96428313581E+03  0.25500000920E-02 0. -1.
</event>
<event>
 5   0  0.1007682E-05  0.2200331E+04  0.7818609E-02  0.8518290E-01
        1   -1    0    0  501    0  0.00000000000E+00  0.00000000000E+00  0.24290931654E+04  0.24290931654E+04  0.50400001928E-02 0. -1.
       -1   -1    0    0    0  501  0.00000000000E+00  0.00000000000E+00 -0.49827818355E+03  0.49827818358E+03  0.50400001928E-02 0.  1.
    10030    2    1    2    0    0  0.00000000000E+00  0.00000000000E+00  0.19308149819E+04  0.29273713490E+04  0.22003310026E+04 0.  0.
        2    1    3    3  502    0 -0.45093325066E+03  0.41803576459E+03 -0.24832163049E+03  0.66314276683E+03  0.25500000920E-02 0.  1.
       -2    1    3    3    0  502  0.45093325066E+03 -0.41803576459E+03  0.21791366124E+04  0.22642285822E+04  0.25500000920E-02 0. -1.
</event>
<event>
 5   0  0.2298329E-05  0.2189126E+04  0.7818609E-02  0.8522968E-01
        2   -1    0    0  501    0  0.00000000000E+00  0.00000000000E+00  0.17202869368E+04  0.17202869368E+04  0.25500000920E-02 0.  1.
       -2   -1    0    0    0  501  0.00000000000E+00  0.00000000000E+00 -0.69643520926E+03  0.69643520926E+03  0.25500000920E-02 0. -1.
    10030    2    1    2    0    0  0.00000000000E+00  0.00000000000E+00  0.10238517275E+04  0.24167221460E+04  0.21891262118E+04 0.  0.
        4    1    3    3  502    0  0.69745062713E+03 -0.79802302336E+03  0.81383328416E+03  0.13362650749E+04  0.12699999809E+01 0. -1.
       -4    1    3    3    0  502 -0.69745062713E+03  0.79802302336E+03  0.21001844335E+03  0.10804570711E+04  0.12699999809E+01 0.  1.
</event>
<event>
 5   0  0.1033733E-05  0.2207420E+04  0.7818609E-02  0.8515346E-01
       -1   -1    0    0    0  501  0.00000000000E+00  0.00000000000E+00  0.10133237322E+04  0.10133237323E+04  0.50400001928E-02 0. -1.
        1   -1    0    0  501    0  0.00000000000E+00  0.00000000000E+00 -0.12021582274E+04  0.12021582274E+04  0.50400001928E-02 0.  1.
    10030    2    1    2    0    0  0.00000000000E+00  0.00000000000E+00 -0.18883449519E+03  0.22154819597E+04  0.22074197261E+04 0.  0.
        5    1    3    3  502    0 -0.17573219885E+03  0.10809552081E+04  0.43223723410E+02  0.10960092828E+04  0.46999998093E+01 0. -1.
       -5    1    3    3    0  502  0.17573219885E+03 -0.10809552081E+04 -0.23205821860E+03  0.11194726769E+04  0.46999998093E+01 0.  1.
</event>
<event>
 5   0  0.2289708E-05  0.2202380E+04  0.7818609E-02  0.8517438E-01
        2   -1    0    0  501    0  0.00000000000E+00  0.00000000000E+00  0.15381803235E+04  0.15381803235E+04  0.25500000920E-02 0. -1.
       -2   -1    0    0    0  501  0.00000000000E+00  0.00000000000E+00 -0.78834697981E+03  0.78834697981E+03  0.25500000920E-02 0.  1.
    10030    2    1    2    0    0  0.00000000000E+00  0.00000000000E+00  0.74983334370E+03  0.23265273033E+04  0.22023803599E+04 0.  0.
        5    1    3    3  502    0  0.89106449759E+03 -0.22541589183E+03 -0.26572541668E+03  0.95678647055E+03  0.46999998093E+01 0.  1.
       -5    1    3    3    0  502 -0.89106449759E+03  0.22541589183E+03  0.10155587604E+04  0.13697408328E+04  0.46999998093E+01 0. -1.
</event>
<event>
 5   0  0.1007682E-05  0.2200901E+04  0.7818609E-02  0.8518053E-01
       -1   -1    0    0    0  501  0.00000000000E+00  0.00000000000E+00  0.82661352361E+03  0.82661352362E+03  0.50400001928E-02 0.  1.
        1   -1    0    0  501    0  0.00000000000E+00  0.00000000000E+00 -0.14650029193E+04  0.14650029193E+04  0.50400001928E-02 0. -1.
    10030    2    1    2    0    0  0.00000000000E+00  0.00000000000E+00 -0.63838939572E+03  0.22916164430E+04  0.22009009294E+04 0.  0.
        2    1    3    3  502    0  0.10560271299E+04  0.20673176242E+03 -0.79353011826E+02  0.10789940783E+04  0.25500000920E-02 0. -1.
       -2    1    3    3    0  502 -0.10560271299E+04 -0.20673176242E+03 -0.55903638389E+03  0.12126223646E+04  0.25500000920E-02 0.  1.
</event>
<event>
 5   0  0.2229552E-05  0.2194715E+04  0.7818609E-02  0.8520631E-01
       -2   -1    0    0    0  501  0.00000000000E+00  0.00000000000E+00  0.69015902849E+03  0.69015902849E+03  0.25500000920E-02 0.  1.
        2   -1    0    0  501    0  0.00000000000E+00  0.00000000000E+00 -0.17448063495E+04  0.17448063495E+04  0.25500000920E-02 0. -1.
    10030    2    1    2    0    0  0.00000000000E+00  0.00000000000E+00 -0.10546473210E+04  0.24349653780E+04  0.21947153393E+04 0.  0.
        1    1    3    3  502    0  0.10764582509E+04  0.15229423098E+03 -0.69277185356E+03  0.12891426375E+04  0.50400001928E-02 0.  1.
       -1    1    3    3    0  502 -0.10764582509E+04 -0.15229423098E+03 -0.36187546748E+03  0.11458227405E+04  0.50400001928E-02 0. -1.
</event>
<event>
 5   0  0.1033733E-05  0.2195341E+04  0.7818609E-02  0.8520370E-01
       -1   -1    0    0    0  501  0.00000000000E+00  0.00000000000E+00  0.91838044681E+03  0.91838044682E+03  0.50400001928E-02 0.  1.
        1   -1    0    0  501    0  0.00000000000E+00  0.00000000000E+00 -0.13119625545E+04  0.13119625545E+04  0.50400001928E-02 0. -1.
    10030    2    1    2    0    0  0.00000000000E+00  0.00000000000E+00 -0.39358210773E+03  0.22303430014E+04  0.21953412100E+04 0.  0.
        5    1    3    3  502    0  0.19032698794E+03  0.98753035242E+03  0.25001411949E+03  0.10363250982E+04  0.46999998093E+01 0.  1.
       -5    1    3    3    0  502 -0.19032698794E+03 -0.98753035242E+03 -0.64359622721E+03  0.11940179031E+04  0.46999998093E+01 0. -1.
</event>
<event>
 5   0  0.1007682E-05  0.2197691E+04  0.7818609E-02  0.8519390E-01
        1   -1    0    0  501    0  0.00000000000E+00  0.00000000000E+00  0.16773678095E+04  0.16773678095E+04  0.50400001928E-02 0.  1.
       -1   -1    0    0    0  501  0.00000000000E+00  0.00000000000E+00 -0.71985482579E+03  0.71985482581E+03  0.50400001928E-02 0. -1.
    10030    2    1    2    0    0  0.00000000000E+00  0.00000000000E+00  0.95751298368E+03  0.23972226353E+04  0.21976908903E+04 0.  0.
        2    1    3    3  502    0  0.83615321438E+03 -0.30742012692E+03 -0.22292180519E+03  0.91834278110E+03  0.25500000920E-02 0. -1.
       -2    1    3    3    0  502 -0.83615321438E+03  0.30742012692E+03  0.11804347889E+04  0.14788798542E+04  0.25500000920E-02 0.  1.
</event>
<event>
 5   0  0.2284329E-05  0.2198532E+04  0.7818609E-02  0.8519039E-01
        2   -1    0    0  501    0  0.00000000000E+00  0.00000000000E+00  0.12432727326E+04  0.12432727326E+04  0.25500000920E-02 0.  1.
       -2   -1    0    0    0  501  0.00000000000E+00  0.00000000000E+00 -0.97193916615E+03  0.97193916615E+03  0.25500000920E-02 0. -1.
    10030    2    1    2    0    0  0.00000000000E+00  0.00000000000E+00  0.27133356641E+03  0.22152118987E+04  0.21985317491E+04 0.  0.
        2    1    3    3  502    0  0.96209730124E+03 -0.53011058915E+02  0.66877843268E+03  0.11729049328E+04  0.25500000920E-02 0.  1.
       -2    1    3    3    0  502 -0.96209730124E+03  0.53011058915E+02 -0.39744486627E+03  0.10423069659E+04  0.25500000920E-02 0. -1.
</event>
<event>
 5   0  0.2284329E-05  0.2202266E+04  0.7818609E-02  0.8517486E-01
        2   -1    0    0  501    0  0.00000000000E+00  0.00000000000E+00  0.15508322353E+04  0.15508322353E+04  0.25500000920E-02 0.  1.
       -2   -1    0    0    0  501  0.00000000000E+00  0.00000000000E+00 -0.78183434501E+03  0.78183434501E+03  0.25500000920E-02 0. -1.
    10030    2    1    2    0    0  0.00000000000E+00  0.00000000000E+00  0.76899789029E+03  0.23326665803E+04  0.22022660193E+04 0.  0.
        2    1    3    3  502    0  0.53381427986E+03  0.79756353821E+03  0.95630531762E+03  0.13548376816E+04  0.25500000920E-02 0.  1.
       -2    1    3    3    0  502 -0.53381427986E+03 -0.79756353821E+03 -0.18730742733E+03  0.97782889874E+03  0.25500000920E-02 0. -1.
</event>
<event>
 5   0  0.2298329E-05  0.2200057E+04  0.7818609E-02  0.8518404E-01
       -2   -1    0    0    0  501  0.00000000000E+00  0.00000000000E+00  0.84532954934E+03  0.84532954934E+03  0.25500000920E-02 0. -1.
        2   -1    0    0  501    0  0.00000000000E+00  0.00000000000E+00 -0.14314689786E+04  0.14314689786E+04  0.25500000920E-02 0.  1.
    10030    2    1    2    0    0  0.00000000000E+00  0.00000000000E+00 -0.58613942926E+03  0.22767985279E+04  0.22000572961E+04 0.  0.
        4    1    3    3  502    0  0.94436237521E+03  0.46002563040E+03  0.44843311884E+02  0.10514068727E+04  0.12699999809E+01 0.  1.
       -4    1    3    3    0  502 -0.94436237521E+03 -0.46002563040E+03 -0.63098274115E+03  0.12253916553E+04  0.12699999809E+01 0. -1.
</event>
<event>
 5   0  0.2284329E-05  0.2219462E+04  0.7818609E-02  0.8510371E-01
        2   -1    0    0  501    0  0.00000000000E+00  0.00000000000E+00  0.19323278941E+04  0.19323278941E+04  0.25500000920E-02 0. -1.
       -2   -1    0    0    0  501  0.00000000000E+00  0.00000000000E+00 -0.63731582243E+03  0.63731582244E+03  0.25500000920E-02 0.  1.
    10030    2    1    2    0    0  0.00000000000E+00  0.00000000000E+00  0.12950120717E+04  0.25696437165E+04  0.22194622241E+04 0.  0.
        2    1    3    3  502    0  0.40323651250E+03  0.54408772710E+03 -0.37033262271E+03  0.77186617444E+03  0.25500000920E-02 0. -1.
       -2    1    3    3    0  502 -0.40323651250E+03 -0.54408772710E+03  0.16653446944E+04  0.17977775421E+04  0.25500000920E-02 0.  1.
</event>
<event>
 5   0  0.2284329E-05  0.2178094E+04  0.7818609E-02  0.8527602E-01
       -2   -1    0    0    0  501  0.00000000000E+00  0.00000000000E+00  0.56569028074E+03  0.56569028075E+03  0.25500000920E-02 0.  1.
        2   -1    0    0  501    0  0.00000000000E+00  0.00000000000E+00 -0.20965939789E+04  0.20965939789E+04  0.25500000920E-02 0. -1.
    10030    2    1    2    0    0  0.00000000000E+00  0.00000000000E+00 -0.15309036982E+04  0.26622842597E+04  0.21780935118E+04 0.  0.
        2    1    3    3  502    0 -0.76841688018E+03  0.69878316884E+03 -0.11657629607E+04  0.15613345892E+04  0.25500000920E-02 0. -1.
       -2    1    3    3    0  502  0.76841688018E+03 -0.69878316884E+03 -0.36514073748E+03  0.11009496705E+04  0.25500000920E-02 0.  1.
</event>
<event>
 5   0  0.2319707E-05  0.2209989E+04  0.7818609E-02  0.8514282E-01
        2   -1    0    0  501    0  0.00000000000E+00  0.00000000000E+00  0.25528637135E+04  0.25528637135E+04  0.25500000920E-02 0.  1.
       -2   -1    0    0    0  501  0.00000000000E+00  0.00000000000E+00 -0.47829158862E+03  0.47829158862E+03  0.25500000920E-02 0. -1.
    10030    2    1    2    0    0  0.00000000000E+00  0.00000000000E+00  0.20745721249E+04  0.30311553021E+04  0.22099893584E+04 0.  0.
        3    1    3    3  502    0 -0.26150717952E+03 -0.78570105073E+03  0.33786777347E+02  0.82876637394E+03  0.10100000352E+00 0. -1.
       -3    1    3    3    0  502  0.26150717952E+03  0.78570105073E+03  0.20407853475E+04  0.22023889282E+04  0.10100000352E+00 0.  1.
</event>
<event>
 5   0  0.1071208E-05  0.2253426E+04  0.7818609E-02  0.8496514E-01
       -1   -1    0    0    0  501  0.00000000000E+00  0.00000000000E+00  0.98364259430E+03  0.98364259432E+03  0.50400001928E-02 0. -1.
        1   -1    0    0  501    0  0.00000000000E+00  0.00000000000E+00 -0.12905930671E+04  0.12905930671E+04  0.50400001928E-02 0.  1.
    10030    2    1    2    0    0  0.00000000000E+00  0.00000000000E+00 -0.30695047278E+03  0.22742356614E+04  0.22534261139E+04 0.  0.
        4    1    3    3  502    0 -0.57668595800E+03  0.90808813723E+03  0.18471617069E+03  0.10914725996E+04  0.12699999809E+01 0. -1.
       -4    1    3    3    0  502  0.57668595800E+03 -0.90808813723E+03 -0.49166664347E+03  0.11827630618E+04  0.12699999809E+01 0.  1.
</event>
<event>
 5   0  0.1049198E-05  0.2199295E+04  0.7818609E-02  0.8518722E-01
       -1   -1    0    0    0  501  0.00000000000E+00  0.00000000000E+00  0.90173422133E+03  0.90173422135E+03  0.50400001928E-02 0. -1.
        1   -1    0    0  501    0  0.00000000000E+00  0.00000000000E+00 -0.13409991525E+04  0.13409991526E+04  0.50400001928E-02 0.  1.
    10030    2    1    2    0    0  0.00000000000E+00  0.00000000000E+00 -0.43926493121E+03  0.22427333739E+04  0.21992951841E+04 0.  0.
        1    1    3    3  502    0 -0.62240267313E+03 -0.37449893327E+03  0.62225844236E+03  0.95647274276E+03  0.50400001928E-02 0. -1.
       -1    1    3    3    0  502  0.62240267313E+03  0.37449893327E+03 -0.10615233736E+04  0.12862606311E+04  0.50400001928E-02 0.  1.
</event>
<event>
 5   0  0.1005538E-05  0.2203111E+04  0.7818609E-02  0.8517134E-01
        1   -1    0    0  501    0  0.00000000000E+00  0.00000000000E+00  0.91887393671E+03  0.91887393672E+03  0.50400001928E-02 0. -1.
       -1   -1    0    0    0  501  0.00000000000E+00  0.00000000000E+00 -0.13205562994E+04  0.13205562994E+04  0.50400001928E-02 0.  1.
    10030    2    1    2    0    0  0.00000000000E+00  0.00000000000E+00 -0.40168236273E+03  0.22394302362E+04  0.22031112233E+04 0.  0.
        3    1    3    3  502    0  0.30032217934E+03 -0.76031955517E+03 -0.95135265777E+03  0.12543329411E+04  0.10100000352E+00 0.  1.
       -3    1    3    3    0  502 -0.30032217934E+03  0.76031955517E+03  0.54967029504E+03  0.98509729511E+03  0.10100000352E+00 0. -1.
</event>
<event>
 5   0  0.1007682E-05  0.2210734E+04  0.7818609E-02  0.8513973E-01
        1   -1    0    0  501    0  0.00000000000E+00  0.00000000000E+00  0.18068214665E+04  0.18068214666E+04  0.50400001928E-02 0.  1.
       -1   -1    0    0    0  501  0.00000000000E+00  0.00000000000E+00 -0.67623543525E+03  0.67623543526E+03  0.50400001928E-02 0. -1.
    10030    2    1    2    0    0  0.00000000000E+00  0.00000000000E+00  0.11305860313E+04  0.24830569018E+04  0.22107344489E+04 0.  0.
        2    1    3    3  502    0  0.67607929608E+03 -0.14825863065E+03 -0.40271311546E+03  0.80077567990E+03  0.25500000920E-02 0. -1.
       -2    1    3    3    0  502 -0.67607929608E+03  0.14825863065E+03  0.15332991468E+04  0.16822812219E+04  0.25500000920E-02 0.  1.
</event>
<event>
 5   0  0.1005538E-05  0.2195979E+04  0.7818609E-02  0.8520104E-01
       -1   -1    0    0    0  501  0.00000000000E+00  0.00000000000E+00  0.11628370479E+04  0.11628370479E+04  0.50400001928E-02 0.  1.
        1   -1    0    0  501    0  0.00000000000E+00  0.00000000000E+00 -0.10367580607E+04  0.10367580608E+04  0.50400001928E-02 0. -1.
    10030    2    1    2    0    0  0.00000000000E+00  0.00000000000E+00  0.12607898713E+03  0.21995951086E+04  0.21959787638E+04 0.  0.
        3    1    3    3  502    0 -0.41801540584E+03  0.67056880143E+03  0.82664739955E+03  0.11435669330E+04  0.10100000352E+00 0.  1.
       -3    1    3    3    0  502  0.41801540584E+03 -0.67056880143E+03 -0.70056841242E+03  0.10560281756E+04  0.10100000352E+00 0. -1.
</event>
<event>
 5   0  0.2298329E-05  0.2216069E+04  0.7818609E-02  0.8511770E-01
        2   -1    0    0  501    0  0.00000000000E+00  0.00000000000E+00  0.12283425321E+04  0.12283425322E+04  0.25500000920E-02 0.  1.
       -2   -1    0    0    0  501  0.00000000000E+00  0.00000000000E+00 -0.99950976052E+03  0.99950976052E+03  0.25500000920E-02 0. -1.
    10030    2    1    2    0    0  0.00000000000E+00  0.00000000000E+00  0.22883277163E+03  0.22278522927E+04  0.22160689070E+04 0.  0.
        4    1    3    3  502    0 -0.10885099559E+04  0.18902413275E+03  0.29381220841E+02  0.11051918005E+04  0.12699999809E+01 0. -1.
       -4    1    3    3    0  502  0.10885099559E+04 -0.18902413275E+03  0.19945155079E+03  0.11226604922E+04  0.12699999809E+01 0.  1.
</event>
<event>
 5   0  0.2298329E-05  0.2207124E+04  0.7818609E-02  0.8515469E-01
        2   -1    0    0  501    0  0.00000000000E+00  0.00000000000E+00  0.19220418015E+04  0.19220418015E+04  0.25500000920E-02 0. -1.
       -2   -1    0    0    0  501  0.00000000000E+00  0.00000000000E+00 -0.63362260064E+03  0.63362260064E+03  0.25500000920E-02 0.  1.
    10030    2    1    2    0    0  0.00000000000E+00  0.00000000000E+00  0.12884192008E+04  0.25556644021E+04  0.22071240335E+04 0.  0.
        4    1    3    3  502    0  0.50321442437E+03 -0.23953226008E+03 -0.45869987163E+03  0.72180859350E+03  0.12699999809E+01 0.  1.
       -4    1    3    3    0  502 -0.50321442437E+03  0.23953226008E+03  0.17471190725E+04  0.18338558086E+04  0.12699999809E+01 0. -1.
</event>
<event>
 5   0  0.2284329E-05  0.2198930E+04  0.7818609E-02  0.8518874E-01
        2   -1    0    0  501    0  0.00000000000E+00  0.00000000000E+00  0.15293492850E+04  0.15293492850E+04  0.25500000920E-02 0. -1.
       -2   -1    0    0    0  501  0.00000000000E+00  0.00000000000E+00 -0.79041671320E+03  0.79041671320E+03  0.25500000920E-02 0.  1.
    10030    2    1    2    0    0  0.00000000000E+00  0.00000000000E+00  0.73893257179E+03  0.23197659982E+04  0.21989299536E+04 0.  0.
        2    1    3    3  502    0  0.84915000501E+03  0.21257959951E+03  0.10712889820E+04  0.13834398795E+04  0.25500000920E-02 0. -1.
       -2    1    3    3    0  502 -0.84915000501E+03 -0.21257959951E+03 -0.33235641024E+03  0.93632611871E+03  0.25500000920E-02 0.  1.
</event>
<event>
 5   0  0.8003875E-06  0.2202151E+04  0.7818609E-02  0.8517533E-01
       -3   -1    0    0    0  501  0.00000000000E+00  0.00000000000E+00  0.11773958793E+04  0.11773958837E+04  0.10100000352E+00 0.  1.
        3   -1    0    0  501    0  0.00000000000E+00  0.00000000000E+00 -0.10297020765E+04  0.10297020814E+04  0.10100000352E+00 0. -1.
    10030    2    1    2    0    0  0.00000000000E+00  0.00000000000E+00  0.14769380287E+03  0.22070979651E+04  0.22021507596E+04 0.  0.
        4    1    3    3  502    0 -0.88628503771E+03 -0.70947402432E+02 -0.57709712041E+03  0.10599893402E+04  0.12699999809E+01 0. -1.
       -4    1    3    3    0  502  0.88628503771E+03  0.70947402432E+02  0.72479092328E+03  0.11471086249E+04  0.12699999809E+01 0.  1.
</event>
<event>
 5   0  0.1071208E-05  0.2196092E+04  0.7818609E-02  0.8520056E-01
       -1   -1    0    0    0  501  0.00000000000E+00  0.00000000000E+00  0.13410245182E+04  0.13410245182E+04  0.50400001928E-02 0.  1.
        1   -1    0    0  501    0  0.00000000000E+00  0.00000000000E+00 -0.89909255970E+03  0.89909255971E+03  0.50400001928E-02 0. -1.
    10030    2    1    2    0    0  0.00000000000E+00  0.00000000000E+00  0.44193195852E+03  0.22401170779E+04  0.21960921353E+04 0.  0.
        4    1    3    3  502    0 -0.36713804884E+00  0.79497882495E+03 -0.55165618063E+03  0.96763506625E+03  0.12699999809E+01 0. -1.
       -4    1    3    3    0  502  0.36713804884E+00 -0.79497882495E+03  0.99358813916E+03  0.12724820117E+04  0.12699999809E+01 0.  1.
</event>
<event>
 5   0  0.1005538E-05  0.2191239E+04  0.7818609E-02  0.8522083E-01
       -1   -1    0    0    0  501  0.00000000000E+00  0.00000000000E+00  0.11859345994E+04  0.11859345994E+04  0.50400001928E-02 0. -1.
        1   -1    0    0  501    0  0.00000000000E+00  0.00000000000E+00 -0.10121826407E+04  0.10121826408E+04  0.50400001928E-02 0.  1.
    10030    2    1    2    0    0  0.00000000000E+00  0.00000000000E+00  0.17375195868E+03  0.21981172402E+04  0.21912392974E+04 0.  0.
        3    1    3    3  502    0  0.30269234036E+03 -0.77211657591E+03 -0.63132921686E+03  0.10422875083E+04  0.10100000352E+00 0.  1.
       -3    1    3    3    0  502 -0.30269234036E+03  0.77211657591E+03  0.80508117554E+03  0.11558297319E+04  0.10100000352E+00 0. -1.
</event>
<event>
 5   0  0.1071208E-05  0.2201484E+04  0.7818609E-02  0.8517811E-01
       -1   -1    0    0    0  501  0.00000000000E+00  0.00000000000E+00  0.64693605118E+03  0.64693605120E+03  0.50400001928E-02 0. -1.
        1   -1    0    0  501    0  0.00000000000E+00  0.00000000000E+00 -0.18728795481E+04  0.18728795481E+04  0.50400001928E-02 0.  1.
    10030    2    1    2    0    0  0.00000000000E+00  0.00000000000E+00 -0.12259434969E+04  0.25198155993E+04  0.22014843167E+04 0.  0.
        4    1    3    3  502    0 -0.61341092340E+03 -0.51731075531E+03  0.24947261562E+03  0.84031040535E+03  0.12699999809E+01 0. -1.
       -4    1    3    3    0  502  0.61341092340E+03  0.51731075531E+03 -0.14754161125E+04  0.16795051940E+04  0.12699999809E+01 0.  1.
</event>
<event>
 5   0  0.1071208E-05  0.2224710E+04  0.7818609E-02  0.8508213E-01
       -1   -1    0    0    0  501  0.00000000000E+00  0.00000000000E+00  0.96343722221E+03  0.96343722222E+03  0.50400001928E-02 0. -1.
        1   -1    0    0  501    0  0.00000000000E+00  0.00000000000E+00 -0.12842903422E+04  0.12842903422E+04  0.50400001928E-02 0.  1.
    10030    2    1    2    0    0  0.00000000000E+00  0.00000000000E+00 -0.32085311996E+03  0.22477275644E+04  0.22247095269E+04 0.  0.
        4    1    3    3  502    0  0.59708208254E+02  0.95629928505E+03 -0.73130195989E+03  0.12053537083E+04  0.12699999809E+01 0.  1.
       -4    1    3    3    0  502 -0.59708208254E+02 -0.95629928505E+03  0.41044883993E+03  0.10423738561E+04  0.12699999809E+01 0. -1.
</event>
<event>
 5   0  0.2229552E-05  0.2185207E+04  0.7818609E-02  0.8524610E-01
       -2   -1    0    0    0  501  0.00000000000E+00  0.00000000000E+00  0.10765342053E+04  0.10765342053E+04  0.25500000920E-02 0. -1.
        2   -1    0    0  501    0  0.00000000000E+00  0.00000000000E+00 -0.11089131282E+04  0.11089131282E+04  0.25500000920E-02 0.  1.
    10030    2    1    2    0    0  0.00000000000E+00  0.00000000000E+00 -0.32378922972E+02  0.21854473335E+04  0.21852074622E+04 0.  0.
        1    1    3    3  502    0 -0.69076661115E+03  0.28683084493E+02  0.82995404833E+03  0.10801874619E+04  0.50400001928E-02 0. -1.
       -1    1    3    3    0  502  0.69076661115E+03 -0.28683084493E+02 -0.86233297130E+03  0.11052598716E+04  0.50400001928E-02 0.  1.
</event>
<event>
 5   0  0.2284329E-05  0.2212000E+04  0.7818609E-02  0.8513450E-01
       -2   -1    0    0    0  501  0.00000000000E+00  0.00000000000E+00  0.59946939830E+03  0.59946939831E+03  0.25500000920E-02 0. -1.
        2   -1    0    0  501    0  0.00000000000E+00  0.00000000000E+00 -0.20405307598E+04  0.20405307598E+04  0.25500000920E-02 0.  1.
    10030    2    1    2    0    0  0.00000000000E+00  0.00000000000E+00 -0.14410613615E+04  0.26400001581E+04  0.22119997711E+04 0.  0.
        2    1    3    3  502    0 -0.29414697581E+03  0.12224254087E+03 -0.19845997318E+04  0.20100004422E+04  0.25500000920E-02 0.  1.
       -2    1    3    3    0  502  0.29414697581E+03 -0.12224254087E+03  0.54353837025E+03  0.62999971596E+03  0.25500000920E-02 0. -1.
</event>
<event>
 5   0  0.2319707E-05  0.2195934E+04  0.7818609E-02  0.8520123E-01
        2   -1    0    0  501    0  0.00000000000E+00  0.00000000000E+00  0.13043740439E+04  0.13043740439E+04  0.25500000920E-02 0.  1.
       -2   -1    0    0    0  501  0.00000000000E+00  0.00000000000E+00 -0.92422195316E+03  0.92422195317E+03  0.25500000920E-02 0. -1.
    10030    2    1    2    0    0  0.00000000000E+00  0.00000000000E+00  0.38015209076E+03  0.22285959971E+04  0.21959336297E+04 0.  0.
        3    1    3    3  502    0  0.86814886241E+03 -0.53756397080E+03  0.59965491771E+03  0.11841636291E+04  0.10100000352E+00 0.  1.
       -3    1    3    3    0  502 -0.86814886241E+03  0.53756397080E+03 -0.21950282695E+03  0.10444323680E+04  0.10100000352E+00 0. -1.
</event>
<event>
 5   0  0.2289708E-05  0.2211984E+04  0.7818609E-02  0.8513457E-01
       -2   -1    0    0    0  501  0.00000000000E+00  0.00000000000E+00  0.47289365354E+03  0.47289365355E+03  0.25500000920E-02 0.  1.
        2   -1    0    0  501    0  0.00000000000E+00  0.00000000000E+00 -0.25866657614E+04  0.25866657614E+04  0.25500000920E-02 0. -1.
    10030    2    1    2    0    0  0.00000000000E+00  0.00000000000E+00 -0.21137721079E+04  0.30595594150E+04  0.22119835645E+04 0.  0.
        5    1    3    3  502    0  0.92209383268E+02  0.10353681562E+04 -0.53437194027E+03  0.11687879405E+04  0.46999998093E+01 0.  1.
       -5    1    3    3    0  502 -0.92209383268E+02 -0.10353681562E+04 -0.15794001676E+04  0.18907714745E+04  0.46999998093E+01 0. -1.
</event>
<event>
 5   0  0.1033733E-05  0.2196510E+04  0.7818609E-02  0.8519882E-01
        1   -1    0    0  501    0  0.00000000000E+00  0.00000000000E+00  0.22358025934E+04  0.22358025934E+04  0.50400001928E-02 0. -1.
       -1   -1    0    0    0  501  0.00000000000E+00  0.00000000000E+00 -0.53947688173E+03  0.53947688176E+03  0.50400001928E-02 0.  1.
    10030    2    1    2    0    0  0.00000000000E+00  0.00000000000E+00  0.16963257117E+04  0.27752794752E+04  0.21965097872E+04 0.  0.
        5    1    3    3  502    0 -0.73781120181E+01 -0.46329298809E+02  0.22345233106E+04  0.22350206613E+04  0.46999998093E+01 0. -1.
       -5    1    3    3    0  502  0.73781120181E+01  0.46329298809E+02 -0.53819759897E+03  0.54025881391E+03  0.46999998093E+01 0.  1.
</event>
<event>
 5   0  0.1007682E-05  0.2197620E+04  0.7818609E-02  0.8519419E-01
        1   -1    0    0  501    0  0.00000000000E+00  0.00000000000E+00  0.10612648471E+04  0.10612648471E+04  0.50400001928E-02 0. -1.
       -1   -1    0    0    0  501  0.00000000000E+00  0.00000000000E+00 -0.11376838632E+04  0.11376838632E+04  0.50400001928E-02 0.  1.
    10030    2    1    2    0    0  0.00000000000E+00  0.00000000000E+00 -0.76419016133E+02  0.21989487103E+04  0.21976204323E+04 0.  0.
        2    1    3    3  502    0  0.50840589357E+03 -0.43978649740E+03  0.83150810048E+03  0.10692494737E+04  0.25500000920E-02 0. -1.
       -2    1    3    3    0  502 -0.50840589357E+03  0.43978649740E+03 -0.90792711661E+03  0.11296992365E+04  0.25500000920E-02 0.  1.
</event>
<event>
 5   0  0.1033733E-05  0.2183216E+04  0.7818609E-02  0.8525447E-01
        1   -1    0    0  501    0  0.00000000000E+00  0.00000000000E+00  0.20415248905E+04  0.20415248906E+04  0.50400001928E-02 0.  1.
       -1   -1    0    0    0  501  0.00000000000E+00  0.00000000000E+00 -0.58368529524E+03  0.58368529526E+03  0.50400001928E-02 0. -1.
    10030    2    1    2    0    0  0.00000000000E+00  0.00000000000E+00  0.14578395953E+04  0.26252101858E+04  0.21832160301E+04 0.  0.
        5    1    3    3  502    0 -0.42269145073E+03  0.92771028479E+03  0.25969956565E+03  0.10520363061E+04  0.46999998093E+01 0. -1.
       -5    1    3    3    0  502  0.42269145073E+03 -0.92771028479E+03  0.11981400297E+04  0.15731738797E+04  0.46999998093E+01 0.  1.
</event>
<event>
 5   0  0.2284329E-05  0.2205566E+04  0.7818609E-02  0.8516115E-01
       -2   -1    0    0    0  501  0.00000000000E+00  0.00000000000E+00  0.12263994849E+04  0.12263994849E+04  0.25500000920E-02 0. -1.
        2   -1    0    0  501    0  0.00000000000E+00  0.00000000000E+00 -0.99162649304E+03  0.99162649304E+03  0.25500000920E-02 0.  1.
    10030    2    1    2    0    0  0.00000000000E+00  0.00000000000E+00  0.23477299191E+03  0.22180259780E+04  0.22055658869E+04 0.  0.
        2    1    3    3  502    0  0.18101052200E+03  0.47382439627E+03  0.11021302937E+04  0.12132458744E+04  0.25500000920E-02 0. -1.
       -2    1    3    3    0  502 -0.18101052200E+03 -0.47382439627E+03 -0.86735730177E+03  0.10047801036E+04  0.25500000920E-02 0.  1.
</event>
<event>
 5   0  0.2229552E-05  0.2207747E+04  0.7818609E-02  0.8515210E-01
        2   -1    0    0  501    0  0.00000000000E+00  0.00000000000E+00  0.83081202824E+03  0.83081202825E+03  0.25500000920E-02 0. -1.
       -2   -1    0    0    0  501  0.00000000000E+00  0.00000000000E+00 -0.14666818316E+04  0.14666818316E+04  0.25500000920E-02 0.  1.
    10030    2    1    2    0    0  0.00000000000E+00  0.00000000000E+00 -0.63586980338E+03  0.22974938599E+04  0.22077471842E+04 0.  0.
        1    1    3    3  502    0  0.65484936281E+02  0.95891080848E+03  0.24703276753E+03  0.99238269018E+03  0.50400001928E-02 0. -1.
       -1    1    3    3    0  502 -0.65484936281E+02 -0.95891080848E+03 -0.88290257091E+03  0.13051111697E+04  0.50400001928E-02 0.  1.
</event>
<event>
 5   0  0.2229552E-05  0.2213549E+04  0.7818609E-02  0.8512810E-01
        2   -1    0    0  501    0  0.00000000000E+00  0.00000000000E+00  0.13423174153E+04  0.13423174153E+04  0.25500000920E-02 0.  1.
       -2   -1    0    0    0  501  0.00000000000E+00  0.00000000000E+00 -0.91256351535E+03  0.91256351535E+03  0.25500000920E-02 0. -1.
    10030    2    1    2    0    0  0.00000000000E+00  0.00000000000E+00  0.42975389996E+03  0.22548809307E+04  0.22135490952E+04 0.  0.
        1    1    3    3  502    0  0.48137000282E+03  0.92924942981E+03 -0.15202654325E+03  0.10575129561E+04  0.50400001928E-02 0. -1.
       -1    1    3    3    0  502 -0.48137000282E+03 -0.92924942981E+03  0.58178044320E+03  0.11973679746E+04  0.50400001928E-02 0.  1.
</event>
<event>
 5   0  0.2319707E-05  0.2193095E+04  0.7818609E-02  0.8521308E-01
        2   -1    0    0  501    0  0.00000000000E+00  0.00000000000E+00  0.83599382825E+03  0.83599382826E+03  0.25500000920E-02 0.  1.
       -2   -1    0    0    0  501  0.00000000000E+00  0.00000000000E+00 -0.14383080809E+04  0.14383080809E+04  0.25500000920E-02 0. -1.
    10030    2    1    2    0    0  0.00000000000E+00  0.00000000000E+00 -0.60231425262E+03  0.22743019091E+04  0.21930952362E+04 0.  0.
        3    1    3    3  502    0  0.10711358837E+04 -0.23013987960E+03 -0.34890800738E+03  0.11497970488E+04  0.10100000352E+00 0. -1.
       -3    1    3    3    0  502 -0.10711358837E+04  0.23013987960E+03 -0.25340624524E+03  0.11245048603E+04  0.10100000352E+00 0.  1.
</event>
<event>
 5   0  0.1071208E-05  0.2199048E+04  0.7818609E-02  0.8518825E-01
       -1   -1    0    0    0  501  0.00000000000E+00  0.00000000000E+00  0.51319707625E+03  0.51319707627E+03  0.50400001928E-02 0.  1.
        1   -1    0    0  501    0  0.00000000000E+00  0.00000000000E+00 -0.23557278861E+04  0.23557278861E+04  0.50400001928E-02 0. -1.
    10030    2    1    2    0    0  0.00000000000E+00  0.00000000000E+00 -0.18425308099E+04  0.28689249624E+04  0.21990476699E+04 0.  0.
        4    1    3    3  502    0  0.44294703870E+03  0.65856679090E+03 -0.19140118964E+04  0.20720413725E+04  0.12699999809E+01 0. -1.
       -4    1    3    3    0  502 -0.44294703870E+03 -0.65856679090E+03  0.71481086501E+02  0.79688358986E+03  0.12699999809E+01 0.  1.
</event>
<event>
 5   0  0.2319707E-05  0.2190698E+04  0.7818609E-02  0.8522310E-01
        2   -1    0    0  501    0  0.00000000000E+00  0.00000000000E+00  0.11600700387E+04  0.11600700387E+04  0.25500000920E-02 0. -1.
       -2   -1    0    0    0  501  0.00000000000E+00  0.00000000000E+00 -0.10342383264E+04  0.10342383264E+04  0.25500000920E-02 0.  1.
    10030    2    1    2    0    0  0.00000000000E+00  0.00000000000E+00  0.12583171234E+03  0.21943083651E+04  0.21906975102E+04 0.  0.
        3    1    3    3  502    0  0.23192716086E+03 -0.39504022034E+03 -0.93368234195E+03  0.10400046680E+04  0.10100000352E+00 0.  1.
       -3    1    3    3    0  502 -0.23192716086E+03  0.39504022034E+03  0.10595140543E+04  0.11543036971E+04  0.10100000352E+00 0. -1.
</event>
<event>
 5   0  0.1007682E-05  0.2202727E+04  0.7818609E-02  0.8517294E-01
        1   -1    0    0  501    0  0.00000000000E+00  0.00000000000E+00  0.64722987571E+03  0.64722987573E+03  0.50400001928E-02 0.  1.
       -1   -1    0    0    0  501  0.00000000000E+00  0.00000000000E+00 -0.18741436675E+04  0.18741436675E+04  0.50400001928E-02 0. -1.
    10030    2    1    2    0    0  0.00000000000E+00  0.00000000000E+00 -0.12269137918E+04  0.25213735433E+04  0.22027271942E+04 0.  0.
        2    1    3    3  502    0  0.14825440876E+03  0.27549455394E+03  0.59529810581E+03  0.67250015149E+03  0.25500000920E-02 0.  1.
       -2    1    3    3    0  502 -0.14825440876E+03 -0.27549455394E+03 -0.18222118976E+04  0.18488733918E+04  0.25500000920E-02 0. -1.
</event>
<event>
 5   0  0.2289708E-05  0.2202756E+04  0.7818609E-02  0.8517282E-01
        2   -1    0    0  501    0  0.00000000000E+00  0.00000000000E+00  0.19663953429E+04  0.19663953429E+04  0.25500000920E-02 0. -1.
       -2   -1    0    0    0  501  0.00000000000E+00  0.00000000000E+00 -0.61688173775E+03  0.61688173776E+03  0.25500000920E-02 0.  1.
    10030    2    1    2    0    0  0.00000000000E+00  0.00000000000E+00  0.13495136052E+04  0.25832770807E+04  0.22027558887E+04 0.  0.
        5    1    3    3  502    0 -0.57853317273E+03  0.85501694939E+03  0.22472613671E+03  0.10565408379E+04  0.46999998093E+01 0.  1.
       -5    1    3    3    0  502  0.57853317273E+03 -0.85501694939E+03  0.11247874684E+04  0.15267362427E+04  0.46999998093E+01 0. -1.
</event>
<event>
 5   0  0.2319707E-05  0.2201859E+04  0.7818609E-02  0.8517655E-01
        2   -1    0    0  501    0  0.00000000000E+00  0.00000000000E+00  0.15332614147E+04  0.15332614147E+04  0.25500000920E-02 0.  1.
       -2   -1    0    0    0  501  0.00000000000E+00  0.00000000000E+00 -0.79050186883E+03  0.79050186884E+03  0.25500000920E-02 0. -1.
    10030    2    1    2    0    0  0.00000000000E+00  0.00000000000E+00  0.74275954588E+03  0.23237632836E+04  0.22018592269E+04 0.  0.
        3    1    3    3  502    0  0.33109419499E+03 -0.42926508684E+03  0.13826334884E+04  0.14851152327E+04  0.10100000352E+00 0.  1.
       -3    1    3    3    0  502 -0.33109419499E+03  0.42926508684E+03 -0.63987394254E+03  0.83864805090E+03  0.10100000352E+00 0. -1.
</event>
<event>
 5   0  0.1007682E-05  0.2213057E+04  0.7818609E-02  0.8513013E-01
       -1   -1    0    0    0  501  0.00000000000E+00  0.00000000000E+00  0.89994612618E+03  0.89994612619E+03  0.50400001928E-02 0.  1.
        1   -1    0    0  501    0  0.00000000000E+00  0.00000000000E+00 -0.13605317962E+04  0.13605317962E+04  0.50400001928E-02 0. -1.
    10030    2    1    2    0    0  0.00000000000E+00  0.00000000000E+00 -0.46058567006E+03  0.22604779224E+04  0.22130569984E+04 0.  0.
        2    1    3    3  502    0 -0.14973869366E+03  0.98757653885E+03 -0.71659998412E+03  0.12293269027E+04  0.25500000920E-02 0. -1.
       -2    1    3    3    0  502  0.14973869366E+03 -0.98757653885E+03  0.25601431407E+03  0.10311510197E+04  0.25500000920E-02 0.  1.
</event>
<event>
 5   0  0.1007682E-05  0.2198779E+04  0.7818609E-02  0.8518936E-01
        1   -1    0    0  501    0  0.00000000000E+00  0.00000000000E+00  0.27961985789E+04  0.27961985789E+04  0.50400001928E-02 0.  1.
       -1   -1    0    0    0  501  0.00000000000E+00  0.00000000000E+00 -0.43225033556E+03  0.43225033559E+03  0.50400001928E-02 0. -1.
    10030    2    1    2    0    0  0.00000000000E+00  0.00000000000E+00  0.23639482434E+04  0.32284489145E+04  0.21987794561E+04 0.  0.
        2    1    3    3  502    0 -0.86945915894E+02  0.62378730945E+03 -0.14110842301E+03  0.64543147334E+03  0.25500000920E-02 0. -1.
       -2    1    3    3    0  502  0.86945915894E+02 -0.62378730945E+03  0.25050566664E+04  0.25830174412E+04  0.25500000920E-02 0.  1.
</event>
<event>
 5   0  0.1033733E-05  0.2202415E+04  0.7818609E-02  0.8517423E-01
       -1   -1    0    0    0  501  0.00000000000E+00  0.00000000000E+00  0.12536830824E+04  0.12536830824E+04  0.50400001928E-02 0. -1.
        1   -1    0    0  501    0  0.00000000000E+00  0.00000000000E+00 -0.96727660701E+03  0.96727660702E+03  0.50400001928E-02 0.  1.
    10030    2    1    2    0    0  0.00000000000E+00  0.00000000000E+00  0.28640647537E+03  0.22209596894E+04  0.22024153271E+04 0.  0.
        5    1    3    3  502    0 -0.10317231725E+04  0.37991085036E+03  0.80622107657E+02  0.11024096213E+04  0.46999998093E+01 0.  1.
       -5    1    3    3    0  502  0.10317231725E+04 -0.37991085036E+03  0.20578436771E+03  0.11185500681E+04  0.46999998093E+01 0. -1.
</event>
<event>
 5   0  0.2284329E-05  0.2195262E+04  0.7818609E-02  0.8520403E-01
        2   -1    0    0  501    0  0.00000000000E+00  0.00000000000E+00  0.26975317920E+04  0.26975317920E+04  0.25500000920E-02 0. -1.
       -2   -1    0    0    0  501  0.00000000000E+00  0.00000000000E+00 -0.44662819655E+03  0.44662819655E+03  0.25500000920E-02 0.  1.
    10030    2    1    2    0    0  0.00000000000E+00  0.00000000000E+00  0.22509035954E+04  0.31441599885E+04  0.21952619519E+04 0.  0.
        2    1    3    3  502    0 -0.54632333952E+03  0.82952417596E+03  0.45639991046E+03  0.10931058632E+04  0.25500000920E-02 0. -1.
       -2    1    3    3    0  502  0.54632333952E+03 -0.82952417596E+03  0.17945036850E+04  0.20510541254E+04  0.25500000920E-02 0.  1.
</event>
<event>
 5   0  0.2284329E-05  0.2192877E+04  0.7818609E-02  0.8521399E-01
       -2   -1    0    0    0  501  0.00000000000E+00  0.00000000000E+00  0.49429706914E+03  0.49429706915E+03  0.25500000920E-02 0. -1.
        2   -1    0    0  501    0  0.00000000000E+00  0.00000000000E+00 -0.24320952206E+04  0.24320952206E+04  0.25500000920E-02 0.  1.
    10030    2    1    2    0    0  0.00000000000E+00  0.00000000000E+00 -0.19377981515E+04  0.29263922898E+04  0.21928771415E+04 0.  0.
        2    1    3    3  502    0 -0.23891713435E+02 -0.79845067163E+03 -0.19711808786E+04  0.21268870081E+04  0.25500000920E-02 0.  1.
       -2    1    3    3    0  502  0.23891713435E+02  0.79845067163E+03  0.33382727112E+02  0.79950528170E+03  0.25500000920E-02 0. -1.
</event>
<event>
 5   0  0.1005538E-05  0.2201069E+04  0.7818609E-02  0.8517983E-01
        1   -1    0    0  501    0  0.00000000000E+00  0.00000000000E+00  0.16747203846E+04  0.16747203846E+04  0.50400001928E-02 0. -1.
       -1   -1    0    0    0  501  0.00000000000E+00  0.00000000000E+00 -0.72321089893E+03  0.72321089895E+03  0.50400001928E-02 0.  1.
    10030    2    1    2    0    0  0.00000000000E+00  0.00000000000E+00  0.95150948562E+03  0.23979312835E+04  0.22010688629E+04 0.  0.
        3    1    3    3  502    0  0.92891485727E+03  0.44412889904E+03  0.52352629011E+02  0.10309578551E+04  0.10100000352E+00 0.  1.
       -3    1    3    3    0  502 -0.92891485727E+03 -0.44412889904E+03  0.89915685660E+03  0.13669734284E+04  0.10100000352E+00 0. -1.
</event>
<event>
 5   0  0.2298329E-05  0.2211037E+04  0.7818609E-02  0.8513848E-01
       -2   -1    0    0    0  501  0.00000000000E+00  0.00000000000E+00  0.69282353623E+03  0.69282353624E+03  0.25500000920E-02 0.  1.
        2   -1    0    0  501    0  0.00000000000E+00  0.00000000000E+00 -0.17640443510E+04  0.17640443510E+04  0.25500000920E-02 0. -1.
    10030    2    1    2    0    0  0.00000000000E+00  0.00000000000E+00 -0.10712208148E+04  0.24568678872E+04  0.22110372637E+04 0.  0.
        4    1    3    3  502    0  0.74688966696E+03 -0.70521725220E+03 -0.98969476989E+03  0.14264196079E+04  0.12699999809E+01 0. -1.
       -4    1    3    3    0  502 -0.74688966696E+03  0.70521725220E+03 -0.81526044860E+02  0.10304482793E+04  0.12699999809E+01 0.  1.
</event>
<event>
 5   0  0.1049198E-05  0.2208818E+04  0.7818609E-02  0.8514767E-01
       -1   -1    0    0    0  501  0.00000000000E+00  0.00000000000E+00  0.23235147524E+04  0.23235147524E+04  0.50400001928E-02 0. -1.
        1   -1    0    0  501    0  0.00000000000E+00  0.00000000000E+00 -0.52494573289E+03  0.52494573291E+03  0.50400001928E-02 0.  1.
    10030    2    1    2    0    0  0.00000000000E+00  0.00000000000E+00  0.17985690195E+04  0.28484604853E+04  0.22088179233E+04 0.  0.
        1    1    3    3  502    0 -0.58457018548E+03  0.47831151116E+03 -0.13978484867E+03  0.76814322063E+03  0.50400001928E-02 0.  1.
       -1    1    3    3    0  502  0.58457018548E+03 -0.47831151116E+03  0.19383538682E+04  0.20803172647E+04  0.50400001928E-02 0. -1.
</event>
<event>
 5   0  0.2284329E-05  0.2200468E+04  0.7818609E-02  0.8518233E-01
        2   -1    0    0  501    0  0.00000000000E+00  0.00000000000E+00  0.14301438117E+04  0.14301438117E+04  0.25500000920E-02 0. -1.
       -2   -1    0    0    0  501  0.00000000000E+00  0.00000000000E+00 -0.84642850401E+03  0.84642850402E+03  0.25500000920E-02 0.  1.
    10030    2    1    2    0    0  0.00000000000E+00  0.00000000000E+00  0.58371530770E+03  0.22765723157E+04  0.22004676658E+04 0.  0.
        2    1    3    3  502    0  0.61672212719E+03 -0.90476700232E+03  0.18059771039E+03  0.11097590025E+04  0.25500000920E-02 0. -1.
       -2    1    3    3    0  502 -0.61672212719E+03  0.90476700232E+03  0.40311759731E+03  0.11668133132E+04  0.25500000920E-02 0.  1.
</event>
<event>
 5   0  0.1033733E-05  0.2198348E+04  0.7818609E-02  0.8519116E-01
       -1   -1    0    0    0  501  0.00000000000E+00  0.00000000000E+00  0.54060665338E+03  0.54060665340E+03  0.50400001928E-02 0. -1.
        1   -1    0    0  501    0  0.00000000000E+00  0.00000000000E+00 -0.22348661315E+04  0.22348661315E+04  0.50400001928E-02 0.  1.
    10030    2    1    2    0    0  0.00000000000E+00  0.00000000000E+00 -0.16942594781E+04  0.27754727849E+04  0.21983480162E+04 0.  0.
        5    1    3    3  502    0  0.10895194882E+04 -0.87817628025E+02 -0.99326008139E+03  0.14769401918E+04  0.46999998093E+01 0.  1.
       -5    1    3    3    0  502 -0.10895194882E+04  0.87817628025E+02 -0.70099939670E+03  0.12985325930E+04  0.46999998093E+01 0. -1.
</event>
<event>
 5   0  0.2229552E-05  0.2193564E+04  0.7818609E-02  0.8521112E-01
       -2   -1    0    0    0  501  0.00000000000E+00  0.00000000000E+00  0.12489611596E+04  0.12489611596E+04  0.25500000920E-02 0.  1.
        2   -1    0    0  501    0  0.00000000000E+00  0.00000000000E+00 -0.96314505805E+03  0.96314505805E+03  0.25500000920E-02 0. -1.
    10030    2    1    2    0    0  0.00000000000E+00  0.00000000000E+00  0.28581610155E+03  0.22121062177E+04  0.21935640119E+04 0.  0.
        1    1    3    3  502    0 -0.19366459448E+03  0.44458192213E+03 -0.84916151077E+03  0.97787234956E+03  0.50400001928E-02 0. -1.
       -1    1    3    3    0  502  0.19366459448E+03 -0.44458192213E+03  0.11349776123E+04  0.12342338681E+04  0.50400001928E-02 0.  1.
</event>
<event>
 5   0  0.2289708E-05  0.2195759E+04  0.7818609E-02  0.8520195E-01
       -2   -1    0    0    0  501  0.00000000000E+00  0.00000000000E+00  0.15434206154E+04  0.15434206154E+04  0.25500000920E-02 0.  1.
        2   -1    0    0  501    0  0.00000000000E+00  0.00000000000E+00 -0.78095357636E+03  0.78095357636E+03  0.25500000920E-02 0. -1.
    10030    2    1    2    0    0  0.00000000000E+00  0.00000000000E+00  0.76246703901E+03  0.23243741917E+04  0.21957594125E+04 0.  0.
        5    1    3    3  502    0  0.97853199981E+03  0.12157687353E+03 -0.12975411118E+03  0.99456725775E+03  0.46999998093E+01 0.  1.
       -5    1    3    3    0  502 -0.97853199981E+03 -0.12157687353E+03  0.89222115019E+03  0.13298069340E+04  0.46999998093E+01 0. -1.
</event>
<event>
 5   0  0.1049198E-05  0.2194795E+04  0.7818609E-02  0.8520598E-01
       -1   -1    0    0    0  501  0.00000000000E+00  0.00000000000E+00  0.94096146731E+03  0.94096146732E+03  0.50400001928E-02 0. -1.
        1   -1    0    0  501    0  0.00000000000E+00  0.00000000000E+00 -0.12798412897E+04  0.12798412897E+04  0.50400001928E-02 0.  1.
    10030    2    1    2    0    0  0.00000000000E+00  0.00000000000E+00 -0.33887982237E+03  0.22208027570E+04  0.21947950591E+04 0.  0.
        1    1    3    3  502    0  0.80695183460E+03  0.56198129754E+03  0.32345357010E+03  0.10351890910E+04  0.50400001928E-02 0. -1.
       -1    1    3    3    0  502 -0.80695183460E+03 -0.56198129754E+03 -0.66233339247E+03  0.11856136660E+04  0.50400001928E-02 0.  1.
</event>
<event>
 5   0  0.1071208E-05  0.2193535E+04  0.7818609E-02  0.8521124E-01
        1   -1    0    0  501    0  0.00000000000E+00  0.00000000000E+00  0.98088365758E+03  0.98088365760E+03  0.50400001928E-02 0.  1.
       -1   -1    0    0    0  501  0.00000000000E+00  0.00000000000E+00 -0.12263420159E+04  0.12263420159E+04  0.50400001928E-02 0. -1.
    10030    2    1    2    0    0  0.00000000000E+00  0.00000000000E+00 -0.24545835834E+03  0.22072256735E+04  0.21935349024E+04 0.  0.
        4    1    3    3  502    0  0.72685374391E+03 -0.37793956114E+03 -0.85648726117E+03  0.11852116766E+04  0.12699999809E+01 0. -1.
       -4    1    3    3    0  502 -0.72685374391E+03  0.37793956114E+03  0.61102890283E+03  0.10220139969E+04  0.12699999809E+01 0.  1.
</event>
<event>
 5   0  0.1071208E-05  0.2194330E+04  0.7818609E-02  0.8520792E-01
        1   -1    0    0  501    0  0.00000000000E+00  0.00000000000E+00  0.15752032072E+04  0.15752032072E+04  0.50400001928E-02 0. -1.
       -1   -1    0    0    0  501  0.00000000000E+00  0.00000000000E+00 -0.76420061456E+03  0.76420061458E+03  0.50400001928E-02 0.  1.
    10030    2    1    2    0    0  0.00000000000E+00  0.00000000000E+00  0.81100259266E+03  0.23394038218E+04  0.21943302022E+04 0.  0.
        4    1    3    3  502    0  0.80387801966E+03 -0.41847176351E+03 -0.25379380537E+03  0.94114366379E+03  0.12699999809E+01 0.  1.
       -4    1    3    3    0  502 -0.80387801966E+03  0.41847176351E+03  0.10647963980E+04  0.13982601580E+04  0.12699999809E+01 0. -1.
</event>
<event>
 5   0  0.2284329E-05  0.2224681E+04  0.7818609E-02  0.8508225E-01
        2   -1    0    0  501    0  0.00000000000E+00  0.00000000000E+00  0.17315235705E+04  0.17315235705E+04  0.25500000920E-02 0.  1.
       -2   -1    0    0    0  501  0.00000000000E+00  0.00000000000E+00 -0.71457384335E+03  0.71457384335E+03  0.25500000920E-02 0. -1.
    10030    2    1    2    0    0  0.00000000000E+00  0.00000000000E+00  0.10169497272E+04  0.24460974139E+04  0.22246810582E+04 0.  0.
        2    1    3    3  502    0 -0.11022000299E+04 -0.56489599930E+00  0.34370628647E+03  0.11545471998E+04  0.25500000920E-02 0. -1.
       -2    1    3    3    0  502  0.11022000299E+04  0.56489599930E+00  0.67324344068E+03  0.12915502141E+04  0.25500000920E-02 0.  1.
</event>
<event>
 5   0  0.2284329E-05  0.2172469E+04  0.7818609E-02  0.8529975E-01
        2   -1    0    0  501    0  0.00000000000E+00  0.00000000000E+00  0.11622109438E+04  0.11622109438E+04  0.25500000920E-02 0. -1.
       -2   -1    0    0    0  501  0.00000000000E+00  0.00000000000E+00 -0.10152246596E+04  0.10152246596E+04  0.25500000920E-02 0.  1.
    10030    2    1    2    0    0  0.00000000000E+00  0.00000000000E+00  0.14698628422E+03  0.21774356033E+04  0.21724688350E+04 0.  0.
        2    1    3    3  502    0 -0.10783218929E+04 -0.13071137420E+03  0.67025348936E+02  0.10882811978E+04  0.25500000920E-02 0.  1.
       -2    1    3    3    0  502  0.10783218929E+04  0.13071137420E+03  0.79960935285E+02  0.10891544056E+04  0.25500000920E-02 0. -1.
</event>
<event>
 5   0  0.2298329E-05  0.2212420E+04  0.7818609E-02  0.8513276E-01
       -2   -1    0    0    0  501  0.00000000000E+00  0.00000000000E+00  0.82597836150E+03  0.82597836150E+03  0.25500000920E-02 0. -1.
        2   -1    0    0  501    0  0.00000000000E+00  0.00000000000E+00 -0.14815167799E+04  0.14815167799E+04  0.25500000920E-02 0.  1.
    10030    2    1    2    0    0  0.00000000000E+00  0.00000000000E+00 -0.65553841844E+03  0.23074951414E+04  0.22124202154E+04 0.  0.
        4    1    3    3  502    0 -0.72364365879E+03 -0.47274968978E+03  0.39221992918E+03  0.94920519375E+03  0.12699999809E+01 0. -1.
       -4    1    3    3    0  502  0.72364365879E+03  0.47274968978E+03 -0.10477583476E+04  0.13582899477E+04  0.12699999809E+01 0.  1.
</event>
<event>
 5   0  0.2289708E-05  0.2196529E+04  0.7818609E-02  0.8519874E-01
        2   -1    0    0  501    0  0.00000000000E+00  0.00000000000E+00  0.13536848506E+04  0.13536848506E+04  0.25500000920E-02 0. -1.
       -2   -1    0    0    0  501  0.00000000000E+00  0.00000000000E+00 -0.89103779913E+03  0.89103779913E+03  0.25500000920E-02 0.  1.
    10030    2    1    2    0    0  0.00000000000E+00  0.00000000000E+00  0.46264705150E+03  0.22447226498E+04  0.21965285066E+04 0.  0.
        5    1    3    3  502    0  0.59718483792E+03  0.34692303391E+03  0.11039779865E+04  0.13022191854E+04  0.46999998093E+01 0. -1.
       -5    1    3    3    0  502 -0.59718483792E+03 -0.34692303391E+03 -0.64133093503E+03  0.94250346436E+03  0.46999998093E+01 0.  1.
</event>
<event>
 5   0  0.2284329E-05  0.2191091E+04  0.7818609E-02  0.8522145E-01
       -2   -1    0    0    0  501  0.00000000000E+00  0.00000000000E+00  0.76602946559E+03  0.76602946559E+03  0.25500000920E-02 0. -1.
        2   -1    0    0  501    0  0.00000000000E+00  0.00000000000E+00 -0.15668061901E+04  0.15668061901E+04  0.25500000920E-02 0.  1.
    10030    2    1    2    0    0  0.00000000000E+00  0.00000000000E+00 -0.80077672451E+03  0.23328356557E+04  0.21910907863E+04 0.  0.
        2    1    3    3  502    0 -0.78241563767E+03 -0.10170580690E+03 -0.12096249025E+04  0.14441989842E+04  0.25500000920E-02 0.  1.
       -2    1    3    3    0  502  0.78241563767E+03  0.10170580690E+03  0.40884817800E+03  0.88863667147E+03  0.25500000920E-02 0. -1.
</event>
<event>
 5   0  0.2229552E-05  0.2200683E+04  0.7818609E-02  0.8518144E-01
        2   -1    0    0  501    0  0.00000000000E+00  0.00000000000E+00  0.86898998310E+03  0.86898998310E+03  0.25500000920E-02 0.  1.
       -2   -1    0    0    0  501  0.00000000000E+00  0.00000000000E+00 -0.13932856781E+04  0.13932856781E+04  0.25500000920E-02 0. -1.
    10030    2    1    2    0    0  0.00000000000E+00  0.00000000000E+00 -0.52429569502E+03  0.22622756612E+04  0.22006828921E+04 0.  0.
        1    1    3    3  502    0  0.59438931293E+03  0.12303930904E+03  0.68131555421E+03  0.91248463621E+03  0.50400001928E-02 0.  1.
       -1    1    3    3    0  502 -0.59438931293E+03 -0.12303930904E+03 -0.12056112492E+04  0.13497910250E+04  0.50400001928E-02 0. -1.
</event>
<event>
 5   0  0.2298329E-05  0.2217574E+04  0.7818609E-02  0.8511149E-01
       -2   -1    0    0    0  501  0.00000000000E+00  0.00000000000E+00  0.94811789191E+03  0.94811789192E+03  0.25500000920E-02 0. -1.
        2   -1    0    0  501    0  0.00000000000E+00  0.00000000000E+00 -0.12966829809E+04  0.12966829809E+04  0.25500000920E-02 0.  1.
    10030    2    1    2    0    0  0.00000000000E+00  0.00000000000E+00 -0.34856508900E+03  0.22448008728E+04  0.22175737502E+04 0.  0.
        4    1    3    3  502    0 -0.86395865563E+03 -0.59782660054E+03 -0.53301405971E+03  0.11781030531E+04  0.12699999809E+01 0.  1.
       -4    1    3    3    0  502  0.86395865563E+03  0.59782660054E+03  0.18444897071E+03  0.10666978197E+04  0.12699999809E+01 0. -1.
</event>
<event>
 5   0  0.2298329E-05  0.2229554E+04  0.7818609E-02  0.8506227E-01
       -2   -1    0    0    0  501  0.00000000000E+00  0.00000000000E+00  0.15289844032E+04  0.15289844032E+04  0.25500000920E-02 0.  1.
        2   -1    0    0  501    0  0.00000000000E+00  0.00000000000E+00 -0.81278020307E+03  0.81278020307E+03  0.25500000920E-02 0. -1.
    10030    2    1    2    0    0  0.00000000000E+00  0.00000000000E+00  0.71620420009E+03  0.23417646062E+04  0.22295544431E+04 0.  0.
        4    1    3    3  502    0 -0.50676895809E+03 -0.79496892149E+03  0.98296925244E+03  0.13619913829E+04  0.12699999809E+01 0.  1.
       -4    1    3    3    0  502  0.50676895809E+03  0.79496892149E+03 -0.26676505236E+03  0.97977322330E+03  0.12699999809E+01 0. -1.
</event>
<event>
 5   0  0.2289708E-05  0.2198902E+04  0.7818609E-02  0.8518885E-01
       -2   -1    0    0    0  501  0.00000000000E+00  0.00000000000E+00  0.14493767119E+04  0.14493767119E+04  0.25500000920E-02 0.  1.
        2   -1    0    0  501    0  0.00000000000E+00  0.00000000000E+00 -0.83400831352E+03  0.83400831352E+03  0.25500000920E-02 0. -1.
    10030    2    1    2    0    0  0.00000000000E+00  0.00000000000E+00  0.61536839836E+03  0.22833850254E+04  0.21989017505E+04 0.  0.
        5    1    3    3  502    0 -0.67815597787E+03  0.13818085881E+02 -0.59082494867E+03  0.89954581861E+03  0.46999998093E+01 0. -1.
       -5    1    3    3    0  502  0.67815597787E+03 -0.13818085881E+02  0.12061933470E+04  0.13838392068E+04  0.46999998093E+01 0.  1.
</event>
<event>
 5   0  0.1071208E-05  0.2237368E+04  0.7818609E-02  0.8503034E-01
       -1   -1    0    0    0  501  0.00000000000E+00  0.00000000000E+00  0.11961853331E+04  0.11961853331E+04  0.50400001928E-02 0.  1.
        1   -1    0    0  501    0  0.00000000000E+00  0.00000000000E+00 -0.10462043115E+04  0.10462043115E+04  0.50400001928E-02 0. -1.
    10030    2    1    2    0    0  0.00000000000E+00  0.00000000000E+00  0.14998102157E+03  0.22423896447E+04  0.22373683227E+04 0.  0.
        4    1    3    3  502    0 -0.59273537493E+03  0.88470902022E+03 -0.26842607374E+03  0.10982255894E+04  0.12699999809E+01 0.  1.
       -4    1    3    3    0  502  0.59273537493E+03 -0.88470902022E+03  0.41840709531E+03  0.11441640553E+04  0.12699999809E+01 0. -1.
</event>
<event>
 5   0  0.2289708E-05  0.2194970E+04  0.7818609E-02  0.8520524E-01
       -2   -1    0    0    0  501  0.00000000000E+00  0.00000000000E+00  0.98055516675E+03  0.98055516676E+03  0.25500000920E-02 0.  1.
        2   -1    0    0  501    0  0.00000000000E+00  0.00000000000E+00 -0.12283588779E+04  0.12283588779E+04  0.25500000920E-02 0. -1.
    10030    2    1    2    0    0  0.00000000000E+00  0.00000000000E+00 -0.24780371113E+03  0.22089140446E+04  0.21949702908E+04 0.  0.
        5    1    3    3  502    0 -0.80750426495E+03  0.74264249734E+02  0.62030472438E+03  0.10209693226E+04  0.46999998093E+01 0.  1.
       -5    1    3    3    0  502  0.80750426495E+03 -0.74264249734E+02 -0.86810843551E+03  0.11879447220E+04  0.46999998093E+01 0. -1.
</event>
<event>
 5   0  0.2319707E-05  0.2196805E+04  0.7818609E-02  0.8519759E-01
       -2   -1    0    0    0  501  0.00000000000E+00  0.00000000000E+00  0.10145304387E+04  0.10145304388E+04  0.25500000920E-02 0. -1.
        2   -1    0    0  501    0  0.00000000000E+00  0.00000000000E+00 -0.11892086136E+04  0.11892086136E+04  0.25500000920E-02 0.  1.
    10030    2    1    2    0    0  0.00000000000E+00  0.00000000000E+00 -0.17467817489E+03  0.22037390524E+04  0.21968052591E+04 0.  0.
        3    1    3    3  502    0 -0.10661421595E+03  0.56137754245E+03  0.85369264051E+03  0.10272791592E+04  0.10100000352E+00 0. -1.
       -3    1    3    3    0  502  0.10661421595E+03 -0.56137754245E+03 -0.10283708154E+04  0.11764598932E+04  0.10100000352E+00 0.  1.
</event>
<event>
 5   0  0.8003875E-06  0.2200063E+04  0.7818609E-02  0.8518402E-01
        4   -1    0    0  501    0  0.00000000000E+00  0.00000000000E+00  0.97505212084E+03  0.97505294792E+03  0.12699999809E+01 0.  1.
       -4   -1    0    0    0  501  0.00000000000E+00  0.00000000000E+00 -0.12410286025E+04  0.12410292523E+04  0.12699999809E+01 0. -1.
    10030    2    1    2    0    0  0.00000000000E+00  0.00000000000E+00 -0.26597648166E+03  0.22160822003E+04  0.22000629149E+04 0.  0.
        1    1    3    3  502    0  0.14638257409E+02 -0.10037882637E+04 -0.58600066699E+03  0.11624121209E+04  0.50400001928E-02 0. -1.
       -1    1    3    3    0  502 -0.14638257409E+02  0.10037882637E+04  0.32002418532E+03  0.10536700794E+04  0.50400001928E-02 0.  1.
</event>
<event>
 5   0  0.1049198E-05  0.2206198E+04  0.7818609E-02  0.8515853E-01
       -1   -1    0    0    0  501  0.00000000000E+00  0.00000000000E+00  0.14341064113E+04  0.14341064113E+04  0.50400001928E-02 0.  1.
        1   -1    0    0  501    0  0.00000000000E+00  0.00000000000E+00 -0.84849170765E+03  0.84849170767E+03  0.50400001928E-02 0. -1.
    10030    2    1    2    0    0  0.00000000000E+00  0.00000000000E+00  0.58561470361E+03  0.22825981189E+04  0.22061979946E+04 0.  0.
        1    1    3    3  502    0 -0.27828627764E+03 -0.87323272461E+02 -0.80787475883E+03  0.85891223779E+03  0.50400001928E-02 0. -1.
       -1    1    3    3    0  502  0.27828627764E+03  0.87323272461E+02  0.13934894624E+04  0.14236858812E+04  0.50400001928E-02 0.  1.
</event>
<event>
 5   0  0.1033733E-05  0.2195736E+04  0.7818609E-02  0.8520205E-01
       -1   -1    0    0    0  501  0.00000000000E+00  0.00000000000E+00  0.70150670255E+03  0.70150670257E+03  0.50400001928E-02 0.  1.
        1   -1    0    0  501    0  0.00000000000E+00  0.00000000000E+00 -0.17181788048E+04  0.17181788048E+04  0.50400001928E-02 0. -1.
    10030    2    1    2    0    0  0.00000000000E+00  0.00000000000E+00 -0.10166721022E+04  0.24196855073E+04  0.21957358200E+04 0.  0.
        5    1    3    3  502    0 -0.60549628493E+02 -0.62352381441E+03 -0.15018691640E+04  0.16272926229E+04  0.46999998093E+01 0. -1.
       -5    1    3    3    0  502  0.60549628493E+02  0.62352381441E+03  0.48519706177E+03  0.79239288449E+03  0.46999998093E+01 0.  1.
</event>
<event>
 5   0  0.1033733E-05  0.2211218E+04  0.7818609E-02  0.8513773E-01
        1   -1    0    0  501    0  0.00000000000E+00  0.00000000000E+00  0.26510666502E+04  0.26510666502E+04  0.50400001928E-02 0. -1.
       -1   -1    0    0    0  501  0.00000000000E+00  0.00000000000E+00 -0.46108658342E+03  0.46108658345E+03  0.50400001928E-02 0.  1.
    10030    2    1    2    0    0  0.00000000000E+00  0.00000000000E+00  0.21899800667E+04  0.31121532336E+04  0.22112180030E+04 0.  0.
        5    1    3    3  502    0  0.68410231766E+03 -0.32945308385E+03  0.22260433847E+04  0.23519835365E+04  0.46999998093E+01 0. -1.
       -5    1    3    3    0  502 -0.68410231766E+03  0.32945308385E+03 -0.36063317964E+02  0.76016969710E+03  0.46999998093E+01 0.  1.
</event>
<event>
 5   0  0.2229552E-05  0.2205508E+04  0.7818609E-02  0.8516139E-01
        2   -1    0    0  501    0  0.00000000000E+00  0.00000000000E+00  0.11070955073E+04  0.11070955073E+04  0.25500000920E-02 0. -1.
       -2   -1    0    0    0  501  0.00000000000E+00  0.00000000000E+00 -0.10984296368E+04  0.10984296368E+04  0.25500000920E-02 0.  1.
    10030    2    1    2    0    0  0.00000000000E+00  0.00000000000E+00  0.86658705193E+01  0.22055251441E+04  0.22055081192E+04 0.  0.
        1    1    3    3  502    0 -0.90250048649E+03  0.78263872196E+02  0.63317334352E+03  0.11052333893E+04  0.50400001928E-02 0. -1.
       -1    1    3    3    0  502  0.90250048649E+03 -0.78263872196E+02 -0.62450747300E+03  0.11002917548E+04  0.50400001928E-02 0.  1.
</event>
<event>
 5   0  0.2229552E-05  0.2193445E+04  0.7818609E-02  0.8521161E-01
        2   -1    0    0  501    0  0.00000000000E+00  0.00000000000E+00  0.41101302665E+03  0.41101302665E+03  0.25500000920E-02 0.  1.
       -2   -1    0    0    0  501  0.00000000000E+00  0.00000000000E+00 -0.29264290120E+04  0.29264290120E+04  0.25500000920E-02 0. -1.
    10030    2    1    2    0    0  0.00000000000E+00  0.00000000000E+00 -0.25154159853E+04  0.33374420386E+04  0.21934451855E+04 0.  0.
        1    1    3    3  502    0 -0.33451838104E+03  0.10194101082E+04 -0.16036761445E+04  0.19294757559E+04  0.50400001928E-02 0.  1.
       -1    1    3    3    0  502  0.33451838104E+03 -0.10194101082E+04 -0.91173984079E+03  0.14079662827E+04  0.50400001928E-02 0. -1.
</event>
<event>
 5   0  0.1071208E-05  0.2202424E+04  0.7818609E-02  0.8517420E-01
       -1   -1    0    0    0  501  0.00000000000E+00  0.00000000000E+00  0.43950663258E+03  0.43950663261E+03  0.50400001928E-02 0.  1.
        1   -1    0    0  501    0  0.00000000000E+00  0.00000000000E+00 -0.27591566185E+04  0.27591566185E+04  0.50400001928E-02 0. -1.
    10030    2    1    2    0    0  0.00000000000E+00  0.00000000000E+00 -0.23196499859E+04  0.31986632511E+04  0.22024237868E+04 0.  0.
        4    1    3    3  502    0 -0.32003653468E+03  0.89814183197E+02  0.36490560885E+03  0.49360681448E+03  0.12699999809E+01 0.  1.
       -4    1    3    3    0  502  0.32003653468E+03 -0.89814183197E+02 -0.26845555948E+04  0.27050564366E+04  0.12699999809E+01 0. -1.
</event>
<event>
 5   0  0.2284329E-05  0.2185458E+04  0.7818609E-02  0.8524505E-01
        2   -1    0    0  501    0  0.00000000000E+00  0.00000000000E+00  0.14601657783E+04  0.14601657783E+04  0.25500000920E-02 0. -1.
       -2   -1    0    0    0  501  0.00000000000E+00  0.00000000000E+00 -0.81775427925E+03  0.81775427925E+03  0.25500000920E-02 0.  1.
    10030    2    1    2    0    0  0.00000000000E+00  0.00000000000E+00  0.64241149905E+03  0.22779200576E+04  0.21854581338E+04 0.  0.
        2    1    3    3  502    0  0.33039816101E+03  0.41061422307E+03 -0.67652284762E+03  0.85758390163E+03  0.25500000920E-02 0.  1.
       -2    1    3    3    0  502 -0.33039816101E+03 -0.41061422307E+03  0.13189343467E+04  0.14203361559E+04  0.25500000920E-02 0. -1.
</event>
<event>
 5   0  0.8003875E-06  0.2207559E+04  0.7818609E-02  0.8515289E-01
       -3   -1    0    0    0  501  0.00000000000E+00  0.00000000000E+00  0.14224792206E+04  0.14224792242E+04  0.10100000352E+00 0.  1.
        3   -1    0    0  501    0  0.00000000000E+00  0.00000000000E+00 -0.85648262101E+03  0.85648262696E+03  0.10100000352E+00 0. -1.
    10030    2    1    2    0    0  0.00000000000E+00  0.00000000000E+00  0.56599659964E+03  0.22789618512E+04  0.22075585991E+04 0.  0.
        5    1    3    3  502    0  0.73792755176E+03  0.73528453975E+03 -0.93667877863E+02  0.10459331658E+04  0.46999998093E+01 0. -1.
       -5    1    3    3    0  502 -0.73792755176E+03 -0.73528453975E+03  0.65966447751E+03  0.12330286854E+04  0.46999998093E+01 0.  1.
</event>
<event>
 5   0  0.2289708E-05  0.2205014E+04  0.7818609E-02  0.8516344E-01
        2   -1    0    0  501    0  0.00000000000E+00  0.00000000000E+00  0.27566870127E+04  0.27566870127E+04  0.25500000920E-02 0. -1.
       -2   -1    0    0    0  501  0.00000000000E+00  0.00000000000E+00 -0.44093581526E+03  0.44093581527E+03  0.25500000920E-02 0.  1.
    10030    2    1    2    0    0  0.00000000000E+00  0.00000000000E+00  0.23157511975E+04  0.31976228280E+04  0.22050143178E+04 0.  0.
        5    1    3    3  502    0  0.28441394662E+03 -0.65453899963E+03  0.23765166083E+04  0.24813637127E+04  0.46999998093E+01 0. -1.
       -5    1    3    3    0  502 -0.28441394662E+03  0.65453899963E+03 -0.60765410873E+02  0.71625911529E+03  0.46999998093E+01 0.  1.
</event>
<event>
 5   0  0.2289708E-05  0.2194589E+04  0.7818609E-02  0.8520684E-01
       -2   -1    0    0    0  501  0.00000000000E+00  0.00000000000E+00  0.76983800881E+03  0.76983800881E+03  0.25500000920E-02 0. -1.
        2   -1    0    0  501    0  0.00000000000E+00  0.00000000000E+00 -0.15640371443E+04  0.15640371443E+04  0.25500000920E-02 0.  1.
    10030    2    1    2    0    0  0.00000000000E+00  0.00000000000E+00 -0.79419913554E+03  0.23338751532E+04  0.21945890193E+04 0.  0.
        5    1    3    3  502    0 -0.46702482444E+03 -0.88516626808E+03 -0.87554392231E+03  0.13297483817E+04  0.46999998093E+01 0.  1.
       -5    1    3    3    0  502  0.46702482444E+03  0.88516626808E+03  0.81344786771E+02  0.10041267714E+04  0.46999998093E+01 0. -1.
</event>
<event>
 5   0  0.1049198E-05  0.2134157E+04  0.7818609E-02  0.8546344E-01
       -1   -1    0    0    0  501  0.00000000000E+00  0.00000000000E+00  0.99935822666E+03  0.99935822667E+03  0.50400001928E-02 0. -1.
        1   -1    0    0  501    0  0.00000000000E+00  0.00000000000E+00 -0.11393880004E+04  0.11393880004E+04  0.50400001928E-02 0.  1.
    10030    2    1    2    0    0  0.00000000000E+00  0.00000000000E+00 -0.14002977375E+03  0.21387462271E+04  0.21341572309E+04 0.  0.
        1    1    3    3  502    0  0.97311277869E+03  0.22404107767E+03  0.30697732135E+03  0.10446903658E+04  0.50400001928E-02 0.  1.
       -1    1    3    3    0  502 -0.97311277869E+03 -0.22404107767E+03 -0.44700709510E+03  0.10940558613E+04  0.50400001928E-02 0. -1.
</event>
<event>
 5   0  0.1071208E-05  0.2229177E+04  0.7818609E-02  0.8506381E-01
        1   -1    0    0  501    0  0.00000000000E+00  0.00000000000E+00  0.18286693827E+04  0.18286693827E+04  0.50400001928E-02 0. -1.
       -1   -1    0    0    0  501  0.00000000000E+00  0.00000000000E+00 -0.67935038567E+03  0.67935038569E+03  0.50400001928E-02 0.  1.
    10030    2    1    2    0    0  0.00000000000E+00  0.00000000000E+00  0.11493189970E+04  0.25080197684E+04  0.22291767543E+04 0.  0.
        4    1    3    3  502    0  0.50067860509E+03  0.92591871857E+03  0.98697174296E+03  0.14429550836E+04  0.12699999809E+01 0. -1.
       -4    1    3    3    0  502 -0.50067860509E+03 -0.92591871857E+03  0.16234725408E+03  0.10650646848E+04  0.12699999809E+01 0.  1.
</event>
<event>
 5   0  0.2319707E-05  0.2200320E+04  0.7818609E-02  0.8518295E-01
       -2   -1    0    0    0  501  0.00000000000E+00  0.00000000000E+00  0.10472846123E+04  0.10472846123E+04  0.25500000920E-02 0.  1.
        2   -1    0    0  501    0  0.00000000000E+00  0.00000000000E+00 -0.11557047850E+04  0.11557047850E+04  0.25500000920E-02 0. -1.
    10030    2    1    2    0    0  0.00000000000E+00  0.00000000000E+00 -0.10842017271E+03  0.22029893973E+04  0.22003198292E+04 0.  0.
        3    1    3    3  502    0 -0.98813764851E+03  0.45865877308E+02  0.42786358500E+03  0.10777694321E+04  0.10100000352E+00 0.  1.
       -3    1    3    3    0  502  0.98813764851E+03 -0.45865877308E+02 -0.53628375771E+03  0.11252199652E+04  0.10100000352E+00 0. -1.
</event>
<event>
 5   0  0.2229552E-05  0.2225632E+04  0.7818609E-02  0.8507835E-01
       -2   -1    0    0    0  501  0.00000000000E+00  0.00000000000E+00  0.12965371762E+04  0.12965371762E+04  0.25500000920E-02 0. -1.
        2   -1    0    0  501    0  0.00000000000E+00  0.00000000000E+00 -0.95512838631E+03  0.95512838632E+03  0.25500000920E-02 0.  1.
    10030    2    1    2    0    0  0.00000000000E+00  0.00000000000E+00  0.34140878989E+03  0.22516655625E+04  0.22256320099E+04 0.  0.
        1    1    3    3  502    0 -0.91159271884E+03  0.62445473811E+03  0.30421183901E+03  0.11460758474E+04  0.50400001928E-02 0. -1.
       -1    1    3    3    0  502  0.91159271884E+03 -0.62445473811E+03  0.37196950886E+02  0.11055897151E+04  0.50400001928E-02 0.  1.
</event>
<event>
 5   0  0.2289708E-05  0.2192015E+04  0.7818609E-02  0.8521759E-01
       -2   -1    0    0    0  501  0.00000000000E+00  0.00000000000E+00  0.60131077129E+03  0.60131077129E+03  0.25500000920E-02 0.  1.
        2   -1    0    0  501    0  0.00000000000E+00  0.00000000000E+00 -0.19976893984E+04  0.19976893984E+04  0.25500000920E-02 0. -1.
    10030    2    1    2    0    0  0.00000000000E+00  0.00000000000E+00 -0.13963786271E+04  0.25990001697E+04  0.21920147380E+04 0.  0.
        5    1    3    3  502    0 -0.22672801662E+03 -0.33629212659E+03  0.50904596047E+03  0.65088237631E+03  0.46999998093E+01 0.  1.
       -5    1    3    3    0  502  0.22672801662E+03  0.33629212659E+03 -0.19054245876E+04  0.19481177934E+04  0.46999998093E+01 0. -1.
</event>
<event>
 5   0  0.8003875E-06  0.2200049E+04  0.7818609E-02  0.8518408E-01
        4   -1    0    0  501    0  0.00000000000E+00  0.00000000000E+00  0.78139440485E+03  0.78139543692E+03  0.12699999809E+01 0. -1.
       -4   -1    0    0    0  501  0.00000000000E+00  0.00000000000E+00 -0.15485803043E+04  0.15485808251E+04  0.12699999809E+01 0.  1.
    10030    2    1    2    0    0  0.00000000000E+00  0.00000000000E+00 -0.76718589944E+03  0.23299762620E+04  0.22000489033E+04 0.  0.
        5    1    3    3  502    0  0.52417820889E+03  0.15644645306E+03  0.62712296309E+03  0.83219203804E+03  0.46999998093E+01 0. -1.
       -5    1    3    3    0  502 -0.52417820889E+03 -0.15644645306E+03 -0.13943088625E+04  0.14977842239E+04  0.46999998093E+01 0.  1.
</event>
<event>
 5   0  0.2319707E-05  0.2208040E+04  0.7818609E-02  0.8515089E-01
        2   -1    0    0  501    0  0.00000000000E+00  0.00000000000E+00  0.17465565542E+04  0.17465565542E+04  0.25500000920E-02 0.  1.
       -2   -1    0    0    0  501  0.00000000000E+00  0.00000000000E+00 -0.69786476174E+03  0.69786476174E+03  0.25500000920E-02 0. -1.
    10030    2    1    2    0    0  0.00000000000E+00  0.00000000000E+00  0.10486917924E+04  0.24444213159E+04  0.22080401025E+04 0.  0.
        3    1    3    3  502    0  0.93487147005E+03 -0.47055714278E+02 -0.12369389138E+03  0.94419229753E+03  0.10100000352E+00 0. -1.
       -3    1    3    3    0  502 -0.93487147005E+03  0.47055714278E+02  0.11723856838E+04  0.15002290184E+04  0.10100000352E+00 0.  1.
</event>
<event>
 5   0  0.2298329E-05  0.2189738E+04  0.7818609E-02  0.8522711E-01
        2   -1    0    0  501    0  0.00000000000E+00  0.00000000000E+00  0.16898384387E+04  0.16898384387E+04  0.25500000920E-02 0. -1.
       -2   -1    0    0    0  501  0.00000000000E+00  0.00000000000E+00 -0.70938052727E+03  0.70938052727E+03  0.25500000920E-02 0.  1.
    10030    2    1    2    0    0  0.00000000000E+00  0.00000000000E+00  0.98045791145E+03  0.23992189660E+04  0.21897383247E+04 0.  0.
        4    1    3    3  502    0  0.83208838868E+03  0.19242320343E+03  0.12408505111E+04  0.15063563256E+04  0.12699999809E+01 0. -1.
       -4    1    3    3    0  502 -0.83208838868E+03 -0.19242320343E+03 -0.26039259966E+03  0.89286264041E+03  0.12699999809E+01 0.  1.
</event>
<event>
 5   0  0.8003875E-06  0.2215912E+04  0.7818609E-02  0.8511834E-01
        3   -1    0    0  501    0  0.00000000000E+00  0.00000000000E+00  0.69232251454E+03  0.69232252190E+03  0.10100000352E+00 0.  1.
       -3   -1    0    0    0  501  0.00000000000E+00  0.00000000000E+00 -0.17731138847E+04  0.17731138876E+04  0.10100000352E+00 0. -1.
    10030    2    1    2    0    0  0.00000000000E+00  0.00000000000E+00 -0.10807913702E+04  0.24654364095E+04  0.22159121606E+04 0.  0.
        4    1    3    3  502    0 -0.39024445968E+03 -0.10269697425E+04 -0.38067777079E+03  0.11627014958E+04  0.12699999809E+01 0.  1.
       -4    1    3    3    0  502  0.39024445968E+03  0.10269697425E+04 -0.70011359941E+03  0.13027349137E+04  0.12699999809E+01 0. -1.
</event>
<event>
 5   0  0.2319707E-05  0.2232559E+04  0.7818609E-02  0.8504997E-01
        2   -1    0    0  501    0  0.00000000000E+00  0.00000000000E+00  0.11391707889E+04  0.11391707889E+04  0.25500000920E-02 0.  1.
       -2   -1    0    0    0  501  0.00000000000E+00  0.00000000000E+00 -0.10938483501E+04  0.10938483501E+04  0.25500000920E-02 0. -1.
    10030    2    1    2    0    0  0.00000000000E+00  0.00000000000E+00  0.45322438848E+02  0.22330191390E+04  0.22325591485E+04 0.  0.
        3    1    3    3  502    0 -0.90629629724E+03 -0.49529629234E+03 -0.40096905717E+03  0.11079113641E+04  0.10100000352E+00 0. -1.
       -3    1    3    3    0  502  0.90629629724E+03  0.49529629234E+03  0.44629149601E+03  0.11251077749E+04  0.10100000352E+00 0.  1.
</event>
<event>
 5   0  0.2298329E-05  0.2195029E+04  0.7818609E-02  0.8520500E-01
       -2   -1    0    0    0  501  0.00000000000E+00  0.00000000000E+00  0.79145778409E+03  0.79145778409E+03  0.25500000920E-02 0. -1.
        2   -1    0    0  501    0  0.00000000000E+00  0.00000000000E+00 -0.15219229655E+04  0.15219229655E+04  0.25500000920E-02 0.  1.
    10030    2    1    2    0    0  0.00000000000E+00  0.00000000000E+00 -0.73046518145E+03  0.23133807496E+04  0.21950287268E+04 0.  0.
        4    1    3    3  502    0  0.55794426831E+03  0.20702524493E+03 -0.13371114318E+04  0.14635675087E+04  0.12699999809E+01 0.  1.
       -4    1    3    3    0  502 -0.55794426831E+03 -0.20702524493E+03  0.60664625032E+03  0.84981324096E+03  0.12699999809E+01 0. -1.
</event>
<event>
 5   0  0.2229552E-05  0.2199241E+04  0.7818609E-02  0.8518744E-01
        2   -1    0    0  501    0  0.00000000000E+00  0.00000000000E+00  0.85057187544E+03  0.85057187545E+03  0.25500000920E-02 0. -1.
       -2   -1    0    0    0  501  0.00000000000E+00  0.00000000000E+00 -0.14215909848E+04  0.14215909848E+04  0.25500000920E-02 0.  1.
    10030    2    1    2    0    0  0.00000000000E+00  0.00000000000E+00 -0.57101910937E+03  0.22721628603E+04  0.21992410601E+04 0.  0.
        1    1    3    3  502    0 -0.58434396440E+02  0.19129311856E+03 -0.14026381377E+04  0.14168279293E+04  0.50400001928E-02 0.  1.
       -1    1    3    3    0  502  0.58434396440E+02 -0.19129311856E+03  0.83161902831E+03  0.85533493098E+03  0.50400001928E-02 0. -1.
</event>
<event>
 5   0  0.1071208E-05  0.2204145E+04  0.7818609E-02  0.8516705E-01
       -1   -1    0    0    0  501  0.00000000000E+00  0.00000000000E+00  0.18792507926E+04  0.18792507926E+04  0.50400001928E-02 0. -1.
        1   -1    0    0  501    0  0.00000000000E+00  0.00000000000E+00 -0.64630217882E+03  0.64630217884E+03  0.50400001928E-02 0.  1.
    10030    2    1    2    0    0  0.00000000000E+00  0.00000000000E+00  0.12329486138E+04  0.25255529715E+04  0.22041450786E+04 0.  0.
        4    1    3    3  502    0  0.96405457617E+02  0.62420910047E+03 -0.41834193168E+03  0.75758999338E+03  0.12699999809E+01 0.  1.
       -4    1    3    3    0  502 -0.96405457617E+02 -0.62420910047E+03  0.16512905455E+04  0.17679629781E+04  0.12699999809E+01 0. -1.
</event>
<event>
 5   0  0.2319707E-05  0.2169193E+04  0.7818609E-02  0.8531361E-01
       -2   -1    0    0    0  501  0.00000000000E+00  0.00000000000E+00  0.11817966388E+04  0.11817966388E+04  0.25500000920E-02 0. -1.
        2   -1    0    0  501    0  0.00000000000E+00  0.00000000000E+00 -0.99539122633E+03  0.99539122633E+03  0.25500000920E-02 0.  1.
    10030    2    1    2    0    0  0.00000000000E+00  0.00000000000E+00  0.18640541251E+03  0.21771878652E+04  0.21691934037E+04 0.  0.
        3    1    3    3  502    0  0.76710308842E+03 -0.73285100266E+03  0.31949372532E+03  0.11079684071E+04  0.10100000352E+00 0. -1.
       -3    1    3    3    0  502 -0.76710308842E+03  0.73285100266E+03 -0.13308831281E+03  0.10692194581E+04  0.10100000352E+00 0.  1.
</event>
<event>
 5   0  0.2289708E-05  0.2186828E+04  0.7818609E-02  0.8523931E-01
        2   -1    0    0  501    0  0.00000000000E+00  0.00000000000E+00  0.29660247262E+04  0.29660247262E+04  0.25500000920E-02 0. -1.
       -2   -1    0    0    0  501  0.00000000000E+00  0.00000000000E+00 -0.40308309399E+03  0.40308309400E+03  0.25500000920E-02 0.  1.
    10030    2    1    2    0    0  0.00000000000E+00  0.00000000000E+00  0.25629416322E+04  0.33691078202E+04  0.21868282269E+04 0.  0.
        5    1    3    3  502    0  0.63165679701E+03 -0.85321476643E+03  0.16848899603E+04  0.19914421948E+04  0.46999998093E+01 0. -1.
       -5    1    3    3    0  502 -0.63165679701E+03  0.85321476643E+03  0.87805167187E+03  0.13776656254E+04  0.46999998093E+01 0.  1.
</event>
<event>
 5   0  0.1005538E-05  0.2210856E+04  0.7818609E-02  0.8513923E-01
       -1   -1    0    0    0  501  0.00000000000E+00  0.00000000000E+00  0.12530608641E+04  0.12530608641E+04  0.50400001928E-02 0.  1.
        1   -1    0    0  501    0  0.00000000000E+00  0.00000000000E+00 -0.97518886064E+03  0.97518886066E+03  0.50400001928E-02 0. -1.
    10030    2    1    2    0    0  0.00000000000E+00  0.00000000000E+00  0.27787200344E+03  0.22282497248E+04  0.22108559396E+04 0.  0.
        3    1    3    3  502    0  0.79311655381E+03  0.22891002828E+03 -0.60206067085E+03  0.10217194970E+04  0.10100000352E+00 0. -1.
       -3    1    3    3    0  502 -0.79311655381E+03 -0.22891002828E+03  0.87993267429E+03  0.12065302277E+04  0.10100000352E+00 0.  1.
</event>
<event>
 5   0  0.1071208E-05  0.2190315E+04  0.7818609E-02  0.8522470E-01
        1   -1    0    0  501    0  0.00000000000E+00  0.00000000000E+00  0.11911812923E+04  0.11911812923E+04  0.50400001928E-02 0. -1.
       -1   -1    0    0    0  501  0.00000000000E+00  0.00000000000E+00 -0.10068743328E+04  0.10068743328E+04  0.50400001928E-02 0.  1.
    10030    2    1    2    0    0  0.00000000000E+00  0.00000000000E+00  0.18430695948E+03  0.21980556251E+04  0.21903149261E+04 0.  0.
        4    1    3    3  502    0 -0.69770398709E+03 -0.72596515634E+02  0.93614122290E+03  0.11697961830E+04  0.12699999809E+01 0. -1.
       -4    1    3    3    0  502  0.69770398709E+03  0.72596515634E+02 -0.75183426341E+03  0.10282594421E+04  0.12699999809E+01 0.  1.
</event>
<event>
 5   0  0.2298329E-05  0.2207984E+04  0.7818609E-02  0.8515112E-01
        2   -1    0    0  501    0  0.00000000000E+00  0.00000000000E+00  0.10256943269E+04  0.10256943269E+04  0.25500000920E-02 0. -1.
       -2   -1    0    0    0  501  0.00000000000E+00  0.00000000000E+00 -0.11882669278E+04  0.11882669278E+04  0.25500000920E-02 0.  1.
    10030    2    1    2    0    0  0.00000000000E+00  0.00000000000E+00 -0.16257260091E+03  0.22139612548E+04  0.22079842814E+04 0.  0.
        4    1    3    3  502    0  0.80954613983E+02 -0.55035439871E+03 -0.10374679203E+04  0.11771936596E+04  0.12699999809E+01 0.  1.
       -4    1    3    3    0  502 -0.80954613983E+02  0.55035439871E+03  0.87489531935E+03  0.10367675952E+04  0.12699999809E+01 0. -1.
</event>
<event>
 5   0  0.1005538E-05  0.2197999E+04  0.7818609E-02  0.8519262E-01
       -1   -1    0    0    0  501  0.00000000000E+00  0.00000000000E+00  0.12307356578E+04  0.12307356578E+04  0.50400001928E-02 0.  1.
        1   -1    0    0  501    0  0.00000000000E+00  0.00000000000E+00 -0.98136400849E+03  0.98136400850E+03  0.50400001928E-02 0. -1.
    10030    2    1    2    0    0  0.00000000000E+00  0.00000000000E+00  0.24937164932E+03  0.22120996663E+04  0.21979987976E+04 0.  0.
        3    1    3    3  502    0  0.35421653638E+03 -0.99705227736E+03 -0.17423319839E+03  0.10723524682E+04  0.10100000352E+00 0.  1.
       -3    1    3    3    0  502 -0.35421653638E+03  0.99705227736E+03  0.42360484771E+03  0.11397471981E+04  0.10100000352E+00 0. -1.
</event>
<event>
 5   0  0.2289708E-05  0.2199669E+04  0.7818609E-02  0.8518566E-01
        2   -1    0    0  501    0  0.00000000000E+00  0.00000000000E+00  0.14883681671E+04  0.14883681671E+04  0.25500000920E-02 0. -1.
       -2   -1    0    0    0  501  0.00000000000E+00  0.00000000000E+00 -0.81272622401E+03  0.81272622401E+03  0.25500000920E-02 0.  1.
    10030    2    1    2    0    0  0.00000000000E+00  0.00000000000E+00  0.67564194311E+03  0.23010943911E+04  0.21996689209E+04 0.  0.
        5    1    3    3  502    0 -0.80753330291E+03  0.72380462059E+03  0.14603574080E+03  0.10942356655E+04  0.46999998093E+01 0.  1.
       -5    1    3    3    0  502  0.80753330291E+03 -0.72380462059E+03  0.52960620231E+03  0.12068587256E+04  0.46999998093E+01 0. -1.
</event>
<event>
 5   0  0.2284329E-05  0.2200232E+04  0.7818609E-02  0.8518332E-01
       -2   -1    0    0    0  501  0.00000000000E+00  0.00000000000E+00  0.63224129612E+03  0.63224129613E+03  0.25500000920E-02 0.  1.
        2   -1    0    0  501    0  0.00000000000E+00  0.00000000000E+00 -0.19142296225E+04  0.19142296225E+04  0.25500000920E-02 0. -1.
    10030    2    1    2    0    0  0.00000000000E+00  0.00000000000E+00 -0.12819883264E+04  0.25464709187E+04  0.22002318220E+04 0.  0.
        2    1    3    3  502    0  0.83901594252E+03 -0.29510571879E+02 -0.14638116888E+04  0.16874724549E+04  0.25500000920E-02 0. -1.
       -2    1    3    3    0  502 -0.83901594252E+03  0.29510571879E+02  0.18182336241E+03  0.85899846378E+03  0.25500000920E-02 0.  1.
</event>
<event>
 5   0  0.2289708E-05  0.2204487E+04  0.7818609E-02  0.8516563E-01
       -2   -1    0    0    0  501  0.00000000000E+00  0.00000000000E+00  0.11100598347E+04  0.11100598347E+04  0.25500000920E-02 0. -1.
        2   -1    0    0  501    0  0.00000000000E+00  0.00000000000E+00 -0.10944823914E+04  0.10944823914E+04  0.25500000920E-02 0.  1.
    10030    2    1    2    0    0  0.00000000000E+00  0.00000000000E+00  0.15577443305E+02  0.22045422262E+04  0.22044871898E+04 0.  0.
        5    1    3    3  502    0  0.93867905874E+03 -0.26053427174E+03 -0.50790076676E+03  0.10986272166E+04  0.46999998093E+01 0.  1.
       -5    1    3    3    0  502 -0.93867905874E+03  0.26053427174E+03  0.52347821007E+03  0.11059150096E+04  0.46999998093E+01 0. -1.
</event>
<event>
 5   0  0.1033733E-05  0.2186396E+04  0.7818609E-02  0.8524112E-01
       -1   -1    0    0    0  501  0.00000000000E+00  0.00000000000E+00  0.40606834679E+03  0.40606834682E+03  0.50400001928E-02 0. -1.
        1   -1    0    0  501    0  0.00000000000E+00  0.00000000000E+00 -0.29430546875E+04  0.29430546875E+04  0.50400001928E-02 0.  1.
    10030    2    1    2    0    0  0.00000000000E+00  0.00000000000E+00 -0.25369863407E+04  0.33491230343E+04  0.21863955283E+04 0.  0.
        5    1    3    3  502    0  0.34506731509E+03  0.84341030834E+02 -0.28521668891E+04  0.28742064843E+04  0.46999998093E+01 0.  1.
       -5    1    3    3    0  502 -0.34506731509E+03 -0.84341030834E+02  0.31518054834E+03  0.47491655001E+03  0.46999998093E+01 0. -1.
</event>
<event>
 5   0  0.1071208E-05  0.2198289E+04  0.7818609E-02  0.8519141E-01
        1   -1    0    0  501    0  0.00000000000E+00  0.00000000000E+00  0.16144151549E+04  0.16144151549E+04  0.50400001928E-02 0.  1.
       -1   -1    0    0    0  501  0.00000000000E+00  0.00000000000E+00 -0.74833189398E+03  0.74833189400E+03  0.50400001928E-02 0. -1.
    10030    2    1    2    0    0  0.00000000000E+00  0.00000000000E+00  0.86608326087E+03  0.23627470489E+04  0.21982887440E+04 0.  0.
        4    1    3    3  502    0  0.72924160122E+03  0.64987537629E+03  0.97471425388E+03  0.13799278268E+04  0.12699999809E+01 0.  1.
       -4    1    3    3    0  502 -0.72924160122E+03 -0.64987537629E+03 -0.10863099301E+03  0.98281922203E+03  0.12699999809E+01 0. -1.
</event>
<event>
 5   0  0.2319707E-05  0.2201055E+04  0.7818609E-02  0.8517989E-01
        2   -1    0    0  501    0  0.00000000000E+00  0.00000000000E+00  0.20050081330E+04  0.20050081330E+04  0.25500000920E-02 0.  1.
       -2   -1    0    0    0  501  0.00000000000E+00  0.00000000000E+00 -0.60406757706E+03  0.60406757707E+03  0.25500000920E-02 0. -1.
    10030    2    1    2    0    0  0.00000000000E+00  0.00000000000E+00  0.14009405560E+04  0.26090757101E+04  0.22010546608E+04 0.  0.
        3    1    3    3  502    0  0.67199116735E+03  0.33929804509E+03  0.16520727387E+04  0.18154998311E+04  0.10100000352E+00 0.  1.
       -3    1    3    3    0  502 -0.67199116735E+03 -0.33929804509E+03 -0.25113218273E+03  0.79357587904E+03  0.10100000352E+00 0. -1.
</event>
<event>
 5   0  0.1007682E-05  0.2198184E+04  0.7818609E-02  0.8519184E-01
       -1   -1    0    0    0  501  0.00000000000E+00  0.00000000000E+00  0.95149791394E+03  0.95149791395E+03  0.50400001928E-02 0. -1.
        1   -1    0    0  501    0  0.00000000000E+00  0.00000000000E+00 -0.12695806701E+04  0.12695806701E+04  0.50400001928E-02 0.  1.
    10030    2    1    2    0    0  0.00000000000E+00  0.00000000000E+00 -0.31808275613E+03  0.22210785840E+04  0.21981841226E+04 0.  0.
        2    1    3    3  502    0 -0.80615248268E+03 -0.72300326904E+03 -0.34911711443E+03  0.11377602173E+04  0.25500000920E-02 0. -1.
       -2    1    3    3    0  502  0.80615248268E+03  0.72300326904E+03  0.31034358307E+02  0.10833183668E+04  0.25500000920E-02 0.  1.
</event>
<event>
 5   0  0.2298329E-05  0.2197517E+04  0.7818609E-02  0.8519462E-01
       -2   -1    0    0    0  501  0.00000000000E+00  0.00000000000E+00  0.64101122114E+03  0.64101122115E+03  0.25500000920E-02 0.  1.
        2   -1    0    0  501    0  0.00000000000E+00  0.00000000000E+00 -0.18833846885E+04  0.18833846885E+04  0.25500000920E-02 0. -1.
    10030    2    1    2    0    0  0.00000000000E+00  0.00000000000E+00 -0.12423734674E+04  0.25243959096E+04  0.21975174348E+04 0.  0.
        4    1    3    3  502    0  0.34258171028E+03 -0.88998522988E+03 -0.12481060760E+04  0.15707343275E+04  0.12699999809E+01 0. -1.
       -4    1    3    3    0  502 -0.34258171028E+03  0.88998522988E+03  0.57326086562E+01  0.95366158218E+03  0.12699999809E+01 0.  1.
</event>
<event>
 5   0  0.1071208E-05  0.2207461E+04  0.7818609E-02  0.8515329E-01
        1   -1    0    0  501    0  0.00000000000E+00  0.00000000000E+00  0.13765285782E+04  0.13765285783E+04  0.50400001928E-02 0.  1.
       -1   -1    0    0    0  501  0.00000000000E+00  0.00000000000E+00 -0.88499526226E+03  0.88499526228E+03  0.50400001928E-02 0. -1.
    10030    2    1    2    0    0  0.00000000000E+00  0.00000000000E+00  0.49153331598E+03  0.22615238405E+04  0.22074612297E+04 0.  0.
        4    1    3    3  502    0  0.11537947411E+03 -0.39080719455E+03 -0.80511178121E+03  0.90235762284E+03  0.12699999809E+01 0. -1.
       -4    1    3    3    0  502 -0.11537947411E+03  0.39080719455E+03  0.12966450972E+04  0.13591662177E+04  0.12699999809E+01 0.  1.
</event>
<event>
 5   0  0.1049198E-05  0.2192186E+04  0.7818609E-02  0.8521688E-01
        1   -1    0    0  501    0  0.00000000000E+00  0.00000000000E+00  0.13589480981E+04  0.13589480981E+04  0.50400001928E-02 0.  1.
       -1   -1    0    0    0  501  0.00000000000E+00  0.00000000000E+00 -0.88408070455E+03  0.88408070456E+03  0.50400001928E-02 0. -1.
    10030    2    1    2    0    0  0.00000000000E+00  0.00000000000E+00  0.47486739353E+03  0.22430288026E+04  0.21921859337E+04 0.  0.
        1    1    3    3  502    0 -0.37668760272E+03  0.22692191015E+03  0.12647277438E+04  0.13390008848E+04  0.50400001928E-02 0.  1.
       -1    1    3    3    0  502  0.37668760272E+03 -0.22692191015E+03 -0.78986035029E+03  0.90402791790E+03  0.50400001928E-02 0. -1.
</event>
<event>
 5   0  0.1033733E-05  0.2181670E+04  0.7818609E-02  0.8526096E-01
        1   -1    0    0  501    0  0.00000000000E+00  0.00000000000E+00  0.17976620680E+04  0.17976620680E+04  0.50400001928E-02 0. -1.
       -1   -1    0    0    0  501  0.00000000000E+00  0.00000000000E+00 -0.66192695164E+03  0.66192695166E+03  0.50400001928E-02 0.  1.
    10030    2    1    2    0    0  0.00000000000E+00  0.00000000000E+00  0.11357351164E+04  0.24595890197E+04  0.21816699776E+04 0.  0.
        5    1    3    3  502    0  0.52009011088E+02  0.72583960374E+03  0.14840054571E+04  0.16528285919E+04  0.46999998093E+01 0. -1.
       -5    1    3    3    0  502 -0.52009011088E+02 -0.72583960374E+03 -0.34827034071E+03  0.80676042776E+03  0.46999998093E+01 0.  1.
</event>
<event>
 5   0  0.1005538E-05  0.2307760E+04  0.7818609E-02  0.8474868E-01
       -1   -1    0    0    0  501  0.00000000000E+00  0.00000000000E+00  0.67260139474E+03  0.67260139476E+03  0.50400001928E-02 0.  1.
        1   -1    0    0  501    0  0.00000000000E+00  0.00000000000E+00 -0.19795358483E+04  0.19795358483E+04  0.50400001928E-02 0. -1.
    10030    2    1    2    0    0  0.00000000000E+00  0.00000000000E+00 -0.13069344535E+04  0.26521372430E+04  0.23077595824E+04 0.  0.
        3    1    3    3  502    0  0.20289114480E+03  0.63694597806E+03 -0.17343346061E+04  0.18587042615E+04  0.10100000352E+00 0. -1.
       -3    1    3    3    0  502 -0.20289114480E+03 -0.63694597806E+03  0.42740015256E+03  0.79343298155E+03  0.10100000352E+00 0.  1.
</event>
<event>
 5   0  0.2284329E-05  0.2196167E+04  0.7818609E-02  0.8520025E-01
       -2   -1    0    0    0  501  0.00000000000E+00  0.00000000000E+00  0.46745673698E+03  0.46745673699E+03  0.25500000920E-02 0.  1.
        2   -1    0    0  501    0  0.00000000000E+00  0.00000000000E+00 -0.25794642000E+04  0.25794642000E+04  0.25500000920E-02 0. -1.
    10030    2    1    2    0    0  0.00000000000E+00  0.00000000000E+00 -0.21120074631E+04  0.30469209370E+04  0.21961674965E+04 0.  0.
        2    1    3    3  502    0 -0.43024005211E+03 -0.65480684200E+03  0.11386808745E+02  0.78358672921E+03  0.25500000920E-02 0.  1.
       -2    1    3    3    0  502  0.43024005211E+03  0.65480684200E+03 -0.21233942718E+04  0.22633342078E+04  0.25500000920E-02 0. -1.
</event>
<event>
 5   0  0.1071208E-05  0.2193091E+04  0.7818609E-02  0.8521309E-01
        1   -1    0    0  501    0  0.00000000000E+00  0.00000000000E+00  0.13224168747E+04  0.13224168747E+04  0.50400001928E-02 0. -1.
       -1   -1    0    0    0  501  0.00000000000E+00  0.00000000000E+00 -0.90925336335E+03  0.90925336336E+03  0.50400001928E-02 0.  1.
    10030    2    1    2    0    0  0.00000000000E+00  0.00000000000E+00  0.41316351133E+03  0.22316702381E+04  0.21930909613E+04 0.  0.
        4    1    3    3  502    0  0.96384264756E+03  0.51905136217E+03  0.14219618654E+03  0.11039150032E+04  0.12699999809E+01 0. -1.
       -4    1    3    3    0  502 -0.96384264756E+03 -0.51905136217E+03  0.27096732479E+03  0.11277552349E+04  0.12699999809E+01 0.  1.
</event>
<event>
 5   0  0.2319707E-05  0.2216295E+04  0.7818609E-02  0.8511676E-01
       -2   -1    0    0    0  501  0.00000000000E+00  0.00000000000E+00  0.64281135162E+03  0.64281135162E+03  0.25500000920E-02 0. -1.
        2   -1    0    0  501    0  0.00000000000E+00  0.00000000000E+00 -0.19103433759E+04  0.19103433759E+04  0.25500000920E-02 0.  1.
    10030    2    1    2    0    0  0.00000000000E+00  0.00000000000E+00 -0.12675320243E+04  0.25531547275E+04  0.22162945720E+04 0.  0.
        3    1    3    3  502    0  0.73330688841E+03 -0.76970603901E+03 -0.27349609381E+03  0.10977187721E+04  0.10100000352E+00 0.  1.
       -3    1    3    3    0  502 -0.73330688841E+03  0.76970603901E+03 -0.99403593045E+03  0.14554359554E+04  0.10100000352E+00 0. -1.
</event>
<event>
 5   0  0.2298329E-05  0.2197844E+04  0.7818609E-02  0.8519326E-01
        2   -1    0    0  501    0  0.00000000000E+00  0.00000000000E+00  0.26710622534E+04  0.26710622534E+04  0.25500000920E-02 0. -1.
       -2   -1    0    0    0  501  0.00000000000E+00  0.00000000000E+00 -0.45211574079E+03  0.45211574080E+03  0.25500000920E-02 0.  1.
    10030    2    1    2    0    0  0.00000000000E+00  0.00000000000E+00  0.22189465126E+04  0.31231779942E+04  0.21978437519E+04 0.  0.
        4    1    3    3  502    0 -0.21608020702E+03  0.10763764529E+04  0.11783707391E+04  0.16105390824E+04  0.12699999809E+01 0. -1.
       -4    1    3    3    0  502  0.21608020702E+03 -0.10763764529E+04  0.10405757735E+04  0.15126389118E+04  0.12699999809E+01 0.  1.
</event>
<event>
 5   0  0.1049198E-05  0.2193051E+04  0.7818609E-02  0.8521326E-01
       -1   -1    0    0    0  501  0.00000000000E+00  0.00000000000E+00  0.67773419462E+03  0.67773419464E+03  0.50400001928E-02 0. -1.
        1   -1    0    0  501    0  0.00000000000E+00  0.00000000000E+00 -0.17740998049E+04  0.17740998049E+04  0.50400001928E-02 0.  1.
    10030    2    1    2    0    0  0.00000000000E+00  0.00000000000E+00 -0.10963656103E+04  0.24518339995E+04  0.21930509365E+04 0.  0.
        1    1    3    3  502    0  0.51585307175E+03 -0.13666426845E+03  0.52275900232E+03  0.74703312406E+03  0.50400001928E-02 0. -1.
       -1    1    3    3    0  502 -0.51585307175E+03  0.13666426845E+03 -0.16191246126E+04  0.17048008755E+04  0.50400001928E-02 0.  1.
</event>
<event>
 5   0  0.2289708E-05  0.2256424E+04  0.7818609E-02  0.8495304E-01
        2   -1    0    0  501    0  0.00000000000E+00  0.00000000000E+00  0.15496528424E+04  0.15496528424E+04  0.25500000920E-02 0. -1.
       -2   -1    0    0    0  501  0.00000000000E+00  0.00000000000E+00 -0.82138516395E+03  0.82138516395E+03  0.25500000920E-02 0.  1.
    10030    2    1    2    0    0  0.00000000000E+00  0.00000000000E+00  0.72826767849E+03  0.23710380064E+04  0.22564235897E+04 0.  0.
        5    1    3    3  502    0  0.71240055364E+03  0.64328022541E+03 -0.25886937729E+03  0.99416268374E+03  0.46999998093E+01 0.  1.
       -5    1    3    3    0  502 -0.71240055364E+03 -0.64328022541E+03  0.98713705579E+03  0.13768753227E+04  0.46999998093E+01 0. -1.
</event>
<event>
 5   0  0.2229552E-05  0.2190532E+04  0.7818609E-02  0.8522379E-01
        2   -1    0    0  501    0  0.00000000000E+00  0.00000000000E+00  0.17585237099E+04  0.17585237099E+04  0.25500000920E-02 0.  1.
       -2   -1    0    0    0  501  0.00000000000E+00  0.00000000000E+00 -0.68216719628E+03  0.68216719629E+03  0.25500000920E-02 0. -1.
    10030    2    1    2    0    0  0.00000000000E+00  0.00000000000E+00  0.10763565136E+04  0.24406909061E+04  0.21905316147E+04 0.  0.
        1    1    3    3  502    0  0.10031680101E+04 -0.40921710973E+03  0.35920256004E+03  0.11414163038E+04  0.50400001928E-02 0.  1.
       -1    1    3    3    0  502 -0.10031680101E+04  0.40921710973E+03  0.71715395354E+03  0.12992746024E+04  0.50400001928E-02 0. -1.
</event>
<event>
 5   0  0.2319707E-05  0.2203885E+04  0.7818609E-02  0.8516813E-01
        2   -1    0    0  501    0  0.00000000000E+00  0.00000000000E+00  0.10174676900E+04  0.10174676900E+04  0.25500000920E-02 0. -1.
       -2   -1    0    0    0  501  0.00000000000E+00  0.00000000000E+00 -0.11934311459E+04  0.11934311459E+04  0.25500000920E-02 0.  1.
    10030    2    1    2    0    0  0.00000000000E+00  0.00000000000E+00 -0.17596345582E+03  0.22108988359E+04  0.22038853248E+04 0.  0.
        3    1    3    3  502    0  0.51236665593E+03 -0.42657127837E+03 -0.96815345494E+03  0.11755014964E+04  0.10100000352E+00 0.  1.
       -3    1    3    3    0  502 -0.51236665593E+03  0.42657127837E+03  0.79218999912E+03  0.10353973394E+04  0.10100000352E+00 0. -1.
</event>
<event>
 5   0  0.1049198E-05  0.2175986E+04  0.7818609E-02  0.8528490E-01
       -1   -1    0    0    0  501  0.00000000000E+00  0.00000000000E+00  0.63190977907E+03  0.63190977909E+03  0.50400001928E-02 0. -1.
        1   -1    0    0  501    0  0.00000000000E+00  0.00000000000E+00 -0.18732562240E+04  0.18732562240E+04  0.50400001928E-02 0.  1.
    10030    2    1    2    0    0  0.00000000000E+00  0.00000000000E+00 -0.12413464449E+04  0.25051660031E+04  0.21759861458E+04 0.  0.
        1    1    3    3  502    0 -0.41757252801E+03  0.36111291765E+03  0.45868308374E+03  0.71774614369E+03  0.50400001928E-02 0. -1.
       -1    1    3    3    0  502  0.41757252801E+03 -0.36111291765E+03 -0.17000295286E+04  0.17874198594E+04  0.50400001928E-02 0.  1.
</event>
<event>
 5   0  0.1007682E-05  0.2213402E+04  0.7818609E-02  0.8512870E-01
        1   -1    0    0  501    0  0.00000000000E+00  0.00000000000E+00  0.83124772249E+03  0.83124772251E+03  0.50400001928E-02 0.  1.
       -1   -1    0    0    0  501  0.00000000000E+00  0.00000000000E+00 -0.14734326282E+04  0.14734326282E+04  0.50400001928E-02 0. -1.
    10030    2    1    2    0    0  0.00000000000E+00  0.00000000000E+00 -0.64218490569E+03  0.23046803507E+04  0.22134023732E+04 0.  0.
        2    1    3    3  502    0  0.78733803654E+03 -0.74176186995E+03 -0.56456351406E+03  0.12201818786E+04  0.25500000920E-02 0.  1.
       -2    1    3    3    0  502 -0.78733803654E+03  0.74176186995E+03 -0.77621391633E+02  0.10844984721E+04  0.25500000920E-02 0. -1.
</event>
<event>
 5   0  0.2229552E-05  0.2182654E+04  0.7818609E-02  0.8525683E-01
       -2   -1    0    0    0  501  0.00000000000E+00  0.00000000000E+00  0.59019007902E+03  0.59019007903E+03  0.25500000920E-02 0. -1.
        2   -1    0    0  501    0  0.00000000000E+00  0.00000000000E+00 -0.20179849782E+04  0.20179849782E+04  0.25500000920E-02 0.  1.
    10030    2    1    2    0    0  0.00000000000E+00  0.00000000000E+00 -0.14277948992E+04  0.26081750572E+04  0.21826540851E+04 0.  0.
        1    1    3    3  502    0 -0.89530130158E+03 -0.59118745633E+03 -0.47512243085E+03  0.11733747711E+04  0.50400001928E-02 0.  1.
       -1    1    3    3    0  502  0.89530130158E+03  0.59118745633E+03 -0.95267246830E+03  0.14348002861E+04  0.50400001928E-02 0. -1.
</event>
<event>
 5   0  0.2319707E-05  0.2188026E+04  0.7818609E-02  0.8523428E-01
        2   -1    0    0  501    0  0.00000000000E+00  0.00000000000E+00  0.93560455135E+03  0.93560455135E+03  0.25500000920E-02 0. -1.
       -2   -1    0    0    0  501  0.00000000000E+00  0.00000000000E+00 -0.12792420968E+04  0.12792420968E+04  0.25500000920E-02 0.  1.
    10030    2    1    2    0    0  0.00000000000E+00  0.00000000000E+00 -0.34363754540E+03  0.22148466481E+04  0.21880262594E+04 0.  0.
        3    1    3    3  502    0  0.67390651424E+03  0.32638643324E+03 -0.97920883361E+03  0.12326913822E+04  0.10100000352E+00 0. -1.
       -3    1    3    3    0  502 -0.67390651424E+03 -0.32638643324E+03  0.63557128821E+03  0.98215526590E+03  0.10100000352E+00 0.  1.
</event>
<event>
 5   0  0.1033733E-05  0.2174146E+04  0.7818609E-02  0.8529267E-01
        1   -1    0    0  501    0  0.00000000000E+00  0.00000000000E+00  0.77696542371E+03  0.77696542372E+03  0.50400001928E-02 0. -1.
       -1   -1    0    0    0  501  0.00000000000E+00  0.00000000000E+00 -0.15209529601E+04  0.15209529601E+04  0.50400001928E-02 0.  1.
    10030    2    1    2    0    0  0.00000000000E+00  0.00000000000E+00 -0.74398753641E+03  0.22979183838E+04  0.21741461415E+04 0.  0.
        5    1    3    3  502    0 -0.39782685959E+03 -0.10096554293E+04 -0.30485193438E+03  0.11272209579E+04  0.46999998093E+01 0.  1.
       -5    1    3    3    0  502  0.39782685959E+03  0.10096554293E+04 -0.43913560203E+03  0.11706974259E+04  0.46999998093E+01 0. -1.
</event>
<event>
 5   0  0.2319707E-05  0.2210396E+04  0.7818609E-02  0.8514114E-01
        2   -1    0    0  501    0  0.00000000000E+00  0.00000000000E+00  0.90541122300E+03  0.90541122301E+03  0.25500000920E-02 0.  1.
       -2   -1    0    0    0  501  0.00000000000E+00  0.00000000000E+00 -0.13490694603E+04  0.13490694603E+04  0.25500000920E-02 0. -1.
    10030    2    1    2    0    0  0.00000000000E+00  0.00000000000E+00 -0.44365823729E+03  0.22544806833E+04  0.22103960097E+04 0.  0.
        3    1    3    3  502    0  0.79594977164E+03  0.39368249064E+03 -0.89293435400E+03  0.12593068384E+04  0.10100000352E+00 0.  1.
       -3    1    3    3    0  502 -0.79594977164E+03 -0.39368249064E+03  0.44927611670E+03  0.99517384494E+03  0.10100000352E+00 0. -1.
</event>
<event>
 5   0  0.1071208E-05  0.2199219E+04  0.7818609E-02  0.8518753E-01
       -1   -1    0    0    0  501  0.00000000000E+00  0.00000000000E+00  0.97691652648E+03  0.97691652650E+03  0.50400001928E-02 0. -1.
        1   -1    0    0  501    0  0.00000000000E+00  0.00000000000E+00 -0.12377118503E+04  0.12377118503E+04  0.50400001928E-02 0.  1.
    10030    2    1    2    0    0  0.00000000000E+00  0.00000000000E+00 -0.26079532377E+03  0.22146283768E+04  0.21992190992E+04 0.  0.
        4    1    3    3  502    0 -0.56551841566E+03  0.81977533957E+03 -0.59981496071E+03  0.11625929149E+04  0.12699999809E+01 0.  1.
       -4    1    3    3    0  502  0.56551841566E+03 -0.81977533957E+03  0.33901963694E+03  0.10520354618E+04  0.12699999809E+01 0. -1.
</event>
<event>
 5   0  0.1071208E-05  0.2196362E+04  0.7818609E-02  0.8519944E-01
        1   -1    0    0  501    0  0.00000000000E+00  0.00000000000E+00  0.13462475328E+04  0.13462475328E+04  0.50400001928E-02 0.  1.
       -1   -1    0    0    0  501  0.00000000000E+00  0.00000000000E+00 -0.89582454120E+03  0.89582454122E+03  0.50400001928E-02 0. -1.
    10030    2    1    2    0    0  0.00000000000E+00  0.00000000000E+00  0.45042299155E+03  0.22420720740E+04  0.21963620634E+04 0.  0.
        4    1    3    3  502    0  0.18660045247E+03 -0.10289829296E+04  0.56741091270E+03  0.11897824822E+04  0.12699999809E+01 0.  1.
       -4    1    3    3    0  502 -0.18660045247E+03  0.10289829296E+04 -0.11698792115E+03  0.10522895917E+04  0.12699999809E+01 0. -1.
</event>
<event>
 5   0  0.2319707E-05  0.2201984E+04  0.7818609E-02  0.8517603E-01
       -2   -1    0    0    0  501  0.00000000000E+00  0.00000000000E+00  0.18986672010E+04  0.18986672010E+04  0.25500000920E-02 0.  1.
        2   -1    0    0  501    0  0.00000000000E+00  0.00000000000E+00 -0.63843937731E+03  0.63843937731E+03  0.25500000920E-02 0. -1.
    10030    2    1    2    0    0  0.00000000000E+00  0.00000000000E+00  0.12602278237E+04  0.25371065783E+04  0.22019844736E+04 0.  0.
        3    1    3    3  502    0  0.16550814275E+02  0.68031176661E+03 -0.36710443568E+03  0.77321646784E+03  0.10100000352E+00 0. -1.
       -3    1    3    3    0  502 -0.16550814275E+02 -0.68031176661E+03  0.16273322594E+04  0.17638901105E+04  0.10100000352E+00 0.  1.
</event>
<event>
 5   0  0.1005538E-05  0.2203843E+04  0.7818609E-02  0.8516830E-01
       -1   -1    0    0    0  501  0.00000000000E+00  0.00000000000E+00  0.81213410837E+03  0.81213410839E+03  0.50400001928E-02 0. -1.
        1   -1    0    0  501    0  0.00000000000E+00  0.00000000000E+00 -0.14951111517E+04  0.14951111517E+04  0.50400001928E-02 0.  1.
    10030    2    1    2    0    0  0.00000000000E+00  0.00000000000E+00 -0.68297704337E+03  0.23072452601E+04  0.22038427913E+04 0.  0.
        3    1    3    3  502    0 -0.37154377098E+03 -0.38518170830E+03  0.66694031722E+03  0.85511351240E+03  0.10100000352E+00 0. -1.
       -3    1    3    3    0  502  0.37154377098E+03  0.38518170830E+03 -0.13499173606E+04  0.14521317477E+04  0.10100000352E+00 0.  1.
</event>
<event>
 5   0  0.1049198E-05  0.2208148E+04  0.7818609E-02  0.8515044E-01
        1   -1    0    0  501    0  0.00000000000E+00  0.00000000000E+00  0.19956306270E+04  0.19956306270E+04  0.50400001928E-02 0. -1.
       -1   -1    0    0    0  501  0.00000000000E+00  0.00000000000E+00 -0.61082441629E+03  0.61082441631E+03  0.50400001928E-02 0.  1.
    10030    2    1    2    0    0  0.00000000000E+00  0.00000000000E+00  0.13848062107E+04  0.26064550433E+04  0.22081484668E+04 0.  0.
        1    1    3    3  502    0 -0.56702473994E+03 -0.25675702479E+03  0.17687771038E+04  0.18751036420E+04  0.50400001928E-02 0. -1.
       -1    1    3    3    0  502  0.56702473994E+03  0.25675702479E+03 -0.38397089303E+03  0.73135140131E+03  0.50400001928E-02 0.  1.
</event>
<event>
 5   0  0.1071208E-05  0.2202788E+04  0.7818609E-02  0.8517269E-01
       -1   -1    0    0    0  501  0.00000000000E+00  0.00000000000E+00  0.73377090455E+03  0.73377090456E+03  0.50400001928E-02 0.  1.
        1   -1    0    0  501    0  0.00000000000E+00  0.00000000000E+00 -0.16531977407E+04  0.16531977407E+04  0.50400001928E-02 0. -1.
    10030    2    1    2    0    0  0.00000000000E+00  0.00000000000E+00 -0.91942683615E+03  0.23869686453E+04  0.22027876898E+04 0.  0.
        4    1    3    3  502    0  0.51241432822E+03 -0.34674430354E+03 -0.14470901576E+04  0.15738079911E+04  0.12699999809E+01 0. -1.
       -4    1    3    3    0  502 -0.51241432822E+03  0.34674430354E+03  0.52766332143E+03  0.81316065417E+03  0.12699999809E+01 0.  1.
</event>
<event>
 5   0  0.2284329E-05  0.2207911E+04  0.7818609E-02  0.8515142E-01
       -2   -1    0    0    0  501  0.00000000000E+00  0.00000000000E+00  0.10330771817E+04  0.10330771817E+04  0.25500000920E-02 0. -1.
        2   -1    0    0  501    0  0.00000000000E+00  0.00000000000E+00 -0.11796972293E+04  0.11796972293E+04  0.25500000920E-02 0.  1.
    10030    2    1    2    0    0  0.00000000000E+00  0.00000000000E+00 -0.14662004759E+03  0.22127744110E+04  0.22079114918E+04 0.  0.
        2    1    3    3  502    0 -0.62696895048E+03 -0.59529039219E+02  0.83537572135E+03  0.10461770248E+04  0.25500000920E-02 0. -1.
       -2    1    3    3    0  502  0.62696895048E+03  0.59529039219E+02 -0.98199576894E+03  0.11665973862E+04  0.25500000920E-02 0.  1.
</event>
<event>
 5   0  0.2284329E-05  0.2211182E+04  0.7818609E-02  0.8513788E-01
       -2   -1    0    0    0  501  0.00000000000E+00  0.00000000000E+00  0.10981770305E+04  0.10981770305E+04  0.25500000920E-02 0. -1.
        2   -1    0    0  501    0  0.00000000000E+00  0.00000000000E+00 -0.11130550415E+04  0.11130550415E+04  0.25500000920E-02 0.  1.
    10030    2    1    2    0    0  0.00000000000E+00  0.00000000000E+00 -0.14878010975E+02  0.22112320720E+04  0.22111820189E+04 0.  0.
        2    1    3    3  502    0  0.19850083147E+03  0.81245596043E+03 -0.73053504563E+03  0.11104813013E+04  0.25500000920E-02 0. -1.
       -2    1    3    3    0  502 -0.19850083147E+03 -0.81245596043E+03  0.71565703465E+03  0.11007507706E+04  0.25500000920E-02 0.  1.
</event>
<event>
 5   0  0.2284329E-05  0.2198316E+04  0.7818609E-02  0.8519129E-01
       -2   -1    0    0    0  501  0.00000000000E+00  0.00000000000E+00  0.17945859161E+04  0.17945859161E+04  0.25500000920E-02 0.  1.
        2   -1    0    0  501    0  0.00000000000E+00  0.00000000000E+00 -0.67321827115E+03  0.67321827116E+03  0.25500000920E-02 0. -1.
    10030    2    1    2    0    0  0.00000000000E+00  0.00000000000E+00  0.11213676450E+04  0.24678041873E+04  0.21983157443E+04 0.  0.
        2    1    3    3  502    0  0.75328997636E+02  0.77965243002E+03 -0.30495912924E+03  0.84055484058E+03  0.25500000920E-02 0. -1.
       -2    1    3    3    0  502 -0.75328997636E+02 -0.77965243002E+03  0.14263267742E+04  0.16272493467E+04  0.25500000920E-02 0.  1.
</event>
<event>
 5   0  0.1007682E-05  0.2227995E+04  0.7818609E-02  0.8506865E-01
       -1   -1    0    0    0  501  0.00000000000E+00  0.00000000000E+00  0.10991957335E+04  0.10991957335E+04  0.50400001928E-02 0.  1.
        1   -1    0    0  501    0  0.00000000000E+00  0.00000000000E+00 -0.11289988789E+04  0.11289988789E+04  0.50400001928E-02 0. -1.
    10030    2    1    2    0    0  0.00000000000E+00  0.00000000000E+00 -0.29803145441E+02  0.22281946124E+04  0.22279952880E+04 0.  0.
        2    1    3    3  502    0  0.57889382742E+03 -0.92249328421E+03 -0.24918483667E+03  0.11172309545E+04  0.25500000920E-02 0. -1.
       -2    1    3    3    0  502 -0.57889382742E+03  0.92249328421E+03  0.21938169123E+03  0.11109636580E+04  0.25500000920E-02 0.  1.
</event>
<event>
 5   0  0.1071208E-05  0.2197947E+04  0.7818609E-02  0.8519283E-01
       -1   -1    0    0    0  501  0.00000000000E+00  0.00000000000E+00  0.11448532318E+04  0.11448532318E+04  0.50400001928E-02 0.  1.
        1   -1    0    0  501    0  0.00000000000E+00  0.00000000000E+00 -0.10549321945E+04  0.10549321945E+04  0.50400001928E-02 0. -1.
    10030    2    1    2    0    0  0.00000000000E+00  0.00000000000E+00  0.89921037303E+02  0.21997854262E+04  0.21979467984E+04 0.  0.
        4    1    3    3  502    0 -0.10439570043E+03 -0.72223554765E+03  0.86736456243E+03  0.11335102759E+04  0.12699999809E+01 0.  1.
       -4    1    3    3    0  502  0.10439570043E+03  0.72223554765E+03 -0.77744352512E+03  0.10662751503E+04  0.12699999809E+01 0. -1.
</event>
<event>
 5   0  0.1005538E-05  0.2198005E+04  0.7818609E-02  0.8519259E-01
       -1   -1    0    0    0  501  0.00000000000E+00  0.00000000000E+00  0.60890033311E+03  0.60890033313E+03  0.50400001928E-02 0. -1.
        1   -1    0    0  501    0  0.00000000000E+00  0.00000000000E+00 -0.19835865588E+04  0.19835865588E+04  0.50400001928E-02 0.  1.
    10030    2    1    2    0    0  0.00000000000E+00  0.00000000000E+00 -0.13746862257E+04  0.25924868919E+04  0.21980050195E+04 0.  0.
        3    1    3    3  502    0  0.57590655009E+03 -0.82660261688E+03 -0.16935949452E+03  0.10215786261E+04  0.10100000352E+00 0. -1.
       -3    1    3    3    0  502 -0.57590655009E+03  0.82660261688E+03 -0.12053267311E+04  0.15709082658E+04  0.10100000352E+00 0.  1.
</event>
<event>
 5   0  0.2289708E-05  0.2189087E+04  0.7818609E-02  0.8522984E-01
       -2   -1    0    0    0  501  0.00000000000E+00  0.00000000000E+00  0.58790256489E+03  0.58790256490E+03  0.25500000920E-02 0.  1.
        2   -1    0    0  501    0  0.00000000000E+00  0.00000000000E+00 -0.20377956635E+04  0.20377956635E+04  0.25500000920E-02 0. -1.
    10030    2    1    2    0    0  0.00000000000E+00  0.00000000000E+00 -0.14498930986E+04  0.26256982284E+04  0.21890868391E+04 0.  0.
        5    1    3    3  502    0  0.21654749491E+01  0.10939240210E+04 -0.68122413267E+03  0.12887058865E+04  0.46999998093E+01 0. -1.
       -5    1    3    3    0  502 -0.21654749491E+01 -0.10939240210E+04 -0.76866896594E+03  0.13369923419E+04  0.46999998093E+01 0.  1.
</event>
<event>
 5   0  0.1071208E-05  0.2186934E+04  0.7818609E-02  0.8523886E-01
        1   -1    0    0  501    0  0.00000000000E+00  0.00000000000E+00  0.15893271782E+04  0.15893271782E+04  0.50400001928E-02 0.  1.
       -1   -1    0    0    0  501  0.00000000000E+00  0.00000000000E+00 -0.75231242331E+03  0.75231242333E+03  0.50400001928E-02 0. -1.
    10030    2    1    2    0    0  0.00000000000E+00  0.00000000000E+00  0.83701475485E+03  0.23416396015E+04  0.21869344580E+04 0.  0.
        4    1    3    3  502    0 -0.39075959540E+03 -0.51338061287E+03 -0.52679122451E+03  0.83292455972E+03  0.12699999809E+01 0. -1.
       -4    1    3    3    0  502  0.39075959540E+03  0.51338061287E+03  0.13638059794E+04  0.15087150418E+04  0.12699999809E+01 0.  1.
</event>
<event>
 5   0  0.2289708E-05  0.2197293E+04  0.7818609E-02  0.8519556E-01
       -2   -1    0    0    0  501  0.00000000000E+00  0.00000000000E+00  0.62625974981E+03  0.62625974982E+03  0.25500000920E-02 0.  1.
        2   -1    0    0  501    0  0.00000000000E+00  0.00000000000E+00 -0.19273540882E+04  0.19273540882E+04  0.25500000920E-02 0. -1.
    10030    2    1    2    0    0  0.00000000000E+00  0.00000000000E+00 -0.13010943384E+04  0.25536138381E+04  0.21972931430E+04 0.  0.
        5    1    3    3  502    0  0.17260689171E+03  0.76154939375E+03  0.24759663168E+03  0.81919277353E+03  0.46999998093E+01 0.  1.
       -5    1    3    3    0  502 -0.17260689171E+03 -0.76154939375E+03 -0.15486909701E+04  0.17344210645E+04  0.46999998093E+01 0. -1.
</event>
<event>
 5   0  0.1071208E-05  0.2172847E+04  0.7818609E-02  0.8529816E-01
        1   -1    0    0  501    0  0.00000000000E+00  0.00000000000E+00  0.21089732659E+04  0.21089732659E+04  0.50400001928E-02 0. -1.
       -1   -1    0    0    0  501  0.00000000000E+00  0.00000000000E+00 -0.55966366949E+03  0.55966366951E+03  0.50400001928E-02 0.  1.
    10030    2    1    2    0    0  0.00000000000E+00  0.00000000000E+00  0.15493095964E+04  0.26686369354E+04  0.21728467197E+04 0.  0.
        4    1    3    3  502    0 -0.34550657748E+03  0.10296514254E+04  0.74085762831E+03  0.13146971101E+04  0.12699999809E+01 0.  1.
       -4    1    3    3    0  502  0.34550657748E+03 -0.10296514254E+04  0.80845196809E+03  0.13539398253E+04  0.12699999809E+01 0. -1.
</event>
<event>
 5   0  0.1033733E-05  0.2205369E+04  0.7818609E-02  0.8516197E-01
       -1   -1    0    0    0  501  0.00000000000E+00  0.00000000000E+00  0.53519188297E+03  0.53519188300E+03  0.50400001928E-02 0. -1.
        1   -1    0    0  501    0  0.00000000000E+00  0.00000000000E+00 -0.22719196999E+04  0.22719196999E+04  0.50400001928E-02 0.  1.
    10030    2    1    2    0    0  0.00000000000E+00  0.00000000000E+00 -0.17367278169E+04  0.28071115829E+04  0.22053688872E+04 0.  0.
        5    1    3    3  502    0  0.17830296154E+03  0.90311914942E+03 -0.16410129997E+04  0.18815849434E+04  0.46999998093E+01 0.  1.
       -5    1    3    3    0  502 -0.17830296154E+03 -0.90311914942E+03 -0.95714817219E+02  0.92552663947E+03  0.46999998093E+01 0. -1.
</event>
<event>
 5   0  0.1005538E-05  0.2197475E+04  0.7818609E-02  0.8519480E-01
       -1   -1    0    0    0  501  0.00000000000E+00  0.00000000000E+00  0.10718370953E+04  0.10718370953E+04  0.50400001928E-02 0. -1.
        1   -1    0    0  501    0  0.00000000000E+00  0.00000000000E+00 -0.11263130723E+04  0.11263130723E+04  0.50400001928E-02 0.  1.
    10030    2    1    2    0    0  0.00000000000E+00  0.00000000000E+00 -0.54475977017E+02  0.21981501677E+04  0.21974750346E+04 0.  0.
        3    1    3    3  502    0 -0.63039973042E+02  0.38455112083E+03  0.10003899131E+04  0.10736077455E+04  0.10100000352E+00 0. -1.
       -3    1    3    3    0  502  0.63039973042E+02 -0.38455112083E+03 -0.10548658902E+04  0.11245424221E+04  0.10100000352E+00 0.  1.
</event>
<event>
 5   0  0.1005538E-05  0.2184205E+04  0.7818609E-02  0.8525031E-01
        1   -1    0    0  501    0  0.00000000000E+00  0.00000000000E+00  0.11100206080E+04  0.11100206080E+04  0.50400001928E-02 0.  1.
       -1   -1    0    0    0  501  0.00000000000E+00  0.00000000000E+00 -0.10744737757E+04  0.10744737757E+04  0.50400001928E-02 0. -1.
    10030    2    1    2    0    0  0.00000000000E+00  0.00000000000E+00  0.35546832293E+02  0.21844943837E+04  0.21842051495E+04 0.  0.
        3    1    3    3  502    0 -0.43404661003E+03 -0.84723646149E+03  0.55308437209E+03  0.11009579530E+04  0.10100000352E+00 0.  1.
       -3    1    3    3    0  502  0.43404661003E+03  0.84723646149E+03 -0.51753753980E+03  0.10835364307E+04  0.10100000352E+00 0. -1.
</event>
<event>
 5   0  0.2298329E-05  0.2174526E+04  0.7818609E-02  0.8529107E-01
        2   -1    0    0  501    0  0.00000000000E+00  0.00000000000E+00  0.11019325653E+04  0.11019325653E+04  0.25500000920E-02 0. -1.
       -2   -1    0    0    0  501  0.00000000000E+00  0.00000000000E+00 -0.10727883614E+04  0.10727883614E+04  0.25500000920E-02 0.  1.
    10030    2    1    2    0    0  0.00000000000E+00  0.00000000000E+00  0.29144203912E+02  0.21747209266E+04  0.21745256320E+04 0.  0.
        4    1    3    3  502    0  0.34922185493E+03 -0.89208689842E+03 -0.49963735646E+03  0.10804693606E+04  0.12699999809E+01 0.  1.
       -4    1    3    3    0  502 -0.34922185493E+03  0.89208689842E+03  0.52878156037E+03  0.10942515660E+04  0.12699999809E+01 0. -1.
</event>
<event>
 5   0  0.2284329E-05  0.2192134E+04  0.7818609E-02  0.8521709E-01
       -2   -1    0    0    0  501  0.00000000000E+00  0.00000000000E+00  0.11660483870E+04  0.11660483870E+04  0.25500000920E-02 0.  1.
        2   -1    0    0  501    0  0.00000000000E+00  0.00000000000E+00 -0.10302853064E+04  0.10302853064E+04  0.25500000920E-02 0. -1.
    10030    2    1    2    0    0  0.00000000000E+00  0.00000000000E+00  0.13576308052E+03  0.21963336934E+04  0.21921336818E+04 0.  0.
        2    1    3    3  502    0  0.53172226407E+03 -0.94448378577E+03 -0.95477873024E+02  0.10880690290E+04  0.25500000920E-02 0. -1.
       -2    1    3    3    0  502 -0.53172226407E+03  0.94448378577E+03  0.23124095354E+03  0.11082646644E+04  0.25500000920E-02 0.  1.
</event>
<event>
 5   0  0.1005538E-05  0.2200137E+04  0.7818609E-02  0.8518371E-01
       -1   -1    0    0    0  501  0.00000000000E+00  0.00000000000E+00  0.56549076570E+03  0.56549076572E+03  0.50400001928E-02 0. -1.
        1   -1    0    0  501    0  0.00000000000E+00  0.00000000000E+00 -0.21400010735E+04  0.21400010735E+04  0.50400001928E-02 0.  1.
    10030    2    1    2    0    0  0.00000000000E+00  0.00000000000E+00 -0.15745103078E+04  0.27054918393E+04  0.22001371282E+04 0.  0.
        3    1    3    3  502    0  0.94875405890E+03  0.24650259286E+03 -0.14011821243E+04  0.17100319144E+04  0.10100000352E+00 0.  1.
       -3    1    3    3    0  502 -0.94875405890E+03 -0.24650259286E+03 -0.17332818349E+03  0.99545992484E+03  0.10100000352E+00 0. -1.
</event>
<event>
 5   0  0.2319707E-05  0.2272819E+04  0.7818609E-02  0.8488716E-01
        2   -1    0    0  501    0  0.00000000000E+00  0.00000000000E+00  0.19507272006E+04  0.19507272006E+04  0.25500000920E-02 0.  1.
       -2   -1    0    0    0  501  0.00000000000E+00  0.00000000000E+00 -0.66202324478E+03  0.66202324478E+03  0.25500000920E-02 0. -1.
    10030    2    1    2    0    0  0.00000000000E+00  0.00000000000E+00  0.12887039558E+04  0.26127504454E+04  0.22728191754E+04 0.  0.
        3    1    3    3  502    0  0.49189995683E+03  0.65230965555E+03  0.15524005587E+04  0.17542579511E+04  0.10100000352E+00 0.  1.
       -3    1    3    3    0  502 -0.49189995683E+03 -0.65230965555E+03 -0.26369660282E+03  0.85849249431E+03  0.10100000352E+00 0. -1.
</event>
<event>
 5   0  0.1049198E-05  0.2149666E+04  0.7818609E-02  0.8539675E-01
        1   -1    0    0  501    0  0.00000000000E+00  0.00000000000E+00  0.13423552426E+04  0.13423552426E+04  0.50400001928E-02 0. -1.
       -1   -1    0    0    0  501  0.00000000000E+00  0.00000000000E+00 -0.86062581923E+03  0.86062581925E+03  0.50400001928E-02 0.  1.
    10030    2    1    2    0    0  0.00000000000E+00  0.00000000000E+00  0.48172942339E+03  0.22029810619E+04  0.21496656302E+04 0.  0.
        1    1    3    3  502    0 -0.36785481506E+03 -0.77941120842E+03  0.89902888131E+03  0.12454123519E+04  0.50400001928E-02 0. -1.
       -1    1    3    3    0  502  0.36785481506E+03  0.77941120842E+03 -0.41729945791E+03  0.95756871000E+03  0.50400001928E-02 0.  1.
</event>
<event>
 5   0  0.1071208E-05  0.2209347E+04  0.7818609E-02  0.8514548E-01
        1   -1    0    0  501    0  0.00000000000E+00  0.00000000000E+00  0.10018717947E+04  0.10018717947E+04  0.50400001928E-02 0.  1.
       -1   -1    0    0    0  501  0.00000000000E+00  0.00000000000E+00 -0.12180236720E+04  0.12180236720E+04  0.50400001928E-02 0. -1.
    10030    2    1    2    0    0  0.00000000000E+00  0.00000000000E+00 -0.21615187729E+03  0.22198954667E+04  0.22093470187E+04 0.  0.
        4    1    3    3  502    0 -0.26967956465E+02 -0.84505766582E+03 -0.82242198166E+03  0.11795038186E+04  0.12699999809E+01 0. -1.
       -4    1    3    3    0  502  0.26967956465E+02  0.84505766582E+03  0.60627010437E+03  0.10403916482E+04  0.12699999809E+01 0.  1.
</event>
<event>
 5   0  0.1033733E-05  0.2196276E+04  0.7818609E-02  0.8519980E-01
       -1   -1    0    0    0  501  0.00000000000E+00  0.00000000000E+00  0.87567142582E+03  0.87567142584E+03  0.50400001928E-02 0.  1.
        1   -1    0    0  501    0  0.00000000000E+00  0.00000000000E+00 -0.13771233696E+04  0.13771233696E+04  0.50400001928E-02 0. -1.
    10030    2    1    2    0    0  0.00000000000E+00  0.00000000000E+00 -0.50145194374E+03  0.22527947954E+04  0.21962764713E+04 0.  0.
        5    1    3    3  502    0 -0.44614740303E+03 -0.53509940780E+03  0.61994408869E+03  0.93259404060E+03  0.46999998093E+01 0.  1.
       -5    1    3    3    0  502  0.44614740303E+03  0.53509940780E+03 -0.11213960324E+04  0.13202007548E+04  0.46999998093E+01 0. -1.
</event>
<event>
 5   0  0.2319707E-05  0.2191390E+04  0.7818609E-02  0.8522020E-01
       -2   -1    0    0    0  501  0.00000000000E+00  0.00000000000E+00  0.12790342952E+04  0.12790342952E+04  0.25500000920E-02 0.  1.
        2   -1    0    0  501    0  0.00000000000E+00  0.00000000000E+00 -0.93863632260E+03  0.93863632260E+03  0.25500000920E-02 0. -1.
    10030    2    1    2    0    0  0.00000000000E+00  0.00000000000E+00  0.34039797260E+03  0.22176706178E+04  0.21913904694E+04 0.  0.
        3    1    3    3  502    0  0.66297920535E+03 -0.33924460190E+03 -0.64313054729E+03  0.98399453134E+03  0.10100000352E+00 0. -1.
       -3    1    3    3    0  502 -0.66297920535E+03  0.33924460190E+03  0.98352851989E+03  0.12336760865E+04  0.10100000352E+00 0.  1.
</event>
<event>
 5   0  0.1049198E-05  0.2203920E+04  0.7818609E-02  0.8516798E-01
        1   -1    0    0  501    0  0.00000000000E+00  0.00000000000E+00  0.16665376049E+04  0.16665376049E+04  0.50400001928E-02 0. -1.
       -1   -1    0    0    0  501  0.00000000000E+00  0.00000000000E+00 -0.72864589487E+03  0.72864589488E+03  0.50400001928E-02 0.  1.
    10030    2    1    2    0    0  0.00000000000E+00  0.00000000000E+00  0.93789171000E+03  0.23951834998E+04  0.22039199481E+04 0.  0.
        1    1    3    3  502    0 -0.89901747554E+01 -0.54049414965E+03  0.15125414330E+04  0.16062366998E+04  0.50400001928E-02 0. -1.
       -1    1    3    3    0  502  0.89901747554E+01  0.54049414965E+03 -0.57464972301E+03  0.78894680000E+03  0.50400001928E-02 0.  1.
</event>
<event>
 5   0  0.2229552E-05  0.2198559E+04  0.7818609E-02  0.8519028E-01
        2   -1    0    0  501    0  0.00000000000E+00  0.00000000000E+00  0.11446173430E+04  0.11446173430E+04  0.25500000920E-02 0. -1.
       -2   -1    0    0    0  501  0.00000000000E+00  0.00000000000E+00 -0.10557378783E+04  0.10557378784E+04  0.25500000920E-02 0.  1.
    10030    2    1    2    0    0  0.00000000000E+00  0.00000000000E+00  0.88879464616E+02  0.22003552213E+04  0.21985594240E+04 0.  0.
        1    1    3    3  502    0  0.63190378464E+03  0.74843305727E+03 -0.45492819178E+03  0.10800065250E+04  0.50400001928E-02 0.  1.
       -1    1    3    3    0  502 -0.63190378464E+03 -0.74843305727E+03  0.54380765639E+03  0.11203486964E+04  0.50400001928E-02 0. -1.
</event>
<event>
 5   0  0.1071208E-05  0.2185576E+04  0.7818609E-02  0.8524456E-01
        1   -1    0    0  501    0  0.00000000000E+00  0.00000000000E+00  0.11024472106E+04  0.11024472106E+04  0.50400001928E-02 0.  1.
       -1   -1    0    0    0  501  0.00000000000E+00  0.00000000000E+00 -0.10832132058E+04  0.10832132058E+04  0.50400001928E-02 0. -1.
    10030    2    1    2    0    0  0.00000000000E+00  0.00000000000E+00  0.19234004842E+02  0.21856604164E+04  0.21855757843E+04 0.  0.
        4    1    3    3  502    0 -0.66387434221E+03 -0.35286497400E+03  0.80270567473E+03  0.10998094586E+04  0.12699999809E+01 0.  1.
       -4    1    3    3    0  502  0.66387434221E+03  0.35286497400E+03 -0.78347166989E+03  0.10858509578E+04  0.12699999809E+01 0. -1.
</event>
<event>
 5   0  0.1033733E-05  0.2193345E+04  0.7818609E-02  0.8521203E-01
       -1   -1    0    0    0  501  0.00000000000E+00  0.00000000000E+00  0.76370295596E+03  0.76370295598E+03  0.50400001928E-02 0.  1.
        1   -1    0    0  501    0  0.00000000000E+00  0.00000000000E+00 -0.15748139417E+04  0.15748139417E+04  0.50400001928E-02 0. -1.
    10030    2    1    2    0    0  0.00000000000E+00  0.00000000000E+00 -0.81111098575E+03  0.23385168977E+04  0.21933445351E+04 0.  0.
        5    1    3    3  502    0  0.89626529729E+03  0.19065792084E+03 -0.10479510794E+04  0.13920723690E+04  0.46999998093E+01 0. -1.
       -5    1    3    3    0  502 -0.89626529729E+03 -0.19065792084E+03  0.23684009360E+03  0.94644452867E+03  0.46999998093E+01 0.  1.
</event>
<event>
 5   0  0.1007682E-05  0.2188838E+04  0.7818609E-02  0.8523088E-01
        1   -1    0    0  501    0  0.00000000000E+00  0.00000000000E+00  0.11666012804E+04  0.11666012804E+04  0.50400001928E-02 0. -1.
       -1   -1    0    0    0  501  0.00000000000E+00  0.00000000000E+00 -0.10267027879E+04  0.10267027880E+04  0.50400001928E-02 0.  1.
    10030    2    1    2    0    0  0.00000000000E+00  0.00000000000E+00  0.13989849244E+03  0.21933040684E+04  0.21888378533E+04 0.  0.
        2    1    3    3  502    0  0.10249937875E+04  0.38358689097E+03  0.68673991456E+02  0.10965706929E+04  0.25500000920E-02 0.  1.
       -2    1    3    3    0  502 -0.10249937875E+04 -0.38358689097E+03  0.71224500980E+02  0.10967333755E+04  0.25500000920E-02 0. -1.
</event>
<event>
 5   0  0.1071208E-05  0.2201328E+04  0.7818609E-02  0.8517876E-01
        1   -1    0    0  501    0  0.00000000000E+00  0.00000000000E+00  0.20732679888E+04  0.20732679888E+04  0.50400001928E-02 0.  1.
       -1   -1    0    0    0  501  0.00000000000E+00  0.00000000000E+00 -0.58432447600E+03  0.58432447602E+03  0.50400001928E-02 0. -1.
    10030    2    1    2    0    0  0.00000000000E+00  0.00000000000E+00  0.14889435128E+04  0.26575924649E+04  0.22013279912E+04 0.  0.
        4    1    3    3  502    0 -0.58410556363E+03  0.82466661198E+03  0.21795169759E+03  0.10338079540E+04  0.12699999809E+01 0. -1.
       -4    1    3    3    0  502  0.58410556363E+03 -0.82466661198E+03  0.12709918153E+04  0.16237845109E+04  0.12699999809E+01 0.  1.
</event>
<event>
 5   0  0.1033733E-05  0.2202509E+04  0.7818609E-02  0.8517385E-01
        1   -1    0    0  501    0  0.00000000000E+00  0.00000000000E+00  0.18241590979E+04  0.18241590979E+04  0.50400001928E-02 0. -1.
       -1   -1    0    0    0  501  0.00000000000E+00  0.00000000000E+00 -0.66483295479E+03  0.66483295481E+03  0.50400001928E-02 0.  1.
    10030    2    1    2    0    0  0.00000000000E+00  0.00000000000E+00  0.11593261431E+04  0.24889920527E+04  0.22025086452E+04 0.  0.
        5    1    3    3  502    0  0.16608449899E+03  0.30565208116E+02  0.18094283087E+04  0.18172977707E+04  0.46999998093E+01 0. -1.
       -5    1    3    3    0  502 -0.16608449899E+03 -0.30565208116E+02 -0.65010216565E+03  0.67169428204E+03  0.46999998093E+01 0.  1.
</event>
<event>
 5   0  0.2284329E-05  0.2189636E+04  0.7818609E-02  0.8522754E-01
        2   -1    0    0  501    0  0.00000000000E+00  0.00000000000E+00  0.14417225520E+04  0.14417225520E+04  0.25500000920E-02 0.  1.
       -2   -1    0    0    0  501  0.00000000000E+00  0.00000000000E+00 -0.83138504888E+03  0.83138504888E+03  0.25500000920E-02 0. -1.
    10030    2    1    2    0    0  0.00000000000E+00  0.00000000000E+00  0.61033750315E+03  0.22731076009E+04  0.21896361108E+04 0.  0.
        2    1    3    3  502    0  0.58903568953E+03  0.80034221696E+03 -0.17182038120E+03  0.10084805160E+04  0.25500000920E-02 0. -1.
       -2    1    3    3    0  502 -0.58903568953E+03 -0.80034221696E+03  0.78215788435E+03  0.12646270849E+04  0.25500000920E-02 0.  1.
</event>
<event>
 5   0  0.1049198E-05  0.2187270E+04  0.7818609E-02  0.8523745E-01
       -1   -1    0    0    0  501  0.00000000000E+00  0.00000000000E+00  0.87544166350E+03  0.87544166351E+03  0.50400001928E-02 0. -1.
        1   -1    0    0  501    0  0.00000000000E+00  0.00000000000E+00 -0.13662108983E+04  0.13662108983E+04  0.50400001928E-02 0.  1.
    10030    2    1    2    0    0  0.00000000000E+00  0.00000000000E+00 -0.49076923482E+03  0.22416525618E+04  0.21872703916E+04 0.  0.
        1    1    3    3  502    0  0.75969657808E+03  0.78669938582E+03 -0.24357228403E+03  0.11204295033E+04  0.50400001928E-02 0.  1.
       -1    1    3    3    0  502 -0.75969657808E+03 -0.78669938582E+03 -0.24719695079E+03  0.11212230585E+04  0.50400001928E-02 0. -1.
</event>
<event>
 5   0  0.1049198E-05  0.2199836E+04  0.7818609E-02  0.8518497E-01
       -1   -1    0    0    0  501  0.00000000000E+00  0.00000000000E+00  0.92870185187E+03  0.92870185189E+03  0.50400001928E-02 0. -1.
        1   -1    0    0  501    0  0.00000000000E+00  0.00000000000E+00 -0.13026991785E+04  0.13026991785E+04  0.50400001928E-02 0.  1.
    10030    2    1    2    0    0  0.00000000000E+00  0.00000000000E+00 -0.37399732664E+03  0.22314010304E+04  0.21998355753E+04 0.  0.
        1    1    3    3  502    0  0.16415626810E+03  0.10235922327E+03  0.91130968540E+03  0.93161689211E+03  0.50400001928E-02 0. -1.
       -1    1    3    3    0  502 -0.16415626810E+03 -0.10235922327E+03 -0.12853070120E+04  0.12997841383E+04  0.50400001928E-02 0.  1.
</event>
<event>
 5   0  0.1049198E-05  0.2150115E+04  0.7818609E-02  0.8539483E-01
        1   -1    0    0  501    0  0.00000000000E+00  0.00000000000E+00  0.70901154048E+03  0.70901154050E+03  0.50400001928E-02 0. -1.
       -1   -1    0    0    0  501  0.00000000000E+00  0.00000000000E+00 -0.16300846822E+04  0.16300846823E+04  0.50400001928E-02 0.  1.
    10030    2    1    2    0    0  0.00000000000E+00  0.00000000000E+00 -0.92107314177E+03  0.23390962227E+04  0.21501152078E+04 0.  0.
        1    1    3    3  502    0  0.10723430651E+04 -0.37432229677E+02 -0.38814438877E+03  0.11410420183E+04  0.50400001928E-02 0. -1.
       -1    1    3    3    0  502 -0.10723430651E+04  0.37432229677E+02 -0.53292875299E+03  0.11980542044E+04  0.50400001928E-02 0.  1.
</event>
<event>
 5   0  0.2298329E-05  0.2194406E+04  0.7818609E-02  0.8520760E-01
        2   -1    0    0  501    0  0.00000000000E+00  0.00000000000E+00  0.16218423679E+04  0.16218423679E+04  0.25500000920E-02 0. -1.
       -2   -1    0    0    0  501  0.00000000000E+00  0.00000000000E+00 -0.74227589484E+03  0.74227589484E+03  0.25500000920E-02 0.  1.
    10030    2    1    2    0    0  0.00000000000E+00  0.00000000000E+00  0.87956647309E+03  0.23641182628E+04  0.21944060654E+04 0.  0.
        4    1    3    3  502    0 -0.40811593327E+03 -0.48702951239E+03 -0.52387579041E+03  0.82353130943E+03  0.12699999809E+01 0.  1.
       -4    1    3    3    0  502  0.40811593327E+03  0.48702951239E+03  0.14034422635E+04  0.15405869533E+04  0.12699999809E+01 0. -1.
</event>
<event>
 5   0  0.1005538E-05  0.2209753E+04  0.7818609E-02  0.8514380E-01
       -1   -1    0    0    0  501  0.00000000000E+00  0.00000000000E+00  0.55863459628E+03  0.55863459630E+03  0.50400001928E-02 0.  1.
        1   -1    0    0  501    0  0.00000000000E+00  0.00000000000E+00 -0.21852416024E+04  0.21852416024E+04  0.50400001928E-02 0. -1.
    10030    2    1    2    0    0  0.00000000000E+00  0.00000000000E+00 -0.16266070061E+04  0.27438761987E+04  0.22097525294E+04 0.  0.
        3    1    3    3  502    0 -0.16206778476E+03 -0.30196650814E+03 -0.21175751048E+04  0.21451279853E+04  0.10100000352E+00 0. -1.
       -3    1    3    3    0  502  0.16206778476E+03  0.30196650814E+03  0.49096809867E+03  0.59874821336E+03  0.10100000352E+00 0.  1.
</event>
<event>
 5   0  0.2298329E-05  0.2188198E+04  0.7818609E-02  0.8523357E-01
       -2   -1    0    0    0  501  0.00000000000E+00  0.00000000000E+00  0.75770736922E+03  0.75770736923E+03  0.25500000920E-02 0. -1.
        2   -1    0    0  501    0  0.00000000000E+00  0.00000000000E+00 -0.15798342998E+04  0.15798342998E+04  0.25500000920E-02 0.  1.
    10030    2    1    2    0    0  0.00000000000E+00  0.00000000000E+00 -0.82212693054E+03  0.23375416690E+04  0.21881975149E+04 0.  0.
        4    1    3    3  502    0 -0.75370892432E+03  0.22200423853E+03  0.40227215228E+03  0.88271599166E+03  0.12699999809E+01 0.  1.
       -4    1    3    3    0  502  0.75370892432E+03 -0.22200423853E+03 -0.12243990828E+04  0.14548256773E+04  0.12699999809E+01 0. -1.
</event>
<event>
 5   0  0.2319707E-05  0.2184025E+04  0.7818609E-02  0.8525107E-01
       -2   -1    0    0    0  501  0.00000000000E+00  0.00000000000E+00  0.63045031839E+03  0.63045031840E+03  0.25500000920E-02 0.  1.
        2   -1    0    0  501    0  0.00000000000E+00  0.00000000000E+00 -0.18914906877E+04  0.18914906877E+04  0.25500000920E-02 0. -1.
    10030    2    1    2    0    0  0.00000000000E+00  0.00000000000E+00 -0.12610403693E+04  0.25219410061E+04  0.21840246394E+04 0.  0.
        3    1    3    3  502    0  0.96669435659E+03  0.41268679420E+02 -0.12150989852E+04  0.15532760982E+04  0.10100000352E+00 0. -1.
       -3    1    3    3    0  502 -0.96669435659E+03 -0.41268679420E+02 -0.45941384090E+02  0.96866490797E+03  0.10100000352E+00 0.  1.
</event>
<event>
 5   0  0.2229552E-05  0.2194607E+04  0.7818609E-02  0.8520676E-01
        2   -1    0    0  501    0  0.00000000000E+00  0.00000000000E+00  0.16357133031E+04  0.16357133031E+04  0.25500000920E-02 0. -1.
       -2   -1    0    0    0  501  0.00000000000E+00  0.00000000000E+00 -0.73611633538E+03  0.73611633539E+03  0.25500000920E-02 0.  1.
    10030    2    1    2    0    0  0.00000000000E+00  0.00000000000E+00  0.89959696771E+03  0.23718296385E+04  0.21946072837E+04 0.  0.
        1    1    3    3  502    0  0.15767309929E+03  0.20586198171E+03  0.16021247323E+04  0.16229736965E+04  0.50400001928E-02 0. -1.
       -1    1    3    3    0  502 -0.15767309929E+03 -0.20586198171E+03 -0.70252776459E+03  0.74885594195E+03  0.50400001928E-02 0.  1.
</event>
<event>
 5   0  0.2298329E-05  0.2195909E+04  0.7818609E-02  0.8520133E-01
        2   -1    0    0  501    0  0.00000000000E+00  0.00000000000E+00  0.10569505957E+04  0.10569505957E+04  0.25500000920E-02 0.  1.
       -2   -1    0    0    0  501  0.00000000000E+00  0.00000000000E+00 -0.11405486639E+04  0.11405486639E+04  0.25500000920E-02 0. -1.
    10030    2    1    2    0    0  0.00000000000E+00  0.00000000000E+00 -0.83598068173E+02  0.21974992597E+04  0.21959085498E+04 0.  0.
        4    1    3    3  502    0  0.32118675647E+03 -0.24720041873E+03  0.97934839705E+03  0.10599027669E+04  0.12699999809E+01 0.  1.
       -4    1    3    3    0  502 -0.32118675647E+03  0.24720041873E+03 -0.10629464652E+04  0.11375964928E+04  0.12699999809E+01 0. -1.
</event>
<event>
 5   0  0.1005538E-05  0.2197251E+04  0.7818609E-02  0.8519573E-01
        1   -1    0    0  501    0  0.00000000000E+00  0.00000000000E+00  0.91790041061E+03  0.91790041062E+03  0.50400001928E-02 0. -1.
       -1   -1    0    0    0  501  0.00000000000E+00  0.00000000000E+00 -0.13149340123E+04  0.13149340123E+04  0.50400001928E-02 0.  1.
    10030    2    1    2    0    0  0.00000000000E+00  0.00000000000E+00 -0.39703360165E+03  0.22328344229E+04  0.21972514374E+04 0.  0.
        3    1    3    3  502    0  0.99667954269E+03 -0.66044910026E+02  0.26632564589E+03  0.10337608044E+04  0.10100000352E+00 0. -1.
       -3    1    3    3    0  502 -0.99667954269E+03  0.66044910026E+02 -0.66335924753E+03  0.11990736184E+04  0.10100000352E+00 0.  1.
</event>
<event>
 5   0  0.2319707E-05  0.2204945E+04  0.7818609E-02  0.8516373E-01
       -2   -1    0    0    0  501  0.00000000000E+00  0.00000000000E+00  0.78936894733E+03  0.78936894733E+03  0.25500000920E-02 0.  1.
        2   -1    0    0  501    0  0.00000000000E+00  0.00000000000E+00 -0.15397685381E+04  0.15397685381E+04  0.25500000920E-02 0. -1.
    10030    2    1    2    0    0  0.00000000000E+00  0.00000000000E+00 -0.75039959075E+03  0.23291374854E+04  0.22049448701E+04 0.  0.
        3    1    3    3  502    0  0.10352191571E+03  0.10095778627E+04  0.79733111807E+02  0.10179988345E+04  0.10100000352E+00 0.  1.
       -3    1    3    3    0  502 -0.10352191571E+03 -0.10095778627E+04 -0.83013270255E+03  0.13111386509E+04  0.10100000352E+00 0. -1.
</event>
<event>
 5   0  0.1005538E-05  0.2213398E+04  0.7818609E-02  0.8512872E-01
        1   -1    0    0  501    0  0.00000000000E+00  0.00000000000E+00  0.16111228412E+04  0.16111228412E+04  0.50400001928E-02 0.  1.
       -1   -1    0    0    0  501  0.00000000000E+00  0.00000000000E+00 -0.76020439512E+03  0.76020439513E+03  0.50400001928E-02 0. -1.
    10030    2    1    2    0    0  0.00000000000E+00  0.00000000000E+00  0.85091844604E+03  0.23713272363E+04  0.22133979895E+04 0.  0.
        3    1    3    3  502    0 -0.78486516750E+03  0.73566932803E+03  0.70392811141E+03  0.12855883819E+04  0.10100000352E+00 0. -1.
       -3    1    3    3    0  502  0.78486516750E+03 -0.73566932803E+03  0.14699033463E+03  0.10857388544E+04  0.10100000352E+00 0.  1.
</event>
<event>
 5   0  0.2298329E-05  0.2195967E+04  0.7818609E-02  0.8520109E-01
       -2   -1    0    0    0  501  0.00000000000E+00  0.00000000000E+00  0.82365265316E+03  0.82365265316E+03  0.25500000920E-02 0.  1.
        2   -1    0    0  501    0  0.00000000000E+00  0.00000000000E+00 -0.14636847549E+04  0.14636847549E+04  0.25500000920E-02 0. -1.
    10030    2    1    2    0    0  0.00000000000E+00  0.00000000000E+00 -0.64003210178E+03  0.22873374081E+04  0.21959670597E+04 0.  0.
        4    1    3    3  502    0  0.23063640216E+03  0.12518900439E+03 -0.14305388801E+04  0.14544100306E+04  0.12699999809E+01 0. -1.
       -4    1    3    3    0  502 -0.23063640216E+03 -0.12518900439E+03  0.79050677828E+03  0.83292737752E+03  0.12699999809E+01 0.  1.
</event>
<event>
 5   0  0.2284329E-05  0.2181038E+04  0.7818609E-02  0.8526362E-01
       -2   -1    0    0    0  501  0.00000000000E+00  0.00000000000E+00  0.49019761431E+03  0.49019761431E+03  0.25500000920E-02 0. -1.
        2   -1    0    0  501    0  0.00000000000E+00  0.00000000000E+00 -0.24260242134E+04  0.24260242134E+04  0.25500000920E-02 0.  1.
    10030    2    1    2    0    0  0.00000000000E+00  0.00000000000E+00 -0.19358265991E+04  0.29162218277E+04  0.21810376262E+04 0.  0.
        2    1    3    3  502    0 -0.13732185147E+03  0.75951943426E+03 -0.19979893836E+04  0.21418890351E+04  0.25500000920E-02 0.  1.
       -2    1    3    3    0  502  0.13732185147E+03 -0.75951943426E+03  0.62162784476E+02  0.77433279260E+03  0.25500000920E-02 0. -1.
</event>
<event>
 5   0  0.2229552E-05  0.2204484E+04  0.7818609E-02  0.8516564E-01
       -2   -1    0    0    0  501  0.00000000000E+00  0.00000000000E+00  0.95257909785E+03  0.95257909786E+03  0.25500000920E-02 0.  1.
        2   -1    0    0  501    0  0.00000000000E+00  0.00000000000E+00 -0.12754192714E+04  0.12754192714E+04  0.25500000920E-02 0. -1.
    10030    2    1    2    0    0  0.00000000000E+00  0.00000000000E+00 -0.32284017352E+03  0.22279983692E+04  0.22044842834E+04 0.  0.
        1    1    3    3  502    0 -0.92886350512E+01  0.53817903253E+03  0.81072065560E+03  0.97313459051E+03  0.50400001928E-02 0.  1.
       -1    1    3    3    0  502  0.92886350512E+01 -0.53817903253E+03 -0.11335608291E+04  0.12548637787E+04  0.50400001928E-02 0. -1.
</event>
<event>
 5   0  0.2319707E-05  0.2220761E+04  0.7818609E-02  0.8509836E-01
        2   -1    0    0  501    0  0.00000000000E+00  0.00000000000E+00  0.87841327419E+03  0.87841327419E+03  0.25500000920E-02 0. -1.
       -2   -1    0    0    0  501  0.00000000000E+00  0.00000000000E+00 -0.14036049089E+04  0.14036049089E+04  0.25500000920E-02 0.  1.
    10030    2    1    2    0    0  0.00000000000E+00  0.00000000000E+00 -0.52519163470E+03  0.22820181831E+04  0.22207612962E+04 0.  0.
        3    1    3    3  502    0  0.50636114165E+03 -0.98785920151E+03 -0.28934786415E+03  0.11471659010E+04  0.10100000352E+00 0.  1.
       -3    1    3    3    0  502 -0.50636114165E+03  0.98785920151E+03 -0.23584377055E+03  0.11348522821E+04  0.10100000352E+00 0. -1.
</event>
<event>
 5   0  0.2284329E-05  0.2212566E+04  0.7818609E-02  0.8513216E-01
       -2   -1    0    0    0  501  0.00000000000E+00  0.00000000000E+00  0.50064930380E+03  0.50064930381E+03  0.25500000920E-02 0. -1.
        2   -1    0    0  501    0  0.00000000000E+00  0.00000000000E+00 -0.24445494221E+04  0.24445494222E+04  0.25500000920E-02 0.  1.
    10030    2    1    2    0    0  0.00000000000E+00  0.00000000000E+00 -0.19439001183E+04  0.29451987260E+04  0.22125659008E+04 0.  0.
        2    1    3    3  502    0 -0.41882641196E+03 -0.58574228339E+03 -0.20898976829E+04  0.22104709704E+04  0.25500000920E-02 0.  1.
       -2    1    3    3    0  502  0.41882641196E+03  0.58574228339E+03  0.14599756459E+03  0.73472775555E+03  0.25500000920E-02 0. -1.
</event>
<event>
 5   0  0.1007682E-05  0.2191985E+04  0.7818609E-02  0.8521771E-01
        1   -1    0    0  501    0  0.00000000000E+00  0.00000000000E+00  0.18114984824E+04  0.18114984824E+04  0.50400001928E-02 0. -1.
       -1   -1    0    0    0  501  0.00000000000E+00  0.00000000000E+00 -0.66309732981E+03  0.66309732983E+03  0.50400001928E-02 0.  1.
    10030    2    1    2    0    0  0.00000000000E+00  0.00000000000E+00  0.11484011526E+04  0.24745958123E+04  0.21919852250E+04 0.  0.
        2    1    3    3  502    0  0.23075199914E+03  0.52767374370E+03 -0.47850003746E+03  0.74876454960E+03  0.25500000920E-02 0.  1.
       -2    1    3    3    0  502 -0.23075199914E+03 -0.52767374370E+03  0.16269011901E+04  0.17258312627E+04  0.25500000920E-02 0. -1.
</event>
<event>
 5   0  0.1007682E-05  0.2198114E+04  0.7818609E-02  0.8519214E-01
       -1   -1    0    0    0  501  0.00000000000E+00  0.00000000000E+00  0.70597555989E+03  0.70597555991E+03  0.50400001928E-02 0. -1.
        1   -1    0    0  501    0  0.00000000000E+00  0.00000000000E+00 -0.17110029259E+04  0.17110029259E+04  0.50400001928E-02 0.  1.
    10030    2    1    2    0    0  0.00000000000E+00  0.00000000000E+00 -0.10050273660E+04  0.24169784858E+04  0.21981139630E+04 0.  0.
        2    1    3    3  502    0 -0.34949162495E+03 -0.10417415000E+04 -0.52845279581E+03  0.12192752380E+04  0.25500000920E-02 0.  1.
       -2    1    3    3    0  502  0.34949162495E+03  0.10417415000E+04 -0.47657457016E+03  0.11977032477E+04  0.25500000920E-02 0. -1.
</event>
<event>
 5   0  0.1071208E-05  0.2206197E+04  0.7818609E-02  0.8515853E-01
       -1   -1    0    0    0  501  0.00000000000E+00  0.00000000000E+00  0.15408304015E+04  0.15408304015E+04  0.50400001928E-02 0.  1.
        1   -1    0    0  501    0  0.00000000000E+00  0.00000000000E+00 -0.78972114864E+03  0.78972114865E+03  0.50400001928E-02 0. -1.
    10030    2    1    2    0    0  0.00000000000E+00  0.00000000000E+00  0.75110925284E+03  0.23305515501E+04  0.22061970488E+04 0.  0.
        4    1    3    3  502    0 -0.32408412730E+03 -0.58023470716E+03  0.13055898978E+04  0.14650151641E+04  0.12699999809E+01 0.  1.
       -4    1    3    3    0  502  0.32408412730E+03  0.58023470716E+03 -0.55448064497E+03  0.86553638601E+03  0.12699999809E+01 0. -1.
</event>
<event>
 5   0  0.1033733E-05  0.2202343E+04  0.7818609E-02  0.8517453E-01
       -1   -1    0    0    0  501  0.00000000000E+00  0.00000000000E+00  0.12001620244E+04  0.12001620244E+04  0.50400001928E-02 0. -1.
        1   -1    0    0  501    0  0.00000000000E+00  0.00000000000E+00 -0.10103459056E+04  0.10103459056E+04  0.50400001928E-02 0.  1.
    10030    2    1    2    0    0  0.00000000000E+00  0.00000000000E+00  0.18981611877E+03  0.22105079301E+04  0.22023431045E+04 0.  0.
        5    1    3    3  502    0 -0.10075649988E+04 -0.13585052825E+03 -0.32964247114E+03  0.10687978488E+04  0.46999998093E+01 0.  1.
       -5    1    3    3    0  502  0.10075649988E+04  0.13585052825E+03  0.51945858991E+03  0.11417100812E+04  0.46999998093E+01 0. -1.
</event>
<event>
 5   0  0.1033733E-05  0.2188230E+04  0.7818609E-02  0.8523343E-01
       -1   -1    0    0    0  501  0.00000000000E+00  0.00000000000E+00  0.86153970079E+03  0.86153970080E+03  0.50400001928E-02 0.  1.
        1   -1    0    0  501    0  0.00000000000E+00  0.00000000000E+00 -0.13894741805E+04  0.13894741805E+04  0.50400001928E-02 0. -1.
    10030    2    1    2    0    0  0.00000000000E+00  0.00000000000E+00 -0.52793447975E+03  0.22510138814E+04  0.21882295764E+04 0.  0.
        5    1    3    3  502    0  0.62158256578E+03  0.19324272835E+03  0.64067200418E+03  0.91334021322E+03  0.46999998093E+01 0.  1.
       -5    1    3    3    0  502 -0.62158256578E+03 -0.19324272835E+03 -0.11686064839E+04  0.13376736681E+04  0.46999998093E+01 0. -1.
</event>
<event>
 5   0  0.2319707E-05  0.2194912E+04  0.7818609E-02  0.8520549E-01
       -2   -1    0    0    0  501  0.00000000000E+00  0.00000000000E+00  0.72102010602E+03  0.72102010602E+03  0.25500000920E-02 0.  1.
        2   -1    0    0  501    0  0.00000000000E+00  0.00000000000E+00 -0.16704238493E+04  0.16704238493E+04  0.25500000920E-02 0. -1.
    10030    2    1    2    0    0  0.00000000000E+00  0.00000000000E+00 -0.94940374328E+03  0.23914439553E+04  0.21949115526E+04 0.  0.
        3    1    3    3  502    0 -0.82318484563E+03 -0.68277258589E+03 -0.20649465889E+03  0.10892436589E+04  0.10100000352E+00 0.  1.
       -3    1    3    3    0  502  0.82318484563E+03  0.68277258589E+03 -0.74290908440E+03  0.13022002964E+04  0.10100000352E+00 0. -1.
</event>
<event>
 5   0  0.2319707E-05  0.2202447E+04  0.7818609E-02  0.8517410E-01
        2   -1    0    0  501    0  0.00000000000E+00  0.00000000000E+00  0.16548970524E+04  0.16548970524E+04  0.25500000920E-02 0. -1.
       -2   -1    0    0    0  501  0.00000000000E+00  0.00000000000E+00 -0.73279061649E+03  0.73279061650E+03  0.25500000920E-02 0.  1.
    10030    2    1    2    0    0  0.00000000000E+00  0.00000000000E+00  0.92210643588E+03  0.23876876689E+04  0.22024468495E+04 0.  0.
        3    1    3    3  502    0 -0.80549579412E+03 -0.73636645963E+02 -0.34909248967E+03  0.88097185342E+03  0.10100000352E+00 0.  1.
       -3    1    3    3    0  502  0.80549579412E+03  0.73636645963E+02  0.12711989256E+04  0.15067158154E+04  0.10100000352E+00 0. -1.
</event>
<event>
 5   0  0.1033733E-05  0.2221382E+04  0.7818609E-02  0.8509581E-01
       -1   -1    0    0    0  501  0.00000000000E+00  0.00000000000E+00  0.70115495825E+03  0.70115495826E+03  0.50400001928E-02 0. -1.
        1   -1    0    0  501    0  0.00000000000E+00  0.00000000000E+00 -0.17594317554E+04  0.17594317554E+04  0.50400001928E-02 0.  1.
    10030    2    1    2    0    0  0.00000000000E+00  0.00000000000E+00 -0.10582767971E+04  0.24605867137E+04  0.22213818213E+04 0.  0.
        5    1    3    3  502    0  0.14618229026E+03 -0.49165907820E+03 -0.16203687328E+04  0.16996219672E+04  0.46999998093E+01 0.  1.
       -5    1    3    3    0  502 -0.14618229026E+03  0.49165907820E+03  0.56209193568E+03  0.76096474644E+03  0.46999998093E+01 0. -1.
</event>
<event>
 5   0  0.2229552E-05  0.2197470E+04  0.7818609E-02  0.8519482E-01
       -2   -1    0    0    0  501  0.00000000000E+00  0.00000000000E+00  0.69888902558E+03  0.69888902559E+03  0.25500000920E-02 0. -1.
        2   -1    0    0  501    0  0.00000000000E+00  0.00000000000E+00 -0.17273399713E+04  0.17273399713E+04  0.25500000920E-02 0.  1.
    10030    2    1    2    0    0  0.00000000000E+00  0.00000000000E+00 -0.10284509457E+04  0.24262289969E+04  0.21974703178E+04 0.  0.
        1    1    3    3  502    0  0.98562817438E+03 -0.23662437165E+03 -0.98234988540E+03  0.14115471259E+04  0.50400001928E-02 0.  1.
       -1    1    3    3    0  502 -0.98562817438E+03  0.23662437165E+03 -0.46101060289E+02  0.10146818709E+04  0.50400001928E-02 0. -1.
</event>
<event>
 5   0  0.1007682E-05  0.2204335E+04  0.7818609E-02  0.8516626E-01
       -1   -1    0    0    0  501  0.00000000000E+00  0.00000000000E+00  0.52144016544E+03  0.52144016546E+03  0.50400001928E-02 0. -1.
        1   -1    0    0  501    0  0.00000000000E+00  0.00000000000E+00 -0.23296497485E+04  0.23296497485E+04  0.50400001928E-02 0.  1.
    10030    2    1    2    0    0  0.00000000000E+00  0.00000000000E+00 -0.18082095830E+04  0.28510899139E+04  0.22043347752E+04 0.  0.
        2    1    3    3  502    0 -0.57832039987E+03 -0.57246006733E+03  0.57378896653E+02  0.81575569344E+03  0.25500000920E-02 0. -1.
       -2    1    3    3    0  502  0.57832039987E+03  0.57246006733E+03 -0.18655884797E+04  0.20353342205E+04  0.25500000920E-02 0.  1.
</event>
<event>
 5   0  0.2319707E-05  0.2171661E+04  0.7818609E-02  0.8530317E-01
        2   -1    0    0  501    0  0.00000000000E+00  0.00000000000E+00  0.78165212073E+03  0.78165212073E+03  0.25500000920E-02 0. -1.
       -2   -1    0    0    0  501  0.00000000000E+00  0.00000000000E+00 -0.15083792769E+04  0.15083792769E+04  0.25500000920E-02 0.  1.
    10030    2    1    2    0    0  0.00000000000E+00  0.00000000000E+00 -0.72672715615E+03  0.22900313976E+04  0.21716609870E+04 0.  0.
        3    1    3    3  502    0 -0.46260060713E+03 -0.96798380664E+03 -0.53992934062E+03  0.12010477404E+04  0.10100000352E+00 0. -1.
       -3    1    3    3    0  502  0.46260060713E+03  0.96798380664E+03 -0.18679781554E+03  0.10889836572E+04  0.10100000352E+00 0.  1.
</event>
<event>
 5   0  0.2298329E-05  0.2194486E+04  0.7818609E-02  0.8520726E-01
       -2   -1    0    0    0  501  0.00000000000E+00  0.00000000000E+00  0.19011214623E+04  0.19011214623E+04  0.25500000920E-02 0. -1.
        2   -1    0    0  501    0  0.00000000000E+00  0.00000000000E+00 -0.63328025708E+03  0.63328025708E+03  0.25500000920E-02 0.  1.
    10030    2    1    2    0    0  0.00000000000E+00  0.00000000000E+00  0.12678412053E+04  0.25344017194E+04  0.21944864442E+04 0.  0.
        4    1    3    3  502    0  0.53921517299E+03  0.34069103700E+03  0.16650276989E+04  0.17830149288E+04  0.12699999809E+01 0. -1.
       -4    1    3    3    0  502 -0.53921517299E+03 -0.34069103700E+03 -0.39718649362E+03  0.75138679060E+03  0.12699999809E+01 0.  1.
</event>
<event>
 5   0  0.2289708E-05  0.2200387E+04  0.7818609E-02  0.8518267E-01
       -2   -1    0    0    0  501  0.00000000000E+00  0.00000000000E+00  0.75927944999E+03  0.75927945000E+03  0.25500000920E-02 0.  1.
        2   -1    0    0  501    0  0.00000000000E+00  0.00000000000E+00 -0.15941766326E+04  0.15941766326E+04  0.25500000920E-02 0. -1.
    10030    2    1    2    0    0  0.00000000000E+00  0.00000000000E+00 -0.83489718256E+03  0.23534560826E+04  0.22003868358E+04 0.  0.
        5    1    3    3  502    0  0.72599609988E+03 -0.46555679955E+03  0.31314317248E+03  0.91754793178E+03  0.46999998093E+01 0.  1.
       -5    1    3    3    0  502 -0.72599609988E+03  0.46555679955E+03 -0.11480403550E+04  0.14359081508E+04  0.46999998093E+01 0. -1.
</event>
<event>
 5   0  0.1049198E-05  0.2197923E+04  0.7818609E-02  0.8519293E-01
        1   -1    0    0  501    0  0.00000000000E+00  0.00000000000E+00  0.14480684664E+04  0.14480684664E+04  0.50400001928E-02 0.  1.
       -1   -1    0    0    0  501  0.00000000000E+00  0.00000000000E+00 -0.83401874209E+03  0.83401874211E+03  0.50400001928E-02 0. -1.
    10030    2    1    2    0    0  0.00000000000E+00  0.00000000000E+00  0.61404972428E+03  0.22820872085E+04  0.21979228747E+04 0.  0.
        1    1    3    3  502    0  0.77658062994E+03  0.74819695154E+03  0.52688829996E+03  0.12002030802E+04  0.50400001928E-02 0.  1.
       -1    1    3    3    0  502 -0.77658062994E+03 -0.74819695154E+03  0.87161424322E+02  0.10818841283E+04  0.50400001928E-02 0. -1.
</event>
<event>
 5   0  0.1005538E-05  0.2204204E+04  0.7818609E-02  0.8516681E-01
        1   -1    0    0  501    0  0.00000000000E+00  0.00000000000E+00  0.10788716888E+04  0.10788716888E+04  0.50400001928E-02 0. -1.
       -1   -1    0    0    0  501  0.00000000000E+00  0.00000000000E+00 -0.11258321532E+04  0.11258321532E+04  0.50400001928E-02 0.  1.
    10030    2    1    2    0    0  0.00000000000E+00  0.00000000000E+00 -0.46960464368E+02  0.22047038421E+04  0.22042036535E+04 0.  0.
        3    1    3    3  502    0 -0.84995146190E+03 -0.30279190466E+03 -0.65649666272E+03  0.11158352493E+04  0.10100000352E+00 0.  1.
       -3    1    3    3    0  502  0.84995146190E+03  0.30279190466E+03  0.60953619835E+03  0.10888685928E+04  0.10100000352E+00 0. -1.
</event>
<event>
 5   0  0.1071208E-05  0.2183367E+04  0.7818609E-02  0.8525383E-01
        1   -1    0    0  501    0  0.00000000000E+00  0.00000000000E+00  0.14716059312E+04  0.14716059312E+04  0.50400001928E-02 0.  1.
       -1   -1    0    0    0  501  0.00000000000E+00  0.00000000000E+00 -0.80984499588E+03  0.80984499589E+03  0.50400001928E-02 0. -1.
    10030    2    1    2    0    0  0.00000000000E+00  0.00000000000E+00  0.66176093534E+03  0.22814509271E+04  0.21833668490E+04 0.  0.
        4    1    3    3  502    0  0.10583930109E+04  0.20637725052E+02  0.52159233149E+02  0.10598791816E+04  0.12699999809E+01 0.  1.
       -4    1    3    3    0  502 -0.10583930109E+04 -0.20637725052E+02  0.60960170219E+03  0.12215717455E+04  0.12699999809E+01 0. -1.
</event>
<event>
 5   0  0.1033733E-05  0.2198102E+04  0.7818609E-02  0.8519219E-01
        1   -1    0    0  501    0  0.00000000000E+00  0.00000000000E+00  0.10326256981E+04  0.10326256981E+04  0.50400001928E-02 0.  1.
       -1   -1    0    0    0  501  0.00000000000E+00  0.00000000000E+00 -0.11697491301E+04  0.11697491301E+04  0.50400001928E-02 0. -1.
    10030    2    1    2    0    0  0.00000000000E+00  0.00000000000E+00 -0.13712343201E+03  0.22023748282E+04  0.21981019194E+04 0.  0.
        5    1    3    3  502    0  0.39216113320E+03 -0.87324647641E+03 -0.60955683553E+03  0.11348706484E+04  0.46999998093E+01 0. -1.
       -5    1    3    3    0  502 -0.39216113320E+03  0.87324647641E+03  0.47243340352E+03  0.10675041797E+04  0.46999998093E+01 0.  1.
</event>
<event>
 5   0  0.2319707E-05  0.2187437E+04  0.7818609E-02  0.8523675E-01
        2   -1    0    0  501    0  0.00000000000E+00  0.00000000000E+00  0.85276875530E+03  0.85276875530E+03  0.25500000920E-02 0. -1.
       -2   -1    0    0    0  501  0.00000000000E+00  0.00000000000E+00 -0.14027491929E+04  0.14027491929E+04  0.25500000920E-02 0.  1.
    10030    2    1    2    0    0  0.00000000000E+00  0.00000000000E+00 -0.54998043758E+03  0.22555179482E+04  0.21874374809E+04 0.  0.
        3    1    3    3  502    0  0.43332586604E+03  0.26956609858E+03 -0.12724567360E+04  0.13709789724E+04  0.10100000352E+00 0.  1.
       -3    1    3    3    0  502 -0.43332586604E+03 -0.26956609858E+03  0.72247629840E+03  0.88453897576E+03  0.10100000352E+00 0. -1.
</event>
<event>
 5   0  0.1007682E-05  0.2207077E+04  0.7818609E-02  0.8515488E-01
       -1   -1    0    0    0  501  0.00000000000E+00  0.00000000000E+00  0.96533825965E+03  0.96533825967E+03  0.50400001928E-02 0.  1.
        1   -1    0    0  501    0  0.00000000000E+00  0.00000000000E+00 -0.12615241561E+04  0.12615241561E+04  0.50400001928E-02 0. -1.
    10030    2    1    2    0    0  0.00000000000E+00  0.00000000000E+00 -0.29618589640E+03  0.22268624157E+04  0.22070772831E+04 0.  0.
        2    1    3    3  502    0 -0.10777132689E+03  0.89315805833E+02  0.95634548261E+03  0.96653435230E+03  0.25500000920E-02 0.  1.
       -2    1    3    3    0  502  0.10777132689E+03 -0.89315805833E+02 -0.12525313790E+04  0.12603280634E+04  0.25500000920E-02 0. -1.
</event>
<event>
 5   0  0.1071208E-05  0.2214896E+04  0.7818609E-02  0.8512253E-01
       -1   -1    0    0    0  501  0.00000000000E+00  0.00000000000E+00  0.12054687467E+04  0.12054687467E+04  0.50400001928E-02 0.  1.
        1   -1    0    0  501    0  0.00000000000E+00  0.00000000000E+00 -0.10173980156E+04  0.10173980156E+04  0.50400001928E-02 0. -1.
    10030    2    1    2    0    0  0.00000000000E+00  0.00000000000E+00  0.18807073105E+03  0.22228667623E+04  0.22148963955E+04 0.  0.
        4    1    3    3  502    0  0.52139599716E+03  0.81355679179E+03  0.63701041996E+03  0.11573730286E+04  0.12699999809E+01 0.  1.
       -4    1    3    3    0  502 -0.52139599716E+03 -0.81355679179E+03 -0.44893968891E+03  0.10654937337E+04  0.12699999809E+01 0. -1.
</event>
<event>
 5   0  0.1005538E-05  0.2195494E+04  0.7818609E-02  0.8520306E-01
       -1   -1    0    0    0  501  0.00000000000E+00  0.00000000000E+00  0.93732615875E+03  0.93732615876E+03  0.50400001928E-02 0. -1.
        1   -1    0    0  501    0  0.00000000000E+00  0.00000000000E+00 -0.12856232603E+04  0.12856232603E+04  0.50400001928E-02 0.  1.
    10030    2    1    2    0    0  0.00000000000E+00  0.00000000000E+00 -0.34829710151E+03  0.22229494190E+04  0.21954938507E+04 0.  0.
        3    1    3    3  502    0  0.15777441693E+03  0.37425071722E+03  0.85845406403E+03  0.94968402968E+03  0.10100000352E+00 0. -1.
       -3    1    3    3    0  502 -0.15777441693E+03 -0.37425071722E+03 -0.12067511655E+04  0.12732653893E+04  0.10100000352E+00 0.  1.
</event>
<event>
 5   0  0.1071208E-05  0.2199020E+04  0.7818609E-02  0.8518836E-01
       -1   -1    0    0    0  501  0.00000000000E+00  0.00000000000E+00  0.65564267318E+03  0.65564267320E+03  0.50400001928E-02 0.  1.
        1   -1    0    0  501    0  0.00000000000E+00  0.00000000000E+00 -0.18438733354E+04  0.18438733354E+04  0.50400001928E-02 0. -1.
    10030    2    1    2    0    0  0.00000000000E+00  0.00000000000E+00 -0.11882306622E+04  0.24995160086E+04  0.21990198204E+04 0.  0.
        4    1    3    3  502    0 -0.55694277263E+03  0.31800362925E+03  0.42101491100E+03  0.76718102713E+03  0.12699999809E+01 0.  1.
       -4    1    3    3    0  502  0.55694277263E+03 -0.31800362925E+03 -0.16092455732E+04  0.17323349815E+04  0.12699999809E+01 0. -1.
</event>
<event>
 5   0  0.2284329E-05  0.2198585E+04  0.7818609E-02  0.8519017E-01
       -2   -1    0    0    0  501  0.00000000000E+00  0.00000000000E+00  0.73644817526E+03  0.73644817526E+03  0.25500000920E-02 0.  1.
        2   -1    0    0  501    0  0.00000000000E+00  0.00000000000E+00 -0.16409086190E+04  0.16409086190E+04  0.25500000920E-02 0. -1.
    10030    2    1    2    0    0  0.00000000000E+00  0.00000000000E+00 -0.90446044378E+03  0.23773567943E+04  0.21985851435E+04 0.  0.
        2    1    3    3  502    0 -0.70506982542E+03 -0.97799418964E+02  0.45359442972E+03  0.84405929397E+03  0.25500000920E-02 0.  1.
       -2    1    3    3    0  502  0.70506982542E+03  0.97799418964E+02 -0.13580548735E+04  0.15332975003E+04  0.25500000920E-02 0. -1.
</event>
<event>
 5   0  0.2289708E-05  0.2204306E+04  0.7818609E-02  0.8516638E-01
       -2   -1    0    0    0  501  0.00000000000E+00  0.00000000000E+00  0.12724513514E+04  0.12724513514E+04  0.25500000920E-02 0. -1.
        2   -1    0    0  501    0  0.00000000000E+00  0.00000000000E+00 -0.95464631724E+03  0.95464631724E+03  0.25500000920E-02 0.  1.
    10030    2    1    2    0    0  0.00000000000E+00  0.00000000000E+00  0.31780503418E+03  0.22270976687E+04  0.22043057832E+04 0.  0.
        5    1    3    3  502    0 -0.14859658403E+03  0.60934772164E+03  0.10745475482E+04  0.12442106389E+04  0.46999998093E+01 0. -1.
       -5    1    3    3    0  502  0.14859658403E+03 -0.60934772164E+03 -0.75674251404E+03  0.98288702973E+03  0.46999998093E+01 0.  1.
</event>
<event>
 5   0  0.2319707E-05  0.2199071E+04  0.7818609E-02  0.8518815E-01
        2   -1    0    0  501    0  0.00000000000E+00  0.00000000000E+00  0.19248269793E+04  0.19248269793E+04  0.25500000920E-02 0. -1.
       -2   -1    0    0    0  501  0.00000000000E+00  0.00000000000E+00 -0.62809715565E+03  0.62809715565E+03  0.25500000920E-02 0.  1.
    10030    2    1    2    0    0  0.00000000000E+00  0.00000000000E+00  0.12967298236E+04  0.25529241349E+04  0.21990710319E+04 0.  0.
        3    1    3    3  502    0  0.81907718171E+02  0.59510078423E+03  0.17174898545E+04  0.18195123600E+04  0.10100000352E+00 0. -1.
       -3    1    3    3    0  502 -0.81907718171E+02 -0.59510078423E+03 -0.42076003093E+03  0.73341177487E+03  0.10100000352E+00 0.  1.
</event>
<event>
 5   0  0.2289708E-05  0.2196763E+04  0.7818609E-02  0.8519776E-01
       -2   -1    0    0    0  501  0.00000000000E+00  0.00000000000E+00  0.61108201462E+03  0.61108201463E+03  0.25500000920E-02 0. -1.
        2   -1    0    0  501    0  0.00000000000E+00  0.00000000000E+00 -0.19742724217E+04  0.19742724217E+04  0.25500000920E-02 0.  1.
    10030    2    1    2    0    0  0.00000000000E+00  0.00000000000E+00 -0.13631904071E+04  0.25853544363E+04  0.21967634091E+04 0.  0.
        5    1    3    3  502    0  0.60570186010E+03 -0.18764030511E+03 -0.17370891187E+04  0.18492118115E+04  0.46999998093E+01 0.  1.
       -5    1    3    3    0  502 -0.60570186010E+03  0.18764030511E+03  0.37389871169E+03  0.73614262479E+03  0.46999998093E+01 0. -1.
</event>
<event>
 5   0  0.1071208E-05  0.2190573E+04  0.7818609E-02  0.8522362E-01
       -1   -1    0    0    0  501  0.00000000000E+00  0.00000000000E+00  0.11901926466E+04  0.11901926466E+04  0.50400001928E-02 0.  1.
        1   -1    0    0  501    0  0.00000000000E+00  0.00000000000E+00 -0.10079479798E+04  0.10079479798E+04  0.50400001928E-02 0. -1.
    10030    2    1    2    0    0  0.00000000000E+00  0.00000000000E+00  0.18224466673E+03  0.21981406264E+04  0.21905727778E+04 0.  0.
        4    1    3    3  502    0 -0.47195067448E+03 -0.45186646173E+03 -0.79096513364E+03  0.10259377144E+04  0.12699999809E+01 0. -1.
       -4    1    3    3    0  502  0.47195067448E+03  0.45186646173E+03  0.97320980037E+03  0.11722029120E+04  0.12699999809E+01 0.  1.
</event>
<event>
 5   0  0.1033733E-05  0.2207397E+04  0.7818609E-02  0.8515356E-01
        1   -1    0    0  501    0  0.00000000000E+00  0.00000000000E+00  0.11546626974E+04  0.11546626974E+04  0.50400001928E-02 0.  1.
       -1   -1    0    0    0  501  0.00000000000E+00  0.00000000000E+00 -0.10549833308E+04  0.10549833308E+04  0.50400001928E-02 0. -1.
    10030    2    1    2    0    0  0.00000000000E+00  0.00000000000E+00  0.99679366579E+02  0.22096460282E+04  0.22073965647E+04 0.  0.
        5    1    3    3  502    0  0.31618532237E+02 -0.59511968260E+03  0.97974309176E+03  0.11467718971E+04  0.46999998093E+01 0.  1.
       -5    1    3    3    0  502 -0.31618532237E+02  0.59511968260E+03 -0.88006372518E+03  0.10628741311E+04  0.46999998093E+01 0. -1.
</event>
<event>
 5   0  0.1005538E-05  0.2196724E+04  0.7818609E-02  0.8519793E-01
       -1   -1    0    0    0  501  0.00000000000E+00  0.00000000000E+00  0.43949326617E+03  0.43949326620E+03  0.50400001928E-02 0.  1.
        1   -1    0    0  501    0  0.00000000000E+00  0.00000000000E+00 -0.27449777396E+04  0.27449777396E+04  0.50400001928E-02 0. -1.
    10030    2    1    2    0    0  0.00000000000E+00  0.00000000000E+00 -0.23054844735E+04  0.31844710058E+04  0.21967241360E+04 0.  0.
        3    1    3    3  502    0 -0.85804829523E+03 -0.48321990789E+03 -0.44753651681E+03  0.10816826246E+04  0.10100000352E+00 0.  1.
       -3    1    3    3    0  502  0.85804829523E+03  0.48321990789E+03 -0.18579479567E+04  0.21027883812E+04  0.10100000352E+00 0. -1.
</event>
<event>
 5   0  0.1033733E-05  0.2199074E+04  0.7818609E-02  0.8518814E-01
       -1   -1    0    0    0  501  0.00000000000E+00  0.00000000000E+00  0.81105591206E+03  0.81105591208E+03  0.50400001928E-02 0. -1.
        1   -1    0    0  501    0  0.00000000000E+00  0.00000000000E+00 -0.14906266899E+04  0.14906266899E+04  0.50400001928E-02 0.  1.
    10030    2    1    2    0    0  0.00000000000E+00  0.00000000000E+00 -0.67957077787E+03  0.23016826020E+04  0.21990739775E+04 0.  0.
        5    1    3    3  502    0 -0.69652797538E+03 -0.55210169728E+03  0.33771329888E+03  0.95081011084E+03  0.46999998093E+01 0. -1.
       -5    1    3    3    0  502  0.69652797538E+03  0.55210169728E+03 -0.10172840767E+04  0.13508724912E+04  0.46999998093E+01 0.  1.
</event>
<event>
 5   0  0.2284329E-05  0.2207223E+04  0.7818609E-02  0.8515428E-01
       -2   -1    0    0    0  501  0.00000000000E+00  0.00000000000E+00  0.11955793290E+04  0.11955793290E+04  0.25500000920E-02 0.  1.
        2   -1    0    0  501    0  0.00000000000E+00  0.00000000000E+00 -0.10187180429E+04  0.10187180429E+04  0.25500000920E-02 0. -1.
    10030    2    1    2    0    0  0.00000000000E+00  0.00000000000E+00  0.17686128608E+03  0.22142973718E+04  0.22072229014E+04 0.  0.
        2    1    3    3  502    0  0.10129855302E+02  0.94972634820E+03 -0.47539874817E+03  0.10621142689E+04  0.25500000920E-02 0. -1.
       -2    1    3    3    0  502 -0.10129855302E+02 -0.94972634820E+03  0.65226003425E+03  0.11521831029E+04  0.25500000920E-02 0.  1.
</event>
<event>
 5   0  0.2319707E-05  0.2185024E+04  0.7818609E-02  0.8524687E-01
       -2   -1    0    0    0  501  0.00000000000E+00  0.00000000000E+00  0.89956903070E+03  0.89956903070E+03  0.25500000920E-02 0.  1.
        2   -1    0    0  501    0  0.00000000000E+00  0.00000000000E+00 -0.13268381383E+04  0.13268381383E+04  0.25500000920E-02 0. -1.
    10030    2    1    2    0    0  0.00000000000E+00  0.00000000000E+00 -0.42726910761E+03  0.22264071690E+04  0.21850240255E+04 0.  0.
        3    1    3    3  502    0  0.13629078234E+03 -0.28578035829E+03 -0.12790656728E+04  0.13176701393E+04  0.10100000352E+00 0. -1.
       -3    1    3    3    0  502 -0.13629078234E+03  0.28578035829E+03  0.85179656516E+03  0.90873702971E+03  0.10100000352E+00 0.  1.
</event>
<event>
 5   0  0.2319707E-05  0.2230625E+04  0.7818609E-02  0.8505789E-01
        2   -1    0    0  501    0  0.00000000000E+00  0.00000000000E+00  0.12631181204E+04  0.12631181204E+04  0.25500000920E-02 0. -1.
       -2   -1    0    0    0  501  0.00000000000E+00  0.00000000000E+00 -0.98480229477E+03  0.98480229478E+03  0.25500000920E-02 0.  1.
    10030    2    1    2    0    0  0.00000000000E+00  0.00000000000E+00  0.27831582564E+03  0.22479204152E+04  0.22306246870E+04 0.  0.
        3    1    3    3  502    0  0.35541793665E+03 -0.13960218404E+03 -0.91687519754E+03  0.99321237283E+03  0.10100000352E+00 0.  1.
       -3    1    3    3    0  502 -0.35541793665E+03  0.13960218404E+03  0.11951910232E+04  0.12547080424E+04  0.10100000352E+00 0. -1.
</event>
<event>
 5   0  0.1007682E-05  0.2198454E+04  0.7818609E-02  0.8519072E-01
       -1   -1    0    0    0  501  0.00000000000E+00  0.00000000000E+00  0.90603989509E+03  0.90603989510E+03  0.50400001928E-02 0.  1.
        1   -1    0    0  501    0  0.00000000000E+00  0.00000000000E+00 -0.13336062307E+04  0.13336062308E+04  0.50400001928E-02 0. -1.
    10030    2    1    2    0    0  0.00000000000E+00  0.00000000000E+00 -0.42756633566E+03  0.22396461259E+04  0.21984544111E+04 0.  0.
        2    1    3    3  502    0 -0.61816502899E+03  0.16801163554E+02 -0.11395957674E+04  0.12965680836E+04  0.25500000920E-02 0. -1.
       -2    1    3    3    0  502  0.61816502899E+03 -0.16801163554E+02  0.71202943177E+03  0.94307804230E+03  0.25500000920E-02 0.  1.
</event>
<event>
 5   0  0.2298329E-05  0.2195087E+04  0.7818609E-02  0.8520476E-01
       -2   -1    0    0    0  501  0.00000000000E+00  0.00000000000E+00  0.75146092211E+03  0.75146092211E+03  0.25500000920E-02 0.  1.
        2   -1    0    0  501    0  0.00000000000E+00  0.00000000000E+00 -0.16030130068E+04  0.16030130068E+04  0.25500000920E-02 0. -1.
    10030    2    1    2    0    0  0.00000000000E+00  0.00000000000E+00 -0.85155208465E+03  0.23544739289E+04  0.21950869069E+04 0.  0.
        4    1    3    3  502    0 -0.59466778361E+03 -0.35060139779E+03 -0.13409895967E+04  0.15082459430E+04  0.12699999809E+01 0. -1.
       -4    1    3    3    0  502  0.59466778361E+03  0.35060139779E+03  0.48943751210E+03  0.84622798591E+03  0.12699999809E+01 0.  1.
</event>
<event>
 5   0  0.2319707E-05  0.2200165E+04  0.7818609E-02  0.8518359E-01
        2   -1    0    0  501    0  0.00000000000E+00  0.00000000000E+00  0.11116147344E+04  0.11116147344E+04  0.25500000920E-02 0.  1.
       -2   -1    0    0    0  501  0.00000000000E+00  0.00000000000E+00 -0.10886698838E+04  0.10886698838E+04  0.25500000920E-02 0. -1.
    10030    2    1    2    0    0  0.00000000000E+00  0.00000000000E+00  0.22944850618E+02  0.22002846182E+04  0.22001649791E+04 0.  0.
        3    1    3    3  502    0  0.32336428724E+03 -0.10281726151E+04  0.23166179227E+03  0.11024384721E+04  0.10100000352E+00 0. -1.
       -3    1    3    3    0  502 -0.32336428724E+03  0.10281726151E+04 -0.20871694165E+03  0.10978461461E+04  0.10100000352E+00 0.  1.
</event>
<event>
 5   0  0.2319707E-05  0.2191993E+04  0.7818609E-02  0.8521768E-01
        2   -1    0    0  501    0  0.00000000000E+00  0.00000000000E+00  0.73362649754E+03  0.73362649755E+03  0.25500000920E-02 0. -1.
       -2   -1    0    0    0  501  0.00000000000E+00  0.00000000000E+00 -0.16373565557E+04  0.16373565557E+04  0.25500000920E-02 0.  1.
    10030    2    1    2    0    0  0.00000000000E+00  0.00000000000E+00 -0.90373005819E+03  0.23709830533E+04  0.21919928423E+04 0.  0.
        3    1    3    3  502    0  0.53486170473E+03  0.22192509463E+03 -0.14583754164E+04  0.15691356399E+04  0.10100000352E+00 0.  1.
       -3    1    3    3    0  502 -0.53486170473E+03 -0.22192509463E+03  0.55464535824E+03  0.80184741343E+03  0.10100000352E+00 0. -1.
</event>
<event>
 5   0  0.2319707E-05  0.2195591E+04  0.7818609E-02  0.8520265E-01
       -2   -1    0    0    0  501  0.00000000000E+00  0.00000000000E+00  0.10120003908E+04  0.10120003908E+04  0.25500000920E-02 0.  1.
        2   -1    0    0  501    0  0.00000000000E+00  0.00000000000E+00 -0.11908646384E+04  0.11908646384E+04  0.25500000920E-02 0. -1.
    10030    2    1    2    0    0  0.00000000000E+00  0.00000000000E+00 -0.17886424763E+03  0.22028650292E+04  0.21955914733E+04 0.  0.
        3    1    3    3  502    0 -0.81886709294E+03  0.11736419237E+03 -0.81351387253E+03  0.11602251939E+04  0.10100000352E+00 0. -1.
       -3    1    3    3    0  502  0.81886709294E+03 -0.11736419237E+03  0.63464962490E+03  0.10426398353E+04  0.10100000352E+00 0.  1.
</event>
<event>
 5   0  0.2289708E-05  0.2197144E+04  0.7818609E-02  0.8519618E-01
        2   -1    0    0  501    0  0.00000000000E+00  0.00000000000E+00  0.84865559515E+03  0.84865559516E+03  0.25500000920E-02 0. -1.
       -2   -1    0    0    0  501  0.00000000000E+00  0.00000000000E+00 -0.14220846599E+04  0.14220846599E+04  0.25500000920E-02 0.  1.
    10030    2    1    2    0    0  0.00000000000E+00  0.00000000000E+00 -0.57342906477E+03  0.22707402551E+04  0.21971436944E+04 0.  0.
        5    1    3    3  502    0  0.29717702952E+03 -0.61175693774E+03 -0.11783275032E+04  0.13605287695E+04  0.46999998093E+01 0.  1.
       -5    1    3    3    0  502 -0.29717702952E+03  0.61175693774E+03  0.60489843843E+03  0.91021148562E+03  0.46999998093E+01 0. -1.
</event>
<event>
 5   0  0.1005538E-05  0.2206503E+04  0.7818609E-02  0.8515726E-01
        1   -1    0    0  501    0  0.00000000000E+00  0.00000000000E+00  0.19406554250E+04  0.19406554250E+04  0.50400001928E-02 0.  1.
       -1   -1    0    0    0  501  0.00000000000E+00  0.00000000000E+00 -0.62719195412E+03  0.62719195414E+03  0.50400001928E-02 0. -1.
    10030    2    1    2    0    0  0.00000000000E+00  0.00000000000E+00  0.13134634709E+04  0.25678473792E+04  0.22065026339E+04 0.  0.
        3    1    3    3  502    0  0.13774203238E+03  0.10138191439E+04  0.17639005422E+03  0.10382271357E+04  0.10100000352E+00 0. -1.
       -3    1    3    3    0  502 -0.13774203238E+03 -0.10138191439E+04  0.11370734167E+04  0.15296202434E+04  0.10100000352E+00 0.  1.
</event>
<event>
 5   0  0.1007682E-05  0.2184663E+04  0.7818609E-02  0.8524839E-01
        1   -1    0    0  501    0  0.00000000000E+00  0.00000000000E+00  0.11572504505E+04  0.11572504505E+04  0.50400001928E-02 0.  1.
       -1   -1    0    0    0  501  0.00000000000E+00  0.00000000000E+00 -0.10310541110E+04  0.10310541110E+04  0.50400001928E-02 0. -1.
    10030    2    1    2    0    0  0.00000000000E+00  0.00000000000E+00  0.12619633944E+03  0.21883045615E+04  0.21846627515E+04 0.  0.
        2    1    3    3  502    0 -0.31807114398E+03 -0.66124622970E+03  0.87362689916E+03  0.11408942930E+04  0.25500000920E-02 0.  1.
       -2    1    3    3    0  502  0.31807114398E+03  0.66124622970E+03 -0.74743055972E+03  0.10474102685E+04  0.25500000920E-02 0. -1.
</event>
<event>
 5   0  0.1071208E-05  0.2185440E+04  0.7818609E-02  0.8524513E-01
        1   -1    0    0  501    0  0.00000000000E+00  0.00000000000E+00  0.21739962740E+04  0.21739962740E+04  0.50400001928E-02 0.  1.
       -1   -1    0    0    0  501  0.00000000000E+00  0.00000000000E+00 -0.54923599023E+03  0.54923599026E+03  0.50400001928E-02 0. -1.
    10030    2    1    2    0    0  0.00000000000E+00  0.00000000000E+00  0.16247602837E+04  0.27232322642E+04  0.21854399981E+04 0.  0.
        4    1    3    3  502    0  0.94390974996E+03 -0.34338259280E+03  0.27619197236E+03  0.10417105354E+04  0.12699999809E+01 0. -1.
       -4    1    3    3    0  502 -0.94390974996E+03  0.34338259280E+03  0.13485683114E+04  0.16815217288E+04  0.12699999809E+01 0.  1.
</event>
<event>
 5   0  0.2319707E-05  0.2202973E+04  0.7818609E-02  0.8517192E-01
       -2   -1    0    0    0  501  0.00000000000E+00  0.00000000000E+00  0.43537781138E+03  0.43537781138E+03  0.25500000920E-02 0. -1.
        2   -1    0    0  501    0  0.00000000000E+00  0.00000000000E+00 -0.27867130425E+04  0.27867130425E+04  0.25500000920E-02 0.  1.
    10030    2    1    2    0    0  0.00000000000E+00  0.00000000000E+00 -0.23513352311E+04  0.32220908539E+04  0.22029734682E+04 0.  0.
        3    1    3    3  502    0 -0.75840293144E+03  0.69978627162E+03 -0.17390994010E+04  0.20222122958E+04  0.10100000352E+00 0. -1.
       -3    1    3    3    0  502  0.75840293144E+03 -0.69978627162E+03 -0.61223583012E+03  0.11998785581E+04  0.10100000352E+00 0.  1.
</event>
<event>
 5   0  0.2319707E-05  0.2200089E+04  0.7818609E-02  0.8518391E-01
       -2   -1    0    0    0  501  0.00000000000E+00  0.00000000000E+00  0.10915382306E+04  0.10915382306E+04  0.25500000920E-02 0.  1.
        2   -1    0    0  501    0  0.00000000000E+00  0.00000000000E+00 -0.11086171436E+04  0.11086171436E+04  0.25500000920E-02 0. -1.
    10030    2    1    2    0    0  0.00000000000E+00  0.00000000000E+00 -0.17078913036E+02  0.22001553742E+04  0.22000890849E+04 0.  0.
        3    1    3    3  502    0 -0.75109678413E+03  0.44357251332E+03 -0.67877978700E+03  0.11052804907E+04  0.10100000352E+00 0. -1.
       -3    1    3    3    0  502  0.75109678413E+03 -0.44357251332E+03  0.66170087397E+03  0.10948748835E+04  0.10100000352E+00 0.  1.
</event>
<event>
 5   0  0.2229552E-05  0.2136813E+04  0.7818609E-02  0.8545198E-01
        2   -1    0    0  501    0  0.00000000000E+00  0.00000000000E+00  0.12260837858E+04  0.12260837858E+04  0.25500000920E-02 0.  1.
       -2   -1    0    0    0  501  0.00000000000E+00  0.00000000000E+00 -0.93100723070E+03  0.93100723070E+03  0.25500000920E-02 0. -1.
    10030    2    1    2    0    0  0.00000000000E+00  0.00000000000E+00  0.29507655506E+03  0.21570910165E+04  0.21368133938E+04 0.  0.
        1    1    3    3  502    0 -0.99368267517E+03 -0.34262786190E+02  0.54229090772E+03  0.11325451982E+04  0.50400001928E-02 0.  1.
       -1    1    3    3    0  502  0.99368267517E+03  0.34262786190E+02 -0.24721435266E+03  0.10245458182E+04  0.50400001928E-02 0. -1.
</event>
<event>
 5   0  0.1049198E-05  0.2199836E+04  0.7818609E-02  0.8518496E-01
       -1   -1    0    0    0  501  0.00000000000E+00  0.00000000000E+00  0.74572142964E+03  0.74572142965E+03  0.50400001928E-02 0.  1.
        1   -1    0    0  501    0  0.00000000000E+00  0.00000000000E+00 -0.16223475585E+04  0.16223475585E+04  0.50400001928E-02 0. -1.
    10030    2    1    2    0    0  0.00000000000E+00  0.00000000000E+00 -0.87662612885E+03  0.23680689881E+04  0.21998357582E+04 0.  0.
        1    1    3    3  502    0  0.79739123429E+03 -0.67029144219E+03 -0.58184719617E+02  0.10433162798E+04  0.50400001928E-02 0.  1.
       -1    1    3    3    0  502 -0.79739123429E+03  0.67029144219E+03 -0.81844140923E+03  0.13247527084E+04  0.50400001928E-02 0. -1.
</event>
<event>
 5   0  0.2284329E-05  0.2195333E+04  0.7818609E-02  0.8520373E-01
        2   -1    0    0  501    0  0.00000000000E+00  0.00000000000E+00  0.25354773469E+04  0.25354773469E+04  0.25500000920E-02 0. -1.
       -2   -1    0    0    0  501  0.00000000000E+00  0.00000000000E+00 -0.47520490761E+03  0.47520490761E+03  0.25500000920E-02 0.  1.
    10030    2    1    2    0    0  0.00000000000E+00  0.00000000000E+00  0.20602724393E+04  0.30106822545E+04  0.21953325747E+04 0.  0.
        2    1    3    3  502    0  0.21750706893E+03 -0.22622248300E+03  0.24726428159E+04  0.24924783714E+04  0.25500000920E-02 0. -1.
       -2    1    3    3    0  502 -0.21750706893E+03  0.22622248300E+03 -0.41237037667E+03  0.51820388306E+03  0.25500000920E-02 0.  1.
</event>
<event>
 5   0  0.2319707E-05  0.2215278E+04  0.7818609E-02  0.8512096E-01
       -2   -1    0    0    0  501  0.00000000000E+00  0.00000000000E+00  0.22431761129E+04  0.22431761130E+04  0.25500000920E-02 0. -1.
        2   -1    0    0  501    0  0.00000000000E+00  0.00000000000E+00 -0.54693151237E+03  0.54693151237E+03  0.25500000920E-02 0.  1.
    10030    2    1    2    0    0  0.00000000000E+00  0.00000000000E+00  0.16962446006E+04  0.27901076253E+04  0.22152775934E+04 0.  0.
        3    1    3    3  502    0  0.53187891128E+03  0.94155062100E+03  0.54623739943E+03  0.12115230311E+04  0.10100000352E+00 0.  1.
       -3    1    3    3    0  502 -0.53187891128E+03 -0.94155062100E+03  0.11500072011E+04  0.15785845942E+04  0.10100000352E+00 0. -1.
</event>
<event>
 5   0  0.1049198E-05  0.2217439E+04  0.7818609E-02  0.8511204E-01
        1   -1    0    0  501    0  0.00000000000E+00  0.00000000000E+00  0.12784065186E+04  0.12784065186E+04  0.50400001928E-02 0.  1.
       -1   -1    0    0    0  501  0.00000000000E+00  0.00000000000E+00 -0.96155573807E+03  0.96155573808E+03  0.50400001928E-02 0. -1.
    10030    2    1    2    0    0  0.00000000000E+00  0.00000000000E+00  0.31685078050E+03  0.22399622567E+04  0.22174391749E+04 0.  0.
        1    1    3    3  502    0  0.10773802347E+04 -0.11903445777E+03 -0.77055570907E+02  0.10866714928E+04  0.50400001928E-02 0. -1.
       -1    1    3    3    0  502 -0.10773802347E+04  0.11903445777E+03  0.39390635141E+03  0.11532907638E+04  0.50400001928E-02 0.  1.
</event>
<event>
 5   0  0.2298329E-05  0.2210093E+04  0.7818609E-02  0.8514239E-01
        2   -1    0    0  501    0  0.00000000000E+00  0.00000000000E+00  0.16884993196E+04  0.16884993196E+04  0.25500000920E-02 0. -1.
       -2   -1    0    0    0  501  0.00000000000E+00  0.00000000000E+00 -0.72320274602E+03  0.72320274602E+03  0.25500000920E-02 0.  1.
    10030    2    1    2    0    0  0.00000000000E+00  0.00000000000E+00  0.96529657355E+03  0.24117020656E+04  0.22100926176E+04 0.  0.
        4    1    3    3  502    0  0.24182107158E+02  0.11032101688E+04  0.41838390964E+03  0.11801288742E+04  0.12699999809E+01 0.  1.
       -4    1    3    3    0  502 -0.24182107158E+02 -0.11032101688E+04  0.54691266391E+03  0.12315731914E+04  0.12699999809E+01 0. -1.
</event>
<event>
 5   0  0.8003875E-06  0.2200813E+04  0.7818609E-02  0.8518090E-01
       -3   -1    0    0    0  501  0.00000000000E+00  0.00000000000E+00  0.20082979568E+04  0.20082979594E+04  0.10100000352E+00 0.  1.
        3   -1    0    0  501    0  0.00000000000E+00  0.00000000000E+00 -0.60294588772E+03  0.60294589618E+03  0.10100000352E+00 0. -1.
    10030    2    1    2    0    0  0.00000000000E+00  0.00000000000E+00  0.14053520691E+04  0.26112438555E+04  0.22008134939E+04 0.  0.
        2    1    3    3  502    0  0.80133523968E+03  0.25520621566E+03  0.15446885249E+04  0.17587868028E+04  0.25500000920E-02 0.  1.
       -2    1    3    3    0  502 -0.80133523968E+03 -0.25520621566E+03 -0.13933645576E+03  0.85245705274E+03  0.25500000920E-02 0. -1.
</event>
<event>
 5   0  0.2289708E-05  0.2197466E+04  0.7818609E-02  0.8519484E-01
       -2   -1    0    0    0  501  0.00000000000E+00  0.00000000000E+00  0.85014479833E+03  0.85014479833E+03  0.25500000920E-02 0. -1.
        2   -1    0    0  501    0  0.00000000000E+00  0.00000000000E+00 -0.14200098237E+04  0.14200098237E+04  0.25500000920E-02 0.  1.
    10030    2    1    2    0    0  0.00000000000E+00  0.00000000000E+00 -0.56986502534E+03  0.22701546220E+04  0.21974657815E+04 0.  0.
        5    1    3    3  502    0  0.40825892420E+03 -0.57511387150E+03 -0.11552731243E+04  0.13535543565E+04  0.46999998093E+01 0.  1.
       -5    1    3    3    0  502 -0.40825892420E+03  0.57511387150E+03  0.58540809894E+03  0.91660026548E+03  0.46999998093E+01 0. -1.
</event>
<event>
 5   0  0.2298329E-05  0.2196157E+04  0.7818609E-02  0.8520029E-01
       -2   -1    0    0    0  501  0.00000000000E+00  0.00000000000E+00  0.53892923426E+03  0.53892923427E+03  0.25500000920E-02 0.  1.
        2   -1    0    0  501    0  0.00000000000E+00  0.00000000000E+00 -0.22373560061E+04  0.22373560061E+04  0.25500000920E-02 0. -1.
    10030    2    1    2    0    0  0.00000000000E+00  0.00000000000E+00 -0.16984267719E+04  0.27762852404E+04  0.21961571521E+04 0.  0.
        4    1    3    3  502    0 -0.79420008370E+03 -0.75518847735E+03 -0.93598585870E+03  0.14412267517E+04  0.12699999809E+01 0. -1.
       -4    1    3    3    0  502  0.79420008370E+03  0.75518847735E+03 -0.76244091318E+03  0.13350584887E+04  0.12699999809E+01 0.  1.
</event>
<event>
 5   0  0.2319707E-05  0.2201172E+04  0.7818609E-02  0.8517940E-01
        2   -1    0    0  501    0  0.00000000000E+00  0.00000000000E+00  0.21042779808E+04  0.21042779808E+04  0.25500000920E-02 0. -1.
       -2   -1    0    0    0  501  0.00000000000E+00  0.00000000000E+00 -0.57563206341E+03  0.57563206341E+03  0.25500000920E-02 0.  1.
    10030    2    1    2    0    0  0.00000000000E+00  0.00000000000E+00  0.15286459174E+04  0.26799100442E+04  0.22011723023E+04 0.  0.
        3    1    3    3  502    0  0.93966495854E+03 -0.49894977614E+03  0.11073204583E+04  0.15356040248E+04  0.10100000352E+00 0. -1.
       -3    1    3    3    0  502 -0.93966495854E+03  0.49894977614E+03  0.42132545912E+03  0.11443060194E+04  0.10100000352E+00 0.  1.
</event>
<event>
 5   0  0.2319707E-05  0.2210429E+04  0.7818609E-02  0.8514100E-01
        2   -1    0    0  501    0  0.00000000000E+00  0.00000000000E+00  0.21774246430E+04  0.21774246430E+04  0.25500000920E-02 0. -1.
       -2   -1    0    0    0  501  0.00000000000E+00  0.00000000000E+00 -0.56098330941E+03  0.56098330941E+03  0.25500000920E-02 0.  1.
    10030    2    1    2    0    0  0.00000000000E+00  0.00000000000E+00  0.16164413336E+04  0.27384079524E+04  0.22104288111E+04 0.  0.
        3    1    3    3  502    0  0.12256429233E+03 -0.93861491619E+03  0.15149986918E+04  0.17864044932E+04  0.10100000352E+00 0. -1.
       -3    1    3    3    0  502 -0.12256429233E+03  0.93861491619E+03  0.10144264173E+03  0.95200345924E+03  0.10100000352E+00 0.  1.
</event>
<event>
 5   0  0.2298329E-05  0.2196939E+04  0.7818609E-02  0.8519703E-01
       -2   -1    0    0    0  501  0.00000000000E+00  0.00000000000E+00  0.12307538651E+04  0.12307538651E+04  0.25500000920E-02 0. -1.
        2   -1    0    0  501    0  0.00000000000E+00  0.00000000000E+00 -0.98040301313E+03  0.98040301314E+03  0.25500000920E-02 0.  1.
    10030    2    1    2    0    0  0.00000000000E+00  0.00000000000E+00  0.25035085200E+03  0.22111568783E+04  0.21969385952E+04 0.  0.
        4    1    3    3  502    0 -0.65714279305E+03 -0.14801987562E+03  0.99848141034E+03  0.12044555923E+04  0.12699999809E+01 0. -1.
       -4    1    3    3    0  502  0.65714279305E+03  0.14801987562E+03 -0.74813055834E+03  0.10067012860E+04  0.12699999809E+01 0.  1.
</event>
<event>
 5   0  0.2319707E-05  0.2209050E+04  0.7818609E-02  0.8514671E-01
        2   -1    0    0  501    0  0.00000000000E+00  0.00000000000E+00  0.78384757864E+03  0.78384757864E+03  0.25500000920E-02 0.  1.
       -2   -1    0    0    0  501  0.00000000000E+00  0.00000000000E+00 -0.15563933013E+04  0.15563933013E+04  0.25500000920E-02 0. -1.
    10030    2    1    2    0    0  0.00000000000E+00  0.00000000000E+00 -0.77254572267E+03  0.23402408800E+04  0.22090496786E+04 0.  0.
        3    1    3    3  502    0  0.15393782657E+03  0.24512108979E+03  0.74295427690E+03  0.79734702035E+03  0.10100000352E+00 0.  1.
       -3    1    3    3    0  502 -0.15393782657E+03 -0.24512108979E+03 -0.15154999996E+04  0.15428938596E+04  0.10100000352E+00 0. -1.
</event>
<event>
 5   0  0.1033733E-05  0.2202533E+04  0.7818609E-02  0.8517375E-01
        1   -1    0    0  501    0  0.00000000000E+00  0.00000000000E+00  0.11015679439E+04  0.11015679439E+04  0.50400001928E-02 0. -1.
       -1   -1    0    0    0  501  0.00000000000E+00  0.00000000000E+00 -0.11009650500E+04  0.11009650501E+04  0.50400001928E-02 0.  1.
    10030    2    1    2    0    0  0.00000000000E+00  0.00000000000E+00  0.60289386064E+00  0.22025329940E+04  0.22025329115E+04 0.  0.
        5    1    3    3  502    0  0.10637340707E+03  0.10960976680E+04  0.48088803906E+01  0.11012677308E+04  0.46999998093E+01 0. -1.
       -5    1    3    3    0  502 -0.10637340707E+03 -0.10960976680E+04 -0.42059865299E+01  0.11012652632E+04  0.46999998093E+01 0.  1.
</event>
<event>
 5   0  0.2229552E-05  0.2206500E+04  0.7818609E-02  0.8515727E-01
        2   -1    0    0  501    0  0.00000000000E+00  0.00000000000E+00  0.10384973135E+04  0.10384973135E+04  0.25500000920E-02 0.  1.
       -2   -1    0    0    0  501  0.00000000000E+00  0.00000000000E+00 -0.11720403214E+04  0.11720403214E+04  0.25500000920E-02 0. -1.
    10030    2    1    2    0    0  0.00000000000E+00  0.00000000000E+00 -0.13354300792E+03  0.22105376349E+04  0.22065001474E+04 0.  0.
        1    1    3    3  502    0 -0.10754811571E+04 -0.24363860632E+03 -0.32927515908E+02  0.11032242343E+04  0.50400001928E-02 0. -1.
       -1    1    3    3    0  502  0.10754811571E+04  0.24363860632E+03 -0.10061549201E+03  0.11073134006E+04  0.50400001928E-02 0.  1.
</event>
<event>
 5   0  0.1005538E-05  0.2200198E+04  0.7818609E-02  0.8518346E-01
        1   -1    0    0  501    0  0.00000000000E+00  0.00000000000E+00  0.26812285332E+04  0.26812285332E+04  0.50400001928E-02 0. -1.
       -1   -1    0    0    0  501  0.00000000000E+00  0.00000000000E+00 -0.45136704266E+03  0.45136704269E+03  0.50400001928E-02 0.  1.
    10030    2    1    2    0    0  0.00000000000E+00  0.00000000000E+00  0.22298614906E+04  0.31325955759E+04  0.22001983490E+04 0.  0.
        3    1    3    3  502    0 -0.10500576162E+03 -0.90880251105E+03  0.19848000808E+04  0.21854929844E+04  0.10100000352E+00 0. -1.
       -3    1    3    3    0  502  0.10500576162E+03  0.90880251105E+03  0.24506140979E+03  0.94710259151E+03  0.10100000352E+00 0.  1.
</event>
<event>
 5   0  0.2298329E-05  0.2199558E+04  0.7818609E-02  0.8518612E-01
       -2   -1    0    0    0  501  0.00000000000E+00  0.00000000000E+00  0.54649720374E+03  0.54649720374E+03  0.25500000920E-02 0.  1.
        2   -1    0    0  501    0  0.00000000000E+00  0.00000000000E+00 -0.22132106073E+04  0.22132106073E+04  0.25500000920E-02 0. -1.
    10030    2    1    2    0    0  0.00000000000E+00  0.00000000000E+00 -0.16667134035E+04  0.27597078110E+04  0.21995575993E+04 0.  0.
        4    1    3    3  502    0  0.54057702786E+03  0.69400601589E+03 -0.16614773115E+04  0.18799937082E+04  0.12699999809E+01 0. -1.
       -4    1    3    3    0  502 -0.54057702786E+03 -0.69400601589E+03 -0.52360919825E+01  0.87971410282E+03  0.12699999809E+01 0.  1.
</event>
<event>
 5   0  0.2298329E-05  0.2194655E+04  0.7818609E-02  0.8520656E-01
       -2   -1    0    0    0  501  0.00000000000E+00  0.00000000000E+00  0.95001560911E+03  0.95001560912E+03  0.25500000920E-02 0.  1.
        2   -1    0    0  501    0  0.00000000000E+00  0.00000000000E+00 -0.12674818436E+04  0.12674818436E+04  0.25500000920E-02 0. -1.
    10030    2    1    2    0    0  0.00000000000E+00  0.00000000000E+00 -0.31746623451E+03  0.22174974527E+04  0.21946549029E+04 0.  0.
        4    1    3    3  502    0  0.36449309120E+03 -0.82602229999E+03 -0.78888925580E+03  0.11989645218E+04  0.12699999809E+01 0. -1.
       -4    1    3    3    0  502 -0.36449309120E+03  0.82602229999E+03  0.47142302129E+03  0.10185329310E+04  0.12699999809E+01 0.  1.
</event>
<event>
 5   0  0.8003875E-06  0.2194679E+04  0.7818609E-02  0.8520646E-01
       -3   -1    0    0    0  501  0.00000000000E+00  0.00000000000E+00  0.11970434284E+04  0.11970434326E+04  0.10100000352E+00 0. -1.
        3   -1    0    0  501    0  0.00000000000E+00  0.00000000000E+00 -0.10059398159E+04  0.10059398209E+04  0.10100000352E+00 0.  1.
    10030    2    1    2    0    0  0.00000000000E+00  0.00000000000E+00  0.19110361248E+03  0.22029832536E+04  0.21946787065E+04 0.  0.
        5    1    3    3  502    0  0.77316190994E+03 -0.75020421147E+03 -0.11391428239E+03  0.10833209366E+04  0.46999998093E+01 0.  1.
       -5    1    3    3    0  502 -0.77316190994E+03  0.75020421147E+03  0.30501789487E+03  0.11196623170E+04  0.46999998093E+01 0. -1.
</event>
<event>
 5   0  0.2298329E-05  0.2200395E+04  0.7818609E-02  0.8518264E-01
        2   -1    0    0  501    0  0.00000000000E+00  0.00000000000E+00  0.90338461313E+03  0.90338461313E+03  0.25500000920E-02 0.  1.
       -2   -1    0    0    0  501  0.00000000000E+00  0.00000000000E+00 -0.13398889034E+04  0.13398889034E+04  0.25500000920E-02 0. -1.
    10030    2    1    2    0    0  0.00000000000E+00  0.00000000000E+00 -0.43650429031E+03  0.22432735166E+04  0.22003954360E+04 0.  0.
        4    1    3    3  502    0  0.69142488475E+03 -0.98078772488E+02 -0.10849629658E+04  0.12902844907E+04  0.12699999809E+01 0. -1.
       -4    1    3    3    0  502 -0.69142488475E+03  0.98078772488E+02  0.64845867545E+03  0.95298902592E+03  0.12699999809E+01 0.  1.
</event>
<event>
 5   0  0.2229552E-05  0.2179262E+04  0.7818609E-02  0.8527110E-01
        2   -1    0    0  501    0  0.00000000000E+00  0.00000000000E+00  0.21667059240E+04  0.21667059240E+04  0.25500000920E-02 0. -1.
       -2   -1    0    0    0  501  0.00000000000E+00  0.00000000000E+00 -0.54797264010E+03  0.54797264010E+03  0.25500000920E-02 0.  1.
    10030    2    1    2    0    0  0.00000000000E+00  0.00000000000E+00  0.16187332839E+04  0.27146785641E+04  0.21792618617E+04 0.  0.
        1    1    3    3  502    0  0.44883408582E+03 -0.88280624656E+03  0.24330267474E+03  0.10198014989E+04  0.50400001928E-02 0. -1.
       -1    1    3    3    0  502 -0.44883408582E+03  0.88280624656E+03  0.13754306091E+04  0.16948770652E+04  0.50400001928E-02 0.  1.
</event>
<event>
 5   0  0.1071208E-05  0.2203301E+04  0.7818609E-02  0.8517055E-01
        1   -1    0    0  501    0  0.00000000000E+00  0.00000000000E+00  0.10201719782E+04  0.10201719782E+04  0.50400001928E-02 0. -1.
       -1   -1    0    0    0  501  0.00000000000E+00  0.00000000000E+00 -0.11896368506E+04  0.11896368506E+04  0.50400001928E-02 0.  1.
    10030    2    1    2    0    0  0.00000000000E+00  0.00000000000E+00 -0.16946487238E+03  0.22098088288E+04  0.22033013223E+04 0.  0.
        4    1    3    3  502    0 -0.12614809058E+02  0.99828829599E+03  0.38236177956E+03  0.10690840934E+04  0.12699999809E+01 0. -1.
       -4    1    3    3    0  502  0.12614809058E+02 -0.99828829599E+03 -0.55182665194E+03  0.11407247354E+04  0.12699999809E+01 0.  1.
</event>
<event>
 5   0  0.1033733E-05  0.2194621E+04  0.7818609E-02  0.8520670E-01
       -1   -1    0    0    0  501  0.00000000000E+00  0.00000000000E+00  0.83769588390E+03  0.83769588391E+03  0.50400001928E-02 0. -1.
        1   -1    0    0  501    0  0.00000000000E+00  0.00000000000E+00 -0.14373833808E+04  0.14373833809E+04  0.50400001928E-02 0.  1.
    10030    2    1    2    0    0  0.00000000000E+00  0.00000000000E+00 -0.59968749695E+03  0.22750792648E+04  0.21946208253E+04 0.  0.
        5    1    3    3  502    0  0.11201165553E+03  0.20087054248E+03  0.81241859219E+03  0.84435871805E+03  0.46999998093E+01 0. -1.
       -5    1    3    3    0  502 -0.11201165553E+03 -0.20087054248E+03 -0.14121060891E+04  0.14307205467E+04  0.46999998093E+01 0.  1.
</event>
<event>
 5   0  0.2298329E-05  0.2175873E+04  0.7818609E-02  0.8528538E-01
       -2   -1    0    0    0  501  0.00000000000E+00  0.00000000000E+00  0.11371361400E+04  0.11371361400E+04  0.25500000920E-02 0.  1.
        2   -1    0    0  501    0  0.00000000000E+00  0.00000000000E+00 -0.10408659689E+04  0.10408659689E+04  0.25500000920E-02 0. -1.
    10030    2    1    2    0    0  0.00000000000E+00  0.00000000000E+00  0.96270171175E+02  0.21780021089E+04  0.21758734431E+04 0.  0.
        4    1    3    3  502    0 -0.56114670730E+03 -0.85061520697E+03 -0.33325320090E+03  0.10721432583E+04  0.12699999809E+01 0.  1.
       -4    1    3    3    0  502  0.56114670730E+03  0.85061520697E+03  0.42952337208E+03  0.11058588506E+04  0.12699999809E+01 0. -1.
</event>
<event>
 5   0  0.2229552E-05  0.2199029E+04  0.7818609E-02  0.8518832E-01
       -2   -1    0    0    0  501  0.00000000000E+00  0.00000000000E+00  0.13716438294E+04  0.13716438294E+04  0.25500000920E-02 0.  1.
        2   -1    0    0  501    0  0.00000000000E+00  0.00000000000E+00 -0.88137443719E+03  0.88137443719E+03  0.25500000920E-02 0. -1.
    10030    2    1    2    0    0  0.00000000000E+00  0.00000000000E+00  0.49026939223E+03  0.22530182666E+04  0.21990287021E+04 0.  0.
        1    1    3    3  502    0 -0.10505657306E+04 -0.18690490411E+03  0.51680514269E+03  0.11856261439E+04  0.50400001928E-02 0.  1.
       -1    1    3    3    0  502  0.10505657306E+04  0.18690490411E+03 -0.26535750463E+02  0.10673921227E+04  0.50400001928E-02 0. -1.
</event>
<event>
 5   0  0.2284329E-05  0.2199986E+04  0.7818609E-02  0.8518434E-01
       -2   -1    0    0    0  501  0.00000000000E+00  0.00000000000E+00  0.68789306815E+03  0.68789306815E+03  0.25500000920E-02 0.  1.
        2   -1    0    0  501    0  0.00000000000E+00  0.00000000000E+00 -0.17589712254E+04  0.17589712254E+04  0.25500000920E-02 0. -1.
    10030    2    1    2    0    0  0.00000000000E+00  0.00000000000E+00 -0.10710781572E+04  0.24468642935E+04  0.21999855572E+04 0.  0.
        2    1    3    3  502    0  0.65191781525E+03  0.51653894457E+02  0.44820478074E+03  0.79281302218E+03  0.25500000920E-02 0.  1.
       -2    1    3    3    0  502 -0.65191781525E+03 -0.51653894457E+02 -0.15192829380E+04  0.16540512714E+04  0.25500000920E-02 0. -1.
</event>
<event>
 5   0  0.2289708E-05  0.2190009E+04  0.7818609E-02  0.8522598E-01
       -2   -1    0    0    0  501  0.00000000000E+00  0.00000000000E+00  0.53758699209E+03  0.53758699210E+03  0.25500000920E-02 0. -1.
        2   -1    0    0  501    0  0.00000000000E+00  0.00000000000E+00 -0.22304010630E+04  0.22304010630E+04  0.25500000920E-02 0.  1.
    10030    2    1    2    0    0  0.00000000000E+00  0.00000000000E+00 -0.16928140709E+04  0.27679880551E+04  0.21900087658E+04 0.  0.
        5    1    3    3  502    0 -0.82077251536E+03  0.61953899413E+03 -0.37093850549E+03  0.10932124917E+04  0.46999998093E+01 0. -1.
       -5    1    3    3    0  502  0.82077251536E+03 -0.61953899413E+03 -0.13218755654E+04  0.16747755634E+04  0.46999998093E+01 0.  1.
</event>
<event>
 5   0  0.2284329E-05  0.2203211E+04  0.7818609E-02  0.8517093E-01
        2   -1    0    0  501    0  0.00000000000E+00  0.00000000000E+00  0.17218839502E+04  0.17218839502E+04  0.25500000920E-02 0.  1.
       -2   -1    0    0    0  501  0.00000000000E+00  0.00000000000E+00 -0.70477120622E+03  0.70477120623E+03  0.25500000920E-02 0. -1.
    10030    2    1    2    0    0  0.00000000000E+00  0.00000000000E+00  0.10171127439E+04  0.24266551564E+04  0.22032105923E+04 0.  0.
        2    1    3    3  502    0 -0.10384635082E+04  0.36638838338E+03  0.47574737437E+03  0.11995759541E+04  0.25500000920E-02 0.  1.
       -2    1    3    3    0  502  0.10384635082E+04 -0.36638838338E+03  0.54136536957E+03  0.12270792023E+04  0.25500000920E-02 0. -1.
</event>
<event>
 5   0  0.1005538E-05  0.2203128E+04  0.7818609E-02  0.8517127E-01
        1   -1    0    0  501    0  0.00000000000E+00  0.00000000000E+00  0.16062628399E+04  0.16062628399E+04  0.50400001928E-02 0.  1.
       -1   -1    0    0    0  501  0.00000000000E+00  0.00000000000E+00 -0.75544482342E+03  0.75544482344E+03  0.50400001928E-02 0. -1.
    10030    2    1    2    0    0  0.00000000000E+00  0.00000000000E+00  0.85081801644E+03  0.23617076633E+04  0.22031277289E+04 0.  0.
        3    1    3    3  502    0 -0.97876730287E+03 -0.80609323552E+02 -0.10946431346E+03  0.98816281165E+03  0.10100000352E+00 0. -1.
       -3    1    3    3    0  502  0.97876730287E+03  0.80609323552E+02  0.96028232990E+03  0.13735448517E+04  0.10100000352E+00 0.  1.
</event>
<event>
 5   0  0.2229552E-05  0.2211169E+04  0.7818609E-02  0.8513794E-01
        2   -1    0    0  501    0  0.00000000000E+00  0.00000000000E+00  0.94658446563E+03  0.94658446563E+03  0.25500000920E-02 0. -1.
       -2   -1    0    0    0  501  0.00000000000E+00  0.00000000000E+00 -0.12912921753E+04  0.12912921753E+04  0.25500000920E-02 0.  1.
    10030    2    1    2    0    0  0.00000000000E+00  0.00000000000E+00 -0.34470770965E+03  0.22378766409E+04  0.22111690245E+04 0.  0.
        1    1    3    3  502    0 -0.77973377228E+03  0.20903039580E+02 -0.96533232890E+03  0.12410834774E+04  0.50400001928E-02 0.  1.
       -1    1    3    3    0  502  0.77973377228E+03 -0.20903039580E+02  0.62062461925E+03  0.99679316347E+03  0.50400001928E-02 0. -1.
</event>
<event>
 5   0  0.1007682E-05  0.2197310E+04  0.7818609E-02  0.8519549E-01
        1   -1    0    0  501    0  0.00000000000E+00  0.00000000000E+00  0.84820135578E+03  0.84820135580E+03  0.50400001928E-02 0.  1.
       -1   -1    0    0    0  501  0.00000000000E+00  0.00000000000E+00 -0.14230617372E+04  0.14230617372E+04  0.50400001928E-02 0. -1.
    10030    2    1    2    0    0  0.00000000000E+00  0.00000000000E+00 -0.57486038145E+03  0.22712630930E+04  0.21973100782E+04 0.  0.
        2    1    3    3  502    0 -0.22673432929E+03 -0.11312839833E+03  0.81758469706E+03  0.85595048190E+03  0.25500000920E-02 0.  1.
       -2    1    3    3    0  502  0.22673432929E+03  0.11312839833E+03 -0.13924450785E+04  0.14153126111E+04  0.25500000920E-02 0. -1.
</event>
<event>
 5   0  0.1071208E-05  0.2214134E+04  0.7818609E-02  0.8512568E-01
        1   -1    0    0  501    0  0.00000000000E+00  0.00000000000E+00  0.19766292796E+04  0.19766292796E+04  0.50400001928E-02 0. -1.
       -1   -1    0    0    0  501  0.00000000000E+00  0.00000000000E+00 -0.62004402829E+03  0.62004402831E+03  0.50400001928E-02 0.  1.
    10030    2    1    2    0    0  0.00000000000E+00  0.00000000000E+00  0.13565852513E+04  0.25966733080E+04  0.22141338541E+04 0.  0.
        4    1    3    3  502    0 -0.12647243175E+03 -0.68470332546E+03 -0.33109633050E+03  0.77099955438E+03  0.12699999809E+01 0.  1.
       -4    1    3    3    0  502  0.12647243175E+03  0.68470332546E+03  0.16876815818E+04  0.18256737536E+04  0.12699999809E+01 0. -1.
</event>
<event>
 5   0  0.2319707E-05  0.2221169E+04  0.7818609E-02  0.8509668E-01
       -2   -1    0    0    0  501  0.00000000000E+00  0.00000000000E+00  0.12014208489E+04  0.12014208489E+04  0.25500000920E-02 0.  1.
        2   -1    0    0  501    0  0.00000000000E+00  0.00000000000E+00 -0.10266164984E+04  0.10266164984E+04  0.25500000920E-02 0. -1.
    10030    2    1    2    0    0  0.00000000000E+00  0.00000000000E+00  0.17480435055E+03  0.22280373474E+04  0.22211694803E+04 0.  0.
        3    1    3    3  502    0 -0.13990012180E+03 -0.51166740436E+03  0.10661356931E+04  0.11908068286E+04  0.10100000352E+00 0.  1.
       -3    1    3    3    0  502  0.13990012180E+03  0.51166740436E+03 -0.89133134251E+03  0.10372305188E+04  0.10100000352E+00 0. -1.
</event>
<event>
 5   0  0.2289708E-05  0.2199595E+04  0.7818609E-02  0.8518597E-01
        2   -1    0    0  501    0  0.00000000000E+00  0.00000000000E+00  0.19998529697E+04  0.19998529697E+04  0.25500000920E-02 0.  1.
       -2   -1    0    0    0  501  0.00000000000E+00  0.00000000000E+00 -0.60482152160E+03  0.60482152160E+03  0.25500000920E-02 0. -1.
    10030    2    1    2    0    0  0.00000000000E+00  0.00000000000E+00  0.13950314481E+04  0.26046744913E+04  0.21995946137E+04 0.  0.
        5    1    3    3  502    0  0.29826856872E+03  0.10535065415E+04  0.57507177727E+03  0.12367577819E+04  0.46999998093E+01 0.  1.
       -5    1    3    3    0  502 -0.29826856872E+03 -0.10535065415E+04  0.81995967085E+03  0.13679167094E+04  0.46999998093E+01 0. -1.
</event>
<event>
 5   0  0.2289708E-05  0.2200791E+04  0.7818609E-02  0.8518099E-01
       -2   -1    0    0    0  501  0.00000000000E+00  0.00000000000E+00  0.72283699089E+03  0.72283699089E+03  0.25500000920E-02 0. -1.
        2   -1    0    0  501    0  0.00000000000E+00  0.00000000000E+00 -0.16751630661E+04  0.16751630661E+04  0.25500000920E-02 0.  1.
    10030    2    1    2    0    0  0.00000000000E+00  0.00000000000E+00 -0.95232607517E+03  0.23980000570E+04  0.22007906124E+04 0.  0.
        5    1    3    3  502    0 -0.81536894207E+03 -0.40950693315E+03  0.19403500754E+03  0.93284195561E+03  0.46999998093E+01 0. -1.
       -5    1    3    3    0  502  0.81536894207E+03  0.40950693315E+03 -0.11463610827E+04  0.14651581013E+04  0.46999998093E+01 0.  1.
</event>
<event>
 5   0  0.2229552E-05  0.2207450E+04  0.7818609E-02  0.8515334E-01
       -2   -1    0    0    0  501  0.00000000000E+00  0.00000000000E+00  0.12907598935E+04  0.12907598935E+04  0.25500000920E-02 0. -1.
        2   -1    0    0  501    0  0.00000000000E+00  0.00000000000E+00 -0.94379161913E+03  0.94379161913E+03  0.25500000920E-02 0.  1.
    10030    2    1    2    0    0  0.00000000000E+00  0.00000000000E+00  0.34696827442E+03  0.22345515127E+04  0.22074495417E+04 0.  0.
        1    1    3    3  502    0 -0.89915573806E+03  0.60584448606E+03  0.38261142667E+03  0.11497478360E+04  0.50400001928E-02 0. -1.
       -1    1    3    3    0  502  0.89915573806E+03 -0.60584448606E+03 -0.35643152254E+02  0.10848036767E+04  0.50400001928E-02 0.  1.
</event>
<event>
 5   0  0.1071208E-05  0.2201021E+04  0.7818609E-02  0.8518003E-01
        1   -1    0    0  501    0  0.00000000000E+00  0.00000000000E+00  0.70587242459E+03  0.70587242460E+03  0.50400001928E-02 0.  1.
       -1   -1    0    0    0  501  0.00000000000E+00  0.00000000000E+00 -0.17157814658E+04  0.17157814658E+04  0.50400001928E-02 0. -1.
    10030    2    1    2    0    0  0.00000000000E+00  0.00000000000E+00 -0.10099090412E+04  0.24216538904E+04  0.22010205118E+04 0.  0.
        4    1    3    3  502    0  0.23028114114E+03 -0.96192226458E+03 -0.10358108642E+04  0.14322114391E+04  0.12699999809E+01 0. -1.
       -4    1    3    3    0  502 -0.23028114114E+03  0.96192226458E+03  0.25901822988E+02  0.98944245128E+03  0.12699999809E+01 0.  1.
</event>
<event>
 5   0  0.8003875E-06  0.2180082E+04  0.7818609E-02  0.8526765E-01
        3   -1    0    0  501    0  0.00000000000E+00  0.00000000000E+00  0.15840942409E+04  0.15840942441E+04  0.10100000352E+00 0. -1.
       -3   -1    0    0    0  501  0.00000000000E+00  0.00000000000E+00 -0.75007472461E+03  0.75007473141E+03  0.10100000352E+00 0.  1.
    10030    2    1    2    0    0  0.00000000000E+00  0.00000000000E+00  0.83401951629E+03  0.23341689755E+04  0.21800817078E+04 0.  0.
        2    1    3    3  502    0  0.21604689479E+03  0.13025571593E+03  0.15524079086E+04  0.15727724333E+04  0.25500000920E-02 0. -1.
       -2    1    3    3    0  502 -0.21604689479E+03 -0.13025571593E+03 -0.71838839231E+03  0.76139654221E+03  0.25500000920E-02 0.  1.
</event>
<event>
 5   0  0.2289708E-05  0.2226388E+04  0.7818609E-02  0.8507525E-01
       -2   -1    0    0    0  501  0.00000000000E+00  0.00000000000E+00  0.84878471024E+03  0.84878471025E+03  0.25500000920E-02 0.  1.
        2   -1    0    0  501    0  0.00000000000E+00  0.00000000000E+00 -0.14599705708E+04  0.14599705708E+04  0.25500000920E-02 0. -1.
    10030    2    1    2    0    0  0.00000000000E+00  0.00000000000E+00 -0.61118586058E+03  0.23087552811E+04  0.22263878350E+04 0.  0.
        5    1    3    3  502    0 -0.46564610656E+03 -0.16011025384E+02 -0.13539830443E+04  0.14319129944E+04  0.46999998093E+01 0. -1.
       -5    1    3    3    0  502  0.46564610656E+03  0.16011025384E+02  0.74279718370E+03  0.87684228662E+03  0.46999998093E+01 0.  1.
</event>
<event>
 5   0  0.2284329E-05  0.2207567E+04  0.7818609E-02  0.8515285E-01
       -2   -1    0    0    0  501  0.00000000000E+00  0.00000000000E+00  0.10503535659E+04  0.10503535659E+04  0.25500000920E-02 0.  1.
        2   -1    0    0  501    0  0.00000000000E+00  0.00000000000E+00 -0.11599314123E+04  0.11599314123E+04  0.25500000920E-02 0. -1.
    10030    2    1    2    0    0  0.00000000000E+00  0.00000000000E+00 -0.10957784640E+03  0.22102849782E+04  0.22075670727E+04 0.  0.
        2    1    3    3  502    0 -0.78186365939E+03  0.76810278736E+03 -0.18550777794E+03  0.11116230519E+04  0.25500000920E-02 0. -1.
       -2    1    3    3    0  502  0.78186365939E+03 -0.76810278736E+03  0.75929931541E+02  0.10986619263E+04  0.25500000920E-02 0.  1.
</event>
<event>
 5   0  0.2319707E-05  0.2197636E+04  0.7818609E-02  0.8519413E-01
        2   -1    0    0  501    0  0.00000000000E+00  0.00000000000E+00  0.16325502418E+04  0.16325502418E+04  0.25500000920E-02 0. -1.
       -2   -1    0    0    0  501  0.00000000000E+00  0.00000000000E+00 -0.73957973128E+03  0.73957973129E+03  0.25500000920E-02 0.  1.
    10030    2    1    2    0    0  0.00000000000E+00  0.00000000000E+00  0.89297051056E+03  0.23721299731E+04  0.21976360656E+04 0.  0.
        3    1    3    3  502    0  0.19087005570E+03 -0.10730164605E+04  0.29534850605E+03  0.11291706926E+04  0.10100000352E+00 0.  1.
       -3    1    3    3    0  502 -0.19087005570E+03  0.10730164605E+04  0.59762200450E+03  0.12429592806E+04  0.10100000352E+00 0. -1.
</event>
<event>
 5   0  0.1049198E-05  0.2118461E+04  0.7818609E-02  0.8553155E-01
        1   -1    0    0  501    0  0.00000000000E+00  0.00000000000E+00  0.87056398614E+03  0.87056398616E+03  0.50400001928E-02 0. -1.
       -1   -1    0    0    0  501  0.00000000000E+00  0.00000000000E+00 -0.12887841027E+04  0.12887841027E+04  0.50400001928E-02 0.  1.
    10030    2    1    2    0    0  0.00000000000E+00  0.00000000000E+00 -0.41822011652E+03  0.21593480888E+04  0.21184607863E+04 0.  0.
        1    1    3    3  502    0  0.14153217117E+03  0.93471882791E+03 -0.69607373531E+03  0.11739886233E+04  0.50400001928E-02 0.  1.
       -1    1    3    3    0  502 -0.14153217117E+03 -0.93471882791E+03  0.27785361879E+03  0.98535946549E+03  0.50400001928E-02 0. -1.
</event>
<event>
 5   0  0.2319707E-05  0.2202510E+04  0.7818609E-02  0.8517384E-01
        2   -1    0    0  501    0  0.00000000000E+00  0.00000000000E+00  0.27646337493E+04  0.27646337493E+04  0.25500000920E-02 0. -1.
       -2   -1    0    0    0  501  0.00000000000E+00  0.00000000000E+00 -0.43867037556E+03  0.43867037557E+03  0.25500000920E-02 0.  1.
    10030    2    1    2    0    0  0.00000000000E+00  0.00000000000E+00  0.23259633737E+04  0.32033041249E+04  0.22025103179E+04 0.  0.
        3    1    3    3  502    0  0.91004149833E+03 -0.51739751031E+03  0.16602189917E+04  0.19627029380E+04  0.10100000352E+00 0.  1.
       -3    1    3    3    0  502 -0.91004149833E+03  0.51739751031E+03  0.66574438205E+03  0.12406011868E+04  0.10100000352E+00 0. -1.
</event>
<event>
 5   0  0.2289708E-05  0.2197871E+04  0.7818609E-02  0.8519315E-01
       -2   -1    0    0    0  501  0.00000000000E+00  0.00000000000E+00  0.83552320829E+03  0.83552320829E+03  0.25500000920E-02 0.  1.
        2   -1    0    0  501    0  0.00000000000E+00  0.00000000000E+00 -0.14453930652E+04  0.14453930652E+04  0.25500000920E-02 0. -1.
    10030    2    1    2    0    0  0.00000000000E+00  0.00000000000E+00 -0.60986985687E+03  0.22809162735E+04  0.21978711983E+04 0.  0.
        5    1    3    3  502    0  0.45131080358E+03  0.34719224464E+03  0.67047935991E+03  0.87965252130E+03  0.46999998093E+01 0.  1.
       -5    1    3    3    0  502 -0.45131080358E+03 -0.34719224464E+03 -0.12803492168E+04  0.14012637521E+04  0.46999998093E+01 0. -1.
</event>
<event>
 5   0  0.1049198E-05  0.2189877E+04  0.7818609E-02  0.8522653E-01
       -1   -1    0    0    0  501  0.00000000000E+00  0.00000000000E+00  0.56374582437E+03  0.56374582439E+03  0.50400001928E-02 0.  1.
        1   -1    0    0  501    0  0.00000000000E+00  0.00000000000E+00 -0.21266513845E+04  0.21266513845E+04  0.50400001928E-02 0. -1.
    10030    2    1    2    0    0  0.00000000000E+00  0.00000000000E+00 -0.15629055601E+04  0.26903972089E+04  0.21898774741E+04 0.  0.
        1    1    3    3  502    0 -0.69958579918E+03 -0.36863418792E+03  0.14899789150E+03  0.80468119564E+03  0.50400001928E-02 0.  1.
       -1    1    3    3    0  502  0.69958579918E+03  0.36863418792E+03 -0.17119034516E+04  0.18857160132E+04  0.50400001928E-02 0. -1.
</event>
<event>
 5   0  0.1007682E-05  0.2190098E+04  0.7818609E-02  0.8522561E-01
        1   -1    0    0  501    0  0.00000000000E+00  0.00000000000E+00  0.15221437303E+04  0.15221437303E+04  0.50400001928E-02 0.  1.
       -1   -1    0    0    0  501  0.00000000000E+00  0.00000000000E+00 -0.78779164122E+03  0.78779164124E+03  0.50400001928E-02 0. -1.
    10030    2    1    2    0    0  0.00000000000E+00  0.00000000000E+00  0.73435208911E+03  0.23099353716E+04  0.21900978129E+04 0.  0.
        2    1    3    3  502    0 -0.47299858875E+03  0.88017585334E+03 -0.10532687517E+03  0.10047541731E+04  0.25500000920E-02 0. -1.
       -2    1    3    3    0  502  0.47299858875E+03 -0.88017585334E+03  0.83967896428E+03  0.13051811985E+04  0.25500000920E-02 0.  1.
</event>
<event>
 5   0  0.2298329E-05  0.2162706E+04  0.7818609E-02  0.8534113E-01
        2   -1    0    0  501    0  0.00000000000E+00  0.00000000000E+00  0.15333050160E+04  0.15333050160E+04  0.25500000920E-02 0. -1.
       -2   -1    0    0    0  501  0.00000000000E+00  0.00000000000E+00 -0.76261701807E+03  0.76261701807E+03  0.25500000920E-02 0.  1.
    10030    2    1    2    0    0  0.00000000000E+00  0.00000000000E+00  0.77068799794E+03  0.22959220341E+04  0.21627061743E+04 0.  0.
        4    1    3    3  502    0 -0.80813828280E+03  0.33344582784E+03  0.10609811924E+04  0.13747568177E+04  0.12699999809E+01 0. -1.
       -4    1    3    3    0  502  0.80813828280E+03 -0.33344582784E+03 -0.29029319448E+03  0.92116521639E+03  0.12699999809E+01 0.  1.
</event>
<event>
 5   0  0.2298329E-05  0.2200191E+04  0.7818609E-02  0.8518349E-01
       -2   -1    0    0    0  501  0.00000000000E+00  0.00000000000E+00  0.12149489877E+04  0.12149489877E+04  0.25500000920E-02 0. -1.
        2   -1    0    0  501    0  0.00000000000E+00  0.00000000000E+00 -0.99609915336E+03  0.99609915336E+03  0.25500000920E-02 0.  1.
    10030    2    1    2    0    0  0.00000000000E+00  0.00000000000E+00  0.21884983434E+03  0.22110481411E+04  0.22001905899E+04 0.  0.
        4    1    3    3  502    0  0.39625281861E+03  0.56456420474E+03 -0.75181009366E+03  0.10202789165E+04  0.12699999809E+01 0.  1.
       -4    1    3    3    0  502 -0.39625281861E+03 -0.56456420474E+03  0.97065992801E+03  0.11907692246E+04  0.12699999809E+01 0. -1.
</event>
<event>
 5   0  0.2284329E-05  0.2200903E+04  0.7818609E-02  0.8518053E-01
       -2   -1    0    0    0  501  0.00000000000E+00  0.00000000000E+00  0.84934046026E+03  0.84934046026E+03  0.25500000920E-02 0. -1.
        2   -1    0    0  501    0  0.00000000000E+00  0.00000000000E+00 -0.14258040143E+04  0.14258040143E+04  0.25500000920E-02 0.  1.
    10030    2    1    2    0    0  0.00000000000E+00  0.00000000000E+00 -0.57646355404E+03  0.22751444746E+04  0.22009025764E+04 0.  0.
        2    1    3    3  502    0 -0.12947917867E+03 -0.45987144718E+03 -0.13130076671E+04  0.13972242982E+04  0.25500000920E-02 0.  1.
       -2    1    3    3    0  502  0.12947917867E+03  0.45987144718E+03  0.73654411303E+03  0.87792017638E+03  0.25500000920E-02 0. -1.
</event>
<event>
 5   0  0.2229552E-05  0.2163426E+04  0.7818609E-02  0.8533807E-01
        2   -1    0    0  501    0  0.00000000000E+00  0.00000000000E+00  0.25220073606E+04  0.25220073606E+04  0.25500000920E-02 0.  1.
       -2   -1    0    0    0  501  0.00000000000E+00  0.00000000000E+00 -0.46395700988E+03  0.46395700989E+03  0.25500000920E-02 0. -1.
    10030    2    1    2    0    0  0.00000000000E+00  0.00000000000E+00  0.20580503508E+04  0.29859643705E+04  0.21634259811E+04 0.  0.
        1    1    3    3  502    0 -0.62825760512E+03 -0.12317585436E+03 -0.17438341358E+03  0.66354312931E+03  0.50400001928E-02 0. -1.
       -1    1    3    3    0  502  0.62825760512E+03  0.12317585436E+03  0.22324337643E+04  0.23224212412E+04  0.50400001928E-02 0.  1.
</event>
<event>
 5   0  0.2298329E-05  0.2178166E+04  0.7818609E-02  0.8527571E-01
        2   -1    0    0  501    0  0.00000000000E+00  0.00000000000E+00  0.13614796030E+04  0.13614796030E+04  0.25500000920E-02 0. -1.
       -2   -1    0    0    0  501  0.00000000000E+00  0.00000000000E+00 -0.87118623633E+03  0.87118623633E+03  0.25500000920E-02 0.  1.
    10030    2    1    2    0    0  0.00000000000E+00  0.00000000000E+00  0.49029336668E+03  0.22326658393E+04  0.21781664686E+04 0.  0.
        4    1    3    3  502    0  0.38470600262E+03 -0.17243269144E+03 -0.78415430258E+03  0.89029844697E+03  0.12699999809E+01 0.  1.
       -4    1    3    3    0  502 -0.38470600262E+03  0.17243269144E+03  0.12744476693E+04  0.13423673924E+04  0.12699999809E+01 0. -1.
</event>
<event>
 5   0  0.2319707E-05  0.2249738E+04  0.7818609E-02  0.8498006E-01
       -2   -1    0    0    0  501  0.00000000000E+00  0.00000000000E+00  0.14259352530E+04  0.14259352530E+04  0.25500000920E-02 0. -1.
        2   -1    0    0  501    0  0.00000000000E+00  0.00000000000E+00 -0.88736887933E+03  0.88736887933E+03  0.25500000920E-02 0.  1.
    10030    2    1    2    0    0  0.00000000000E+00  0.00000000000E+00  0.53856637369E+03  0.23133041324E+04  0.22497382670E+04 0.  0.
        3    1    3    3  502    0  0.93820192242E+03  0.35850560609E+03 -0.25156763956E+03  0.10353914257E+04  0.10100000352E+00 0.  1.
       -3    1    3    3    0  502 -0.93820192242E+03 -0.35850560609E+03  0.79013401326E+03  0.12779127067E+04  0.10100000352E+00 0. -1.
</event>
<event>
 5   0  0.1005538E-05  0.2203623E+04  0.7818609E-02  0.8516922E-01
       -1   -1    0    0    0  501  0.00000000000E+00  0.00000000000E+00  0.66264043105E+03  0.66264043107E+03  0.50400001928E-02 0. -1.
        1   -1    0    0  501    0  0.00000000000E+00  0.00000000000E+00 -0.18320469010E+04  0.18320469010E+04  0.50400001928E-02 0.  1.
    10030    2    1    2    0    0  0.00000000000E+00  0.00000000000E+00 -0.11694064700E+04  0.24946873321E+04  0.22036227883E+04 0.  0.
        3    1    3    3  502    0  0.58548167553E+03  0.75905341350E+03  0.30215107574E+02  0.95909532365E+03  0.10100000352E+00 0. -1.
       -3    1    3    3    0  502 -0.58548167553E+03 -0.75905341350E+03 -0.11996215776E+04  0.15355920085E+04  0.10100000352E+00 0.  1.
</event>
<event>
 5   0  0.1005538E-05  0.2172679E+04  0.7818609E-02  0.8529887E-01
       -1   -1    0    0    0  501  0.00000000000E+00  0.00000000000E+00  0.75299912312E+03  0.75299912314E+03  0.50400001928E-02 0.  1.
        1   -1    0    0  501    0  0.00000000000E+00  0.00000000000E+00 -0.15672436134E+04  0.15672436134E+04  0.50400001928E-02 0. -1.
    10030    2    1    2    0    0  0.00000000000E+00  0.00000000000E+00 -0.81424449030E+03  0.23202427366E+04  0.21726785926E+04 0.  0.
        3    1    3    3  502    0  0.70942656260E+02 -0.59126490566E+03  0.56315993541E+03  0.81961952892E+03  0.10100000352E+00 0.  1.
       -3    1    3    3    0  502 -0.70942656260E+02  0.59126490566E+03 -0.13774044257E+04  0.15006232076E+04  0.10100000352E+00 0. -1.
</event>
<event>
 5   0  0.1071208E-05  0.2205725E+04  0.7818609E-02  0.8516049E-01
       -1   -1    0    0    0  501  0.00000000000E+00  0.00000000000E+00  0.14409613971E+04  0.14409613971E+04  0.50400001928E-02 0.  1.
        1   -1    0    0  501    0  0.00000000000E+00  0.00000000000E+00 -0.84409335358E+03  0.84409335360E+03  0.50400001928E-02 0. -1.
    10030    2    1    2    0    0  0.00000000000E+00  0.00000000000E+00  0.59686804347E+03  0.22850547507E+04  0.22057252214E+04 0.  0.
        4    1    3    3  502    0 -0.40946327632E+03 -0.98823533792E+03  0.57648036291E+03  0.12151545085E+04  0.12699999809E+01 0.  1.
       -4    1    3    3    0  502  0.40946327632E+03  0.98823533792E+03  0.20387680555E+02  0.10699002422E+04  0.12699999809E+01 0. -1.
</event>
<event>
 5   0  0.1049198E-05  0.2213396E+04  0.7818609E-02  0.8512873E-01
        1   -1    0    0  501    0  0.00000000000E+00  0.00000000000E+00  0.86672654089E+03  0.86672654091E+03  0.50400001928E-02 0.  1.
       -1   -1    0    0    0  501  0.00000000000E+00  0.00000000000E+00 -0.14131103196E+04  0.14131103196E+04  0.50400001928E-02 0. -1.
    10030    2    1    2    0    0  0.00000000000E+00  0.00000000000E+00 -0.54638377869E+03  0.22798368605E+04  0.22133957795E+04 0.  0.
        1    1    3    3  502    0 -0.84078907971E+03  0.60538350399E+03  0.12754292668E+03  0.10438786623E+04  0.50400001928E-02 0. -1.
       -1    1    3    3    0  502  0.84078907971E+03 -0.60538350399E+03 -0.67392670537E+03  0.12359581982E+04  0.50400001928E-02 0.  1.
</event>
<event>
 5   0  0.2229552E-05  0.2204023E+04  0.7818609E-02  0.8516755E-01
       -2   -1    0    0    0  501  0.00000000000E+00  0.00000000000E+00  0.52028862239E+03  0.52028862240E+03  0.25500000920E-02 0.  1.
        2   -1    0    0  501    0  0.00000000000E+00  0.00000000000E+00 -0.23341459554E+04  0.23341459554E+04  0.25500000920E-02 0. -1.
    10030    2    1    2    0    0  0.00000000000E+00  0.00000000000E+00 -0.18138573330E+04  0.28544345778E+04  0.22040232155E+04 0.  0.
        1    1    3    3  502    0 -0.96920135681E+03  0.23244048818E+03 -0.15158328057E+04  0.18141468919E+04  0.50400001928E-02 0. -1.
       -1    1    3    3    0  502  0.96920135681E+03 -0.23244048818E+03 -0.29802452738E+03  0.10402876859E+04  0.50400001928E-02 0.  1.
</event>
<event>
 5   0  0.2298329E-05  0.2199809E+04  0.7818609E-02  0.8518508E-01
       -2   -1    0    0    0  501  0.00000000000E+00  0.00000000000E+00  0.13811749199E+04  0.13811749199E+04  0.25500000920E-02 0. -1.
        2   -1    0    0  501    0  0.00000000000E+00  0.00000000000E+00 -0.87591350700E+03  0.87591350701E+03  0.25500000920E-02 0.  1.
    10030    2    1    2    0    0  0.00000000000E+00  0.00000000000E+00  0.50526141290E+03  0.22570884269E+04  0.21998088716E+04 0.  0.
        4    1    3    3  502    0 -0.88985045625E+03  0.25146698245E+03  0.86372137625E+03  0.12653401544E+04  0.12699999809E+01 0. -1.
       -4    1    3    3    0  502  0.88985045625E+03 -0.25146698245E+03 -0.35845996335E+03  0.99174827248E+03  0.12699999809E+01 0.  1.
</event>
<event>
 5   0  0.2284329E-05  0.2189578E+04  0.7818609E-02  0.8522779E-01
        2   -1    0    0  501    0  0.00000000000E+00  0.00000000000E+00  0.12092005196E+04  0.12092005196E+04  0.25500000920E-02 0. -1.
       -2   -1    0    0    0  501  0.00000000000E+00  0.00000000000E+00 -0.99120279753E+03  0.99120279753E+03  0.25500000920E-02 0.  1.
    10030    2    1    2    0    0  0.00000000000E+00  0.00000000000E+00  0.21799772210E+03  0.22004033172E+04  0.21895779848E+04 0.  0.
        2    1    3    3  502    0  0.45987215475E+03 -0.93512135090E+03  0.44625993035E+03  0.11336146899E+04  0.25500000920E-02 0. -1.
       -2    1    3    3    0  502 -0.45987215475E+03  0.93512135090E+03 -0.22826220825E+03  0.10667886273E+04  0.25500000920E-02 0.  1.
</event>
<event>
 5   0  0.1033733E-05  0.2197858E+04  0.7818609E-02  0.8519320E-01
        1   -1    0    0  501    0  0.00000000000E+00  0.00000000000E+00  0.15563285591E+04  0.15563285592E+04  0.50400001928E-02 0.  1.
       -1   -1    0    0    0  501  0.00000000000E+00  0.00000000000E+00 -0.77595744836E+03  0.77595744837E+03  0.50400001928E-02 0. -1.
    10030    2    1    2    0    0  0.00000000000E+00  0.00000000000E+00  0.78037111079E+03  0.23322860075E+04  0.21978578094E+04 0.  0.
        5    1    3    3  502    0  0.28661693300E+03  0.43713501150E+03 -0.63557373762E+03  0.82292912849E+03  0.46999998093E+01 0. -1.
       -5    1    3    3    0  502 -0.28661693300E+03 -0.43713501150E+03  0.14159448484E+04  0.15093568790E+04  0.46999998093E+01 0.  1.
</event>
<event>
 5   0  0.1005538E-05  0.2204000E+04  0.7818609E-02  0.8516765E-01
       -1   -1    0    0    0  501  0.00000000000E+00  0.00000000000E+00  0.12578481648E+04  0.12578481648E+04  0.50400001928E-02 0. -1.
        1   -1    0    0  501    0  0.00000000000E+00  0.00000000000E+00 -0.96546183830E+03  0.96546183831E+03  0.50400001928E-02 0.  1.
    10030    2    1    2    0    0  0.00000000000E+00  0.00000000000E+00  0.29238632646E+03  0.22233100031E+04  0.22040003643E+04 0.  0.
        3    1    3    3  502    0  0.50608954242E+02  0.78921095534E+03  0.92037329776E+03  0.12134670229E+04  0.10100000352E+00 0. -1.
       -3    1    3    3    0  502 -0.50608954242E+02 -0.78921095534E+03 -0.62798697129E+03  0.10098429802E+04  0.10100000352E+00 0.  1.
</event>
<event>
 5   0  0.2229552E-05  0.2201184E+04  0.7818609E-02  0.8517935E-01
        2   -1    0    0  501    0  0.00000000000E+00  0.00000000000E+00  0.28996698518E+04  0.28996698518E+04  0.25500000920E-02 0.  1.
       -2   -1    0    0    0  501  0.00000000000E+00  0.00000000000E+00 -0.41773814588E+03  0.41773814589E+03  0.25500000920E-02 0. -1.
    10030    2    1    2    0    0  0.00000000000E+00  0.00000000000E+00  0.24819317059E+04  0.33174079977E+04  0.22011839610E+04 0.  0.
        1    1    3    3  502    0 -0.66306819083E+03 -0.25403744853E+03 -0.26351851007E+02  0.71055532580E+03  0.50400001928E-02 0. -1.
       -1    1    3    3    0  502  0.66306819083E+03  0.25403744853E+03  0.25082835569E+04  0.26068526719E+04  0.50400001928E-02 0.  1.
</event>
<event>
 5   0  0.1071208E-05  0.2196463E+04  0.7818609E-02  0.8519902E-01
       -1   -1    0    0    0  501  0.00000000000E+00  0.00000000000E+00  0.93020845802E+03  0.93020845803E+03  0.50400001928E-02 0.  1.
        1   -1    0    0  501    0  0.00000000000E+00  0.00000000000E+00 -0.12966044967E+04  0.12966044967E+04  0.50400001928E-02 0. -1.
    10030    2    1    2    0    0  0.00000000000E+00  0.00000000000E+00 -0.36639603870E+03  0.22268129548E+04  0.21964630382E+04 0.  0.
        4    1    3    3  502    0 -0.37362997721E+03  0.90775925540E+03 -0.68242948307E+03  0.11955491784E+04  0.12699999809E+01 0. -1.
       -4    1    3    3    0  502  0.37362997721E+03 -0.90775925540E+03  0.31603344437E+03  0.10312637764E+04  0.12699999809E+01 0.  1.
</event>
<event>
 5   0  0.1005538E-05  0.2207060E+04  0.7818609E-02  0.8515495E-01
       -1   -1    0    0    0  501  0.00000000000E+00  0.00000000000E+00  0.61348311996E+03  0.61348311998E+03  0.50400001928E-02 0.  1.
        1   -1    0    0  501    0  0.00000000000E+00  0.00000000000E+00 -0.19850238013E+04  0.19850238013E+04  0.50400001928E-02 0. -1.
    10030    2    1    2    0    0  0.00000000000E+00  0.00000000000E+00 -0.13715406813E+04  0.25985069213E+04  0.22070601214E+04 0.  0.
        3    1    3    3  502    0 -0.10652837742E+04 -0.27667497265E+03 -0.59158126502E+03  0.12495387002E+04  0.10100000352E+00 0. -1.
       -3    1    3    3    0  502  0.10652837742E+04  0.27667497265E+03 -0.77995941628E+03  0.13489682210E+04  0.10100000352E+00 0.  1.
</event>
<event>
 5   0  0.1049198E-05  0.2200407E+04  0.7818609E-02  0.8518259E-01
       -1   -1    0    0    0  501  0.00000000000E+00  0.00000000000E+00  0.12012921297E+04  0.12012921297E+04  0.50400001928E-02 0. -1.
        1   -1    0    0  501    0  0.00000000000E+00  0.00000000000E+00 -0.10076210383E+04  0.10076210383E+04  0.50400001928E-02 0.  1.
    10030    2    1    2    0    0  0.00000000000E+00  0.00000000000E+00  0.19367109138E+03  0.22089131679E+04  0.22004065288E+04 0.  0.
        1    1    3    3  502    0  0.10001969518E+04  0.33181488685E+03  0.41420988822E+03  0.11322830446E+04  0.50400001928E-02 0. -1.
       -1    1    3    3    0  502 -0.10001969518E+04 -0.33181488685E+03 -0.22053879684E+03  0.10766301233E+04  0.50400001928E-02 0.  1.
</event>
<event>
 5   0  0.1033733E-05  0.2200424E+04  0.7818609E-02  0.8518252E-01
       -1   -1    0    0    0  501  0.00000000000E+00  0.00000000000E+00  0.81337765576E+03  0.81337765577E+03  0.50400001928E-02 0.  1.
        1   -1    0    0  501    0  0.00000000000E+00  0.00000000000E+00 -0.14881974946E+04  0.14881974946E+04  0.50400001928E-02 0. -1.
    10030    2    1    2    0    0  0.00000000000E+00  0.00000000000E+00 -0.67481983881E+03  0.23015751503E+04  0.22004241314E+04 0.  0.
        5    1    3    3  502    0 -0.93826385205E+03 -0.75887878373E+02 -0.93310409102E+03  0.13254445899E+04  0.46999998093E+01 0. -1.
       -5    1    3    3    0  502  0.93826385205E+03  0.75887878373E+02  0.25828425221E+03  0.97613056047E+03  0.46999998093E+01 0.  1.
</event>
<event>
 5   0  0.1005538E-05  0.2207219E+04  0.7818609E-02  0.8515429E-01
       -1   -1    0    0    0  501  0.00000000000E+00  0.00000000000E+00  0.91769910022E+03  0.91769910024E+03  0.50400001928E-02 0. -1.
        1   -1    0    0  501    0  0.00000000000E+00  0.00000000000E+00 -0.13271827089E+04  0.13271827089E+04  0.50400001928E-02 0.  1.
    10030    2    1    2    0    0  0.00000000000E+00  0.00000000000E+00 -0.40948360863E+03  0.22448818091E+04  0.22072194071E+04 0.  0.
        3    1    3    3  502    0 -0.87139122591E+03 -0.55688628120E+01  0.48401408451E+03  0.99680656350E+03  0.10100000352E+00 0. -1.
       -3    1    3    3    0  502  0.87139122591E+03  0.55688628120E+01 -0.89349769315E+03  0.12480752456E+04  0.10100000352E+00 0.  1.
</event>
<event>
 5   0  0.2298329E-05  0.2187247E+04  0.7818609E-02  0.8523755E-01
       -2   -1    0    0    0  501  0.00000000000E+00  0.00000000000E+00  0.12812458679E+04  0.12812458679E+04  0.25500000920E-02 0.  1.
        2   -1    0    0  501    0  0.00000000000E+00  0.00000000000E+00 -0.93347596225E+03  0.93347596225E+03  0.25500000920E-02 0. -1.
    10030    2    1    2    0    0  0.00000000000E+00  0.00000000000E+00  0.34776990561E+03  0.22147218301E+04  0.21872468716E+04 0.  0.
        4    1    3    3  502    0  0.27114633297E+03  0.18091991608E+03  0.12309128915E+04  0.12733422593E+04  0.12699999809E+01 0.  1.
       -4    1    3    3    0  502 -0.27114633297E+03 -0.18091991608E+03 -0.88314298590E+03  0.94137957082E+03  0.12699999809E+01 0. -1.
</event>
<event>
 5   0  0.2229552E-05  0.2195492E+04  0.7818609E-02  0.8520307E-01
        2   -1    0    0  501    0  0.00000000000E+00  0.00000000000E+00  0.19281405460E+04  0.19281405460E+04  0.25500000920E-02 0. -1.
       -2   -1    0    0    0  501  0.00000000000E+00  0.00000000000E+00 -0.62497833311E+03  0.62497833312E+03  0.25500000920E-02 0.  1.
    10030    2    1    2    0    0  0.00000000000E+00  0.00000000000E+00  0.13031622129E+04  0.25531188791E+04  0.21954918032E+04 0.  0.
        1    1    3    3  502    0 -0.72508839817E+03  0.60273880249E+03 -0.21241004086E+01  0.94289541361E+03  0.50400001928E-02 0.  1.
       -1    1    3    3    0  502  0.72508839817E+03 -0.60273880249E+03  0.13052863133E+04  0.16102234655E+04  0.50400001928E-02 0. -1.
</event>
<event>
 5   0  0.1071208E-05  0.2222276E+04  0.7818609E-02  0.8509213E-01
        1   -1    0    0  501    0  0.00000000000E+00  0.00000000000E+00  0.15793585051E+04  0.15793585051E+04  0.50400001928E-02 0.  1.
       -1   -1    0    0    0  501  0.00000000000E+00  0.00000000000E+00 -0.78172741015E+03  0.78172741017E+03  0.50400001928E-02 0. -1.
    10030    2    1    2    0    0  0.00000000000E+00  0.00000000000E+00  0.79763109492E+03  0.23610859152E+04  0.22222761610E+04 0.  0.
        4    1    3    3  502    0 -0.84483548579E+03  0.21509615153E+03 -0.33313799620E+03  0.93327160562E+03  0.12699999809E+01 0. -1.
       -4    1    3    3    0  502  0.84483548579E+03 -0.21509615153E+03  0.11307690911E+04  0.14278143096E+04  0.12699999809E+01 0.  1.
</event>
<event>
 5   0  0.2289708E-05  0.2207055E+04  0.7818609E-02  0.8515497E-01
       -2   -1    0    0    0  501  0.00000000000E+00  0.00000000000E+00  0.12239414199E+04  0.12239414199E+04  0.25500000920E-02 0.  1.
        2   -1    0    0  501    0  0.00000000000E+00  0.00000000000E+00 -0.99495998551E+03  0.99495998552E+03  0.25500000920E-02 0. -1.
    10030    2    1    2    0    0  0.00000000000E+00  0.00000000000E+00  0.22898143436E+03  0.22189014054E+04  0.22070548135E+04 0.  0.
        5    1    3    3  502    0 -0.12015228823E+02 -0.15728875211E+02 -0.99477144920E+03  0.99497944168E+03  0.46999998093E+01 0. -1.
       -5    1    3    3    0  502  0.12015228823E+02  0.15728875211E+02  0.12237528836E+04  0.12239219637E+04  0.46999998093E+01 0.  1.
</event>
<event>
 5   0  0.1071208E-05  0.2197418E+04  0.7818609E-02  0.8519503E-01
       -1   -1    0    0    0  501  0.00000000000E+00  0.00000000000E+00  0.50528017911E+03  0.50528017913E+03  0.50400001928E-02 0. -1.
        1   -1    0    0  501    0  0.00000000000E+00  0.00000000000E+00 -0.23890941555E+04  0.23890941555E+04  0.50400001928E-02 0.  1.
    10030    2    1    2    0    0  0.00000000000E+00  0.00000000000E+00 -0.18838139764E+04  0.28943743346E+04  0.21974184152E+04 0.  0.
        4    1    3    3  502    0 -0.66680250453E+03  0.45198253192E+03  0.42228632332E+02  0.80665894869E+03  0.12699999809E+01 0. -1.
       -4    1    3    3    0  502  0.66680250453E+03 -0.45198253192E+03 -0.19260426087E+04  0.20877153859E+04  0.12699999809E+01 0.  1.
</event>
<event>
 5   0  0.1049198E-05  0.2201155E+04  0.7818609E-02  0.8517947E-01
        1   -1    0    0  501    0  0.00000000000E+00  0.00000000000E+00  0.15519897298E+04  0.15519897298E+04  0.50400001928E-02 0. -1.
       -1   -1    0    0    0  501  0.00000000000E+00  0.00000000000E+00 -0.78046342823E+03  0.78046342825E+03  0.50400001928E-02 0.  1.
    10030    2    1    2    0    0  0.00000000000E+00  0.00000000000E+00  0.77152630154E+03  0.23324531580E+04  0.22011553558E+04 0.  0.
        1    1    3    3  502    0 -0.15380571458E+03  0.46292442892E+03 -0.65965290616E+03  0.82042500045E+03  0.50400001928E-02 0.  1.
       -1    1    3    3    0  502  0.15380571458E+03 -0.46292442892E+03  0.14311792077E+04  0.15120281576E+04  0.50400001928E-02 0. -1.
</event>
<event>
 5   0  0.1049198E-05  0.2179047E+04  0.7818609E-02  0.8527200E-01
       -1   -1    0    0    0  501  0.00000000000E+00  0.00000000000E+00  0.10817607117E+04  0.10817607117E+04  0.50400001928E-02 0.  1.
        1   -1    0    0  501    0  0.00000000000E+00  0.00000000000E+00 -0.10973415320E+04  0.10973415320E+04  0.50400001928E-02 0. -1.
    10030    2    1    2    0    0  0.00000000000E+00  0.00000000000E+00 -0.15580820343E+02  0.21791022437E+04  0.21790465407E+04 0.  0.
        1    1    3    3  502    0 -0.13852818980E+03 -0.10152785157E+04  0.36246280229E+03  0.10869037707E+04  0.50400001928E-02 0.  1.
       -1    1    3    3    0  502  0.13852818980E+03  0.10152785157E+04 -0.37804362263E+03  0.10921984730E+04  0.50400001928E-02 0. -1.
</event>
<event>
 5   0  0.1005538E-05  0.2195263E+04  0.7818609E-02  0.8520402E-01
       -1   -1    0    0    0  501  0.00000000000E+00  0.00000000000E+00  0.17465906940E+04  0.17465906940E+04  0.50400001928E-02 0. -1.
        1   -1    0    0  501    0  0.00000000000E+00  0.00000000000E+00 -0.68979783305E+03  0.68979783307E+03  0.50400001928E-02 0.  1.
    10030    2    1    2    0    0  0.00000000000E+00  0.00000000000E+00  0.10567928610E+04  0.24363885271E+04  0.21952626048E+04 0.  0.
        3    1    3    3  502    0 -0.45972672850E+03 -0.17562729677E+01  0.16345908960E+04  0.16980103524E+04  0.10100000352E+00 0. -1.
       -3    1    3    3    0  502  0.45972672850E+03  0.17562729677E+01 -0.57779803503E+03  0.73837817470E+03  0.10100000352E+00 0.  1.
</event>
<event>
 5   0  0.2289708E-05  0.2199350E+04  0.7818609E-02  0.8518699E-01
       -2   -1    0    0    0  501  0.00000000000E+00  0.00000000000E+00  0.93401097341E+03  0.93401097342E+03  0.25500000920E-02 0. -1.
        2   -1    0    0  501    0  0.00000000000E+00  0.00000000000E+00 -0.12947221807E+04  0.12947221807E+04  0.25500000920E-02 0.  1.
    10030    2    1    2    0    0  0.00000000000E+00  0.00000000000E+00 -0.36071120732E+03  0.22287331541E+04  0.21993496533E+04 0.  0.
        5    1    3    3  502    0 -0.25452306289E+03  0.10492067409E+04  0.31351446380E+02  0.10801026700E+04  0.46999998093E+01 0. -1.
       -5    1    3    3    0  502  0.25452306289E+03 -0.10492067409E+04 -0.39206265370E+03  0.11486304841E+04  0.46999998093E+01 0.  1.
</event>
<event>
 5   0  0.2229552E-05  0.2203347E+04  0.7818609E-02  0.8517036E-01
       -2   -1    0    0    0  501  0.00000000000E+00  0.00000000000E+00  0.76690832730E+03  0.76690832730E+03  0.25500000920E-02 0.  1.
        2   -1    0    0  501    0  0.00000000000E+00  0.00000000000E+00 -0.15825678169E+04  0.15825678169E+04  0.25500000920E-02 0. -1.
    10030    2    1    2    0    0  0.00000000000E+00  0.00000000000E+00 -0.81565948960E+03  0.23494761442E+04  0.22033469425E+04 0.  0.
        1    1    3    3  502    0  0.18989016098E+03  0.61782538702E+03 -0.13591402738E+04  0.15050012512E+04  0.50400001928E-02 0. -1.
       -1    1    3    3    0  502 -0.18989016098E+03 -0.61782538702E+03  0.54348078423E+03  0.84447489302E+03  0.50400001928E-02 0.  1.
</event>
<event>
 5   0  0.1071208E-05  0.2187532E+04  0.7818609E-02  0.8523635E-01
        1   -1    0    0  501    0  0.00000000000E+00  0.00000000000E+00  0.13460504548E+04  0.13460504549E+04  0.50400001928E-02 0. -1.
       -1   -1    0    0    0  501  0.00000000000E+00  0.00000000000E+00 -0.88876638640E+03  0.88876638642E+03  0.50400001928E-02 0.  1.
    10030    2    1    2    0    0  0.00000000000E+00  0.00000000000E+00  0.45728406844E+03  0.22348168413E+04  0.21875323071E+04 0.  0.
        4    1    3    3  502    0 -0.63434874185E+03 -0.21387837901E+03  0.11123131340E+04  0.12982235587E+04  0.12699999809E+01 0. -1.
       -4    1    3    3    0  502  0.63434874185E+03  0.21387837901E+03 -0.65502906560E+03  0.93659328258E+03  0.12699999809E+01 0.  1.
</event>
<event>
 5   0  0.1005538E-05  0.2199310E+04  0.7818609E-02  0.8518715E-01
        1   -1    0    0  501    0  0.00000000000E+00  0.00000000000E+00  0.16092006423E+04  0.16092006424E+04  0.50400001928E-02 0.  1.
       -1   -1    0    0    0  501  0.00000000000E+00  0.00000000000E+00 -0.75145438839E+03  0.75145438840E+03  0.50400001928E-02 0. -1.
    10030    2    1    2    0    0  0.00000000000E+00  0.00000000000E+00  0.85774625396E+03  0.23606550308E+04  0.21993097867E+04 0.  0.
        3    1    3    3  502    0  0.77751244802E+03  0.76886550284E+03  0.55386842488E+03  0.12257446759E+04  0.10100000352E+00 0. -1.
       -3    1    3    3    0  502 -0.77751244802E+03 -0.76886550284E+03  0.30387782908E+03  0.11349103548E+04  0.10100000352E+00 0.  1.
</event>
<event>
 5   0  0.2289708E-05  0.2193700E+04  0.7818609E-02  0.8521055E-01
       -2   -1    0    0    0  501  0.00000000000E+00  0.00000000000E+00  0.41686022134E+03  0.41686022135E+03  0.25500000920E-02 0.  1.
        2   -1    0    0  501    0  0.00000000000E+00  0.00000000000E+00 -0.28860512073E+04  0.28860512073E+04  0.25500000920E-02 0. -1.
    10030    2    1    2    0    0  0.00000000000E+00  0.00000000000E+00 -0.24691909860E+04  0.33029114287E+04  0.21937000206E+04 0.  0.
        5    1    3    3  502    0  0.19499176499E+03 -0.52881178572E+03  0.18213752457E+03  0.59233424769E+03  0.46999998093E+01 0.  1.
       -5    1    3    3    0  502 -0.19499176499E+03  0.52881178572E+03 -0.26513285106E+04  0.27105771810E+04  0.46999998093E+01 0. -1.
</event>
<event>
 5   0  0.1005538E-05  0.2202644E+04  0.7818609E-02  0.8517329E-01
        1   -1    0    0  501    0  0.00000000000E+00  0.00000000000E+00  0.92830420349E+03  0.92830420350E+03  0.50400001928E-02 0. -1.
       -1   -1    0    0    0  501  0.00000000000E+00  0.00000000000E+00 -0.13065865220E+04  0.13065865221E+04  0.50400001928E-02 0.  1.
    10030    2    1    2    0    0  0.00000000000E+00  0.00000000000E+00 -0.37828231855E+03  0.22348907256E+04  0.22026436486E+04 0.  0.
        3    1    3    3  502    0 -0.60770583645E+03 -0.72155946415E+03 -0.76575261253E+03  0.12150438337E+04  0.10100000352E+00 0.  1.
       -3    1    3    3    0  502  0.60770583645E+03  0.72155946415E+03  0.38747029398E+03  0.10198468919E+04  0.10100000352E+00 0. -1.
</event>
<event>
 5   0  0.1005538E-05  0.2142435E+04  0.7818609E-02  0.8542778E-01
       -1   -1    0    0    0  501  0.00000000000E+00  0.00000000000E+00  0.12748360609E+04  0.12748360609E+04  0.50400001928E-02 0.  1.
        1   -1    0    0  501    0  0.00000000000E+00  0.00000000000E+00 -0.90012080604E+03  0.90012080606E+03  0.50400001928E-02 0. -1.
    10030    2    1    2    0    0  0.00000000000E+00  0.00000000000E+00  0.37471525488E+03  0.21749568670E+04  0.21424345617E+04 0.  0.
        3    1    3    3  502    0  0.11045074419E+03 -0.63795859466E+02 -0.89238417858E+03  0.90145372092E+03  0.10100000352E+00 0. -1.
       -3    1    3    3    0  502 -0.11045074419E+03  0.63795859466E+02  0.12670994335E+04  0.12735031461E+04  0.10100000352E+00 0.  1.
</event>
<event>
 5   0  0.2298329E-05  0.2211457E+04  0.7818609E-02  0.8513674E-01
       -2   -1    0    0    0  501  0.00000000000E+00  0.00000000000E+00  0.23257321417E+04  0.23257321417E+04  0.25500000920E-02 0.  1.
        2   -1    0    0  501    0  0.00000000000E+00  0.00000000000E+00 -0.52569934493E+03  0.52569934494E+03  0.25500000920E-02 0. -1.
    10030    2    1    2    0    0  0.00000000000E+00  0.00000000000E+00  0.18000327968E+04  0.28514314867E+04  0.22114573144E+04 0.  0.
        4    1    3    3  502    0  0.80833200233E+03 -0.16634726658E+03 -0.48857622711E+02  0.82671683138E+03  0.12699999809E+01 0. -1.
       -4    1    3    3    0  502 -0.80833200233E+03  0.16634726658E+03  0.18488904195E+04  0.20247146553E+04  0.12699999809E+01 0.  1.
</event>
<event>
 5   0  0.2284329E-05  0.2204592E+04  0.7818609E-02  0.8516519E-01
        2   -1    0    0  501    0  0.00000000000E+00  0.00000000000E+00  0.18478466216E+04  0.18478466216E+04  0.25500000920E-02 0. -1.
       -2   -1    0    0    0  501  0.00000000000E+00  0.00000000000E+00 -0.65755261352E+03  0.65755261353E+03  0.25500000920E-02 0.  1.
    10030    2    1    2    0    0  0.00000000000E+00  0.00000000000E+00  0.11902940080E+04  0.25053992351E+04  0.22045919127E+04 0.  0.
        2    1    3    3  502    0  0.29527110133E+03 -0.62883171405E+03 -0.37745544469E+03  0.79062441185E+03  0.25500000920E-02 0.  1.
       -2    1    3    3    0  502 -0.29527110133E+03  0.62883171405E+03  0.15677494527E+04  0.17147748232E+04  0.25500000920E-02 0. -1.
</event>
<event>
 5   0  0.1007682E-05  0.2196593E+04  0.7818609E-02  0.8519848E-01
        1   -1    0    0  501    0  0.00000000000E+00  0.00000000000E+00  0.10405034218E+04  0.10405034218E+04  0.50400001928E-02 0. -1.
       -1   -1    0    0    0  501  0.00000000000E+00  0.00000000000E+00 -0.11592995256E+04  0.11592995256E+04  0.50400001928E-02 0.  1.
    10030    2    1    2    0    0  0.00000000000E+00  0.00000000000E+00 -0.11879610374E+03  0.21998029474E+04  0.21965929284E+04 0.  0.
        2    1    3    3  502    0  0.10287417888E+04 -0.34520298453E+03  0.11049760216E+03  0.10907265875E+04  0.25500000920E-02 0. -1.
       -2    1    3    3    0  502 -0.10287417888E+04  0.34520298453E+03 -0.22929370590E+03  0.11090763599E+04  0.25500000920E-02 0.  1.
</event>
<event>
 5   0  0.2284329E-05  0.2258649E+04  0.7818609E-02  0.8494406E-01
       -2   -1    0    0    0  501  0.00000000000E+00  0.00000000000E+00  0.86597195927E+03  0.86597195927E+03  0.25500000920E-02 0.  1.
        2   -1    0    0  501    0  0.00000000000E+00  0.00000000000E+00 -0.14727657709E+04  0.14727657709E+04  0.25500000920E-02 0. -1.
    10030    2    1    2    0    0  0.00000000000E+00  0.00000000000E+00 -0.60679381162E+03  0.23387377302E+04  0.22586490300E+04 0.  0.
        2    1    3    3  502    0  0.29181188194E+03 -0.10901269946E+04 -0.34784717516E+03  0.11809016454E+04  0.25500000920E-02 0.  1.
       -2    1    3    3    0  502 -0.29181188194E+03  0.10901269946E+04 -0.25894663646E+03  0.11578360848E+04  0.25500000920E-02 0. -1.
</event>
<event>
 5   0  0.1007682E-05  0.2196795E+04  0.7818609E-02  0.8519763E-01
        1   -1    0    0  501    0  0.00000000000E+00  0.00000000000E+00  0.91743177005E+03  0.91743177007E+03  0.50400001928E-02 0. -1.
       -1   -1    0    0    0  501  0.00000000000E+00  0.00000000000E+00 -0.13150594998E+04  0.13150594998E+04  0.50400001928E-02 0.  1.
    10030    2    1    2    0    0  0.00000000000E+00  0.00000000000E+00 -0.39762772973E+03  0.22324912699E+04  0.21967952701E+04 0.  0.
        2    1    3    3  502    0  0.33728162822E+03 -0.53188320617E+03 -0.11133357252E+04  0.12791305949E+04  0.25500000920E-02 0.  1.
       -2    1    3    3    0  502 -0.33728162822E+03  0.53188320617E+03  0.71570799549E+03  0.95336067496E+03  0.25500000920E-02 0. -1.
</event>
<event>
 5   0  0.8003875E-06  0.2211637E+04  0.7818609E-02  0.8513600E-01
        3   -1    0    0  501    0  0.00000000000E+00  0.00000000000E+00  0.13953720834E+04  0.13953720871E+04  0.10100000352E+00 0. -1.
       -3   -1    0    0    0  501  0.00000000000E+00  0.00000000000E+00 -0.87635019724E+03  0.87635020306E+03  0.10100000352E+00 0.  1.
    10030    2    1    2    0    0  0.00000000000E+00  0.00000000000E+00  0.51902188621E+03  0.22717222902E+04  0.22116370510E+04 0.  0.
        5    1    3    3  502    0  0.12307404116E+03 -0.10187889608E+04 -0.16367015347E+03  0.10391766815E+04  0.46999998093E+01 0.  1.
       -5    1    3    3    0  502 -0.12307404116E+03  0.10187889608E+04  0.68269203968E+03  0.12325456086E+04  0.46999998093E+01 0. -1.
</event>
<event>
 5   0  0.1049198E-05  0.2198669E+04  0.7818609E-02  0.8518982E-01
        1   -1    0    0  501    0  0.00000000000E+00  0.00000000000E+00  0.10128431127E+04  0.10128431127E+04  0.50400001928E-02 0.  1.
       -1   -1    0    0    0  501  0.00000000000E+00  0.00000000000E+00 -0.11932119726E+04  0.11932119726E+04  0.50400001928E-02 0. -1.
    10030    2    1    2    0    0  0.00000000000E+00  0.00000000000E+00 -0.18036885996E+03  0.22060550853E+04  0.21986691688E+04 0.  0.
        1    1    3    3  502    0 -0.33676576549E+03 -0.10436571106E+04 -0.16728776224E+03  0.11093315739E+04  0.50400001928E-02 0. -1.
       -1    1    3    3    0  502  0.33676576549E+03  0.10436571106E+04 -0.13081097723E+02  0.10967235114E+04  0.50400001928E-02 0.  1.
</event>
<event>
 5   0  0.2284329E-05  0.2201154E+04  0.7818609E-02  0.8517948E-01
       -2   -1    0    0    0  501  0.00000000000E+00  0.00000000000E+00  0.65609903686E+03  0.65609903686E+03  0.25500000920E-02 0.  1.
        2   -1    0    0  501    0  0.00000000000E+00  0.00000000000E+00 -0.18461697393E+04  0.18461697393E+04  0.25500000920E-02 0. -1.
    10030    2    1    2    0    0  0.00000000000E+00  0.00000000000E+00 -0.11900707024E+04  0.25022687761E+04  0.22011544133E+04 0.  0.
        2    1    3    3  502    0 -0.10899935714E+04  0.15174618776E+03 -0.60929284470E+03  0.12579152045E+04  0.25500000920E-02 0. -1.
       -2    1    3    3    0  502  0.10899935714E+04 -0.15174618776E+03 -0.58077785772E+03  0.12443535716E+04  0.25500000920E-02 0.  1.
</event>
<event>
 5   0  0.2298329E-05  0.2200552E+04  0.7818609E-02  0.8518198E-01
       -2   -1    0    0    0  501  0.00000000000E+00  0.00000000000E+00  0.60194395168E+03  0.60194395168E+03  0.25500000920E-02 0. -1.
        2   -1    0    0  501    0  0.00000000000E+00  0.00000000000E+00 -0.20111630346E+04  0.20111630346E+04  0.25500000920E-02 0.  1.
    10030    2    1    2    0    0  0.00000000000E+00  0.00000000000E+00 -0.14092190829E+04  0.26131069863E+04  0.22005521348E+04 0.  0.
        4    1    3    3  502    0  0.27603947178E+03 -0.28862791302E+03 -0.19220506148E+04  0.19631057131E+04  0.12699999809E+01 0.  1.
       -4    1    3    3    0  502 -0.27603947178E+03  0.28862791302E+03  0.51283153186E+03  0.65000127317E+03  0.12699999809E+01 0. -1.
</event>
<event>
 5   0  0.2229552E-05  0.2198188E+04  0.7818609E-02  0.8519183E-01
       -2   -1    0    0    0  501  0.00000000000E+00  0.00000000000E+00  0.92454645672E+03  0.92454645673E+03  0.25500000920E-02 0. -1.
        2   -1    0    0  501    0  0.00000000000E+00  0.00000000000E+00 -0.13065951074E+04  0.13065951074E+04  0.25500000920E-02 0.  1.
    10030    2    1    2    0    0  0.00000000000E+00  0.00000000000E+00 -0.38204865067E+03  0.22311415641E+04  0.21981882330E+04 0.  0.
        1    1    3    3  502    0 -0.22449013715E+03 -0.15952380830E+03  0.88895877318E+03  0.93064029976E+03  0.50400001928E-02 0. -1.
       -1    1    3    3    0  502  0.22449013715E+03  0.15952380830E+03 -0.12710074239E+04  0.13005012644E+04  0.50400001928E-02 0.  1.
</event>
<event>
 5   0  0.2229552E-05  0.2201407E+04  0.7818609E-02  0.8517843E-01
        2   -1    0    0  501    0  0.00000000000E+00  0.00000000000E+00  0.65917372922E+03  0.65917372923E+03  0.25500000920E-02 0. -1.
       -2   -1    0    0    0  501  0.00000000000E+00  0.00000000000E+00 -0.18379796800E+04  0.18379796800E+04  0.25500000920E-02 0.  1.
    10030    2    1    2    0    0  0.00000000000E+00  0.00000000000E+00 -0.11788059508E+04  0.24971534092E+04  0.22014067502E+04 0.  0.
        1    1    3    3  502    0  0.46816666901E+03  0.83440233742E+03 -0.12066996353E+04  0.15399776948E+04  0.50400001928E-02 0.  1.
       -1    1    3    3    0  502 -0.46816666901E+03 -0.83440233742E+03  0.27893684483E+02  0.95717571445E+03  0.50400001928E-02 0. -1.
</event>
<event>
 5   0  0.1007682E-05  0.2216441E+04  0.7818609E-02  0.8511616E-01
        1   -1    0    0  501    0  0.00000000000E+00  0.00000000000E+00  0.10878349124E+04  0.10878349124E+04  0.50400001928E-02 0. -1.
       -1   -1    0    0    0  501  0.00000000000E+00  0.00000000000E+00 -0.11289884548E+04  0.11289884548E+04  0.50400001928E-02 0.  1.
    10030    2    1    2    0    0  0.00000000000E+00  0.00000000000E+00 -0.41153542395E+02  0.22168233672E+04  0.22164413431E+04 0.  0.
        2    1    3    3  502    0 -0.91331081366E+03  0.54930033748E+03 -0.32441450587E+03  0.11140521867E+04  0.25500000920E-02 0.  1.
       -2    1    3    3    0  502  0.91331081366E+03 -0.54930033748E+03  0.28326096348E+03  0.11027711805E+04  0.25500000920E-02 0. -1.
</event>
<event>
 5   0  0.8003875E-06  0.2195719E+04  0.7818609E-02  0.8520212E-01
        4   -1    0    0  501    0  0.00000000000E+00  0.00000000000E+00  0.69954980493E+03  0.69955095775E+03  0.12699999809E+01 0. -1.
       -4   -1    0    0    0  501  0.00000000000E+00  0.00000000000E+00 -0.17229567384E+04  0.17229572065E+04  0.12699999809E+01 0.  1.
    10030    2    1    2    0    0  0.00000000000E+00  0.00000000000E+00 -0.10234069335E+04  0.24225081643E+04  0.21957194844E+04 0.  0.
        5    1    3    3  502    0  0.24499073983E+03  0.53192517196E+02 -0.16909430699E+04  0.17094327896E+04  0.46999998093E+01 0.  1.
       -5    1    3    3    0  502 -0.24499073983E+03 -0.53192517196E+02  0.66753613642E+03  0.71307537463E+03  0.46999998093E+01 0. -1.
</event>
<event>
 5   0  0.2229552E-05  0.2198851E+04  0.7818609E-02  0.8518906E-01
        2   -1    0    0  501    0  0.00000000000E+00  0.00000000000E+00  0.13917591288E+04  0.13917591288E+04  0.25500000920E-02 0. -1.
       -2   -1    0    0    0  501  0.00000000000E+00  0.00000000000E+00 -0.86849570380E+03  0.86849570380E+03  0.25500000920E-02 0.  1.
    10030    2    1    2    0    0  0.00000000000E+00  0.00000000000E+00  0.52326342505E+03  0.22602548326E+04  0.21988513584E+04 0.  0.
        1    1    3    3  502    0 -0.76112009588E+03 -0.48351229003E+03 -0.38493971608E+03  0.98044200237E+03  0.50400001928E-02 0.  1.
       -1    1    3    3    0  502  0.76112009588E+03  0.48351229003E+03  0.90820314113E+03  0.12798128303E+04  0.50400001928E-02 0. -1.
</event>
<event>
 5   0  0.2289708E-05  0.2210364E+04  0.7818609E-02  0.8514127E-01
        2   -1    0    0  501    0  0.00000000000E+00  0.00000000000E+00  0.13787608249E+04  0.13787608249E+04  0.25500000920E-02 0. -1.
       -2   -1    0    0    0  501  0.00000000000E+00  0.00000000000E+00 -0.88588789617E+03  0.88588789617E+03  0.25500000920E-02 0.  1.
    10030    2    1    2    0    0  0.00000000000E+00  0.00000000000E+00  0.49287292871E+03  0.22646487211E+04  0.22103642473E+04 0.  0.
        5    1    3    3  502    0 -0.27753024976E+03  0.72488488092E+02 -0.84707471559E+03  0.89433510734E+03  0.46999998093E+01 0.  1.
       -5    1    3    3    0  502  0.27753024976E+03 -0.72488488092E+02  0.13399476443E+04  0.13703136137E+04  0.46999998093E+01 0. -1.
</event>
<event>
 5   0  0.2298329E-05  0.2180973E+04  0.7818609E-02  0.8526390E-01
        2   -1    0    0  501    0  0.00000000000E+00  0.00000000000E+00  0.11616205706E+04  0.11616205706E+04  0.25500000920E-02 0. -1.
       -2   -1    0    0    0  501  0.00000000000E+00  0.00000000000E+00 -0.10237084981E+04  0.10237084981E+04  0.25500000920E-02 0.  1.
    10030    2    1    2    0    0  0.00000000000E+00  0.00000000000E+00  0.13791207252E+03  0.21853290687E+04  0.21809730395E+04 0.  0.
        4    1    3    3  502    0  0.14681720121E+03  0.10804684378E+04  0.55075525928E+02  0.10917885610E+04  0.12699999809E+01 0. -1.
       -4    1    3    3    0  502 -0.14681720121E+03 -0.10804684378E+04  0.82836546592E+02  0.10935405077E+04  0.12699999809E+01 0.  1.
</event>
<event>
 5   0  0.1049198E-05  0.2198307E+04  0.7818609E-02  0.8519133E-01
       -1   -1    0    0    0  501  0.00000000000E+00  0.00000000000E+00  0.39324163563E+03  0.39324163566E+03  0.50400001928E-02 0.  1.
        1   -1    0    0  501    0  0.00000000000E+00  0.00000000000E+00 -0.30722541989E+04  0.30722541989E+04  0.50400001928E-02 0. -1.
    10030    2    1    2    0    0  0.00000000000E+00  0.00000000000E+00 -0.26790125633E+04  0.34654958346E+04  0.21983068633E+04 0.  0.
        1    1    3    3  502    0 -0.47226200314E+03 -0.89548036139E+02  0.21876802052E+03  0.52811901804E+03  0.50400001928E-02 0.  1.
       -1    1    3    3    0  502  0.47226200314E+03  0.89548036139E+02 -0.28977805838E+04  0.29373768166E+04  0.50400001928E-02 0. -1.
</event>
<event>
 5   0  0.2319707E-05  0.2188581E+04  0.7818609E-02  0.8523196E-01
       -2   -1    0    0    0  501  0.00000000000E+00  0.00000000000E+00  0.12197272689E+04  0.12197272689E+04  0.25500000920E-02 0. -1.
        2   -1    0    0  501    0  0.00000000000E+00  0.00000000000E+00 -0.98175348708E+03  0.98175348709E+03  0.25500000920E-02 0.  1.
    10030    2    1    2    0    0  0.00000000000E+00  0.00000000000E+00  0.23797378181E+03  0.22014807560E+04  0.21885808183E+04 0.  0.
        3    1    3    3  502    0  0.10621767096E+04 -0.27377168917E+02  0.38225962770E+03  0.11291994089E+04  0.10100000352E+00 0. -1.
       -3    1    3    3    0  502 -0.10621767096E+04  0.27377168917E+02 -0.14428584589E+03  0.10722813471E+04  0.10100000352E+00 0.  1.
</event>
<event>
 5   0  0.2229552E-05  0.2199729E+04  0.7818609E-02  0.8518541E-01
        2   -1    0    0  501    0  0.00000000000E+00  0.00000000000E+00  0.10517751643E+04  0.10517751643E+04  0.25500000920E-02 0. -1.
       -2   -1    0    0    0  501  0.00000000000E+00  0.00000000000E+00 -0.11501525288E+04  0.11501525288E+04  0.25500000920E-02 0.  1.
    10030    2    1    2    0    0  0.00000000000E+00  0.00000000000E+00 -0.98377364508E+02  0.22019276931E+04  0.21997289515E+04 0.  0.
        1    1    3    3  502    0 -0.11460976287E+03 -0.51890948310E+02  0.10445487933E+04  0.10520980229E+04  0.50400001928E-02 0. -1.
       -1    1    3    3    0  502  0.11460976287E+03  0.51890948310E+02 -0.11429261578E+04  0.11498296702E+04  0.50400001928E-02 0.  1.
</event>
<event>
 5   0  0.1071208E-05  0.2199675E+04  0.7818609E-02  0.8518563E-01
       -1   -1    0    0    0  501  0.00000000000E+00  0.00000000000E+00  0.86420689517E+03  0.86420689519E+03  0.50400001928E-02 0.  1.
        1   -1    0    0  501    0  0.00000000000E+00  0.00000000000E+00 -0.13997140295E+04  0.13997140295E+04  0.50400001928E-02 0. -1.
    10030    2    1    2    0    0  0.00000000000E+00  0.00000000000E+00 -0.53550713431E+03  0.22639209247E+04  0.21996749902E+04 0.  0.
        4    1    3    3  502    0 -0.14654066260E+03  0.80291642294E+03  0.49099746755E+03  0.95248573431E+03  0.12699999809E+01 0.  1.
       -4    1    3    3    0  502  0.14654066260E+03 -0.80291642294E+03 -0.10265046019E+04  0.13114351904E+04  0.12699999809E+01 0. -1.
</event>
<event>
 5   0  0.2319707E-05  0.2208542E+04  0.7818609E-02  0.8514881E-01
       -2   -1    0    0    0  501  0.00000000000E+00  0.00000000000E+00  0.11274333637E+04  0.11274333637E+04  0.25500000920E-02 0. -1.
        2   -1    0    0  501    0  0.00000000000E+00  0.00000000000E+00 -0.10815842870E+04  0.10815842870E+04  0.25500000920E-02 0.  1.
    10030    2    1    2    0    0  0.00000000000E+00  0.00000000000E+00  0.45849076758E+02  0.22090176507E+04  0.22085417911E+04 0.  0.
        3    1    3    3  502    0 -0.12800799962E+03 -0.31882486767E+03  0.10726166460E+04  0.11262956200E+04  0.10100000352E+00 0. -1.
       -3    1    3    3    0  502  0.12800799962E+03  0.31882486767E+03 -0.10267675693E+04  0.10827220307E+04  0.10100000352E+00 0.  1.
</event>
<event>
 5   0  0.2229552E-05  0.2197625E+04  0.7818609E-02  0.8519417E-01
        2   -1    0    0  501    0  0.00000000000E+00  0.00000000000E+00  0.12210861879E+04  0.12210861879E+04  0.25500000920E-02 0.  1.
       -2   -1    0    0    0  501  0.00000000000E+00  0.00000000000E+00 -0.98878274210E+03  0.98878274210E+03  0.25500000920E-02 0. -1.
    10030    2    1    2    0    0  0.00000000000E+00  0.00000000000E+00  0.23230344579E+03  0.22098689300E+04  0.21976250355E+04 0.  0.
        1    1    3    3  502    0  0.52388910890E+03  0.94580845927E+03 -0.80836379720E+02  0.10842268952E+04  0.50400001928E-02 0.  1.
       -1    1    3    3    0  502 -0.52388910890E+03 -0.94580845927E+03  0.31313982551E+03  0.11256420348E+04  0.50400001928E-02 0. -1.
</event>
<event>
 5   0  0.1007682E-05  0.2231384E+04  0.7818609E-02  0.8505478E-01
        1   -1    0    0  501    0  0.00000000000E+00  0.00000000000E+00  0.25050215283E+04  0.25050215283E+04  0.50400001928E-02 0.  1.
       -1   -1    0    0    0  501  0.00000000000E+00  0.00000000000E+00 -0.49690917854E+03  0.49690917857E+03  0.50400001928E-02 0. -1.
    10030    2    1    2    0    0  0.00000000000E+00  0.00000000000E+00  0.20081123498E+04  0.30019307069E+04  0.22313835976E+04 0.  0.
        2    1    3    3  502    0  0.20654844630E+03 -0.10753971946E+03  0.24719634748E+04  0.24829076649E+04  0.25500000920E-02 0.  1.
       -2    1    3    3    0  502 -0.20654844630E+03  0.10753971946E+03 -0.46385112499E+03  0.51902304197E+03  0.25500000920E-02 0. -1.
</event>
<event>
 5   0  0.2289708E-05  0.2201588E+04  0.7818609E-02  0.8517768E-01
       -2   -1    0    0    0  501  0.00000000000E+00  0.00000000000E+00  0.10172591799E+04  0.10172591799E+04  0.25500000920E-02 0.  1.
        2   -1    0    0  501    0  0.00000000000E+00  0.00000000000E+00 -0.11911883174E+04  0.11911883174E+04  0.25500000920E-02 0. -1.
    10030    2    1    2    0    0  0.00000000000E+00  0.00000000000E+00 -0.17392913756E+03  0.22084474973E+04  0.22015878369E+04 0.  0.
        5    1    3    3  502    0  0.99269128217E+02  0.10791334206E+04 -0.28080708766E+03  0.11194900668E+04  0.46999998093E+01 0. -1.
       -5    1    3    3    0  502 -0.99269128217E+02 -0.10791334206E+04  0.10687795010E+03  0.10889574305E+04  0.46999998093E+01 0.  1.
</event>
<event>
 5   0  0.1049198E-05  0.2192483E+04  0.7818609E-02  0.8521563E-01
        1   -1    0    0  501    0  0.00000000000E+00  0.00000000000E+00  0.12422715172E+04  0.12422715172E+04  0.50400001928E-02 0.  1.
       -1   -1    0    0    0  501  0.00000000000E+00  0.00000000000E+00 -0.96737742529E+03  0.96737742531E+03  0.50400001928E-02 0. -1.
    10030    2    1    2    0    0  0.00000000000E+00  0.00000000000E+00  0.27489409189E+03  0.22096489425E+04  0.21924829959E+04 0.  0.
        1    1    3    3  502    0 -0.32333057279E+03  0.58497436765E+03 -0.73826788035E+03  0.99588007977E+03  0.50400001928E-02 0. -1.
       -1    1    3    3    0  502  0.32333057279E+03 -0.58497436765E+03  0.10131619722E+04  0.12137688627E+04  0.50400001928E-02 0.  1.
</event>
<event>
 5   0  0.2229552E-05  0.2199500E+04  0.7818609E-02  0.8518636E-01
        2   -1    0    0  501    0  0.00000000000E+00  0.00000000000E+00  0.15541734122E+04  0.15541734122E+04  0.25500000920E-02 0. -1.
       -2   -1    0    0    0  501  0.00000000000E+00  0.00000000000E+00 -0.77819520602E+03  0.77819520602E+03  0.25500000920E-02 0.  1.
    10030    2    1    2    0    0  0.00000000000E+00  0.00000000000E+00  0.77597820617E+03  0.23323686182E+04  0.21995002148E+04 0.  0.
        1    1    3    3  502    0  0.93376685546E+03 -0.58095916373E+03  0.39225826851E+03  0.11676046589E+04  0.50400001928E-02 0.  1.
       -1    1    3    3    0  502 -0.93376685546E+03  0.58095916373E+03  0.38371993766E+03  0.11647639593E+04  0.50400001928E-02 0. -1.
</event>
<event>
 5   0  0.2284329E-05  0.2199685E+04  0.7818609E-02  0.8518559E-01
       -2   -1    0    0    0  501  0.00000000000E+00  0.00000000000E+00  0.23729203813E+04  0.23729203813E+04  0.25500000920E-02 0.  1.
        2   -1    0    0  501    0  0.00000000000E+00  0.00000000000E+00 -0.50977439642E+03  0.50977439643E+03  0.25500000920E-02 0. -1.
    10030    2    1    2    0    0  0.00000000000E+00  0.00000000000E+00  0.18631459849E+04  0.28826947777E+04  0.21996854822E+04 0.  0.
        2    1    3    3  502    0  0.50119237461E+03  0.37904541217E+03  0.21145043415E+04  0.22059006847E+04  0.25500000920E-02 0.  1.
       -2    1    3    3    0  502 -0.50119237461E+03 -0.37904541217E+03 -0.25135835659E+03  0.67679409298E+03  0.25500000920E-02 0. -1.
</event>
<event>
 5   0  0.1033733E-05  0.2193237E+04  0.7818609E-02  0.8521248E-01
        1   -1    0    0  501    0  0.00000000000E+00  0.00000000000E+00  0.19716165309E+04  0.19716165309E+04  0.50400001928E-02 0. -1.
       -1   -1    0    0    0  501  0.00000000000E+00  0.00000000000E+00 -0.60994193711E+03  0.60994193713E+03  0.50400001928E-02 0.  1.
    10030    2    1    2    0    0  0.00000000000E+00  0.00000000000E+00  0.13616745938E+04  0.25815584680E+04  0.21932365181E+04 0.  0.
        5    1    3    3  502    0  0.82230794586E+03 -0.55226903525E+03  0.12704848450E+03  0.99867655051E+03  0.46999998093E+01 0.  1.
       -5    1    3    3    0  502 -0.82230794586E+03  0.55226903525E+03  0.12346261093E+04  0.15828819175E+04  0.46999998093E+01 0. -1.
</event>
<event>
 5   0  0.1005538E-05  0.2200385E+04  0.7818609E-02  0.8518268E-01
        1   -1    0    0  501    0  0.00000000000E+00  0.00000000000E+00  0.21671987077E+04  0.21671987077E+04  0.50400001928E-02 0. -1.
       -1   -1    0    0    0  501  0.00000000000E+00  0.00000000000E+00 -0.55852003789E+03  0.55852003791E+03  0.50400001928E-02 0.  1.
    10030    2    1    2    0    0  0.00000000000E+00  0.00000000000E+00  0.16086786698E+04  0.27257187456E+04  0.22003853339E+04 0.  0.
        3    1    3    3  502    0 -0.53051683977E+03  0.45082448737E+03 -0.25094806469E+03  0.74004444263E+03  0.10100000352E+00 0. -1.
       -3    1    3    3    0  502  0.53051683977E+03 -0.45082448737E+03  0.18596267345E+04  0.19856743030E+04  0.10100000352E+00 0.  1.
</event>
<event>
 5   0  0.2319707E-05  0.2195187E+04  0.7818609E-02  0.8520434E-01
        2   -1    0    0  501    0  0.00000000000E+00  0.00000000000E+00  0.14605378793E+04  0.14605378793E+04  0.25500000920E-02 0. -1.
       -2   -1    0    0    0  501  0.00000000000E+00  0.00000000000E+00 -0.82484115947E+03  0.82484115947E+03  0.25500000920E-02 0.  1.
    10030    2    1    2    0    0  0.00000000000E+00  0.00000000000E+00  0.63569671978E+03  0.22853790387E+04  0.21951872428E+04 0.  0.
        3    1    3    3  502    0 -0.29284090917E+01  0.21084983773E+03 -0.80355439660E+03  0.83076224526E+03  0.10100000352E+00 0.  1.
       -3    1    3    3    0  502  0.29284090917E+01 -0.21084983773E+03  0.14392511164E+04  0.14546167935E+04  0.10100000352E+00 0. -1.
</event>
<event>
 5   0  0.2289708E-05  0.2193362E+04  0.7818609E-02  0.8521196E-01
       -2   -1    0    0    0  501  0.00000000000E+00  0.00000000000E+00  0.99336560302E+03  0.99336560303E+03  0.25500000920E-02 0.  1.
        2   -1    0    0  501    0  0.00000000000E+00  0.00000000000E+00 -0.12107419875E+04  0.12107419875E+04  0.25500000920E-02 0. -1.
    10030    2    1    2    0    0  0.00000000000E+00  0.00000000000E+00 -0.21737638444E+03  0.22041075905E+04  0.21933622086E+04 0.  0.
        5    1    3    3  502    0  0.75652702815E+03 -0.59541395383E+03  0.41908612001E+03  0.10500029461E+04  0.46999998093E+01 0.  1.
       -5    1    3    3    0  502 -0.75652702815E+03  0.59541395383E+03 -0.63646250445E+03  0.11541046444E+04  0.46999998093E+01 0. -1.
</event>
<event>
 5   0  0.1033733E-05  0.2210977E+04  0.7818609E-02  0.8513873E-01
        1   -1    0    0  501    0  0.00000000000E+00  0.00000000000E+00  0.14301005023E+04  0.14301005023E+04  0.50400001928E-02 0. -1.
       -1   -1    0    0    0  501  0.00000000000E+00  0.00000000000E+00 -0.85455870040E+03  0.85455870041E+03  0.50400001928E-02 0.  1.
    10030    2    1    2    0    0  0.00000000000E+00  0.00000000000E+00  0.57554180194E+03  0.22846592028E+04  0.22109770028E+04 0.  0.
        5    1    3    3  502    0 -0.83236358694E+03 -0.93007172165E+02  0.10333447103E+04  0.13301514407E+04  0.46999998093E+01 0. -1.
       -5    1    3    3    0  502  0.83236358694E+03  0.93007172165E+02 -0.45780290835E+03  0.95450776206E+03  0.46999998093E+01 0.  1.
</event>
<event>
 5   0  0.2229552E-05  0.2198401E+04  0.7818609E-02  0.8519094E-01
       -2   -1    0    0    0  501  0.00000000000E+00  0.00000000000E+00  0.12563226584E+04  0.12563226584E+04  0.25500000920E-02 0. -1.
        2   -1    0    0  501    0  0.00000000000E+00  0.00000000000E+00 -0.96172905497E+03  0.96172905498E+03  0.25500000920E-02 0.  1.
    10030    2    1    2    0    0  0.00000000000E+00  0.00000000000E+00  0.29459360342E+03  0.22180517134E+04  0.21984012400E+04 0.  0.
        1    1    3    3  502    0 -0.15105893065E+03  0.89175432138E+03 -0.48294457322E+03  0.10253194776E+04  0.50400001928E-02 0.  1.
       -1    1    3    3    0  502  0.15105893065E+03 -0.89175432138E+03  0.77753817663E+03  0.11927322358E+04  0.50400001928E-02 0. -1.
</event>
<event>
 5   0  0.1049198E-05  0.2216132E+04  0.7818609E-02  0.8511743E-01
       -1   -1    0    0    0  501  0.00000000000E+00  0.00000000000E+00  0.61428282402E+03  0.61428282404E+03  0.50400001928E-02 0. -1.
        1   -1    0    0  501    0  0.00000000000E+00  0.00000000000E+00 -0.19987704651E+04  0.19987704651E+04  0.50400001928E-02 0.  1.
    10030    2    1    2    0    0  0.00000000000E+00  0.00000000000E+00 -0.13844876410E+04  0.26130532891E+04  0.22161320952E+04 0.  0.
        1    1    3    3  502    0 -0.32143696792E+03  0.30652620165E+01  0.55809681321E+03  0.64405215093E+03  0.50400001928E-02 0. -1.
       -1    1    3    3    0  502  0.32143696792E+03 -0.30652620165E+01 -0.19425844543E+04  0.19690011382E+04  0.50400001928E-02 0.  1.
</event>
<event>
 5   0  0.2319707E-05  0.2200295E+04  0.7818609E-02  0.8518305E-01
        2   -1    0    0  501    0  0.00000000000E+00  0.00000000000E+00  0.52795873223E+03  0.52795873223E+03  0.25500000920E-02 0.  1.
       -2   -1    0    0    0  501  0.00000000000E+00  0.00000000000E+00 -0.22924605413E+04  0.22924605413E+04  0.25500000920E-02 0. -1.
    10030    2    1    2    0    0  0.00000000000E+00  0.00000000000E+00 -0.17645018091E+04  0.28204192736E+04  0.22002950358E+04 0.  0.
        3    1    3    3  502    0  0.21764358854E+03  0.78368452608E+03 -0.18318440776E+04  0.20042911223E+04  0.10100000352E+00 0. -1.
       -3    1    3    3    0  502 -0.21764358854E+03 -0.78368452608E+03  0.67342268456E+02  0.81612815132E+03  0.10100000352E+00 0.  1.
</event>
<event>
 5   0  0.2298329E-05  0.2191604E+04  0.7818609E-02  0.8521931E-01
        2   -1    0    0  501    0  0.00000000000E+00  0.00000000000E+00  0.16844047377E+04  0.16844047377E+04  0.25500000920E-02 0. -1.
       -2   -1    0    0    0  501  0.00000000000E+00  0.00000000000E+00 -0.71288227174E+03  0.71288227174E+03  0.25500000920E-02 0.  1.
    10030    2    1    2    0    0  0.00000000000E+00  0.00000000000E+00  0.97152246596E+03  0.23972870094E+04  0.21916042306E+04 0.  0.
        4    1    3    3  502    0  0.97293299775E+02 -0.17879162309E+03  0.16635430737E+04  0.16759503577E+04  0.12699999809E+01 0. -1.
       -4    1    3    3    0  502 -0.97293299775E+02  0.17879162309E+03 -0.69202060773E+03  0.72133665170E+03  0.12699999809E+01 0.  1.
</event>
<event>
 5   0  0.2284329E-05  0.2206110E+04  0.7818609E-02  0.8515889E-01
        2   -1    0    0  501    0  0.00000000000E+00  0.00000000000E+00  0.14789559498E+04  0.14789559498E+04  0.25500000920E-02 0.  1.
       -2   -1    0    0    0  501  0.00000000000E+00  0.00000000000E+00 -0.82269578053E+03  0.82269578054E+03  0.25500000920E-02 0. -1.
    10030    2    1    2    0    0  0.00000000000E+00  0.00000000000E+00  0.65626016929E+03  0.23016517304E+04  0.22061104410E+04 0.  0.
        2    1    3    3  502    0 -0.25679358877E+03  0.38144618515E+03 -0.71793166989E+03  0.85256672586E+03  0.25500000920E-02 0. -1.
       -2    1    3    3    0  502  0.25679358877E+03 -0.38144618515E+03  0.13741918392E+04  0.14490850045E+04  0.25500000920E-02 0.  1.
</event>
<event>
 5   0  0.2284329E-05  0.2095242E+04  0.7818609E-02  0.8563342E-01
        2   -1    0    0  501    0  0.00000000000E+00  0.00000000000E+00  0.15218260480E+04  0.15218260480E+04  0.25500000920E-02 0. -1.
       -2   -1    0    0    0  501  0.00000000000E+00  0.00000000000E+00 -0.72117936507E+03  0.72117936508E+03  0.25500000920E-02 0.  1.
    10030    2    1    2    0    0  0.00000000000E+00  0.00000000000E+00  0.80064668297E+03  0.22430054131E+04  0.20952417933E+04 0.  0.
        2    1    3    3  502    0 -0.93939001915E+03 -0.37915117088E+03  0.68617579684E+03  0.12235384925E+04  0.25500000920E-02 0. -1.
       -2    1    3    3    0  502  0.93939001915E+03  0.37915117088E+03  0.11447088612E+03  0.10194669206E+04  0.25500000920E-02 0.  1.
</event>
<event>
 5   0  0.2229552E-05  0.2202594E+04  0.7818609E-02  0.8517349E-01
        2   -1    0    0  501    0  0.00000000000E+00  0.00000000000E+00  0.15080285865E+04  0.15080285865E+04  0.25500000920E-02 0. -1.
       -2   -1    0    0    0  501  0.00000000000E+00  0.00000000000E+00 -0.80426520283E+03  0.80426520284E+03  0.25500000920E-02 0.  1.
    10030    2    1    2    0    0  0.00000000000E+00  0.00000000000E+00  0.70376338363E+03  0.23122937893E+04  0.22025938500E+04 0.  0.
        1    1    3    3  502    0  0.93930697464E+02 -0.98663569474E+03 -0.15222358244E+03  0.10027187986E+04  0.50400001928E-02 0.  1.
       -1    1    3    3    0  502 -0.93930697464E+02  0.98663569474E+03  0.85598696607E+03  0.13095749907E+04  0.50400001928E-02 0. -1.
</event>
<event>
 5   0  0.1033733E-05  0.2197673E+04  0.7818609E-02  0.8519397E-01
       -1   -1    0    0    0  501  0.00000000000E+00  0.00000000000E+00  0.13602059308E+04  0.13602059308E+04  0.50400001928E-02 0.  1.
        1   -1    0    0  501    0  0.00000000000E+00  0.00000000000E+00 -0.88769043880E+03  0.88769043881E+03  0.50400001928E-02 0. -1.
    10030    2    1    2    0    0  0.00000000000E+00  0.00000000000E+00  0.47251549196E+03  0.22478963696E+04  0.21976731327E+04 0.  0.
        5    1    3    3  502    0  0.78883470168E+03 -0.65899068243E+03  0.63358153885E+03  0.12074670026E+04  0.46999998093E+01 0.  1.
       -5    1    3    3    0  502 -0.78883470168E+03  0.65899068243E+03 -0.16106604690E+03  0.10404293669E+04  0.46999998093E+01 0. -1.
</event>
<event>
 5   0  0.1049198E-05  0.2215362E+04  0.7818609E-02  0.8512061E-01
       -1   -1    0    0    0  501  0.00000000000E+00  0.00000000000E+00  0.67306988870E+03  0.67306988872E+03  0.50400001928E-02 0.  1.
        1   -1    0    0  501    0  0.00000000000E+00  0.00000000000E+00 -0.18229272668E+04  0.18229272668E+04  0.50400001928E-02 0. -1.
    10030    2    1    2    0    0  0.00000000000E+00  0.00000000000E+00 -0.11498573781E+04  0.24959971555E+04  0.22153622301E+04 0.  0.
        1    1    3    3  502    0 -0.10655003236E+04 -0.73461691791E+02 -0.24400415334E+03  0.10955480759E+04  0.50400001928E-02 0.  1.
       -1    1    3    3    0  502  0.10655003236E+04  0.73461691791E+02 -0.90585322476E+03  0.14004490796E+04  0.50400001928E-02 0. -1.
</event>
<event>
 5   0  0.2229552E-05  0.2201778E+04  0.7818609E-02  0.8517688E-01
       -2   -1    0    0    0  501  0.00000000000E+00  0.00000000000E+00  0.89690371711E+03  0.89690371712E+03  0.25500000920E-02 0. -1.
        2   -1    0    0  501    0  0.00000000000E+00  0.00000000000E+00 -0.13512678272E+04  0.13512678272E+04  0.25500000920E-02 0.  1.
    10030    2    1    2    0    0  0.00000000000E+00  0.00000000000E+00 -0.45436411010E+03  0.22481715443E+04  0.22017784966E+04 0.  0.
        1    1    3    3  502    0 -0.68682614820E+03  0.24705304042E+03 -0.10686780037E+04  0.12941553377E+04  0.50400001928E-02 0.  1.
       -1    1    3    3    0  502  0.68682614820E+03 -0.24705304042E+03  0.61431389356E+03  0.95401620661E+03  0.50400001928E-02 0. -1.
</event>
<event>
 5   0  0.1007682E-05  0.2198285E+04  0.7818609E-02  0.8519142E-01
        1   -1    0    0  501    0  0.00000000000E+00  0.00000000000E+00  0.96540934292E+03  0.96540934293E+03  0.50400001928E-02 0. -1.
       -1   -1    0    0    0  501  0.00000000000E+00  0.00000000000E+00 -0.12514011510E+04  0.12514011510E+04  0.50400001928E-02 0.  1.
    10030    2    1    2    0    0  0.00000000000E+00  0.00000000000E+00 -0.28599180807E+03  0.22168104939E+04  0.21982851161E+04 0.  0.
        2    1    3    3  502    0  0.38884084293E+03  0.78126055007E+03  0.53087881776E+03  0.10214683389E+04  0.25500000920E-02 0. -1.
       -2    1    3    3    0  502 -0.38884084293E+03 -0.78126055007E+03 -0.81687062583E+03  0.11953421550E+04  0.25500000920E-02 0.  1.
</event>
<event>
 5   0  0.1005538E-05  0.2205945E+04  0.7818609E-02  0.8515958E-01
        1   -1    0    0  501    0  0.00000000000E+00  0.00000000000E+00  0.12281670138E+04  0.12281670138E+04  0.50400001928E-02 0. -1.
       -1   -1    0    0    0  501  0.00000000000E+00  0.00000000000E+00 -0.99054000207E+03  0.99054000208E+03  0.50400001928E-02 0.  1.
    10030    2    1    2    0    0  0.00000000000E+00  0.00000000000E+00  0.23762701170E+03  0.22187070159E+04  0.22059452000E+04 0.  0.
        3    1    3    3  502    0  0.83441475984E+03 -0.46393501637E+03 -0.43670857536E+03  0.10498562191E+04  0.10100000352E+00 0.  1.
       -3    1    3    3    0  502 -0.83441475984E+03  0.46393501637E+03  0.67433558706E+03  0.11688507967E+04  0.10100000352E+00 0. -1.
</event>
<event>
 5   0  0.1071208E-05  0.2200775E+04  0.7818609E-02  0.8518106E-01
       -1   -1    0    0    0  501  0.00000000000E+00  0.00000000000E+00  0.11920649246E+04  0.11920649246E+04  0.50400001928E-02 0.  1.
        1   -1    0    0  501    0  0.00000000000E+00  0.00000000000E+00 -0.10157608610E+04  0.10157608610E+04  0.50400001928E-02 0. -1.
    10030    2    1    2    0    0  0.00000000000E+00  0.00000000000E+00  0.17630406356E+03  0.22078257856E+04  0.22007752218E+04 0.  0.
        4    1    3    3  502    0 -0.58966869775E+03 -0.69428015673E+03  0.70747669080E+03  0.11533685404E+04  0.12699999809E+01 0. -1.
       -4    1    3    3    0  502  0.58966869775E+03  0.69428015673E+03 -0.53117262723E+03  0.10544572452E+04  0.12699999809E+01 0.  1.
</event>
<event>
 5   0  0.2229552E-05  0.2188121E+04  0.7818609E-02  0.8523389E-01
       -2   -1    0    0    0  501  0.00000000000E+00  0.00000000000E+00  0.72312388110E+03  0.72312388111E+03  0.25500000920E-02 0.  1.
        2   -1    0    0  501    0  0.00000000000E+00  0.00000000000E+00 -0.16552737931E+04  0.16552737931E+04  0.25500000920E-02 0. -1.
    10030    2    1    2    0    0  0.00000000000E+00  0.00000000000E+00 -0.93214991199E+03  0.23783976742E+04  0.21881206635E+04 0.  0.
        1    1    3    3  502    0  0.63238522670E+03  0.86018565031E+03 -0.20625402697E+03  0.10873689124E+04  0.50400001928E-02 0.  1.
       -1    1    3    3    0  502 -0.63238522670E+03 -0.86018565031E+03 -0.72589588502E+03  0.12910287618E+04  0.50400001928E-02 0. -1.
</event>
<event>
 5   0  0.1007682E-05  0.2201412E+04  0.7818609E-02  0.8517841E-01
       -1   -1    0    0    0  501  0.00000000000E+00  0.00000000000E+00  0.57594955117E+03  0.57594955119E+03  0.50400001928E-02 0. -1.
        1   -1    0    0  501    0  0.00000000000E+00  0.00000000000E+00 -0.21035766793E+04  0.21035766793E+04  0.50400001928E-02 0.  1.
    10030    2    1    2    0    0  0.00000000000E+00  0.00000000000E+00 -0.15276271281E+04  0.26795262305E+04  0.22014123142E+04 0.  0.
        2    1    3    3  502    0 -0.38823543761E+03 -0.10267747406E+04 -0.66522216376E+03  0.12835550826E+04  0.25500000920E-02 0. -1.
       -2    1    3    3    0  502  0.38823543761E+03  0.10267747406E+04 -0.86240496435E+03  0.13959711478E+04  0.25500000920E-02 0.  1.
</event>
<event>
 5   0  0.1033733E-05  0.2197706E+04  0.7818609E-02  0.8519384E-01
       -1   -1    0    0    0  501  0.00000000000E+00  0.00000000000E+00  0.65900363374E+03  0.65900363376E+03  0.50400001928E-02 0. -1.
        1   -1    0    0  501    0  0.00000000000E+00  0.00000000000E+00 -0.18322776800E+04  0.18322776800E+04  0.50400001928E-02 0.  1.
    10030    2    1    2    0    0  0.00000000000E+00  0.00000000000E+00 -0.11732740462E+04  0.24912813137E+04  0.21977057575E+04 0.  0.
        5    1    3    3  502    0 -0.10432591658E+04  0.34129844085E+03 -0.52904425530E+03  0.12185172247E+04  0.46999998093E+01 0. -1.
       -5    1    3    3    0  502  0.10432591658E+04 -0.34129844085E+03 -0.64422979092E+03  0.12727640890E+04  0.46999998093E+01 0.  1.
</event>
<event>
 5   0  0.1033733E-05  0.2201267E+04  0.7818609E-02  0.8517901E-01
       -1   -1    0    0    0  501  0.00000000000E+00  0.00000000000E+00  0.84226088628E+03  0.84226088629E+03  0.50400001928E-02 0. -1.
        1   -1    0    0  501    0  0.00000000000E+00  0.00000000000E+00 -0.14382641330E+04  0.14382641330E+04  0.50400001928E-02 0.  1.
    10030    2    1    2    0    0  0.00000000000E+00  0.00000000000E+00 -0.59600324675E+03  0.22805250193E+04  0.22012665658E+04 0.  0.
        5    1    3    3  502    0 -0.86917175815E+03 -0.15426413880E+03  0.38302118265E+03  0.96228077297E+03  0.46999998093E+01 0. -1.
       -5    1    3    3    0  502  0.86917175815E+03  0.15426413880E+03 -0.97902442940E+03  0.13182442463E+04  0.46999998093E+01 0.  1.
</event>
<event>
 5   0  0.2229552E-05  0.2217171E+04  0.7818609E-02  0.8511315E-01
       -2   -1    0    0    0  501  0.00000000000E+00  0.00000000000E+00  0.12914607760E+04  0.12914607760E+04  0.25500000920E-02 0.  1.
        2   -1    0    0  501    0  0.00000000000E+00  0.00000000000E+00 -0.95160556346E+03  0.95160556346E+03  0.25500000920E-02 0. -1.
    10030    2    1    2    0    0  0.00000000000E+00  0.00000000000E+00  0.33985521259E+03  0.22430663395E+04  0.22171705027E+04 0.  0.
        1    1    3    3  502    0 -0.42146102283E+02  0.10478630403E+04 -0.19366958342E+03  0.10664432252E+04  0.50400001928E-02 0. -1.
       -1    1    3    3    0  502  0.42146102283E+02 -0.10478630403E+04  0.53352479600E+03  0.11766231143E+04  0.50400001928E-02 0.  1.
</event>
<event>
 5   0  0.1033733E-05  0.2226937E+04  0.7818609E-02  0.8507299E-01
        1   -1    0    0  501    0  0.00000000000E+00  0.00000000000E+00  0.11776623381E+04  0.11776623381E+04  0.50400001928E-02 0.  1.
       -1   -1    0    0    0  501  0.00000000000E+00  0.00000000000E+00 -0.10527734686E+04  0.10527734686E+04  0.50400001928E-02 0. -1.
    10030    2    1    2    0    0  0.00000000000E+00  0.00000000000E+00  0.12488886948E+03  0.22304358067E+04  0.22269366085E+04 0.  0.
        5    1    3    3  502    0  0.11003260465E+04 -0.94682323289E+02 -0.79579024824E+02  0.11072655789E+04  0.46999998093E+01 0. -1.
       -5    1    3    3    0  502 -0.11003260465E+04  0.94682323289E+02  0.20446789431E+03  0.11231702278E+04  0.46999998093E+01 0.  1.
</event>
<event>
 5   0  0.2284329E-05  0.2200562E+04  0.7818609E-02  0.8518194E-01
       -2   -1    0    0    0  501  0.00000000000E+00  0.00000000000E+00  0.60520745536E+03  0.60520745537E+03  0.25500000920E-02 0. -1.
        2   -1    0    0  501    0  0.00000000000E+00  0.00000000000E+00 -0.20003362158E+04  0.20003362158E+04  0.25500000920E-02 0.  1.
    10030    2    1    2    0    0  0.00000000000E+00  0.00000000000E+00 -0.13951287605E+04  0.26055436712E+04  0.22005621019E+04 0.  0.
        2    1    3    3  502    0 -0.78037000710E+03  0.69353406226E+03 -0.28629045523E+03  0.10825567275E+04  0.25500000920E-02 0. -1.
       -2    1    3    3    0  502  0.78037000710E+03 -0.69353406226E+03 -0.11088383052E+04  0.15229869437E+04  0.25500000920E-02 0.  1.
</event>
<event>
 5   0  0.1007682E-05  0.2185667E+04  0.7818609E-02  0.8524418E-01
        1   -1    0    0  501    0  0.00000000000E+00  0.00000000000E+00  0.12328761373E+04  0.12328761373E+04  0.50400001928E-02 0.  1.
       -1   -1    0    0    0  501  0.00000000000E+00  0.00000000000E+00 -0.96869805512E+03  0.96869805514E+03  0.50400001928E-02 0. -1.
    10030    2    1    2    0    0  0.00000000000E+00  0.00000000000E+00  0.26417808218E+03  0.22015741924E+04  0.21856666868E+04 0.  0.
        2    1    3    3  502    0 -0.70140099798E+03 -0.76927376040E+03  0.46698324099E+03  0.11409727542E+04  0.25500000920E-02 0. -1.
       -2    1    3    3    0  502  0.70140099798E+03  0.76927376040E+03 -0.20280515882E+03  0.10606014383E+04  0.25500000920E-02 0.  1.
</event>
<event>
 5   0  0.2289708E-05  0.2191435E+04  0.7818609E-02  0.8522001E-01
       -2   -1    0    0    0  501  0.00000000000E+00  0.00000000000E+00  0.11520396933E+04  0.11520396933E+04  0.25500000920E-02 0. -1.
        2   -1    0    0  501    0  0.00000000000E+00  0.00000000000E+00 -0.10421491076E+04  0.10421491076E+04  0.25500000920E-02 0.  1.
    10030    2    1    2    0    0  0.00000000000E+00  0.00000000000E+00  0.10989058575E+03  0.21941888009E+04  0.21914352724E+04 0.  0.
        5    1    3    3  502    0 -0.10312135175E+04 -0.30667006794E+03 -0.15298653596E+03  0.10866806428E+04  0.46999998093E+01 0. -1.
       -5    1    3    3    0  502  0.10312135175E+04  0.30667006794E+03  0.26287712171E+03  0.11075081581E+04  0.46999998093E+01 0.  1.
</event>
<event>
 5   0  0.2298329E-05  0.2123879E+04  0.7818609E-02  0.8550797E-01
       -2   -1    0    0    0  501  0.00000000000E+00  0.00000000000E+00  0.51640404465E+03  0.51640404466E+03  0.25500000920E-02 0.  1.
        2   -1    0    0  501    0  0.00000000000E+00  0.00000000000E+00 -0.21837852577E+04  0.21837852578E+04  0.25500000920E-02 0. -1.
    10030    2    1    2    0    0  0.00000000000E+00  0.00000000000E+00 -0.16673812131E+04  0.27001893024E+04  0.21238790359E+04 0.  0.
        4    1    3    3  502    0 -0.24202491019E+03 -0.16258001558E+03  0.46452040608E+03  0.54844246661E+03  0.12699999809E+01 0.  1.
       -4    1    3    3    0  502  0.24202491019E+03  0.16258001558E+03 -0.21319016192E+04  0.21517468358E+04  0.12699999809E+01 0. -1.
</event>
<event>
 5   0  0.2298329E-05  0.2196869E+04  0.7818609E-02  0.8519732E-01
        2   -1    0    0  501    0  0.00000000000E+00  0.00000000000E+00  0.10406494069E+04  0.10406494069E+04  0.25500000920E-02 0.  1.
       -2   -1    0    0    0  501  0.00000000000E+00  0.00000000000E+00 -0.11594285468E+04  0.11594285468E+04  0.25500000920E-02 0. -1.
    10030    2    1    2    0    0  0.00000000000E+00  0.00000000000E+00 -0.11877913989E+03  0.22000779537E+04  0.21968692538E+04 0.  0.
        4    1    3    3  502    0  0.10859075500E+03  0.70526112985E+03 -0.89569718291E+03  0.11451900583E+04  0.12699999809E+01 0. -1.
       -4    1    3    3    0  502 -0.10859075500E+03 -0.70526112985E+03  0.77691804302E+03  0.10548878954E+04  0.12699999809E+01 0.  1.
</event>
<event>
 5   0  0.1033733E-05  0.2210932E+04  0.7818609E-02  0.8513892E-01
        1   -1    0    0  501    0  0.00000000000E+00  0.00000000000E+00  0.14314239137E+04  0.14314239137E+04  0.50400001928E-02 0.  1.
       -1   -1    0    0    0  501  0.00000000000E+00  0.00000000000E+00 -0.85373399726E+03  0.85373399727E+03  0.50400001928E-02 0. -1.
    10030    2    1    2    0    0  0.00000000000E+00  0.00000000000E+00  0.57768991642E+03  0.22851579110E+04  0.22109321651E+04 0.  0.
        5    1    3    3  502    0 -0.75288227081E+03  0.36422526316E+03  0.10359835275E+04  0.13314562386E+04  0.46999998093E+01 0.  1.
       -5    1    3    3    0  502  0.75288227081E+03 -0.36422526316E+03 -0.45829361104E+03  0.95370167240E+03  0.46999998093E+01 0. -1.
</event>
<event>
 5   0  0.8003875E-06  0.2204885E+04  0.7818609E-02  0.8516398E-01
       -3   -1    0    0    0  501  0.00000000000E+00  0.00000000000E+00  0.87808085772E+03  0.87808086353E+03  0.10100000352E+00 0.  1.
        3   -1    0    0  501    0  0.00000000000E+00  0.00000000000E+00 -0.13841310575E+04  0.13841310612E+04  0.10100000352E+00 0. -1.
    10030    2    1    2    0    0  0.00000000000E+00  0.00000000000E+00 -0.50605019976E+03  0.22622119247E+04  0.22048845747E+04 0.  0.
        4    1    3    3  502    0  0.13954546157E+02  0.50365782099E+03  0.75303670016E+03  0.90605287632E+03  0.12699999809E+01 0.  1.
       -4    1    3    3    0  502 -0.13954546157E+02 -0.50365782099E+03 -0.12590868999E+04  0.13561590484E+04  0.12699999809E+01 0. -1.
</event>
<event>
 5   0  0.1033733E-05  0.2201364E+04  0.7818609E-02  0.8517861E-01
       -1   -1    0    0    0  501  0.00000000000E+00  0.00000000000E+00  0.79593524879E+03  0.79593524881E+03  0.50400001928E-02 0.  1.
        1   -1    0    0  501    0  0.00000000000E+00  0.00000000000E+00 -0.15221098270E+04  0.15221098270E+04  0.50400001928E-02 0. -1.
    10030    2    1    2    0    0  0.00000000000E+00  0.00000000000E+00 -0.72617457819E+03  0.23180450758E+04  0.22013639988E+04 0.  0.
        5    1    3    3  502    0 -0.78848690537E+03 -0.47956276763E+03 -0.99470250699E+03  0.13568888000E+04  0.46999998093E+01 0. -1.
       -5    1    3    3    0  502  0.78848690537E+03  0.47956276763E+03  0.26852792880E+03  0.96115627584E+03  0.46999998093E+01 0.  1.
</event>
<event>
 5   0  0.2298329E-05  0.2187093E+04  0.7818609E-02  0.8523820E-01
       -2   -1    0    0    0  501  0.00000000000E+00  0.00000000000E+00  0.92865185170E+03  0.92865185170E+03  0.25500000920E-02 0.  1.
        2   -1    0    0  501    0  0.00000000000E+00  0.00000000000E+00 -0.12877202696E+04  0.12877202696E+04  0.25500000920E-02 0. -1.
    10030    2    1    2    0    0  0.00000000000E+00  0.00000000000E+00 -0.35906841795E+03  0.22163721213E+04  0.21870928767E+04 0.  0.
        4    1    3    3  502    0  0.62848622510E+03 -0.25165710332E+03 -0.10498185437E+04  0.12491784582E+04  0.12699999809E+01 0. -1.
       -4    1    3    3    0  502 -0.62848622510E+03  0.25165710332E+03  0.69075012580E+03  0.96719366312E+03  0.12699999809E+01 0.  1.
</event>
<event>
 5   0  0.2289708E-05  0.2206015E+04  0.7818609E-02  0.8515929E-01
        2   -1    0    0  501    0  0.00000000000E+00  0.00000000000E+00  0.73164212064E+03  0.73164212065E+03  0.25500000920E-02 0. -1.
       -2   -1    0    0    0  501  0.00000000000E+00  0.00000000000E+00 -0.16628702569E+04  0.16628702569E+04  0.25500000920E-02 0.  1.
    10030    2    1    2    0    0  0.00000000000E+00  0.00000000000E+00 -0.93122813626E+03  0.23945123776E+04  0.22060153409E+04 0.  0.
        5    1    3    3  502    0 -0.67002804775E+03  0.78290539538E+03 -0.38651945780E+02  0.10312102142E+04  0.46999998093E+01 0.  1.
       -5    1    3    3    0  502  0.67002804775E+03 -0.78290539538E+03 -0.89257619048E+03  0.13633021634E+04  0.46999998093E+01 0. -1.
</event>
<event>
 5   0  0.1005538E-05  0.2192863E+04  0.7818609E-02  0.8521405E-01
        1   -1    0    0  501    0  0.00000000000E+00  0.00000000000E+00  0.99780901694E+03  0.99780901696E+03  0.50400001928E-02 0. -1.
       -1   -1    0    0    0  501  0.00000000000E+00  0.00000000000E+00 -0.12048012333E+04  0.12048012333E+04  0.50400001928E-02 0.  1.
    10030    2    1    2    0    0  0.00000000000E+00  0.00000000000E+00 -0.20699221639E+03  0.22026102503E+04  0.21928625440E+04 0.  0.
        3    1    3    3  502    0 -0.70641121179E+03 -0.25936308276E+03 -0.90445881893E+03  0.11765762934E+04  0.10100000352E+00 0.  1.
       -3    1    3    3    0  502  0.70641121179E+03  0.25936308276E+03  0.69746660255E+03  0.10260339569E+04  0.10100000352E+00 0. -1.
</event>
<event>
 5   0  0.2298329E-05  0.2117624E+04  0.7818609E-02  0.8553519E-01
       -2   -1    0    0    0  501  0.00000000000E+00  0.00000000000E+00  0.10906242105E+04  0.10906242105E+04  0.25500000920E-02 0. -1.
        2   -1    0    0  501    0  0.00000000000E+00  0.00000000000E+00 -0.10279274439E+04  0.10279274439E+04  0.25500000920E-02 0.  1.
    10030    2    1    2    0    0  0.00000000000E+00  0.00000000000E+00  0.62696766638E+02  0.21185516544E+04  0.21176237220E+04 0.  0.
        4    1    3    3  502    0  0.32288351752E+03  0.39185314934E+03 -0.89818645842E+03  0.10317670200E+04  0.12699999809E+01 0.  1.
       -4    1    3    3    0  502 -0.32288351752E+03 -0.39185314934E+03  0.96088322506E+03  0.10867846344E+04  0.12699999809E+01 0. -1.
</event>
<event>
 5   0  0.2229552E-05  0.2191971E+04  0.7818609E-02  0.8521777E-01
        2   -1    0    0  501    0  0.00000000000E+00  0.00000000000E+00  0.16926208881E+04  0.16926208881E+04  0.25500000920E-02 0. -1.
       -2   -1    0    0    0  501  0.00000000000E+00  0.00000000000E+00 -0.70965918616E+03  0.70965918616E+03  0.25500000920E-02 0.  1.
    10030    2    1    2    0    0  0.00000000000E+00  0.00000000000E+00  0.98296170199E+03  0.24022800743E+04  0.21919707680E+04 0.  0.
        1    1    3    3  502    0 -0.42471945648E+03  0.25846394114E+03  0.15619191582E+04  0.16391405316E+04  0.50400001928E-02 0. -1.
       -1    1    3    3    0  502  0.42471945648E+03 -0.25846394114E+03 -0.57895745618E+03  0.76313954273E+03  0.50400001928E-02 0.  1.
</event>
<event>
 5   0  0.1005538E-05  0.2202714E+04  0.7818609E-02  0.8517299E-01
        1   -1    0    0  501    0  0.00000000000E+00  0.00000000000E+00  0.14601217456E+04  0.14601217456E+04  0.50400001928E-02 0. -1.
       -1   -1    0    0    0  501  0.00000000000E+00  0.00000000000E+00 -0.83074400876E+03  0.83074400878E+03  0.50400001928E-02 0.  1.
    10030    2    1    2    0    0  0.00000000000E+00  0.00000000000E+00  0.62937773687E+03  0.22908657544E+04  0.22027141369E+04 0.  0.
        3    1    3    3  502    0 -0.67058991006E+03 -0.13777682103E+03  0.12119515904E+04  0.13919410719E+04  0.10100000352E+00 0. -1.
       -3    1    3    3    0  502  0.67058991006E+03  0.13777682103E+03 -0.58257385352E+03  0.89892468255E+03  0.10100000352E+00 0.  1.
</event>
<event>
 5   0  0.2319707E-05  0.2199065E+04  0.7818609E-02  0.8518817E-01
        2   -1    0    0  501    0  0.00000000000E+00  0.00000000000E+00  0.20322628422E+04  0.20322628422E+04  0.25500000920E-02 0. -1.
       -2   -1    0    0    0  501  0.00000000000E+00  0.00000000000E+00 -0.59488948275E+03  0.59488948275E+03  0.25500000920E-02 0.  1.
    10030    2    1    2    0    0  0.00000000000E+00  0.00000000000E+00  0.14373733595E+04  0.26271523250E+04  0.21990650659E+04 0.  0.
        3    1    3    3  502    0  0.51170394991E+03  0.88436296871E+03  0.12040115604E+04  0.15791081789E+04  0.10100000352E+00 0.  1.
       -3    1    3    3    0  502 -0.51170394991E+03 -0.88436296871E+03  0.23336179910E+03  0.10480441461E+04  0.10100000352E+00 0. -1.
</event>
<event>
 5   0  0.1005538E-05  0.2170667E+04  0.7818609E-02  0.8530737E-01
        1   -1    0    0  501    0  0.00000000000E+00  0.00000000000E+00  0.64240028218E+03  0.64240028220E+03  0.50400001928E-02 0.  1.
       -1   -1    0    0    0  501  0.00000000000E+00  0.00000000000E+00 -0.18336680525E+04  0.18336680525E+04  0.50400001928E-02 0. -1.
    10030    2    1    2    0    0  0.00000000000E+00  0.00000000000E+00 -0.11912677703E+04  0.24760683347E+04  0.21706670628E+04 0.  0.
        3    1    3    3  502    0 -0.24196529757E+03  0.43975345093E+03 -0.16933227425E+04  0.17661461501E+04  0.10100000352E+00 0. -1.
       -3    1    3    3    0  502  0.24196529757E+03 -0.43975345093E+03  0.50205497224E+03  0.70992218460E+03  0.10100000352E+00 0.  1.
</event>
<event>
 5   0  0.1033733E-05  0.2208821E+04  0.7818609E-02  0.8514765E-01
       -1   -1    0    0    0  501  0.00000000000E+00  0.00000000000E+00  0.98208398577E+03  0.98208398578E+03  0.50400001928E-02 0. -1.
        1   -1    0    0  501    0  0.00000000000E+00  0.00000000000E+00 -0.12419740511E+04  0.12419740511E+04  0.50400001928E-02 0.  1.
    10030    2    1    2    0    0  0.00000000000E+00  0.00000000000E+00 -0.25989006532E+03  0.22240580369E+04  0.22088212479E+04 0.  0.
        5    1    3    3  502    0 -0.70585650498E+03 -0.77364277281E+03  0.22310767861E+03  0.10707733989E+04  0.46999998093E+01 0. -1.
       -5    1    3    3    0  502  0.70585650498E+03  0.77364277281E+03 -0.48299774393E+03  0.11532846380E+04  0.46999998093E+01 0.  1.
</event>
<event>
 5   0  0.1049198E-05  0.2203241E+04  0.7818609E-02  0.8517080E-01
        1   -1    0    0  501    0  0.00000000000E+00  0.00000000000E+00  0.10006765987E+04  0.10006765988E+04  0.50400001928E-02 0. -1.
       -1   -1    0    0    0  501  0.00000000000E+00  0.00000000000E+00 -0.12127468755E+04  0.12127468755E+04  0.50400001928E-02 0.  1.
    10030    2    1    2    0    0  0.00000000000E+00  0.00000000000E+00 -0.21207027679E+03  0.22134234743E+04  0.22032407209E+04 0.  0.
        1    1    3    3  502    0 -0.27299848586E+03  0.95719392991E+03 -0.58025386208E+03  0.11521470988E+04  0.50400001928E-02 0.  1.
       -1    1    3    3    0  502  0.27299848586E+03 -0.95719392991E+03  0.36818358529E+03  0.10612763755E+04  0.50400001928E-02 0. -1.
</event>
<event>
 5   0  0.1049198E-05  0.2206886E+04  0.7818609E-02  0.8515567E-01
        1   -1    0    0  501    0  0.00000000000E+00  0.00000000000E+00  0.11386909311E+04  0.11386909312E+04  0.50400001928E-02 0.  1.
       -1   -1    0    0    0  501  0.00000000000E+00  0.00000000000E+00 -0.10692861562E+04  0.10692861562E+04  0.50400001928E-02 0. -1.
    10030    2    1    2    0    0  0.00000000000E+00  0.00000000000E+00  0.69404774939E+02  0.22079770874E+04  0.22068859951E+04 0.  0.
        1    1    3    3  502    0 -0.17869704878E+03 -0.27754798141E+03 -0.10187288703E+04  0.10708753562E+04  0.50400001928E-02 0. -1.
       -1    1    3    3    0  502  0.17869704878E+03  0.27754798141E+03  0.10881336452E+04  0.11371017312E+04  0.50400001928E-02 0.  1.
</event>
<event>
 5   0  0.2319707E-05  0.2193807E+04  0.7818609E-02  0.8521010E-01
       -2   -1    0    0    0  501  0.00000000000E+00  0.00000000000E+00  0.84652550991E+03  0.84652550991E+03  0.25500000920E-02 0. -1.
        2   -1    0    0  501    0  0.00000000000E+00  0.00000000000E+00 -0.14213355913E+04  0.14213355913E+04  0.25500000920E-02 0.  1.
    10030    2    1    2    0    0  0.00000000000E+00  0.00000000000E+00 -0.57481008134E+03  0.22678611012E+04  0.21938065878E+04 0.  0.
        3    1    3    3  502    0 -0.96050669757E+03  0.32704327688E+03 -0.71820536608E+03  0.12431208224E+04  0.10100000352E+00 0.  1.
       -3    1    3    3    0  502  0.96050669757E+03 -0.32704327688E+03  0.14339528474E+03  0.10247402788E+04  0.10100000352E+00 0. -1.
</event>
<event>
 5   0  0.1049198E-05  0.2203479E+04  0.7818609E-02  0.8516982E-01
       -1   -1    0    0    0  501  0.00000000000E+00  0.00000000000E+00  0.17610788862E+04  0.17610788862E+04  0.50400001928E-02 0.  1.
        1   -1    0    0  501    0  0.00000000000E+00  0.00000000000E+00 -0.68925338495E+03  0.68925338497E+03  0.50400001928E-02 0. -1.
    10030    2    1    2    0    0  0.00000000000E+00  0.00000000000E+00  0.10718255012E+04  0.24503322712E+04  0.22034786892E+04 0.  0.
        1    1    3    3  502    0  0.78641378964E+02 -0.10294482681E+04  0.10827811517E+03  0.10381099910E+04  0.50400001928E-02 0. -1.
       -1    1    3    3    0  502 -0.78641378964E+02  0.10294482681E+04  0.96354738607E+03  0.14122222801E+04  0.50400001928E-02 0.  1.
</event>
<event>
 5   0  0.1007682E-05  0.2192437E+04  0.7818609E-02  0.8521583E-01
        1   -1    0    0  501    0  0.00000000000E+00  0.00000000000E+00  0.19243474181E+04  0.19243474181E+04  0.50400001928E-02 0. -1.
       -1   -1    0    0    0  501  0.00000000000E+00  0.00000000000E+00 -0.62446864520E+03  0.62446864522E+03  0.50400001928E-02 0.  1.
    10030    2    1    2    0    0  0.00000000000E+00  0.00000000000E+00  0.12998787729E+04  0.25488160634E+04  0.21924366583E+04 0.  0.
        2    1    3    3  502    0 -0.74125608023E+03 -0.78908157855E+03  0.44997982742E+03  0.11724300231E+04  0.25500000920E-02 0.  1.
       -2    1    3    3    0  502  0.74125608023E+03  0.78908157855E+03  0.84989894552E+03  0.13763860402E+04  0.25500000920E-02 0. -1.
</event>
<event>
 5   0  0.1033733E-05  0.2190285E+04  0.7818609E-02  0.8522483E-01
        1   -1    0    0  501    0  0.00000000000E+00  0.00000000000E+00  0.91422181642E+03  0.91422181643E+03  0.50400001928E-02 0. -1.
       -1   -1    0    0    0  501  0.00000000000E+00  0.00000000000E+00 -0.13118666842E+04  0.13118666842E+04  0.50400001928E-02 0.  1.
    10030    2    1    2    0    0  0.00000000000E+00  0.00000000000E+00 -0.39764486776E+03  0.22260885006E+04  0.21902850435E+04 0.  0.
        5    1    3    3  502    0  0.80699373579E+03  0.73707266982E+03 -0.26923729714E+03  0.11256224155E+04  0.46999998093E+01 0.  1.
       -5    1    3    3    0  502 -0.80699373579E+03 -0.73707266982E+03 -0.12840757062E+03  0.11004660851E+04  0.46999998093E+01 0. -1.
</event>
<event>
 5   0  0.2229552E-05  0.2202980E+04  0.7818609E-02  0.8517189E-01
       -2   -1    0    0    0  501  0.00000000000E+00  0.00000000000E+00  0.65065186822E+03  0.65065186822E+03  0.25500000920E-02 0. -1.
        2   -1    0    0  501    0  0.00000000000E+00  0.00000000000E+00 -0.18647144704E+04  0.18647144704E+04  0.25500000920E-02 0.  1.
    10030    2    1    2    0    0  0.00000000000E+00  0.00000000000E+00 -0.12140626022E+04  0.25153663387E+04  0.22029797583E+04 0.  0.
        1    1    3    3  502    0  0.41030285086E+03 -0.14035985146E+03  0.54908500286E+03  0.69967396530E+03  0.50400001928E-02 0. -1.
       -1    1    3    3    0  502 -0.41030285086E+03  0.14035985146E+03 -0.17631476051E+04  0.18156923734E+04  0.50400001928E-02 0.  1.
</event>
<event>
 5   0  0.2319707E-05  0.2175518E+04  0.7818609E-02  0.8528688E-01
        2   -1    0    0  501    0  0.00000000000E+00  0.00000000000E+00  0.63106314547E+03  0.63106314548E+03  0.25500000920E-02 0.  1.
       -2   -1    0    0    0  501  0.00000000000E+00  0.00000000000E+00 -0.18749626381E+04  0.18749626381E+04  0.25500000920E-02 0. -1.
    10030    2    1    2    0    0  0.00000000000E+00  0.00000000000E+00 -0.12438994926E+04  0.25060257836E+04  0.21755181636E+04 0.  0.
        3    1    3    3  502    0  0.91476882754E+03 -0.52715625160E+03 -0.92348941601E+03  0.14026861492E+04  0.10100000352E+00 0. -1.
       -3    1    3    3    0  502 -0.91476882754E+03  0.52715625160E+03 -0.32041007662E+03  0.11033396344E+04  0.10100000352E+00 0.  1.
</event>
<event>
 5   0  0.1071208E-05  0.2200378E+04  0.7818609E-02  0.8518271E-01
       -1   -1    0    0    0  501  0.00000000000E+00  0.00000000000E+00  0.10994047978E+04  0.10994047978E+04  0.50400001928E-02 0. -1.
        1   -1    0    0  501    0  0.00000000000E+00  0.00000000000E+00 -0.11009738365E+04  0.11009738365E+04  0.50400001928E-02 0.  1.
    10030    2    1    2    0    0  0.00000000000E+00  0.00000000000E+00 -0.15690387532E+01  0.22003786343E+04  0.22003780749E+04 0.  0.
        4    1    3    3  502    0 -0.29855612734E+03  0.89853592526E+03 -0.56106292757E+03  0.11005888386E+04  0.12699999809E+01 0. -1.
       -4    1    3    3    0  502  0.29855612734E+03 -0.89853592526E+03  0.55949388882E+03  0.10997897957E+04  0.12699999809E+01 0.  1.
</event>
<event>
 5   0  0.1007682E-05  0.2199375E+04  0.7818609E-02  0.8518688E-01
        1   -1    0    0  501    0  0.00000000000E+00  0.00000000000E+00  0.14790235217E+04  0.14790235218E+04  0.50400001928E-02 0.  1.
       -1   -1    0    0    0  501  0.00000000000E+00  0.00000000000E+00 -0.81764249145E+03  0.81764249147E+03  0.50400001928E-02 0. -1.
    10030    2    1    2    0    0  0.00000000000E+00  0.00000000000E+00  0.66138103029E+03  0.22966660132E+04  0.21993748905E+04 0.  0.
        2    1    3    3  502    0 -0.92543368176E+03 -0.15469750505E+03  0.92960655236E+03  0.13208054965E+04  0.25500000920E-02 0.  1.
       -2    1    3    3    0  502  0.92543368176E+03  0.15469750505E+03 -0.26822552206E+03  0.97586051672E+03  0.25500000920E-02 0. -1.
</event>
<event>
 5   0  0.1071208E-05  0.2228117E+04  0.7818609E-02  0.8506815E-01
        1   -1    0    0  501    0  0.00000000000E+00  0.00000000000E+00  0.14486158436E+04  0.14486158436E+04  0.50400001928E-02 0.  1.
       -1   -1    0    0    0  501  0.00000000000E+00  0.00000000000E+00 -0.85676742479E+03  0.85676742481E+03  0.50400001928E-02 0. -1.
    10030    2    1    2    0    0  0.00000000000E+00  0.00000000000E+00  0.59184841881E+03  0.23053832684E+04  0.22281174707E+04 0.  0.
        4    1    3    3  502    0  0.10708505772E+04 -0.15921600920E+03  0.56781921116E+03  0.12224937487E+04  0.12699999809E+01 0. -1.
       -4    1    3    3    0  502 -0.10708505772E+04  0.15921600920E+03  0.24029207642E+02  0.10828895197E+04  0.12699999809E+01 0.  1.
</event>
<event>
 5   0  0.1005538E-05  0.2201564E+04  0.7818609E-02  0.8517777E-01
       -1   -1    0    0    0  501  0.00000000000E+00  0.00000000000E+00  0.95029381962E+03  0.95029381963E+03  0.50400001928E-02 0. -1.
        1   -1    0    0  501    0  0.00000000000E+00  0.00000000000E+00 -0.12751015949E+04  0.12751015949E+04  0.50400001928E-02 0.  1.
    10030    2    1    2    0    0  0.00000000000E+00  0.00000000000E+00 -0.32480777532E+03  0.22253954146E+04  0.22015641395E+04 0.  0.
        3    1    3    3  502    0 -0.18852811288E+02 -0.67528612677E+03  0.71611523731E+03  0.98447337435E+03  0.10100000352E+00 0. -1.
       -3    1    3    3    0  502  0.18852811288E+02  0.67528612677E+03 -0.10409230126E+04  0.12409220402E+04  0.10100000352E+00 0.  1.
</event>
<event>
 5   0  0.8003875E-06  0.2199790E+04  0.7818609E-02  0.8518516E-01
        3   -1    0    0  501    0  0.00000000000E+00  0.00000000000E+00  0.82287549800E+03  0.82287550420E+03  0.10100000352E+00 0.  1.
       -3   -1    0    0    0  501  0.00000000000E+00  0.00000000000E+00 -0.14701722826E+04  0.14701722860E+04  0.10100000352E+00 0. -1.
    10030    2    1    2    0    0  0.00000000000E+00  0.00000000000E+00 -0.64729678456E+03  0.22930477902E+04  0.21997897720E+04 0.  0.
        5    1    3    3  502    0 -0.59753788320E+03 -0.14630066593E+01 -0.12862094303E+04  0.14182420283E+04  0.46999998093E+01 0. -1.
       -5    1    3    3    0  502  0.59753788320E+03  0.14630066593E+01  0.63891264573E+03  0.87480576193E+03  0.46999998093E+01 0.  1.
</event>
<event>
 5   0  0.1049198E-05  0.2201745E+04  0.7818609E-02  0.8517702E-01
       -1   -1    0    0    0  501  0.00000000000E+00  0.00000000000E+00  0.71314332285E+03  0.71314332287E+03  0.50400001928E-02 0.  1.
        1   -1    0    0  501    0  0.00000000000E+00  0.00000000000E+00 -0.16994063942E+04  0.16994063942E+04  0.50400001928E-02 0. -1.
    10030    2    1    2    0    0  0.00000000000E+00  0.00000000000E+00 -0.98626307136E+03  0.24125497171E+04  0.22017450560E+04 0.  0.
        1    1    3    3  502    0  0.51910737918E+03  0.15475327283E+03 -0.15432750423E+04  0.16355790726E+04  0.50400001928E-02 0. -1.
       -1    1    3    3    0  502 -0.51910737918E+03 -0.15475327283E+03  0.55701197094E+03  0.77697064447E+03  0.50400001928E-02 0.  1.
</event>
<event>
 5   0  0.2298329E-05  0.2199149E+04  0.7818609E-02  0.8518782E-01
       -2   -1    0    0    0  501  0.00000000000E+00  0.00000000000E+00  0.84778960254E+03  0.84778960255E+03  0.25500000920E-02 0. -1.
        2   -1    0    0  501    0  0.00000000000E+00  0.00000000000E+00 -0.14261373038E+04  0.14261373038E+04  0.25500000920E-02 0.  1.
    10030    2    1    2    0    0  0.00000000000E+00  0.00000000000E+00 -0.57834770121E+03  0.22739269063E+04  0.21991492700E+04 0.  0.
        4    1    3    3  502    0  0.45462181388E+03 -0.33359472745E+03 -0.12652509402E+04  0.13852176690E+04  0.12699999809E+01 0.  1.
       -4    1    3    3    0  502 -0.45462181388E+03  0.33359472745E+03  0.68690323900E+03  0.88870923732E+03  0.12699999809E+01 0. -1.
</event>
<event>
 5   0  0.2298329E-05  0.2202615E+04  0.7818609E-02  0.8517340E-01
       -2   -1    0    0    0  501  0.00000000000E+00  0.00000000000E+00  0.71368258954E+03  0.71368258954E+03  0.25500000920E-02 0. -1.
        2   -1    0    0  501    0  0.00000000000E+00  0.00000000000E+00 -0.16994647815E+04  0.16994647815E+04  0.25500000920E-02 0.  1.
    10030    2    1    2    0    0  0.00000000000E+00  0.00000000000E+00 -0.98578219201E+03  0.24131473711E+04  0.22026151966E+04 0.  0.
        4    1    3    3  502    0  0.18162108212E+02  0.75479299560E+02 -0.16964624150E+04  0.16982383005E+04  0.12699999809E+01 0.  1.
       -4    1    3    3    0  502 -0.18162108212E+02 -0.75479299560E+02  0.71068022304E+03  0.71490907055E+03  0.12699999809E+01 0. -1.
</event>
<event>
 5   0  0.1049198E-05  0.2169095E+04  0.7818609E-02  0.8531402E-01
       -1   -1    0    0    0  501  0.00000000000E+00  0.00000000000E+00  0.66004380474E+03  0.66004380476E+03  0.50400001928E-02 0.  1.
        1   -1    0    0  501    0  0.00000000000E+00  0.00000000000E+00 -0.17820691663E+04  0.17820691663E+04  0.50400001928E-02 0. -1.
    10030    2    1    2    0    0  0.00000000000E+00  0.00000000000E+00 -0.11220253615E+04  0.24421129710E+04  0.21690953993E+04 0.  0.
        1    1    3    3  502    0  0.94991523680E+03 -0.59257587423E+02  0.24430909406E+02  0.95207525340E+03  0.50400001928E-02 0.  1.
       -1    1    3    3    0  502 -0.94991523680E+03  0.59257587423E+02 -0.11464562709E+04  0.14900377176E+04  0.50400001928E-02 0. -1.
</event>
<event>
 5   0  0.1071208E-05  0.2200459E+04  0.7818609E-02  0.8518237E-01
        1   -1    0    0  501    0  0.00000000000E+00  0.00000000000E+00  0.21125531677E+04  0.21125531677E+04  0.50400001928E-02 0. -1.
       -1   -1    0    0    0  501  0.00000000000E+00  0.00000000000E+00 -0.57300557088E+03  0.57300557090E+03  0.50400001928E-02 0.  1.
    10030    2    1    2    0    0  0.00000000000E+00  0.00000000000E+00  0.15395475968E+04  0.26855587386E+04  0.22004588012E+04 0.  0.
        4    1    3    3  502    0 -0.20272680957E+03  0.40387090622E+03 -0.45451448805E+03  0.64093283654E+03  0.12699999809E+01 0.  1.
       -4    1    3    3    0  502  0.20272680957E+03 -0.40387090622E+03  0.19940620849E+04  0.20446259021E+04  0.12699999809E+01 0. -1.
</event>
<event>
 5   0  0.2298329E-05  0.2177870E+04  0.7818609E-02  0.8527696E-01
       -2   -1    0    0    0  501  0.00000000000E+00  0.00000000000E+00  0.48685347703E+03  0.48685347703E+03  0.25500000920E-02 0. -1.
        2   -1    0    0  501    0  0.00000000000E+00  0.00000000000E+00 -0.24355975789E+04  0.24355975789E+04  0.25500000920E-02 0.  1.
    10030    2    1    2    0    0  0.00000000000E+00  0.00000000000E+00 -0.19487441019E+04  0.29224510559E+04  0.21778697389E+04 0.  0.
        4    1    3    3  502    0 -0.60883668186E+03 -0.51985709811E+03  0.16121025244E+02  0.80074653167E+03  0.12699999809E+01 0. -1.
       -4    1    3    3    0  502  0.60883668186E+03  0.51985709811E+03 -0.19648651271E+04  0.21217045243E+04  0.12699999809E+01 0.  1.
</event>
<event>
 5   0  0.2298329E-05  0.2221337E+04  0.7818609E-02  0.8509599E-01
        2   -1    0    0  501    0  0.00000000000E+00  0.00000000000E+00  0.18563948960E+04  0.18563948960E+04  0.25500000920E-02 0.  1.
       -2   -1    0    0    0  501  0.00000000000E+00  0.00000000000E+00 -0.66450554085E+03  0.66450554085E+03  0.25500000920E-02 0. -1.
    10030    2    1    2    0    0  0.00000000000E+00  0.00000000000E+00  0.11918893552E+04  0.25209004369E+04  0.22213371598E+04 0.  0.
        4    1    3    3  502    0 -0.57007283260E+01 -0.76902051287E+03 -0.31347044527E+03  0.83047599633E+03  0.12699999809E+01 0.  1.
       -4    1    3    3    0  502  0.57007283260E+01  0.76902051287E+03  0.15053598005E+04  0.16904244406E+04  0.12699999809E+01 0. -1.
</event>
<event>
 5   0  0.2289708E-05  0.2203851E+04  0.7818609E-02  0.8516827E-01
        2   -1    0    0  501    0  0.00000000000E+00  0.00000000000E+00  0.20010164424E+04  0.20010164424E+04  0.25500000920E-02 0.  1.
       -2   -1    0    0    0  501  0.00000000000E+00  0.00000000000E+00 -0.60681152866E+03  0.60681152867E+03  0.25500000920E-02 0. -1.
    10030    2    1    2    0    0  0.00000000000E+00  0.00000000000E+00  0.13942049138E+04  0.26078279711E+04  0.22038510352E+04 0.  0.
        5    1    3    3  502    0 -0.84248474347E+03 -0.35526074098E+03  0.14248369806E+04  0.16929776278E+04  0.46999998093E+01 0.  1.
       -5    1    3    3    0  502  0.84248474347E+03  0.35526074098E+03 -0.30632066833E+02  0.91485034327E+03  0.46999998093E+01 0. -1.
</event>
<event>
 5   0  0.2229552E-05  0.2197483E+04  0.7818609E-02  0.8519476E-01
        2   -1    0    0  501    0  0.00000000000E+00  0.00000000000E+00  0.16617993406E+04  0.16617993406E+04  0.25500000920E-02 0.  1.
       -2   -1    0    0    0  501  0.00000000000E+00  0.00000000000E+00 -0.72646156168E+03  0.72646156169E+03  0.25500000920E-02 0. -1.
    10030    2    1    2    0    0  0.00000000000E+00  0.00000000000E+00  0.93533777891E+03  0.23882609023E+04  0.21974834190E+04 0.  0.
        1    1    3    3  502    0 -0.23701005382E+03 -0.10702543389E+04  0.54910928730E+03  0.12260257440E+04  0.50400001928E-02 0.  1.
       -1    1    3    3    0  502  0.23701005382E+03  0.10702543389E+04  0.38622849161E+03  0.11622351583E+04  0.50400001928E-02 0. -1.
</event>
<event>
 5   0  0.1033733E-05  0.2200233E+04  0.7818609E-02  0.8518331E-01
        1   -1    0    0  501    0  0.00000000000E+00  0.00000000000E+00  0.25230086679E+04  0.25230086679E+04  0.50400001928E-02 0. -1.
       -1   -1    0    0    0  501  0.00000000000E+00  0.00000000000E+00 -0.47968782245E+03  0.47968782248E+03  0.50400001928E-02 0.  1.
    10030    2    1    2    0    0  0.00000000000E+00  0.00000000000E+00  0.20433208454E+04  0.30026964904E+04  0.22002332003E+04 0.  0.
        5    1    3    3  502    0 -0.62149838155E+03 -0.61294628577E+03  0.10794054700E+03  0.87956616533E+03  0.46999998093E+01 0.  1.
       -5    1    3    3    0  502  0.62149838155E+03  0.61294628577E+03  0.19353802984E+04  0.21231303250E+04  0.46999998093E+01 0. -1.
</event>
<event>
 5   0  0.2289708E-05  0.2197657E+04  0.7818609E-02  0.8519404E-01
       -2   -1    0    0    0  501  0.00000000000E+00  0.00000000000E+00  0.12352257919E+04  0.12352257919E+04  0.25500000920E-02 0. -1.
        2   -1    0    0  501    0  0.00000000000E+00  0.00000000000E+00 -0.97749239527E+03  0.97749239527E+03  0.25500000920E-02 0.  1.
    10030    2    1    2    0    0  0.00000000000E+00  0.00000000000E+00  0.25773339664E+03  0.22127181872E+04  0.21976567685E+04 0.  0.
        5    1    3    3  502    0 -0.96136074158E+02  0.42070793729E+03  0.11463190423E+04  0.12248700952E+04  0.46999998093E+01 0. -1.
       -5    1    3    3    0  502  0.96136074158E+02 -0.42070793729E+03 -0.88858564566E+03  0.98784809203E+03  0.46999998093E+01 0.  1.
</event>
<event>
 5   0  0.1007682E-05  0.2197776E+04  0.7818609E-02  0.8519354E-01
       -1   -1    0    0    0  501  0.00000000000E+00  0.00000000000E+00  0.10620021748E+04  0.10620021748E+04  0.50400001928E-02 0. -1.
        1   -1    0    0  501    0  0.00000000000E+00  0.00000000000E+00 -0.11370548988E+04  0.11370548988E+04  0.50400001928E-02 0.  1.
    10030    2    1    2    0    0  0.00000000000E+00  0.00000000000E+00 -0.75052724003E+02  0.21990570737E+04  0.21977759444E+04 0.  0.
        2    1    3    3  502    0  0.48195497507E+03  0.86587512261E+02 -0.10218562779E+04  0.11331232272E+04  0.25500000920E-02 0.  1.
       -2    1    3    3    0  502 -0.48195497507E+03 -0.86587512261E+02  0.94680355393E+03  0.10659338465E+04  0.25500000920E-02 0. -1.
</event>
<event>
 5   0  0.2289708E-05  0.2199610E+04  0.7818609E-02  0.8518590E-01
        2   -1    0    0  501    0  0.00000000000E+00  0.00000000000E+00  0.95283522362E+03  0.95283522362E+03  0.25500000920E-02 0.  1.
       -2   -1    0    0    0  501  0.00000000000E+00  0.00000000000E+00 -0.12694444283E+04  0.12694444283E+04  0.25500000920E-02 0. -1.
    10030    2    1    2    0    0  0.00000000000E+00  0.00000000000E+00 -0.31660920465E+03  0.22222796519E+04  0.21996102979E+04 0.  0.
        5    1    3    3  502    0 -0.24720932212E+03  0.23945411701E+03  0.89701730882E+03  0.96078762763E+03  0.46999998093E+01 0.  1.
       -5    1    3    3    0  502  0.24720932212E+03 -0.23945411701E+03 -0.12136265135E+04  0.12614920243E+04  0.46999998093E+01 0. -1.
</event>
<event>
 5   0  0.1005538E-05  0.2210281E+04  0.7818609E-02  0.8514161E-01
        1   -1    0    0  501    0  0.00000000000E+00  0.00000000000E+00  0.21466635607E+04  0.21466635607E+04  0.50400001928E-02 0. -1.
       -1   -1    0    0    0  501  0.00000000000E+00  0.00000000000E+00 -0.56894617822E+03  0.56894617824E+03  0.50400001928E-02 0.  1.
    10030    2    1    2    0    0  0.00000000000E+00  0.00000000000E+00  0.15777173825E+04  0.27156097389E+04  0.22102814561E+04 0.  0.
        3    1    3    3  502    0 -0.65936987281E+03 -0.81679617605E+03  0.36429518067E+03  0.11111415802E+04  0.10100000352E+00 0.  1.
       -3    1    3    3    0  502  0.65936987281E+03  0.81679617605E+03  0.12134222018E+04  0.16044681587E+04  0.10100000352E+00 0. -1.
</event>
<event>
 5   0  0.1071208E-05  0.2204702E+04  0.7818609E-02  0.8516474E-01
        1   -1    0    0  501    0  0.00000000000E+00  0.00000000000E+00  0.12977585523E+04  0.12977585523E+04  0.50400001928E-02 0.  1.
       -1   -1    0    0    0  501  0.00000000000E+00  0.00000000000E+00 -0.93636639898E+03  0.93636639899E+03  0.50400001928E-02 0. -1.
    10030    2    1    2    0    0  0.00000000000E+00  0.00000000000E+00  0.36139215335E+03  0.22341249513E+04  0.22047017961E+04 0.  0.
        4    1    3    3  502    0 -0.91674773674E+03 -0.43263690238E+03 -0.25818295742E+03  0.10460693832E+04  0.12699999809E+01 0. -1.
       -4    1    3    3    0  502  0.91674773674E+03  0.43263690238E+03  0.61957511078E+03  0.11880555681E+04  0.12699999809E+01 0.  1.
</event>
<event>
 5   0  0.1005538E-05  0.2190785E+04  0.7818609E-02  0.8522274E-01
       -1   -1    0    0    0  501  0.00000000000E+00  0.00000000000E+00  0.12541048308E+04  0.12541048308E+04  0.50400001928E-02 0.  1.
        1   -1    0    0  501    0  0.00000000000E+00  0.00000000000E+00 -0.95676560868E+03  0.95676560869E+03  0.50400001928E-02 0. -1.
    10030    2    1    2    0    0  0.00000000000E+00  0.00000000000E+00  0.29733922210E+03  0.22108704395E+04  0.21907846738E+04 0.  0.
        3    1    3    3  502    0 -0.20537366424E+03  0.59710157539E+03  0.10519602111E+04  0.12269184688E+04  0.10100000352E+00 0.  1.
       -3    1    3    3    0  502  0.20537366424E+03 -0.59710157539E+03 -0.75462098898E+03  0.98395197063E+03  0.10100000352E+00 0. -1.
</event>
<event>
 5   0  0.1005538E-05  0.2198193E+04  0.7818609E-02  0.8519181E-01
        1   -1    0    0  501    0  0.00000000000E+00  0.00000000000E+00  0.38958662662E+03  0.38958662665E+03  0.50400001928E-02 0.  1.
       -1   -1    0    0    0  501  0.00000000000E+00  0.00000000000E+00 -0.31007558205E+04  0.31007558205E+04  0.50400001928E-02 0. -1.
    10030    2    1    2    0    0  0.00000000000E+00  0.00000000000E+00 -0.27111691939E+04  0.34903424472E+04  0.21981928943E+04 0.  0.
        3    1    3    3  502    0 -0.10722922602E+04 -0.14791816972E+02 -0.17379287519E+04  0.20421620519E+04  0.10100000352E+00 0. -1.
       -3    1    3    3    0  502  0.10722922602E+04  0.14791816972E+02 -0.97324044198E+03  0.14481803953E+04  0.10100000352E+00 0.  1.
</event>
<event>
 5   0  0.2284329E-05  0.2197403E+04  0.7818609E-02  0.8519510E-01
        2   -1    0    0  501    0  0.00000000000E+00  0.00000000000E+00  0.15592832614E+04  0.15592832614E+04  0.25500000920E-02 0. -1.
       -2   -1    0    0    0  501  0.00000000000E+00  0.00000000000E+00 -0.77416638109E+03  0.77416638109E+03  0.25500000920E-02 0.  1.
    10030    2    1    2    0    0  0.00000000000E+00  0.00000000000E+00  0.78511688033E+03  0.23334496425E+04  0.21974027210E+04 0.  0.
        2    1    3    3  502    0 -0.91889436410E+03 -0.59803031703E+03  0.46867296316E+03  0.11923344576E+04  0.25500000920E-02 0.  1.
       -2    1    3    3    0  502  0.91889436410E+03  0.59803031703E+03  0.31644391718E+03  0.11411151849E+04  0.25500000920E-02 0. -1.
</event>
<event>
 5   0  0.1033733E-05  0.2193956E+04  0.7818609E-02  0.8520948E-01
        1   -1    0    0  501    0  0.00000000000E+00  0.00000000000E+00  0.21709673101E+04  0.21709673101E+04  0.50400001928E-02 0. -1.
       -1   -1    0    0    0  501  0.00000000000E+00  0.00000000000E+00 -0.55429693973E+03  0.55429693975E+03  0.50400001928E-02 0.  1.
    10030    2    1    2    0    0  0.00000000000E+00  0.00000000000E+00  0.16166703704E+04  0.27252642499E+04  0.21939558212E+04 0.  0.
        5    1    3    3  502    0 -0.10454010359E+04 -0.83692737323E+02  0.12079019172E+04  0.15996615054E+04  0.46999998093E+01 0. -1.
       -5    1    3    3    0  502  0.10454010359E+04  0.83692737323E+02  0.40876845319E+03  0.11256027445E+04  0.46999998093E+01 0.  1.
</event>
<event>
 5   0  0.1007682E-05  0.2198283E+04  0.7818609E-02  0.8519143E-01
       -1   -1    0    0    0  501  0.00000000000E+00  0.00000000000E+00  0.65066511727E+03  0.65066511729E+03  0.50400001928E-02 0. -1.
        1   -1    0    0  501    0  0.00000000000E+00  0.00000000000E+00 -0.18567346576E+04  0.18567346576E+04  0.50400001928E-02 0.  1.
    10030    2    1    2    0    0  0.00000000000E+00  0.00000000000E+00 -0.12060695403E+04  0.25073997749E+04  0.21982833973E+04 0.  0.
        2    1    3    3  502    0  0.15611920418E+03 -0.52277513254E+03 -0.16913804620E+04  0.17771986136E+04  0.25500000920E-02 0.  1.
       -2    1    3    3    0  502 -0.15611920418E+03  0.52277513254E+03  0.48531092170E+03  0.73020116122E+03  0.25500000920E-02 0. -1.
</event>
<event>
 5   0  0.1005538E-05  0.2197715E+04  0.7818609E-02  0.8519380E-01
        1   -1    0    0  501    0  0.00000000000E+00  0.00000000000E+00  0.16994450986E+04  0.16994450986E+04  0.50400001928E-02 0. -1.
       -1   -1    0    0    0  501  0.00000000000E+00  0.00000000000E+00 -0.71051886396E+03  0.71051886398E+03  0.50400001928E-02 0.  1.
    10030    2    1    2    0    0  0.00000000000E+00  0.00000000000E+00  0.98892623465E+03  0.24099639626E+04  0.21977149960E+04 0.  0.
        3    1    3    3  502    0  0.10348779961E+03  0.10290353310E+03 -0.69984424624E+03  0.71489918239E+03  0.10100000352E+00 0.  1.
       -3    1    3    3    0  502 -0.10348779961E+03 -0.10290353310E+03  0.16887704809E+04  0.16950647802E+04  0.10100000352E+00 0. -1.
</event>
<event>
 5   0  0.2229552E-05  0.2193963E+04  0.7818609E-02  0.8520945E-01
       -2   -1    0    0    0  501  0.00000000000E+00  0.00000000000E+00  0.86480070448E+03  0.86480070449E+03  0.25500000920E-02 0. -1.
        2   -1    0    0  501    0  0.00000000000E+00  0.00000000000E+00 -0.13914985496E+04  0.13914985496E+04  0.25500000920E-02 0.  1.
    10030    2    1    2    0    0  0.00000000000E+00  0.00000000000E+00 -0.52669784507E+03  0.22562992541E+04  0.21939634691E+04 0.  0.
        1    1    3    3  502    0  0.38385809337E+03 -0.99943948230E+03 -0.50918598014E+03  0.11855364512E+04  0.50400001928E-02 0.  1.
       -1    1    3    3    0  502 -0.38385809337E+03  0.99943948230E+03 -0.17511864936E+02  0.10707628029E+04  0.50400001928E-02 0. -1.
</event>
<event>
 5   0  0.2284329E-05  0.2195365E+04  0.7818609E-02  0.8520360E-01
       -2   -1    0    0    0  501  0.00000000000E+00  0.00000000000E+00  0.58084782204E+03  0.58084782205E+03  0.25500000920E-02 0.  1.
        2   -1    0    0  501    0  0.00000000000E+00  0.00000000000E+00 -0.20743934500E+04  0.20743934500E+04  0.25500000920E-02 0. -1.
    10030    2    1    2    0    0  0.00000000000E+00  0.00000000000E+00 -0.14935456280E+04  0.26552412721E+04  0.21953650426E+04 0.  0.
        2    1    3    3  502    0  0.26271382505E+03 -0.54857933737E+03 -0.18519381108E+04  0.19492646330E+04  0.25500000920E-02 0. -1.
       -2    1    3    3    0  502 -0.26271382505E+03  0.54857933737E+03  0.35839248276E+03  0.70597663911E+03  0.25500000920E-02 0.  1.
</event>
<event>
 5   0  0.1005538E-05  0.2196927E+04  0.7818609E-02  0.8519708E-01
       -1   -1    0    0    0  501  0.00000000000E+00  0.00000000000E+00  0.76575141408E+03  0.76575141409E+03  0.50400001928E-02 0. -1.
        1   -1    0    0  501    0  0.00000000000E+00  0.00000000000E+00 -0.15757360655E+04  0.15757360655E+04  0.50400001928E-02 0.  1.
    10030    2    1    2    0    0  0.00000000000E+00  0.00000000000E+00 -0.80998465144E+03  0.23414874796E+04  0.21969270542E+04 0.  0.
        3    1    3    3  502    0  0.40417590081E+03 -0.90177940083E+03 -0.91619691513E+03  0.13475834089E+04  0.10100000352E+00 0.  1.
       -3    1    3    3    0  502 -0.40417590081E+03  0.90177940083E+03  0.10621226369E+03  0.99390407068E+03  0.10100000352E+00 0. -1.
</event>
<event>
 5   0  0.2229552E-05  0.2187661E+04  0.7818609E-02  0.8523581E-01
        2   -1    0    0  501    0  0.00000000000E+00  0.00000000000E+00  0.18110066542E+04  0.18110066542E+04  0.25500000920E-02 0.  1.
       -2   -1    0    0    0  501  0.00000000000E+00  0.00000000000E+00 -0.66066310285E+03  0.66066310285E+03  0.25500000920E-02 0. -1.
    10030    2    1    2    0    0  0.00000000000E+00  0.00000000000E+00  0.11503435513E+04  0.24716697570E+04  0.21876611030E+04 0.  0.
        1    1    3    3  502    0 -0.16856672283E+02  0.10315361262E+04  0.16450894902E+03  0.10447076727E+04  0.50400001928E-02 0.  1.
       -1    1    3    3    0  502  0.16856672283E+02 -0.10315361262E+04  0.98583460232E+03  0.14269620844E+04  0.50400001928E-02 0. -1.
</event>
<event>
 5   0  0.1049198E-05  0.2201428E+04  0.7818609E-02  0.8517834E-01
       -1   -1    0    0    0  501  0.00000000000E+00  0.00000000000E+00  0.90012470411E+03  0.90012470413E+03  0.50400001928E-02 0. -1.
        1   -1    0    0  501    0  0.00000000000E+00  0.00000000000E+00 -0.13460042550E+04  0.13460042550E+04  0.50400001928E-02 0.  1.
    10030    2    1    2    0    0  0.00000000000E+00  0.00000000000E+00 -0.44587955086E+03  0.22461289591E+04  0.22014283379E+04 0.  0.
        1    1    3    3  502    0 -0.93155947400E+03  0.49723002568E+03  0.94063229553E+02  0.10601361437E+04  0.50400001928E-02 0. -1.
       -1    1    3    3    0  502  0.93155947400E+03 -0.49723002568E+03 -0.53994278041E+03  0.11859928154E+04  0.50400001928E-02 0.  1.
</event>
<event>
 5   0  0.1005538E-05  0.2202138E+04  0.7818609E-02  0.8517539E-01
        1   -1    0    0  501    0  0.00000000000E+00  0.00000000000E+00  0.23070389164E+04  0.23070389164E+04  0.50400001928E-02 0.  1.
       -1   -1    0    0    0  501  0.00000000000E+00  0.00000000000E+00 -0.52550173928E+03  0.52550173931E+03  0.50400001928E-02 0. -1.
    10030    2    1    2    0    0  0.00000000000E+00  0.00000000000E+00  0.17815371771E+04  0.28325406557E+04  0.22021380186E+04 0.  0.
        3    1    3    3  502    0 -0.43557739746E+03  0.55320033059E+03 -0.19808229149E+03  0.73143344150E+03  0.10100000352E+00 0. -1.
       -3    1    3    3    0  502  0.43557739746E+03 -0.55320033059E+03  0.19796194686E+04  0.21011072142E+04  0.10100000352E+00 0.  1.
</event>
<event>
 5   0  0.2298329E-05  0.2207125E+04  0.7818609E-02  0.8515468E-01
       -2   -1    0    0    0  501  0.00000000000E+00  0.00000000000E+00  0.90747662820E+03  0.90747662820E+03  0.25500000920E-02 0.  1.
        2   -1    0    0  501    0  0.00000000000E+00  0.00000000000E+00 -0.13420184525E+04  0.13420184525E+04  0.25500000920E-02 0. -1.
    10030    2    1    2    0    0  0.00000000000E+00  0.00000000000E+00 -0.43454182426E+03  0.22494950807E+04  0.22071251711E+04 0.  0.
        4    1    3    3  502    0 -0.83176490377E+03  0.35616446532E+03  0.42665085549E+03  0.10003592089E+04  0.12699999809E+01 0.  1.
       -4    1    3    3    0  502  0.83176490377E+03 -0.35616446532E+03 -0.86119267975E+03  0.12491358717E+04  0.12699999809E+01 0. -1.
</event>
<event>
 5   0  0.8003875E-06  0.2200598E+04  0.7818609E-02  0.8518179E-01
       -4   -1    0    0    0  501  0.00000000000E+00  0.00000000000E+00  0.15062785654E+04  0.15062791008E+04  0.12699999809E+01 0.  1.
        4   -1    0    0  501    0  0.00000000000E+00  0.00000000000E+00 -0.80373971062E+03  0.80374071399E+03  0.12699999809E+01 0. -1.
    10030    2    1    2    0    0  0.00000000000E+00  0.00000000000E+00  0.70253885481E+03  0.23100198148E+04  0.22005978057E+04 0.  0.
        2    1    3    3  502    0  0.39056199991E+03 -0.94891392290E+03 -0.65566570397E+02  0.10282389236E+04  0.25500000920E-02 0. -1.
       -2    1    3    3    0  502 -0.39056199991E+03  0.94891392290E+03  0.76810542521E+03  0.12817808912E+04  0.25500000920E-02 0.  1.
</event>
<event>
 5   0  0.2229552E-05  0.2191595E+04  0.7818609E-02  0.8521935E-01
       -2   -1    0    0    0  501  0.00000000000E+00  0.00000000000E+00  0.19089478705E+04  0.19089478705E+04  0.25500000920E-02 0.  1.
        2   -1    0    0  501    0  0.00000000000E+00  0.00000000000E+00 -0.62902295041E+03  0.62902295042E+03  0.25500000920E-02 0. -1.
    10030    2    1    2    0    0  0.00000000000E+00  0.00000000000E+00  0.12799249201E+04  0.25379708209E+04  0.21915948729E+04 0.  0.
        1    1    3    3  502    0  0.23932498252E+03  0.74381262808E+03 -0.24973030802E+03  0.82030415074E+03  0.50400001928E-02 0. -1.
       -1    1    3    3    0  502 -0.23932498252E+03 -0.74381262808E+03  0.15296552281E+04  0.17176666702E+04  0.50400001928E-02 0.  1.
</event>
<event>
 5   0  0.2289708E-05  0.2208144E+04  0.7818609E-02  0.8515046E-01
        2   -1    0    0  501    0  0.00000000000E+00  0.00000000000E+00  0.13016774338E+04  0.13016774338E+04  0.25500000920E-02 0.  1.
       -2   -1    0    0    0  501  0.00000000000E+00  0.00000000000E+00 -0.93646499163E+03  0.93646499163E+03  0.25500000920E-02 0. -1.
    10030    2    1    2    0    0  0.00000000000E+00  0.00000000000E+00  0.36521244217E+03  0.22381424254E+04  0.22081443315E+04 0.  0.
        5    1    3    3  502    0  0.11184894665E+03  0.34735944654E+03  0.12387719682E+04  0.12914127346E+04  0.46999998093E+01 0.  1.
       -5    1    3    3    0  502 -0.11184894665E+03 -0.34735944654E+03 -0.87355952602E+03  0.94672969081E+03  0.46999998093E+01 0. -1.
</event>
<event>
 5   0  0.2298329E-05  0.2206371E+04  0.7818609E-02  0.8515781E-01
        2   -1    0    0  501    0  0.00000000000E+00  0.00000000000E+00  0.17464836852E+04  0.17464836852E+04  0.25500000920E-02 0. -1.
       -2   -1    0    0    0  501  0.00000000000E+00  0.00000000000E+00 -0.69683928626E+03  0.69683928627E+03  0.25500000920E-02 0.  1.
    10030    2    1    2    0    0  0.00000000000E+00  0.00000000000E+00  0.10496443989E+04  0.24433229714E+04  0.22063711788E+04 0.  0.
        4    1    3    3  502    0 -0.66771976751E+03 -0.80375128492E+03  0.91658165896E+03  0.13899602032E+04  0.12699999809E+01 0.  1.
       -4    1    3    3    0  502  0.66771976751E+03  0.80375128492E+03  0.13306273996E+03  0.10533627683E+04  0.12699999809E+01 0. -1.
</event>
<event>
 5   0  0.1005538E-05  0.2204454E+04  0.7818609E-02  0.8516577E-01
        1   -1    0    0  501    0  0.00000000000E+00  0.00000000000E+00  0.89090542612E+03  0.89090542613E+03  0.50400001928E-02 0.  1.
       -1   -1    0    0    0  501  0.00000000000E+00  0.00000000000E+00 -0.13636733263E+04  0.13636733263E+04  0.50400001928E-02 0. -1.
    10030    2    1    2    0    0  0.00000000000E+00  0.00000000000E+00 -0.47276790019E+03  0.22545787524E+04  0.22044536429E+04 0.  0.
        3    1    3    3  502    0 -0.72090810387E+03 -0.21018535235E+03 -0.10615869482E+04  0.13003281260E+04  0.10100000352E+00 0. -1.
       -3    1    3    3    0  502  0.72090810387E+03  0.21018535235E+03  0.58881904799E+03  0.95425062643E+03  0.10100000352E+00 0.  1.
</event>
<event>
 5   0  0.1005538E-05  0.2196183E+04  0.7818609E-02  0.8520018E-01
       -1   -1    0    0    0  501  0.00000000000E+00  0.00000000000E+00  0.97178034830E+03  0.97178034831E+03  0.50400001928E-02 0.  1.
        1   -1    0    0  501    0  0.00000000000E+00  0.00000000000E+00 -0.12408206096E+04  0.12408206096E+04  0.50400001928E-02 0. -1.
    10030    2    1    2    0    0  0.00000000000E+00  0.00000000000E+00 -0.26904026128E+03  0.22126009579E+04  0.21961831291E+04 0.  0.
        3    1    3    3  502    0  0.39902471946E+03  0.34012820975E+03 -0.11065629468E+04  0.12244956069E+04  0.10100000352E+00 0. -1.
       -3    1    3    3    0  502 -0.39902471946E+03 -0.34012820975E+03  0.83752268551E+03  0.98810535104E+03  0.10100000352E+00 0.  1.
</event>
<event>
 5   0  0.2319707E-05  0.2187079E+04  0.7818609E-02  0.8523826E-01
       -2   -1    0    0    0  501  0.00000000000E+00  0.00000000000E+00  0.77763564909E+03  0.77763564910E+03  0.25500000920E-02 0.  1.
        2   -1    0    0  501    0  0.00000000000E+00  0.00000000000E+00 -0.15377743979E+04  0.15377743979E+04  0.25500000920E-02 0. -1.
    10030    2    1    2    0    0  0.00000000000E+00  0.00000000000E+00 -0.76013874880E+03  0.23154100470E+04  0.21870785922E+04 0.  0.
        3    1    3    3  502    0  0.76533309674E+02 -0.98707051846E+03 -0.87171362903E+03  0.13191096305E+04  0.10100000352E+00 0. -1.
       -3    1    3    3    0  502 -0.76533309674E+02  0.98707051846E+03  0.11157488023E+03  0.99630041654E+03  0.10100000352E+00 0.  1.
</event>
<event>
 5   0  0.2298329E-05  0.2199744E+04  0.7818609E-02  0.8518534E-01
        2   -1    0    0  501    0  0.00000000000E+00  0.00000000000E+00  0.17239882252E+04  0.17239882252E+04  0.25500000920E-02 0.  1.
       -2   -1    0    0    0  501  0.00000000000E+00  0.00000000000E+00 -0.70169791206E+03  0.70169791206E+03  0.25500000920E-02 0. -1.
    10030    2    1    2    0    0  0.00000000000E+00  0.00000000000E+00  0.10222903131E+04  0.24256861373E+04  0.21997444743E+04 0.  0.
        4    1    3    3  502    0 -0.72567311632E+03 -0.82649703828E+03  0.51588798745E+03  0.12148419052E+04  0.12699999809E+01 0.  1.
       -4    1    3    3    0  502  0.72567311632E+03  0.82649703828E+03  0.50640232569E+03  0.12108442321E+04  0.12699999809E+01 0. -1.
</event>
<event>
 5   0  0.1007682E-05  0.2205915E+04  0.7818609E-02  0.8515970E-01
       -1   -1    0    0    0  501  0.00000000000E+00  0.00000000000E+00  0.91781413573E+03  0.91781413574E+03  0.50400001928E-02 0.  1.
        1   -1    0    0  501    0  0.00000000000E+00  0.00000000000E+00 -0.13254478253E+04  0.13254478253E+04  0.50400001928E-02 0. -1.
    10030    2    1    2    0    0  0.00000000000E+00  0.00000000000E+00 -0.40763368954E+03  0.22432619610E+04  0.22059145498E+04 0.  0.
        2    1    3    3  502    0  0.62618719031E+03 -0.48887038178E+03 -0.98189175869E+03  0.12630186354E+04  0.25500000920E-02 0. -1.
       -2    1    3    3    0  502 -0.62618719031E+03  0.48887038178E+03  0.57425806916E+03  0.98024332565E+03  0.25500000920E-02 0.  1.
</event>
<event>
 5   0  0.1049198E-05  0.2207041E+04  0.7818609E-02  0.8515503E-01
       -1   -1    0    0    0  501  0.00000000000E+00  0.00000000000E+00  0.11272430346E+04  0.11272430346E+04  0.50400001928E-02 0. -1.
        1   -1    0    0  501    0  0.00000000000E+00  0.00000000000E+00 -0.10802973759E+04  0.10802973759E+04  0.50400001928E-02 0.  1.
    10030    2    1    2    0    0  0.00000000000E+00  0.00000000000E+00  0.46945658701E+02  0.22075404105E+04  0.22070411798E+04 0.  0.
        1    1    3    3  502    0  0.48255339949E+03 -0.99238973936E+03  0.31381206598E+02  0.11039383852E+04  0.50400001928E-02 0. -1.
       -1    1    3    3    0  502 -0.48255339949E+03  0.99238973936E+03  0.15564452103E+02  0.11036020253E+04  0.50400001928E-02 0.  1.
</event>
<event>
 5   0  0.1007682E-05  0.2185292E+04  0.7818609E-02  0.8524575E-01
        1   -1    0    0  501    0  0.00000000000E+00  0.00000000000E+00  0.12011263023E+04  0.12011263023E+04  0.50400001928E-02 0. -1.
       -1   -1    0    0    0  501  0.00000000000E+00  0.00000000000E+00 -0.99396277447E+03  0.99396277449E+03  0.50400001928E-02 0.  1.
    10030    2    1    2    0    0  0.00000000000E+00  0.00000000000E+00  0.20716352779E+03  0.21950890768E+04  0.21852915887E+04 0.  0.
        2    1    3    3  502    0  0.73261552231E+03 -0.20763712232E+03  0.89069954963E+03  0.11718294952E+04  0.25500000920E-02 0. -1.
       -2    1    3    3    0  502 -0.73261552231E+03  0.20763712232E+03 -0.68353602184E+03  0.10232595816E+04  0.25500000920E-02 0.  1.
</event>
<event>
 5   0  0.2298329E-05  0.2205857E+04  0.7818609E-02  0.8515994E-01
        2   -1    0    0  501    0  0.00000000000E+00  0.00000000000E+00  0.20668068696E+04  0.20668068696E+04  0.25500000920E-02 0.  1.
       -2   -1    0    0    0  501  0.00000000000E+00  0.00000000000E+00 -0.58856557219E+03  0.58856557219E+03  0.25500000920E-02 0. -1.
    10030    2    1    2    0    0  0.00000000000E+00  0.00000000000E+00  0.14782412974E+04  0.26553724418E+04  0.22058570832E+04 0.  0.
        4    1    3    3  502    0 -0.74075767169E+03  0.29043571907E+03 -0.18031629407E+03  0.81583724718E+03  0.12699999809E+01 0. -1.
       -4    1    3    3    0  502  0.74075767169E+03 -0.29043571907E+03  0.16585575915E+04  0.18395351946E+04  0.12699999809E+01 0.  1.
</event>
<event>
 5   0  0.2298329E-05  0.2177491E+04  0.7818609E-02  0.8527856E-01
       -2   -1    0    0    0  501  0.00000000000E+00  0.00000000000E+00  0.90260039588E+03  0.90260039588E+03  0.25500000920E-02 0. -1.
        2   -1    0    0  501    0  0.00000000000E+00  0.00000000000E+00 -0.13132793090E+04  0.13132793090E+04  0.25500000920E-02 0.  1.
    10030    2    1    2    0    0  0.00000000000E+00  0.00000000000E+00 -0.41067891313E+03  0.22158797049E+04  0.21774906881E+04 0.  0.
        4    1    3    3  502    0  0.47505359355E+03 -0.95072100492E+03 -0.44576401079E+03  0.11524988122E+04  0.12699999809E+01 0. -1.
       -4    1    3    3    0  502 -0.47505359355E+03  0.95072100492E+03  0.35085097664E+02  0.10633808927E+04  0.12699999809E+01 0.  1.
</event>
<event>
 5   0  0.2289708E-05  0.2202714E+04  0.7818609E-02  0.8517299E-01
        2   -1    0    0  501    0  0.00000000000E+00  0.00000000000E+00  0.11001216468E+04  0.11001216468E+04  0.25500000920E-02 0. -1.
       -2   -1    0    0    0  501  0.00000000000E+00  0.00000000000E+00 -0.11025937190E+04  0.11025937190E+04  0.25500000920E-02 0.  1.
    10030    2    1    2    0    0  0.00000000000E+00  0.00000000000E+00 -0.24720721568E+01  0.22027153658E+04  0.22027139786E+04 0.  0.
        5    1    3    3  502    0 -0.68755313017E+02  0.53788674150E+02 -0.10991186033E+04  0.11025898189E+04  0.46999998093E+01 0.  1.
       -5    1    3    3    0  502  0.68755313017E+02 -0.53788674150E+02  0.10966465312E+04  0.11001255469E+04  0.46999998093E+01 0. -1.
</event>
<event>
 5   0  0.1005538E-05  0.2200277E+04  0.7818609E-02  0.8518313E-01
       -1   -1    0    0    0  501  0.00000000000E+00  0.00000000000E+00  0.75137691912E+03  0.75137691914E+03  0.50400001928E-02 0.  1.
        1   -1    0    0  501    0  0.00000000000E+00  0.00000000000E+00 -0.16107819365E+04  0.16107819365E+04  0.50400001928E-02 0. -1.
    10030    2    1    2    0    0  0.00000000000E+00  0.00000000000E+00 -0.85940501740E+03  0.23621588557E+04  0.22002766816E+04 0.  0.
        3    1    3    3  502    0  0.18073016719E+02  0.48495774607E+03  0.63025428658E+03  0.79544398003E+03  0.10100000352E+00 0.  1.
       -3    1    3    3    0  502 -0.18073016719E+02 -0.48495774607E+03 -0.14896593040E+04  0.15667148756E+04  0.10100000352E+00 0. -1.
</event>
<event>
 5   0  0.1007682E-05  0.2199941E+04  0.7818609E-02  0.8518453E-01
       -1   -1    0    0    0  501  0.00000000000E+00  0.00000000000E+00  0.96045089593E+03  0.96045089594E+03  0.50400001928E-02 0. -1.
        1   -1    0    0  501    0  0.00000000000E+00  0.00000000000E+00 -0.12597574391E+04  0.12597574391E+04  0.50400001928E-02 0.  1.
    10030    2    1    2    0    0  0.00000000000E+00  0.00000000000E+00 -0.29930654314E+03  0.22202083350E+04  0.21999410547E+04 0.  0.
        2    1    3    3  502    0 -0.67650278557E+02  0.82231041787E+02  0.95523716675E+03  0.96115375938E+03  0.25500000920E-02 0. -1.
       -2    1    3    3    0  502  0.67650278557E+02 -0.82231041787E+02 -0.12545437099E+04  0.12590545756E+04  0.25500000920E-02 0.  1.
</event>
<event>
 5   0  0.2229552E-05  0.2198427E+04  0.7818609E-02  0.8519083E-01
        2   -1    0    0  501    0  0.00000000000E+00  0.00000000000E+00  0.10321096255E+04  0.10321096255E+04  0.25500000920E-02 0. -1.
       -2   -1    0    0    0  501  0.00000000000E+00  0.00000000000E+00 -0.11706800427E+04  0.11706800427E+04  0.25500000920E-02 0.  1.
    10030    2    1    2    0    0  0.00000000000E+00  0.00000000000E+00 -0.13857041715E+03  0.22027896682E+04  0.21984268380E+04 0.  0.
        1    1    3    3  502    0 -0.11557670007E+03  0.39622121526E+03  0.95152063022E+03  0.10371792202E+04  0.50400001928E-02 0. -1.
       -1    1    3    3    0  502  0.11557670007E+03 -0.39622121526E+03 -0.10900910474E+04  0.11656104480E+04  0.50400001928E-02 0.  1.
</event>
<event>
 5   0  0.1071208E-05  0.2196660E+04  0.7818609E-02  0.8519820E-01
       -1   -1    0    0    0  501  0.00000000000E+00  0.00000000000E+00  0.78262909157E+03  0.78262909159E+03  0.50400001928E-02 0.  1.
        1   -1    0    0  501    0  0.00000000000E+00  0.00000000000E+00 -0.15413800972E+04  0.15413800972E+04  0.50400001928E-02 0. -1.
    10030    2    1    2    0    0  0.00000000000E+00  0.00000000000E+00 -0.75875100563E+03  0.23240091888E+04  0.21966601060E+04 0.  0.
        4    1    3    3  502    0 -0.81431708423E+03  0.65164665076E+03 -0.74368069176E+03  0.12809442827E+04  0.12699999809E+01 0. -1.
       -4    1    3    3    0  502  0.81431708423E+03 -0.65164665076E+03 -0.15070313869E+02  0.10430649061E+04  0.12699999809E+01 0.  1.
</event>
<event>
 5   0  0.2298329E-05  0.2164404E+04  0.7818609E-02  0.8533392E-01
        2   -1    0    0  501    0  0.00000000000E+00  0.00000000000E+00  0.14783504607E+04  0.14783504607E+04  0.25500000920E-02 0. -1.
       -2   -1    0    0    0  501  0.00000000000E+00  0.00000000000E+00 -0.79220811966E+03  0.79220811967E+03  0.25500000920E-02 0.  1.
    10030    2    1    2    0    0  0.00000000000E+00  0.00000000000E+00  0.68614234106E+03  0.22705585804E+04  0.21644040646E+04 0.  0.
        4    1    3    3  502    0 -0.73829664412E+03 -0.42518769905E+03 -0.35695996842E+03  0.92373618858E+03  0.12699999809E+01 0.  1.
       -4    1    3    3    0  502  0.73829664412E+03  0.42518769905E+03  0.10431023095E+04  0.13468223918E+04  0.12699999809E+01 0. -1.
</event>
<event>
 5   0  0.2284329E-05  0.2206708E+04  0.7818609E-02  0.8515641E-01
        2   -1    0    0  501    0  0.00000000000E+00  0.00000000000E+00  0.95373414705E+03  0.95373414706E+03  0.25500000920E-02 0. -1.
       -2   -1    0    0    0  501  0.00000000000E+00  0.00000000000E+00 -0.12764457488E+04  0.12764457488E+04  0.25500000920E-02 0.  1.
    10030    2    1    2    0    0  0.00000000000E+00  0.00000000000E+00 -0.32271160170E+03  0.22301798958E+04  0.22067078624E+04 0.  0.
        2    1    3    3  502    0  0.15728364643E+03 -0.82449149777E+03 -0.88511951538E+03  0.12198200408E+04  0.25500000920E-02 0.  1.
       -2    1    3    3    0  502 -0.15728364643E+03  0.82449149777E+03  0.56240791368E+03  0.10103598551E+04  0.25500000920E-02 0. -1.
</event>
<event>
 5   0  0.1071208E-05  0.2192963E+04  0.7818609E-02  0.8521363E-01
        1   -1    0    0  501    0  0.00000000000E+00  0.00000000000E+00  0.15409651401E+04  0.15409651401E+04  0.50400001928E-02 0.  1.
       -1   -1    0    0    0  501  0.00000000000E+00  0.00000000000E+00 -0.78020677842E+03  0.78020677844E+03  0.50400001928E-02 0. -1.
    10030    2    1    2    0    0  0.00000000000E+00  0.00000000000E+00  0.76075836163E+03  0.23211719185E+04  0.21929627882E+04 0.  0.
        4    1    3    3  502    0 -0.93377989373E+02 -0.93151389307E+03  0.98456855221E+03  0.13586075330E+04  0.12699999809E+01 0.  1.
       -4    1    3    3    0  502  0.93377989373E+02  0.93151389307E+03 -0.22381019058E+03  0.96256438548E+03  0.12699999809E+01 0. -1.
</event>
<event>
 5   0  0.2298329E-05  0.2216867E+04  0.7818609E-02  0.8511440E-01
       -2   -1    0    0    0  501  0.00000000000E+00  0.00000000000E+00  0.55248763079E+03  0.55248763079E+03  0.25500000920E-02 0.  1.
        2   -1    0    0  501    0  0.00000000000E+00  0.00000000000E+00 -0.22238045689E+04  0.22238045689E+04  0.25500000920E-02 0. -1.
    10030    2    1    2    0    0  0.00000000000E+00  0.00000000000E+00 -0.16713169381E+04  0.27762921997E+04  0.22168667236E+04 0.  0.
        4    1    3    3  502    0 -0.49509946882E+03  0.91505001213E+03 -0.13144802185E+04  0.16763949017E+04  0.12699999809E+01 0.  1.
       -4    1    3    3    0  502  0.49509946882E+03 -0.91505001213E+03 -0.35683671957E+03  0.10998972980E+04  0.12699999809E+01 0. -1.
</event>
<event>
 5   0  0.1005538E-05  0.2195479E+04  0.7818609E-02  0.8520312E-01
        1   -1    0    0  501    0  0.00000000000E+00  0.00000000000E+00  0.94653645660E+03  0.94653645661E+03  0.50400001928E-02 0.  1.
       -1   -1    0    0    0  501  0.00000000000E+00  0.00000000000E+00 -0.12730957100E+04  0.12730957100E+04  0.50400001928E-02 0. -1.
    10030    2    1    2    0    0  0.00000000000E+00  0.00000000000E+00 -0.32655925340E+03  0.22196321666E+04  0.21954785376E+04 0.  0.
        3    1    3    3  502    0  0.38557735587E+03 -0.99792042865E+03  0.85427598613E+02  0.10732254954E+04  0.10100000352E+00 0.  1.
       -3    1    3    3    0  502 -0.38557735587E+03  0.99792042865E+03 -0.41198685201E+03  0.11464066712E+04  0.10100000352E+00 0. -1.
</event>
<event>
 5   0  0.2289708E-05  0.2196611E+04  0.7818609E-02  0.8519840E-01
        2   -1    0    0  501    0  0.00000000000E+00  0.00000000000E+00  0.13391625508E+04  0.13391625508E+04  0.25500000920E-02 0.  1.
       -2   -1    0    0    0  501  0.00000000000E+00  0.00000000000E+00 -0.90076840917E+03  0.90076840917E+03  0.25500000920E-02 0. -1.
    10030    2    1    2    0    0  0.00000000000E+00  0.00000000000E+00  0.43839414159E+03  0.22399309599E+04  0.21966113179E+04 0.  0.
        5    1    3    3  502    0 -0.17847359601E+03  0.10505003678E+04  0.49062182442E+03  0.11730881092E+04  0.46999998093E+01 0.  1.
       -5    1    3    3    0  502  0.17847359601E+03 -0.10505003678E+04 -0.52227682832E+02  0.10668428507E+04  0.46999998093E+01 0. -1.
</event>
<event>
 5   0  0.2289708E-05  0.2186440E+04  0.7818609E-02  0.8524093E-01
        2   -1    0    0  501    0  0.00000000000E+00  0.00000000000E+00  0.14306174713E+04  0.14306174713E+04  0.25500000920E-02 0.  1.
       -2   -1    0    0    0  501  0.00000000000E+00  0.00000000000E+00 -0.83539428295E+03  0.83539428295E+03  0.25500000920E-02 0. -1.
    10030    2    1    2    0    0  0.00000000000E+00  0.00000000000E+00  0.59522318835E+03  0.22660117542E+04  0.21864397148E+04 0.  0.
        5    1    3    3  502    0 -0.80663867340E+03 -0.61209649167E+03 -0.12942714947E+03  0.10208337482E+04  0.46999998093E+01 0. -1.
       -5    1    3    3    0  502  0.80663867340E+03  0.61209649167E+03  0.72465033782E+03  0.12451780060E+04  0.46999998093E+01 0.  1.
</event>
<event>
 5   0  0.2229552E-05  0.2195636E+04  0.7818609E-02  0.8520247E-01
        2   -1    0    0  501    0  0.00000000000E+00  0.00000000000E+00  0.26399776519E+04  0.26399776519E+04  0.25500000920E-02 0.  1.
       -2   -1    0    0    0  501  0.00000000000E+00  0.00000000000E+00 -0.45652059813E+03  0.45652059814E+03  0.25500000920E-02 0. -1.
    10030    2    1    2    0    0  0.00000000000E+00  0.00000000000E+00  0.21834570538E+04  0.30964982500E+04  0.21956358320E+04 0.  0.
        1    1    3    3  502    0 -0.45731931542E+03 -0.53852205712E+03  0.22767616148E+04  0.23838604013E+04  0.50400001928E-02 0.  1.
       -1    1    3    3    0  502  0.45731931542E+03  0.53852205712E+03 -0.93304561063E+02  0.71263784870E+03  0.50400001928E-02 0. -1.
</event>
<event>
 5   0  0.1071208E-05  0.2189673E+04  0.7818609E-02  0.8522739E-01
        1   -1    0    0  501    0  0.00000000000E+00  0.00000000000E+00  0.13893240811E+04  0.13893240811E+04  0.50400001928E-02 0. -1.
       -1   -1    0    0    0  501  0.00000000000E+00  0.00000000000E+00 -0.86276998796E+03  0.86276998797E+03  0.50400001928E-02 0.  1.
    10030    2    1    2    0    0  0.00000000000E+00  0.00000000000E+00  0.52655409315E+03  0.22520940691E+04  0.21896731452E+04 0.  0.
        4    1    3    3  502    0  0.11360224682E+03  0.60322282424E+03  0.11956980301E+04  0.13440530637E+04  0.12699999809E+01 0. -1.
       -4    1    3    3    0  502 -0.11360224682E+03 -0.60322282424E+03 -0.66914393691E+03  0.90804100534E+03  0.12699999809E+01 0.  1.
</event>
<event>
 5   0  0.1005538E-05  0.2197899E+04  0.7818609E-02  0.8519303E-01
        1   -1    0    0  501    0  0.00000000000E+00  0.00000000000E+00  0.18285661492E+04  0.18285661492E+04  0.50400001928E-02 0. -1.
       -1   -1    0    0    0  501  0.00000000000E+00  0.00000000000E+00 -0.66045716943E+03  0.66045716945E+03  0.50400001928E-02 0.  1.
    10030    2    1    2    0    0  0.00000000000E+00  0.00000000000E+00  0.11681089797E+04  0.24890233186E+04  0.21978986537E+04 0.  0.
        3    1    3    3  502    0  0.71831236201E+03  0.20493737289E+03  0.14968713020E+04  0.16729003800E+04  0.10100000352E+00 0. -1.
       -3    1    3    3    0  502 -0.71831236201E+03 -0.20493737289E+03 -0.32876232231E+03  0.81612293866E+03  0.10100000352E+00 0.  1.
</event>
<event>
 5   0  0.1005538E-05  0.2203764E+04  0.7818609E-02  0.8516863E-01
       -1   -1    0    0    0  501  0.00000000000E+00  0.00000000000E+00  0.63624950367E+03  0.63624950369E+03  0.50400001928E-02 0. -1.
        1   -1    0    0  501    0  0.00000000000E+00  0.00000000000E+00 -0.19082823122E+04  0.19082823122E+04  0.50400001928E-02 0.  1.
    10030    2    1    2    0    0  0.00000000000E+00  0.00000000000E+00 -0.12720328085E+04  0.25445318159E+04  0.22037637569E+04 0.  0.
        3    1    3    3  502    0 -0.86517787871E+03 -0.60367366748E+03 -0.10033067493E+04  0.14558774337E+04  0.10100000352E+00 0.  1.
       -3    1    3    3    0  502  0.86517787871E+03  0.60367366748E+03 -0.26872605917E+03  0.10886543821E+04  0.10100000352E+00 0. -1.
</event>
<event>
 5   0  0.2298329E-05  0.2214826E+04  0.7818609E-02  0.8512283E-01
        2   -1    0    0  501    0  0.00000000000E+00  0.00000000000E+00  0.18577448672E+04  0.18577448672E+04  0.25500000920E-02 0. -1.
       -2   -1    0    0    0  501  0.00000000000E+00  0.00000000000E+00 -0.66013534786E+03  0.66013534787E+03  0.25500000920E-02 0.  1.
    10030    2    1    2    0    0  0.00000000000E+00  0.00000000000E+00  0.11976095193E+04  0.25178802151E+04  0.22148255499E+04 0.  0.
        4    1    3    3  502    0  0.28869036469E+03  0.10047036008E+04  0.10143157331E+04  0.14565745677E+04  0.12699999809E+01 0. -1.
       -4    1    3    3    0  502 -0.28869036469E+03 -0.10047036008E+04  0.18329378623E+03  0.10613056473E+04  0.12699999809E+01 0.  1.
</event>
<event>
 5   0  0.1033733E-05  0.2200991E+04  0.7818609E-02  0.8518016E-01
       -1   -1    0    0    0  501  0.00000000000E+00  0.00000000000E+00  0.31494766121E+04  0.31494766121E+04  0.50400001928E-02 0. -1.
        1   -1    0    0  501    0  0.00000000000E+00  0.00000000000E+00 -0.38453684505E+03  0.38453684508E+03  0.50400001928E-02 0.  1.
    10030    2    1    2    0    0  0.00000000000E+00  0.00000000000E+00  0.27649397670E+04  0.35340134572E+04  0.22009905043E+04 0.  0.
        5    1    3    3  502    0  0.36188842987E+03 -0.24338364707E+03  0.30047842400E+04  0.30362722628E+04  0.46999998093E+01 0. -1.
       -5    1    3    3    0  502 -0.36188842987E+03  0.24338364707E+03 -0.23984447293E+03  0.49774119432E+03  0.46999998093E+01 0.  1.
</event>
<event>
 5   0  0.1071208E-05  0.2198167E+04  0.7818609E-02  0.8519191E-01
        1   -1    0    0  501    0  0.00000000000E+00  0.00000000000E+00  0.10414105851E+04  0.10414105852E+04  0.50400001928E-02 0.  1.
       -1   -1    0    0    0  501  0.00000000000E+00  0.00000000000E+00 -0.11599504976E+04  0.11599504976E+04  0.50400001928E-02 0. -1.
    10030    2    1    2    0    0  0.00000000000E+00  0.00000000000E+00 -0.11853991248E+03  0.22013610828E+04  0.21981671697E+04 0.  0.
        4    1    3    3  502    0  0.81548322863E+03 -0.54116602634E+03 -0.56010614733E+03  0.11276498009E+04  0.12699999809E+01 0. -1.
       -4    1    3    3    0  502 -0.81548322863E+03  0.54116602634E+03  0.44156623486E+03  0.10737112819E+04  0.12699999809E+01 0.  1.
</event>
<event>
 5   0  0.1007682E-05  0.2196582E+04  0.7818609E-02  0.8519852E-01
        1   -1    0    0  501    0  0.00000000000E+00  0.00000000000E+00  0.76827866033E+03  0.76827866035E+03  0.50400001928E-02 0. -1.
       -1   -1    0    0    0  501  0.00000000000E+00  0.00000000000E+00 -0.15700597579E+04  0.15700597579E+04  0.50400001928E-02 0.  1.
    10030    2    1    2    0    0  0.00000000000E+00  0.00000000000E+00 -0.80178109754E+03  0.23383384182E+04  0.21965822611E+04 0.  0.
        2    1    3    3  502    0 -0.43462968230E+03 -0.25042900567E+03 -0.14409938328E+04  0.15258049921E+04  0.25500000920E-02 0.  1.
       -2    1    3    3    0  502  0.43462968230E+03  0.25042900567E+03  0.63921273530E+03  0.81253342614E+03  0.25500000920E-02 0. -1.
</event>
<event>
 5   0  0.2319707E-05  0.2197024E+04  0.7818609E-02  0.8519668E-01
        2   -1    0    0  501    0  0.00000000000E+00  0.00000000000E+00  0.11857084682E+04  0.11857084682E+04  0.25500000920E-02 0. -1.
       -2   -1    0    0    0  501  0.00000000000E+00  0.00000000000E+00 -0.10177274621E+04  0.10177274621E+04  0.25500000920E-02 0.  1.
    10030    2    1    2    0    0  0.00000000000E+00  0.00000000000E+00  0.16798100614E+03  0.22034359304E+04  0.21970235048E+04 0.  0.
        3    1    3    3  502    0  0.40985182815E+03  0.82693066223E+03 -0.51351274592E+03  0.10561667442E+04  0.10100000352E+00 0.  1.
       -3    1    3    3    0  502 -0.40985182815E+03 -0.82693066223E+03  0.68149375205E+03  0.11472691861E+04  0.10100000352E+00 0. -1.
</event>
<event>
 5   0  0.2298329E-05  0.2182560E+04  0.7818609E-02  0.8525722E-01
        2   -1    0    0  501    0  0.00000000000E+00  0.00000000000E+00  0.14319164834E+04  0.14319164834E+04  0.25500000920E-02 0.  1.
       -2   -1    0    0    0  501  0.00000000000E+00  0.00000000000E+00 -0.83167715352E+03  0.83167715352E+03  0.25500000920E-02 0. -1.
    10030    2    1    2    0    0  0.00000000000E+00  0.00000000000E+00  0.60023932986E+03  0.22635936369E+04  0.21825601710E+04 0.  0.
        4    1    3    3  502    0 -0.30575072163E+03  0.82340590906E+03 -0.37154350498E+03  0.95369124136E+03  0.12699999809E+01 0. -1.
       -4    1    3    3    0  502  0.30575072163E+03 -0.82340590906E+03  0.97178283484E+03  0.13099023955E+04  0.12699999809E+01 0.  1.
</event>
<event>
 5   0  0.2229552E-05  0.2194894E+04  0.7818609E-02  0.8520556E-01
        2   -1    0    0  501    0  0.00000000000E+00  0.00000000000E+00  0.23354281629E+04  0.23354281629E+04  0.25500000920E-02 0.  1.
       -2   -1    0    0    0  501  0.00000000000E+00  0.00000000000E+00 -0.51570396752E+03  0.51570396752E+03  0.25500000920E-02 0. -1.
    10030    2    1    2    0    0  0.00000000000E+00  0.00000000000E+00  0.18197241954E+04  0.28511321304E+04  0.21948936826E+04 0.  0.
        1    1    3    3  502    0 -0.20900541634E+03 -0.63852639028E+03  0.20370558224E+04  0.21449931559E+04  0.50400001928E-02 0.  1.
       -1    1    3    3    0  502  0.20900541634E+03  0.63852639028E+03 -0.21733162707E+03  0.70613897449E+03  0.50400001928E-02 0. -1.
</event>
<event>
 5   0  0.2319707E-05  0.2199306E+04  0.7818609E-02  0.8518717E-01
       -2   -1    0    0    0  501  0.00000000000E+00  0.00000000000E+00  0.69669786325E+03  0.69669786325E+03  0.25500000920E-02 0.  1.
        2   -1    0    0  501    0  0.00000000000E+00  0.00000000000E+00 -0.17356688865E+04  0.17356688865E+04  0.25500000920E-02 0. -1.
    10030    2    1    2    0    0  0.00000000000E+00  0.00000000000E+00 -0.10389710233E+04  0.24323667498E+04  0.21993060765E+04 0.  0.
        3    1    3    3  502    0 -0.30180704168E+03 -0.75690276561E+03  0.29717250248E+03  0.86735275029E+03  0.10100000352E+00 0.  1.
       -3    1    3    3    0  502  0.30180704168E+03  0.75690276561E+03 -0.13361435258E+04  0.15650139995E+04  0.10100000352E+00 0. -1.
</event>
<event>
 5   0  0.1033733E-05  0.2198972E+04  0.7818609E-02  0.8518856E-01
        1   -1    0    0  501    0  0.00000000000E+00  0.00000000000E+00  0.85288395763E+03  0.85288395764E+03  0.50400001928E-02 0. -1.
       -1   -1    0    0    0  501  0.00000000000E+00  0.00000000000E+00 -0.14173908598E+04  0.14173908599E+04  0.50400001928E-02 0.  1.
    10030    2    1    2    0    0  0.00000000000E+00  0.00000000000E+00 -0.56450690221E+03  0.22702748175E+04  0.21989724201E+04 0.  0.
        5    1    3    3  502    0  0.92727769811E+03 -0.51425885948E+03  0.17935166075E+02  0.10604951033E+04  0.46999998093E+01 0.  1.
       -5    1    3    3    0  502 -0.92727769811E+03  0.51425885948E+03 -0.58244206829E+03  0.12097797142E+04  0.46999998093E+01 0. -1.
</event>
<event>
 5   0  0.1071208E-05  0.2202776E+04  0.7818609E-02  0.8517273E-01
       -1   -1    0    0    0  501  0.00000000000E+00  0.00000000000E+00  0.91763292491E+03  0.91763292492E+03  0.50400001928E-02 0. -1.
        1   -1    0    0  501    0  0.00000000000E+00  0.00000000000E+00 -0.13219401778E+04  0.13219401778E+04  0.50400001928E-02 0.  1.
    10030    2    1    2    0    0  0.00000000000E+00  0.00000000000E+00 -0.40430725292E+03  0.22395731028E+04  0.22027762773E+04 0.  0.
        4    1    3    3  502    0 -0.10174769024E+04 -0.34218088565E+03 -0.45265782083E+03  0.11650097515E+04  0.12699999809E+01 0.  1.
       -4    1    3    3    0  502  0.10174769024E+04  0.34218088565E+03  0.48350567915E+02  0.10745633512E+04  0.12699999809E+01 0. -1.
</event>
<event>
 5   0  0.1033733E-05  0.2188241E+04  0.7818609E-02  0.8523338E-01
       -1   -1    0    0    0  501  0.00000000000E+00  0.00000000000E+00  0.14140213102E+04  0.14140213103E+04  0.50400001928E-02 0.  1.
        1   -1    0    0  501    0  0.00000000000E+00  0.00000000000E+00 -0.84659272537E+03  0.84659272539E+03  0.50400001928E-02 0. -1.
    10030    2    1    2    0    0  0.00000000000E+00  0.00000000000E+00  0.56742858487E+03  0.22606140356E+04  0.21882414445E+04 0.  0.
        5    1    3    3  502    0  0.17135573369E+03  0.10794104900E+04  0.23115662322E+03  0.11171147066E+04  0.46999998093E+01 0. -1.
       -5    1    3    3    0  502 -0.17135573369E+03 -0.10794104900E+04  0.33627196165E+03  0.11434993290E+04  0.46999998093E+01 0.  1.
</event>
<event>
 5   0  0.1049198E-05  0.2194543E+04  0.7818609E-02  0.8520703E-01
        1   -1    0    0  501    0  0.00000000000E+00  0.00000000000E+00  0.14031678222E+04  0.14031678222E+04  0.50400001928E-02 0.  1.
       -1   -1    0    0    0  501  0.00000000000E+00  0.00000000000E+00 -0.85806143689E+03  0.85806143690E+03  0.50400001928E-02 0. -1.
    10030    2    1    2    0    0  0.00000000000E+00  0.00000000000E+00  0.54510638532E+03  0.22612292591E+04  0.21945425015E+04 0.  0.
        1    1    3    3  502    0  0.10330577358E+04  0.32490127892E+03  0.45465818451E+03  0.11745140234E+04  0.50400001928E-02 0.  1.
       -1    1    3    3    0  502 -0.10330577358E+04 -0.32490127892E+03  0.90448200813E+02  0.10867152357E+04  0.50400001928E-02 0. -1.
</event>
<event>
 5   0  0.2298329E-05  0.2199846E+04  0.7818609E-02  0.8518492E-01
       -2   -1    0    0    0  501  0.00000000000E+00  0.00000000000E+00  0.48187382378E+03  0.48187382379E+03  0.25500000920E-02 0. -1.
        2   -1    0    0  501    0  0.00000000000E+00  0.00000000000E+00 -0.25106799313E+04  0.25106799313E+04  0.25500000920E-02 0.  1.
    10030    2    1    2    0    0  0.00000000000E+00  0.00000000000E+00 -0.20288061076E+04  0.29925537551E+04  0.21998463026E+04 0.  0.
        4    1    3    3  502    0  0.38777858615E+03  0.85993658224E+02  0.38090572542E+03  0.55032529079E+03  0.12699999809E+01 0. -1.
       -4    1    3    3    0  502 -0.38777858615E+03 -0.85993658224E+02 -0.24097118330E+04  0.24422284643E+04  0.12699999809E+01 0.  1.
</event>
<event>
 5   0  0.2229552E-05  0.2187289E+04  0.7818609E-02  0.8523738E-01
       -2   -1    0    0    0  501  0.00000000000E+00  0.00000000000E+00  0.54882505531E+03  0.54882505531E+03  0.25500000920E-02 0. -1.
        2   -1    0    0  501    0  0.00000000000E+00  0.00000000000E+00 -0.21793064111E+04  0.21793064111E+04  0.25500000920E-02 0.  1.
    10030    2    1    2    0    0  0.00000000000E+00  0.00000000000E+00 -0.16304813558E+04  0.27281314664E+04  0.21872886976E+04 0.  0.
        1    1    3    3  502    0 -0.32604283445E+03  0.34693471925E+03 -0.20432694099E+04  0.20980032199E+04  0.50400001928E-02 0.  1.
       -1    1    3    3    0  502  0.32604283445E+03 -0.34693471925E+03  0.41278805414E+03  0.63012824646E+03  0.50400001928E-02 0. -1.
</event>
<event>
 5   0  0.2284329E-05  0.2210289E+04  0.7818609E-02  0.8514158E-01
        2   -1    0    0  501    0  0.00000000000E+00  0.00000000000E+00  0.15356250647E+04  0.15356250647E+04  0.25500000920E-02 0. -1.
       -2   -1    0    0    0  501  0.00000000000E+00  0.00000000000E+00 -0.79534046546E+03  0.79534046546E+03  0.25500000920E-02 0.  1.
    10030    2    1    2    0    0  0.00000000000E+00  0.00000000000E+00  0.74028459925E+03  0.23309655302E+04  0.22102893510E+04 0.  0.
        2    1    3    3  502    0  0.68895345273E+03 -0.70168960295E+03 -0.16169235347E+03  0.99657893620E+03  0.25500000920E-02 0.  1.
       -2    1    3    3    0  502 -0.68895345273E+03  0.70168960295E+03  0.90197695273E+03  0.13343865940E+04  0.25500000920E-02 0. -1.
</event>
<event>
 5   0  0.1005538E-05  0.2232672E+04  0.7818609E-02  0.8504951E-01
       -1   -1    0    0    0  501  0.00000000000E+00  0.00000000000E+00  0.95677500834E+03  0.95677500835E+03  0.50400001928E-02 0. -1.
        1   -1    0    0  501    0  0.00000000000E+00  0.00000000000E+00 -0.13025069581E+04  0.13025069581E+04  0.50400001928E-02 0.  1.
    10030    2    1    2    0    0  0.00000000000E+00  0.00000000000E+00 -0.34573194978E+03  0.22592819665E+04  0.22326720366E+04 0.  0.
        3    1    3    3  502    0  0.22212717252E+03 -0.66711616054E+03  0.70454470165E+03  0.99537314573E+03  0.10100000352E+00 0. -1.
       -3    1    3    3    0  502 -0.22212717252E+03  0.66711616054E+03 -0.10502766514E+04  0.12639088207E+04  0.10100000352E+00 0.  1.
</event>
<event>
 5   0  0.2319707E-05  0.2198871E+04  0.7818609E-02  0.8518898E-01
       -2   -1    0    0    0  501  0.00000000000E+00  0.00000000000E+00  0.10931046109E+04  0.10931046109E+04  0.25500000920E-02 0.  1.
        2   -1    0    0  501    0  0.00000000000E+00  0.00000000000E+00 -0.11058027408E+04  0.11058027408E+04  0.25500000920E-02 0. -1.
    10030    2    1    2    0    0  0.00000000000E+00  0.00000000000E+00 -0.12698129848E+02  0.21989073517E+04  0.21988706872E+04 0.  0.
        3    1    3    3  502    0 -0.22443080234E+03  0.70681253002E+03  0.80533245961E+03  0.10947664218E+04  0.10100000352E+00 0.  1.
       -3    1    3    3    0  502  0.22443080234E+03 -0.70681253002E+03 -0.81803058946E+03  0.11041409299E+04  0.10100000352E+00 0. -1.
</event>
<event>
 5   0  0.2289708E-05  0.2202146E+04  0.7818609E-02  0.8517536E-01
       -2   -1    0    0    0  501  0.00000000000E+00  0.00000000000E+00  0.64565221276E+03  0.64565221277E+03  0.25500000920E-02 0.  1.
        2   -1    0    0  501    0  0.00000000000E+00  0.00000000000E+00 -0.18777313279E+04  0.18777313279E+04  0.25500000920E-02 0. -1.
    10030    2    1    2    0    0  0.00000000000E+00  0.00000000000E+00 -0.12320791152E+04  0.25233835407E+04  0.22021456690E+04 0.  0.
        5    1    3    3  502    0 -0.37234456015E+02  0.10805202354E+04 -0.37724374765E+03  0.11450962051E+04  0.46999998093E+01 0. -1.
       -5    1    3    3    0  502  0.37234456015E+02 -0.10805202354E+04 -0.85483536754E+03  0.13782873356E+04  0.46999998093E+01 0.  1.
</event>
<event>
 5   0  0.2229552E-05  0.2195731E+04  0.7818609E-02  0.8520207E-01
        2   -1    0    0  501    0  0.00000000000E+00  0.00000000000E+00  0.23742716388E+04  0.23742716388E+04  0.25500000920E-02 0.  1.
       -2   -1    0    0    0  501  0.00000000000E+00  0.00000000000E+00 -0.50765410904E+03  0.50765410905E+03  0.25500000920E-02 0. -1.
    10030    2    1    2    0    0  0.00000000000E+00  0.00000000000E+00  0.18666175298E+04  0.28819257479E+04  0.21957310887E+04 0.  0.
        1    1    3    3  502    0  0.92972689974E+03 -0.10309779241E+03  0.17899905397E+03  0.95239798626E+03  0.50400001928E-02 0. -1.
       -1    1    3    3    0  502 -0.92972689974E+03  0.10309779241E+03  0.16876184758E+04  0.19295277616E+04  0.50400001928E-02 0.  1.
</event>
<event>
 5   0  0.1005538E-05  0.2205459E+04  0.7818609E-02  0.8516159E-01
       -1   -1    0    0    0  501  0.00000000000E+00  0.00000000000E+00  0.82864779431E+03  0.82864779432E+03  0.50400001928E-02 0.  1.
        1   -1    0    0  501    0  0.00000000000E+00  0.00000000000E+00 -0.14674664896E+04  0.14674664896E+04  0.50400001928E-02 0. -1.
    10030    2    1    2    0    0  0.00000000000E+00  0.00000000000E+00 -0.63881869532E+03  0.22961142840E+04  0.22054594713E+04 0.  0.
        3    1    3    3  502    0 -0.83745190322E+03  0.69854658222E+03 -0.48959046130E+03  0.11954044704E+04  0.10100000352E+00 0.  1.
       -3    1    3    3    0  502  0.83745190322E+03 -0.69854658222E+03 -0.14922823402E+03  0.11007098136E+04  0.10100000352E+00 0. -1.
</event>
<event>
 5   0  0.1071208E-05  0.2202404E+04  0.7818609E-02  0.8517428E-01
       -1   -1    0    0    0  501  0.00000000000E+00  0.00000000000E+00  0.79774387578E+03  0.79774387579E+03  0.50400001928E-02 0.  1.
        1   -1    0    0  501    0  0.00000000000E+00  0.00000000000E+00 -0.15200944192E+04  0.15200944192E+04  0.50400001928E-02 0. -1.
    10030    2    1    2    0    0  0.00000000000E+00  0.00000000000E+00 -0.72235054343E+03  0.23178382950E+04  0.22024041532E+04 0.  0.
        4    1    3    3  502    0 -0.67887865177E+03 -0.42466905111E+03  0.43437109586E+03  0.91098841300E+03  0.12699999809E+01 0.  1.
       -4    1    3    3    0  502  0.67887865177E+03  0.42466905111E+03 -0.11567216393E+04  0.14068498820E+04  0.12699999809E+01 0. -1.
</event>
<event>
 5   0  0.1005538E-05  0.2196548E+04  0.7818609E-02  0.8519866E-01
       -1   -1    0    0    0  501  0.00000000000E+00  0.00000000000E+00  0.85268389950E+03  0.85268389952E+03  0.50400001928E-02 0.  1.
        1   -1    0    0  501    0  0.00000000000E+00  0.00000000000E+00 -0.14145990538E+04  0.14145990539E+04  0.50400001928E-02 0. -1.
    10030    2    1    2    0    0  0.00000000000E+00  0.00000000000E+00 -0.56191515434E+03  0.22672829534E+04  0.21965480532E+04 0.  0.
        3    1    3    3  502    0  0.49034383531E+02  0.10593064904E+03 -0.14081778818E+04  0.14130076539E+04  0.10100000352E+00 0. -1.
       -3    1    3    3    0  502 -0.49034383531E+02 -0.10593064904E+03  0.84626272743E+03  0.85427529943E+03  0.10100000352E+00 0.  1.
</event>
<event>
 5   0  0.2298329E-05  0.2208747E+04  0.7818609E-02  0.8514796E-01
        2   -1    0    0  501    0  0.00000000000E+00  0.00000000000E+00  0.11481651294E+04  0.11481651294E+04  0.25500000920E-02 0. -1.
       -2   -1    0    0    0  501  0.00000000000E+00  0.00000000000E+00 -0.10622524006E+04  0.10622524006E+04  0.25500000920E-02 0.  1.
    10030    2    1    2    0    0  0.00000000000E+00  0.00000000000E+00  0.85912728837E+02  0.22104175300E+04  0.22087473056E+04 0.  0.
        4    1    3    3  502    0 -0.32264588571E+03 -0.90681416838E+03 -0.49895772935E+03  0.10841460843E+04  0.12699999809E+01 0.  1.
       -4    1    3    3    0  502  0.32264588571E+03  0.90681416838E+03  0.58487045819E+03  0.11262714457E+04  0.12699999809E+01 0. -1.
</event>
<event>
 5   0  0.2289708E-05  0.2212281E+04  0.7818609E-02  0.8513334E-01
        2   -1    0    0  501    0  0.00000000000E+00  0.00000000000E+00  0.72021476085E+03  0.72021476085E+03  0.25500000920E-02 0. -1.
       -2   -1    0    0    0  501  0.00000000000E+00  0.00000000000E+00 -0.16988637340E+04  0.16988637340E+04  0.25500000920E-02 0.  1.
    10030    2    1    2    0    0  0.00000000000E+00  0.00000000000E+00 -0.97864897312E+03  0.24190784948E+04  0.22122809387E+04 0.  0.
        5    1    3    3  502    0  0.59603759219E+03  0.44969153893E+03  0.40307699282E+03  0.84851425658E+03  0.46999998093E+01 0. -1.
       -5    1    3    3    0  502 -0.59603759219E+03 -0.44969153893E+03 -0.13817259659E+04  0.15705642382E+04  0.46999998093E+01 0.  1.
</event>
<event>
 5   0  0.2284329E-05  0.2201896E+04  0.7818609E-02  0.8517639E-01
        2   -1    0    0  501    0  0.00000000000E+00  0.00000000000E+00  0.93083037160E+03  0.93083037160E+03  0.25500000920E-02 0.  1.
       -2   -1    0    0    0  501  0.00000000000E+00  0.00000000000E+00 -0.13021560642E+04  0.13021560642E+04  0.25500000920E-02 0. -1.
    10030    2    1    2    0    0  0.00000000000E+00  0.00000000000E+00 -0.37132569262E+03  0.22329864358E+04  0.22018959223E+04 0.  0.
        2    1    3    3  502    0 -0.45032580082E+03  0.76796924444E+03  0.47118341305E+03  0.10072655539E+04  0.25500000920E-02 0.  1.
       -2    1    3    3    0  502  0.45032580082E+03 -0.76796924444E+03 -0.84250910567E+03  0.12257208819E+04  0.25500000920E-02 0. -1.
</event>
<event>
 5   0  0.2319707E-05  0.2183974E+04  0.7818609E-02  0.8525128E-01
        2   -1    0    0  501    0  0.00000000000E+00  0.00000000000E+00  0.20433548462E+04  0.20433548462E+04  0.25500000920E-02 0.  1.
       -2   -1    0    0    0  501  0.00000000000E+00  0.00000000000E+00 -0.58356776464E+03  0.58356776464E+03  0.25500000920E-02 0. -1.
    10030    2    1    2    0    0  0.00000000000E+00  0.00000000000E+00  0.14597870815E+04  0.26269226108E+04  0.21839743771E+04 0.  0.
        3    1    3    3  502    0  0.95043856335E+03  0.14158649539E+03  0.13538020779E+04  0.16601687489E+04  0.10100000352E+00 0.  1.
       -3    1    3    3    0  502 -0.95043856335E+03 -0.14158649539E+03  0.10598500360E+03  0.96675386193E+03  0.10100000352E+00 0. -1.
</event>
<event>
 5   0  0.2284329E-05  0.2200917E+04  0.7818609E-02  0.8518046E-01
        2   -1    0    0  501    0  0.00000000000E+00  0.00000000000E+00  0.18339046331E+04  0.18339046331E+04  0.25500000920E-02 0.  1.
       -2   -1    0    0    0  501  0.00000000000E+00  0.00000000000E+00 -0.66034470769E+03  0.66034470769E+03  0.25500000920E-02 0. -1.
    10030    2    1    2    0    0  0.00000000000E+00  0.00000000000E+00  0.11735599254E+04  0.24942493408E+04  0.22009172805E+04 0.  0.
        2    1    3    3  502    0 -0.10819691080E+04 -0.10690815328E+03  0.39404714356E+03  0.11564426727E+04  0.25500000920E-02 0.  1.
       -2    1    3    3    0  502  0.10819691080E+04  0.10690815328E+03  0.77951278186E+03  0.13378066681E+04  0.25500000920E-02 0. -1.
</event>
<event>
 5   0  0.2319707E-05  0.2204912E+04  0.7818609E-02  0.8516386E-01
       -2   -1    0    0    0  501  0.00000000000E+00  0.00000000000E+00  0.58825008793E+03  0.58825008793E+03  0.25500000920E-02 0. -1.
        2   -1    0    0  501    0  0.00000000000E+00  0.00000000000E+00 -0.20661439028E+04  0.20661439028E+04  0.25500000920E-02 0.  1.
    10030    2    1    2    0    0  0.00000000000E+00  0.00000000000E+00 -0.14778938149E+04  0.26543939908E+04  0.22049120912E+04 0.  0.
        3    1    3    3  502    0  0.85634878576E+03  0.33350222484E+03 -0.58276603804E+01  0.91901629402E+03  0.10100000352E+00 0. -1.
       -3    1    3    3    0  502 -0.85634878576E+03 -0.33350222484E+03 -0.14720661545E+04  0.17353776967E+04  0.10100000352E+00 0.  1.
</event>
<event>
 5   0  0.2319707E-05  0.2206427E+04  0.7818609E-02  0.8515758E-01
        2   -1    0    0  501    0  0.00000000000E+00  0.00000000000E+00  0.96073776117E+03  0.96073776117E+03  0.25500000920E-02 0.  1.
       -2   -1    0    0    0  501  0.00000000000E+00  0.00000000000E+00 -0.12668183847E+04  0.12668183847E+04  0.25500000920E-02 0. -1.
    10030    2    1    2    0    0  0.00000000000E+00  0.00000000000E+00 -0.30608062357E+03  0.22275561459E+04  0.22064272105E+04 0.  0.
        3    1    3    3  502    0  0.22105616252E+03 -0.10739438268E+04 -0.27610543513E+03  0.11306880170E+04  0.10100000352E+00 0. -1.
       -3    1    3    3    0  502 -0.22105616252E+03  0.10739438268E+04 -0.29975188440E+02  0.10968681290E+04  0.10100000352E+00 0.  1.
</event>
<event>
 5   0  0.2298329E-05  0.2194016E+04  0.7818609E-02  0.8520923E-01
       -2   -1    0    0    0  501  0.00000000000E+00  0.00000000000E+00  0.11170492931E+04  0.11170492931E+04  0.25500000920E-02 0. -1.
        2   -1    0    0  501    0  0.00000000000E+00  0.00000000000E+00 -0.10773264551E+04  0.10773264551E+04  0.25500000920E-02 0.  1.
    10030    2    1    2    0    0  0.00000000000E+00  0.00000000000E+00  0.39722838083E+02  0.21943757482E+04  0.21940161851E+04 0.  0.
        4    1    3    3  502    0  0.13262575654E+03  0.14320384594E+03  0.10995420185E+04  0.11167323745E+04  0.12699999809E+01 0. -1.
       -4    1    3    3    0  502 -0.13262575654E+03 -0.14320384594E+03 -0.10598191804E+04  0.10776433737E+04  0.12699999809E+01 0.  1.
</event>
<event>
 5   0  0.1033733E-05  0.2204138E+04  0.7818609E-02  0.8516708E-01
       -1   -1    0    0    0  501  0.00000000000E+00  0.00000000000E+00  0.10524719449E+04  0.10524719449E+04  0.50400001928E-02 0.  1.
        1   -1    0    0  501    0  0.00000000000E+00  0.00000000000E+00 -0.11540037568E+04  0.11540037568E+04  0.50400001928E-02 0. -1.
    10030    2    1    2    0    0  0.00000000000E+00  0.00000000000E+00 -0.10153181193E+03  0.22064757017E+04  0.22041384515E+04 0.  0.
        5    1    3    3  502    0 -0.14497902009E+03  0.45439891494E+03 -0.10453168600E+04  0.11490024883E+04  0.46999998093E+01 0. -1.
       -5    1    3    3    0  502  0.14497902009E+03 -0.45439891494E+03  0.94378504812E+03  0.10574732135E+04  0.46999998093E+01 0.  1.
</event>
<event>
 5   0  0.1007682E-05  0.2191177E+04  0.7818609E-02  0.8522109E-01
        1   -1    0    0  501    0  0.00000000000E+00  0.00000000000E+00  0.12628438289E+04  0.12628438289E+04  0.50400001928E-02 0.  1.
       -1   -1    0    0    0  501  0.00000000000E+00  0.00000000000E+00 -0.95048546464E+03  0.95048546465E+03  0.50400001928E-02 0. -1.
    10030    2    1    2    0    0  0.00000000000E+00  0.00000000000E+00  0.31235836426E+03  0.22133292936E+04  0.21911774949E+04 0.  0.
        2    1    3    3  502    0 -0.64204368976E+03 -0.88402359428E+03  0.74136839771E+02  0.10950863372E+04  0.25500000920E-02 0.  1.
       -2    1    3    3    0  502  0.64204368976E+03  0.88402359428E+03  0.23822152448E+03  0.11182429564E+04  0.25500000920E-02 0. -1.
</event>
<event>
 5   0  0.1007682E-05  0.2206541E+04  0.7818609E-02  0.8515711E-01
       -1   -1    0    0    0  501  0.00000000000E+00  0.00000000000E+00  0.10264725035E+04  0.10264725035E+04  0.50400001928E-02 0. -1.
        1   -1    0    0  501    0  0.00000000000E+00  0.00000000000E+00 -0.11858138684E+04  0.11858138684E+04  0.50400001928E-02 0.  1.
    10030    2    1    2    0    0  0.00000000000E+00  0.00000000000E+00 -0.15934136490E+03  0.22122863719E+04  0.22065405776E+04 0.  0.
        2    1    3    3  502    0 -0.95272093369E+03 -0.18061747580E+02  0.47783656927E+03  0.10659883635E+04  0.25500000920E-02 0. -1.
       -2    1    3    3    0  502  0.95272093369E+03  0.18061747580E+02 -0.63717793417E+03  0.11462980084E+04  0.25500000920E-02 0.  1.
</event>
<event>
 5   0  0.1005538E-05  0.2196141E+04  0.7818609E-02  0.8520036E-01
        1   -1    0    0  501    0  0.00000000000E+00  0.00000000000E+00  0.12239575801E+04  0.12239575801E+04  0.50400001928E-02 0. -1.
       -1   -1    0    0    0  501  0.00000000000E+00  0.00000000000E+00 -0.98513158841E+03  0.98513158843E+03  0.50400001928E-02 0.  1.
    10030    2    1    2    0    0  0.00000000000E+00  0.00000000000E+00  0.23882599166E+03  0.22090891685E+04  0.21961414117E+04 0.  0.
        3    1    3    3  502    0 -0.13749092767E+03 -0.83089471070E+03 -0.58934704898E+03  0.10279200989E+04  0.10100000352E+00 0.  1.
       -3    1    3    3    0  502  0.13749092767E+03  0.83089471070E+03  0.82817304064E+03  0.11811690696E+04  0.10100000352E+00 0. -1.
</event>
<event>
 5   0  0.2229552E-05  0.2202368E+04  0.7818609E-02  0.8517443E-01
        2   -1    0    0  501    0  0.00000000000E+00  0.00000000000E+00  0.17328197418E+04  0.17328197418E+04  0.25500000920E-02 0. -1.
       -2   -1    0    0    0  501  0.00000000000E+00  0.00000000000E+00 -0.69978805046E+03  0.69978805046E+03  0.25500000920E-02 0.  1.
    10030    2    1    2    0    0  0.00000000000E+00  0.00000000000E+00  0.10330316913E+04  0.24326077922E+04  0.22023683152E+04 0.  0.
        1    1    3    3  502    0 -0.12479213702E+03 -0.44817632559E+03 -0.58590949926E+03  0.74814773784E+03  0.50400001928E-02 0.  1.
       -1    1    3    3    0  502  0.12479213702E+03  0.44817632559E+03  0.16189411906E+04  0.16844600544E+04  0.50400001928E-02 0. -1.
</event>
<event>
 5   0  0.1005538E-05  0.2176019E+04  0.7818609E-02  0.8528476E-01
        1   -1    0    0  501    0  0.00000000000E+00  0.00000000000E+00  0.11959587866E+04  0.11959587866E+04  0.50400001928E-02 0. -1.
       -1   -1    0    0    0  501  0.00000000000E+00  0.00000000000E+00 -0.98980375915E+03  0.98980375916E+03  0.50400001928E-02 0.  1.
    10030    2    1    2    0    0  0.00000000000E+00  0.00000000000E+00  0.20615502744E+03  0.21857625458E+04  0.21760188444E+04 0.  0.
        3    1    3    3  502    0  0.35921267321E+03 -0.78670798928E+03 -0.56004618269E+03  0.10303372952E+04  0.10100000352E+00 0.  1.
       -3    1    3    3    0  502 -0.35921267321E+03  0.78670798928E+03  0.76620121013E+03  0.11554252505E+04  0.10100000352E+00 0. -1.
</event>
<event>
 5   0  0.2319707E-05  0.2228149E+04  0.7818609E-02  0.8506802E-01
        2   -1    0    0  501    0  0.00000000000E+00  0.00000000000E+00  0.16468816966E+04  0.16468816966E+04  0.25500000920E-02 0.  1.
       -2   -1    0    0    0  501  0.00000000000E+00  0.00000000000E+00 -0.75364394362E+03  0.75364394363E+03  0.25500000920E-02 0. -1.
    10030    2    1    2    0    0  0.00000000000E+00  0.00000000000E+00  0.89323775299E+03  0.24005256402E+04  0.22281493815E+04 0.  0.
        3    1    3    3  502    0  0.20651348223E+03  0.17219946084E+03  0.16113982004E+04  0.16336782557E+04  0.10100000352E+00 0.  1.
       -3    1    3    3    0  502 -0.20651348223E+03 -0.17219946084E+03 -0.71816044745E+03  0.76684738451E+03  0.10100000352E+00 0. -1.
</event>
<event>
 5   0  0.1049198E-05  0.2198564E+04  0.7818609E-02  0.8519026E-01
       -1   -1    0    0    0  501  0.00000000000E+00  0.00000000000E+00  0.55757237041E+03  0.55757237043E+03  0.50400001928E-02 0.  1.
        1   -1    0    0  501    0  0.00000000000E+00  0.00000000000E+00 -0.21672896092E+04  0.21672896092E+04  0.50400001928E-02 0. -1.
    10030    2    1    2    0    0  0.00000000000E+00  0.00000000000E+00 -0.16097172388E+04  0.27248619797E+04  0.21985638993E+04 0.  0.
        1    1    3    3  502    0 -0.64370176146E+03 -0.31125895682E+03  0.22999748600E+03  0.75108783741E+03  0.50400001928E-02 0.  1.
       -1    1    3    3    0  502  0.64370176146E+03  0.31125895682E+03 -0.18397147248E+04  0.19737741423E+04  0.50400001928E-02 0. -1.
</event>
<event>
 5   0  0.2298329E-05  0.2203986E+04  0.7818609E-02  0.8516771E-01
        2   -1    0    0  501    0  0.00000000000E+00  0.00000000000E+00  0.13834878898E+04  0.13834878898E+04  0.25500000920E-02 0.  1.
       -2   -1    0    0    0  501  0.00000000000E+00  0.00000000000E+00 -0.87777357608E+03  0.87777357609E+03  0.25500000920E-02 0. -1.
    10030    2    1    2    0    0  0.00000000000E+00  0.00000000000E+00  0.50571431369E+03  0.22612614659E+04  0.22039864904E+04 0.  0.
        4    1    3    3  502    0 -0.95489971186E+03  0.10757529131E+03 -0.30058803028E+03  0.10068568319E+04  0.12699999809E+01 0. -1.
       -4    1    3    3    0  502  0.95489971186E+03 -0.10757529131E+03  0.80630234396E+03  0.12544046340E+04  0.12699999809E+01 0.  1.
</event>
<event>
 5   0  0.2298329E-05  0.2203767E+04  0.7818609E-02  0.8516862E-01
       -2   -1    0    0    0  501  0.00000000000E+00  0.00000000000E+00  0.76437791000E+03  0.76437791000E+03  0.25500000920E-02 0.  1.
        2   -1    0    0  501    0  0.00000000000E+00  0.00000000000E+00 -0.15884118301E+04  0.15884118301E+04  0.25500000920E-02 0. -1.
    10030    2    1    2    0    0  0.00000000000E+00  0.00000000000E+00 -0.82403392010E+03  0.23527897401E+04  0.22037666981E+04 0.  0.
        4    1    3    3  502    0 -0.10077338691E+04  0.41595843919E+03 -0.24120969651E+03  0.11165718538E+04  0.12699999809E+01 0.  1.
       -4    1    3    3    0  502  0.10077338691E+04 -0.41595843919E+03 -0.58282422358E+03  0.12362178863E+04  0.12699999809E+01 0. -1.
</event>
<event>
 5   0  0.1033733E-05  0.2192796E+04  0.7818609E-02  0.8521433E-01
       -1   -1    0    0    0  501  0.00000000000E+00  0.00000000000E+00  0.61861635818E+03  0.61861635820E+03  0.50400001928E-02 0. -1.
        1   -1    0    0  501    0  0.00000000000E+00  0.00000000000E+00 -0.19431883663E+04  0.19431883663E+04  0.50400001928E-02 0.  1.
    10030    2    1    2    0    0  0.00000000000E+00  0.00000000000E+00 -0.13245720081E+04  0.25618047245E+04  0.21927955769E+04 0.  0.
        5    1    3    3  502    0 -0.25619005968E+03  0.10578601616E+02 -0.19076558548E+04  0.19248164078E+04  0.46999998093E+01 0.  1.
       -5    1    3    3    0  502  0.25619005968E+03 -0.10578601616E+02  0.58308384662E+03  0.63698831675E+03  0.46999998093E+01 0. -1.
</event>
<event>
 5   0  0.1005538E-05  0.2194744E+04  0.7818609E-02  0.8520619E-01
       -1   -1    0    0    0  501  0.00000000000E+00  0.00000000000E+00  0.64494008642E+03  0.64494008644E+03  0.50400001928E-02 0.  1.
        1   -1    0    0  501    0  0.00000000000E+00  0.00000000000E+00 -0.18671897289E+04  0.18671897289E+04  0.50400001928E-02 0. -1.
    10030    2    1    2    0    0  0.00000000000E+00  0.00000000000E+00 -0.12222496424E+04  0.25121298153E+04  0.21947441811E+04 0.  0.
        3    1    3    3  502    0  0.45101836080E+03  0.84525776861E+03  0.13731728745E+01  0.95806062072E+03  0.10100000352E+00 0.  1.
       -3    1    3    3    0  502 -0.45101836080E+03 -0.84525776861E+03 -0.12236228153E+04  0.15540691946E+04  0.10100000352E+00 0. -1.
</event>
<event>
 5   0  0.1007682E-05  0.2205083E+04  0.7818609E-02  0.8516315E-01
       -1   -1    0    0    0  501  0.00000000000E+00  0.00000000000E+00  0.62401564067E+03  0.62401564069E+03  0.50400001928E-02 0.  1.
        1   -1    0    0  501    0  0.00000000000E+00  0.00000000000E+00 -0.19480245103E+04  0.19480245103E+04  0.50400001928E-02 0. -1.
    10030    2    1    2    0    0  0.00000000000E+00  0.00000000000E+00 -0.13240088696E+04  0.25720401510E+04  0.22050830033E+04 0.  0.
        2    1    3    3  502    0 -0.56563637281E+03 -0.94216594818E+03 -0.76617889006E+03  0.13396459501E+04  0.25500000920E-02 0. -1.
       -2    1    3    3    0  502  0.56563637281E+03  0.94216594818E+03 -0.55782997956E+03  0.12323942008E+04  0.25500000920E-02 0.  1.
</event>
<event>
 5   0  0.2298329E-05  0.2199276E+04  0.7818609E-02  0.8518729E-01
        2   -1    0    0  501    0  0.00000000000E+00  0.00000000000E+00  0.14098413194E+04  0.14098413194E+04  0.25500000920E-02 0. -1.
       -2   -1    0    0    0  501  0.00000000000E+00  0.00000000000E+00 -0.85768785534E+03  0.85768785534E+03  0.25500000920E-02 0.  1.
    10030    2    1    2    0    0  0.00000000000E+00  0.00000000000E+00  0.55215346408E+03  0.22675291748E+04  0.21992760424E+04 0.  0.
        4    1    3    3  502    0 -0.58822918326E+03 -0.88758086129E+03 -0.70146030942E+01  0.10648305851E+04  0.12699999809E+01 0.  1.
       -4    1    3    3    0  502  0.58822918326E+03  0.88758086129E+03  0.55916806717E+03  0.12026985897E+04  0.12699999809E+01 0. -1.
</event>
<event>
 5   0  0.1005538E-05  0.2179279E+04  0.7818609E-02  0.8527102E-01
       -1   -1    0    0    0  501  0.00000000000E+00  0.00000000000E+00  0.83355502268E+03  0.83355502270E+03  0.50400001928E-02 0.  1.
        1   -1    0    0  501    0  0.00000000000E+00  0.00000000000E+00 -0.14243981114E+04  0.14243981114E+04  0.50400001928E-02 0. -1.
    10030    2    1    2    0    0  0.00000000000E+00  0.00000000000E+00 -0.59084308869E+03  0.22579531341E+04  0.21792789634E+04 0.  0.
        3    1    3    3  502    0 -0.93362624544E+03 -0.26445728730E+03  0.21817380644E+03  0.99458304983E+03  0.10100000352E+00 0.  1.
       -3    1    3    3    0  502  0.93362624544E+03  0.26445728730E+03 -0.80901689513E+03  0.12633700843E+04  0.10100000352E+00 0. -1.
</event>
<event>
 5   0  0.2284329E-05  0.2197729E+04  0.7818609E-02  0.8519374E-01
        2   -1    0    0  501    0  0.00000000000E+00  0.00000000000E+00  0.88755044858E+03  0.88755044858E+03  0.25500000920E-02 0.  1.
       -2   -1    0    0    0  501  0.00000000000E+00  0.00000000000E+00 -0.13604893830E+04  0.13604893830E+04  0.25500000920E-02 0. -1.
    10030    2    1    2    0    0  0.00000000000E+00  0.00000000000E+00 -0.47293893443E+03  0.22480398316E+04  0.21977287933E+04 0.  0.
        2    1    3    3  502    0 -0.84033128610E+03 -0.66511399638E+03 -0.48486525617E+03  0.11762770147E+04  0.25500000920E-02 0. -1.
       -2    1    3    3    0  502  0.84033128610E+03  0.66511399638E+03  0.11926321749E+02  0.10717628169E+04  0.25500000920E-02 0.  1.
</event>
<event>
 5   0  0.2298329E-05  0.2196797E+04  0.7818609E-02  0.8519762E-01
        2   -1    0    0  501    0  0.00000000000E+00  0.00000000000E+00  0.23470837734E+04  0.23470837734E+04  0.25500000920E-02 0.  1.
       -2   -1    0    0    0  501  0.00000000000E+00  0.00000000000E+00 -0.51403330695E+03  0.51403330695E+03  0.25500000920E-02 0. -1.
    10030    2    1    2    0    0  0.00000000000E+00  0.00000000000E+00  0.18330504665E+04  0.28611170804E+04  0.21967969717E+04 0.  0.
        4    1    3    3  502    0  0.10681327670E+04 -0.17430595188E+03  0.67221616136E+03  0.12740354600E+04  0.12699999809E+01 0. -1.
       -4    1    3    3    0  502 -0.10681327670E+04  0.17430595188E+03  0.11608343051E+04  0.15870816204E+04  0.12699999809E+01 0.  1.
</event>
<event>
 5   0  0.1033733E-05  0.2201509E+04  0.7818609E-02  0.8517800E-01
        1   -1    0    0  501    0  0.00000000000E+00  0.00000000000E+00  0.11636516748E+04  0.11636516748E+04  0.50400001928E-02 0. -1.
       -1   -1    0    0    0  501  0.00000000000E+00  0.00000000000E+00 -0.10412573982E+04  0.10412573982E+04  0.50400001928E-02 0.  1.
    10030    2    1    2    0    0  0.00000000000E+00  0.00000000000E+00  0.12239427666E+03  0.22049090730E+04  0.22015094052E+04 0.  0.
        5    1    3    3  502    0  0.57094899546E+02  0.54317844544E+03  0.10183591832E+04  0.11555865035E+04  0.46999998093E+01 0. -1.
       -5    1    3    3    0  502 -0.57094899546E+02 -0.54317844544E+03 -0.89596490652E+03  0.10493225695E+04  0.46999998093E+01 0.  1.
</event>
<event>
 5   0  0.1007682E-05  0.2124644E+04  0.7818609E-02  0.8550464E-01
        1   -1    0    0  501    0  0.00000000000E+00  0.00000000000E+00  0.96543676973E+03  0.96543676974E+03  0.50400001928E-02 0. -1.
       -1   -1    0    0    0  501  0.00000000000E+00  0.00000000000E+00 -0.11689305515E+04  0.11689305516E+04  0.50400001928E-02 0.  1.
    10030    2    1    2    0    0  0.00000000000E+00  0.00000000000E+00 -0.20349378182E+03  0.21343673213E+04  0.21246444745E+04 0.  0.
        2    1    3    3  502    0 -0.72755214928E+03 -0.28131048781E+02  0.67535956991E+03  0.99309316507E+03  0.25500000920E-02 0. -1.
       -2    1    3    3    0  502  0.72755214928E+03  0.28131048781E+02 -0.87885335173E+03  0.11412741562E+04  0.25500000920E-02 0.  1.
</event>
<event>
 5   0  0.2284329E-05  0.2212407E+04  0.7818609E-02  0.8513282E-01
        2   -1    0    0  501    0  0.00000000000E+00  0.00000000000E+00  0.14663154172E+04  0.14663154172E+04  0.25500000920E-02 0.  1.
       -2   -1    0    0    0  501  0.00000000000E+00  0.00000000000E+00 -0.83453171699E+03  0.83453171699E+03  0.25500000920E-02 0. -1.
    10030    2    1    2    0    0  0.00000000000E+00  0.00000000000E+00  0.63178370022E+03  0.23008471342E+04  0.22124074876E+04 0.  0.
        2    1    3    3  502    0  0.52924293243E+03 -0.82833713415E+03  0.84356611902E+03  0.12953162882E+04  0.25500000920E-02 0.  1.
       -2    1    3    3    0  502 -0.52924293243E+03  0.82833713415E+03 -0.21178241879E+03  0.10055308460E+04  0.25500000920E-02 0. -1.
</event>
<event>
 5   0  0.2319707E-05  0.2172061E+04  0.7818609E-02  0.8530148E-01
        2   -1    0    0  501    0  0.00000000000E+00  0.00000000000E+00  0.21689602258E+04  0.21689602258E+04  0.25500000920E-02 0.  1.
       -2   -1    0    0    0  501  0.00000000000E+00  0.00000000000E+00 -0.54379148098E+03  0.54379148098E+03  0.25500000920E-02 0. -1.
    10030    2    1    2    0    0  0.00000000000E+00  0.00000000000E+00  0.16251687448E+04  0.27127517067E+04  0.21720608586E+04 0.  0.
        3    1    3    3  502    0 -0.53301599487E+03  0.36776269977E+03 -0.27628383101E+03  0.70405129047E+03  0.10100000352E+00 0. -1.
       -3    1    3    3    0  502  0.53301599487E+03 -0.36776269977E+03  0.19014525758E+04  0.20087004163E+04  0.10100000352E+00 0.  1.
</event>
<event>
 5   0  0.2289708E-05  0.2092089E+04  0.7818609E-02  0.8564736E-01
       -2   -1    0    0    0  501  0.00000000000E+00  0.00000000000E+00  0.10072557068E+04  0.10072557068E+04  0.25500000920E-02 0. -1.
        2   -1    0    0  501    0  0.00000000000E+00  0.00000000000E+00 -0.10863275279E+04  0.10863275279E+04  0.25500000920E-02 0.  1.
    10030    2    1    2    0    0  0.00000000000E+00  0.00000000000E+00 -0.79071821105E+02  0.20935832347E+04  0.20920894837E+04 0.  0.
        5    1    3    3  502    0  0.92810986393E+02  0.30213697507E+03  0.95831539537E+03  0.10091041165E+04  0.46999998093E+01 0. -1.
       -5    1    3    3    0  502 -0.92810986393E+02 -0.30213697507E+03 -0.10373872165E+04  0.10844791182E+04  0.46999998093E+01 0.  1.
</event>
<event>
 5   0  0.1007682E-05  0.2257089E+04  0.7818609E-02  0.8495035E-01
       -1   -1    0    0    0  501  0.00000000000E+00  0.00000000000E+00  0.12345512106E+04  0.12345512106E+04  0.50400001928E-02 0. -1.
        1   -1    0    0  501    0  0.00000000000E+00  0.00000000000E+00 -0.10316400638E+04  0.10316400638E+04  0.50400001928E-02 0.  1.
    10030    2    1    2    0    0  0.00000000000E+00  0.00000000000E+00  0.20291114677E+03  0.22661912744E+04  0.22570888239E+04 0.  0.
        2    1    3    3  502    0 -0.65438345222E+03 -0.13148495158E+03 -0.81221788279E+03  0.10512867754E+04  0.25500000920E-02 0.  1.
       -2    1    3    3    0  502  0.65438345222E+03  0.13148495158E+03  0.10151290296E+04  0.12149044990E+04  0.25500000920E-02 0. -1.
</event>
<event>
 5   0  0.2284329E-05  0.2197958E+04  0.7818609E-02  0.8519279E-01
       -2   -1    0    0    0  501  0.00000000000E+00  0.00000000000E+00  0.50055283483E+03  0.50055283484E+03  0.25500000920E-02 0.  1.
        2   -1    0    0  501    0  0.00000000000E+00  0.00000000000E+00 -0.24128410300E+04  0.24128410300E+04  0.25500000920E-02 0. -1.
    10030    2    1    2    0    0  0.00000000000E+00  0.00000000000E+00 -0.19122881952E+04  0.29133938649E+04  0.21979576134E+04 0.  0.
        2    1    3    3  502    0 -0.78455600324E+01 -0.82564050712E+03  0.51961915211E+01  0.82569413236E+03  0.25500000920E-02 0.  1.
       -2    1    3    3    0  502  0.78455600324E+01  0.82564050712E+03 -0.19174843867E+04  0.20876997325E+04  0.25500000920E-02 0. -1.
</event>
<event>
 5   0  0.1007682E-05  0.2206672E+04  0.7818609E-02  0.8515656E-01
       -1   -1    0    0    0  501  0.00000000000E+00  0.00000000000E+00  0.10432974503E+04  0.10432974503E+04  0.50400001928E-02 0. -1.
        1   -1    0    0  501    0  0.00000000000E+00  0.00000000000E+00 -0.11668299132E+04  0.11668299132E+04  0.50400001928E-02 0.  1.
    10030    2    1    2    0    0  0.00000000000E+00  0.00000000000E+00 -0.12353246288E+03  0.22101273635E+04  0.22066723122E+04 0.  0.
        2    1    3    3  502    0 -0.17274807023E+03 -0.21201047960E+03  0.10088135252E+04  0.10452248887E+04  0.25500000920E-02 0. -1.
       -2    1    3    3    0  502  0.17274807023E+03  0.21201047960E+03 -0.11323459881E+04  0.11649024749E+04  0.25500000920E-02 0.  1.
</event>
<event>
 5   0  0.2289708E-05  0.2197244E+04  0.7818609E-02  0.8519576E-01
        2   -1    0    0  501    0  0.00000000000E+00  0.00000000000E+00  0.96787875157E+03  0.96787875158E+03  0.25500000920E-02 0.  1.
       -2   -1    0    0    0  501  0.00000000000E+00  0.00000000000E+00 -0.12470265919E+04  0.12470265919E+04  0.25500000920E-02 0. -1.
    10030    2    1    2    0    0  0.00000000000E+00  0.00000000000E+00 -0.27914784035E+03  0.22149053435E+04  0.21972442204E+04 0.  0.
        5    1    3    3  502    0  0.93954294931E+02 -0.10423990926E+04  0.19706420030E+03  0.10650256648E+04  0.46999998093E+01 0.  1.
       -5    1    3    3    0  502 -0.93954294931E+02  0.10423990926E+04 -0.47621204065E+03  0.11498796787E+04  0.46999998093E+01 0. -1.
</event>
<event>
 5   0  0.1049198E-05  0.2203873E+04  0.7818609E-02  0.8516818E-01
        1   -1    0    0  501    0  0.00000000000E+00  0.00000000000E+00  0.13876307062E+04  0.13876307062E+04  0.50400001928E-02 0.  1.
       -1   -1    0    0    0  501  0.00000000000E+00  0.00000000000E+00 -0.87506281200E+03  0.87506281202E+03  0.50400001928E-02 0. -1.
    10030    2    1    2    0    0  0.00000000000E+00  0.00000000000E+00  0.51256789417E+03  0.22626935182E+04  0.22038729798E+04 0.  0.
        1    1    3    3  502    0  0.36861018526E+03 -0.77053955274E+03  0.97103939324E+03  0.12932602887E+04  0.50400001928E-02 0.  1.
       -1    1    3    3    0  502 -0.36861018526E+03  0.77053955274E+03 -0.45847149907E+03  0.96943322952E+03  0.50400001928E-02 0. -1.
</event>
<event>
 5   0  0.1007682E-05  0.2194613E+04  0.7818609E-02  0.8520673E-01
        1   -1    0    0  501    0  0.00000000000E+00  0.00000000000E+00  0.12473719435E+04  0.12473719435E+04  0.50400001928E-02 0.  1.
       -1   -1    0    0    0  501  0.00000000000E+00  0.00000000000E+00 -0.96529515887E+03  0.96529515888E+03  0.50400001928E-02 0. -1.
    10030    2    1    2    0    0  0.00000000000E+00  0.00000000000E+00  0.28207678459E+03  0.22126671024E+04  0.21946134952E+04 0.  0.
        2    1    3    3  502    0  0.28833069113E+01  0.34936323658E+03 -0.90772012218E+03  0.97263498022E+03  0.25500000920E-02 0. -1.
       -2    1    3    3    0  502 -0.28833069113E+01 -0.34936323658E+03  0.11897969068E+04  0.12400321221E+04  0.25500000920E-02 0.  1.
</event>
<event>
 5   0  0.1049198E-05  0.2199566E+04  0.7818609E-02  0.8518609E-01
       -1   -1    0    0    0  501  0.00000000000E+00  0.00000000000E+00  0.82039369513E+03  0.82039369515E+03  0.50400001928E-02 0.  1.
        1   -1    0    0  501    0  0.00000000000E+00  0.00000000000E+00 -0.14743197214E+04  0.14743197214E+04  0.50400001928E-02 0. -1.
    10030    2    1    2    0    0  0.00000000000E+00  0.00000000000E+00 -0.65392602625E+03  0.22947134165E+04  0.21995659609E+04 0.  0.
        1    1    3    3  502    0 -0.90518508538E+03  0.20753911894E+02  0.32432698508E+03  0.96175815928E+03  0.50400001928E-02 0.  1.
       -1    1    3    3    0  502  0.90518508538E+03 -0.20753911894E+02 -0.97825301132E+03  0.13329552573E+04  0.50400001928E-02 0. -1.
</event>
<event>
 5   0  0.2289708E-05  0.2234695E+04  0.7818609E-02  0.8504124E-01
       -2   -1    0    0    0  501  0.00000000000E+00  0.00000000000E+00  0.74543060721E+03  0.74543060721E+03  0.25500000920E-02 0.  1.
        2   -1    0    0  501    0  0.00000000000E+00  0.00000000000E+00 -0.16748247241E+04  0.16748247241E+04  0.25500000920E-02 0. -1.
    10030    2    1    2    0    0  0.00000000000E+00  0.00000000000E+00 -0.92939411686E+03  0.24202553313E+04  0.22346951569E+04 0.  0.
        5    1    3    3  502    0  0.28389938864E+03  0.38849036016E+03 -0.15568570678E+04  0.16295243608E+04  0.46999998093E+01 0. -1.
       -5    1    3    3    0  502 -0.28389938864E+03 -0.38849036016E+03  0.62746295098E+03  0.79073097047E+03  0.46999998093E+01 0.  1.
</event>
<event>
 5   0  0.1033733E-05  0.2197913E+04  0.7818609E-02  0.8519297E-01
        1   -1    0    0  501    0  0.00000000000E+00  0.00000000000E+00  0.17937827865E+04  0.17937827865E+04  0.50400001928E-02 0.  1.
       -1   -1    0    0    0  501  0.00000000000E+00  0.00000000000E+00 -0.67327284599E+03  0.67327284601E+03  0.50400001928E-02 0. -1.
    10030    2    1    2    0    0  0.00000000000E+00  0.00000000000E+00  0.11205099405E+04  0.24670556325E+04  0.21979128661E+04 0.  0.
        5    1    3    3  502    0 -0.17597351945E+03  0.99046119575E+03  0.63700020557E+02  0.10079979377E+04  0.46999998093E+01 0. -1.
       -5    1    3    3    0  502  0.17597351945E+03 -0.99046119575E+03  0.10568099199E+04  0.14590576948E+04  0.46999998093E+01 0.  1.
</event>
<event>
 5   0  0.1005538E-05  0.2201171E+04  0.7818609E-02  0.8517941E-01
       -1   -1    0    0    0  501  0.00000000000E+00  0.00000000000E+00  0.15566886782E+04  0.15566886782E+04  0.50400001928E-02 0.  1.
        1   -1    0    0  501    0  0.00000000000E+00  0.00000000000E+00 -0.77811831401E+03  0.77811831403E+03  0.50400001928E-02 0. -1.
    10030    2    1    2    0    0  0.00000000000E+00  0.00000000000E+00  0.77857036417E+03  0.23348069922E+04  0.22011705702E+04 0.  0.
        3    1    3    3  502    0 -0.31443674275E+03 -0.85803707948E+03 -0.26129500474E+03  0.95045945976E+03  0.10100000352E+00 0. -1.
       -3    1    3    3    0  502  0.31443674275E+03  0.85803707948E+03  0.10398653689E+04  0.13843475325E+04  0.10100000352E+00 0.  1.
</event>
<event>
 5   0  0.2229552E-05  0.2059200E+04  0.7818609E-02  0.8579432E-01
       -2   -1    0    0    0  501  0.00000000000E+00  0.00000000000E+00  0.89007050881E+03  0.89007050881E+03  0.25500000920E-02 0. -1.
        2   -1    0    0  501    0  0.00000000000E+00  0.00000000000E+00 -0.11910024640E+04  0.11910024640E+04  0.25500000920E-02 0.  1.
    10030    2    1    2    0    0  0.00000000000E+00  0.00000000000E+00 -0.30093195522E+03  0.20810729728E+04  0.20592000089E+04 0.  0.
        1    1    3    3  502    0  0.89366712334E+02  0.62136959143E+03 -0.97521630805E+03  0.11597988731E+04  0.50400001928E-02 0.  1.
       -1    1    3    3    0  502 -0.89366712334E+02 -0.62136959143E+03  0.67428435283E+03  0.92127409978E+03  0.50400001928E-02 0. -1.
</event>
<event>
 5   0  0.1005538E-05  0.2198396E+04  0.7818609E-02  0.8519096E-01
        1   -1    0    0  501    0  0.00000000000E+00  0.00000000000E+00  0.15079350142E+04  0.15079350142E+04  0.50400001928E-02 0. -1.
       -1   -1    0    0    0  501  0.00000000000E+00  0.00000000000E+00 -0.80125199443E+03  0.80125199445E+03  0.50400001928E-02 0.  1.
    10030    2    1    2    0    0  0.00000000000E+00  0.00000000000E+00  0.70668301981E+03  0.23091870087E+04  0.21983957220E+04 0.  0.
        3    1    3    3  502    0 -0.39421231560E+02 -0.53315339100E+03  0.13621757016E+04  0.14633281328E+04  0.10100000352E+00 0. -1.
       -3    1    3    3    0  502  0.39421231560E+02  0.53315339100E+03 -0.65549268183E+03  0.84585887592E+03  0.10100000352E+00 0.  1.
</event>
<event>
 5   0  0.2319707E-05  0.2216465E+04  0.7818609E-02  0.8511606E-01
        2   -1    0    0  501    0  0.00000000000E+00  0.00000000000E+00  0.12858886394E+04  0.12858886394E+04  0.25500000920E-02 0. -1.
       -2   -1    0    0    0  501  0.00000000000E+00  0.00000000000E+00 -0.95512083776E+03  0.95512083777E+03  0.25500000920E-02 0.  1.
    10030    2    1    2    0    0  0.00000000000E+00  0.00000000000E+00  0.33076780162E+03  0.22410094771E+04  0.22164647839E+04 0.  0.
        3    1    3    3  502    0  0.10021910272E+04  0.29906986201E+03  0.53597987924E+03  0.11752038455E+04  0.10100000352E+00 0. -1.
       -3    1    3    3    0  502 -0.10021910272E+04 -0.29906986201E+03 -0.20521207762E+03  0.10658056316E+04  0.10100000352E+00 0.  1.
</event>
<event>
 5   0  0.1049198E-05  0.2206282E+04  0.7818609E-02  0.8515818E-01
       -1   -1    0    0    0  501  0.00000000000E+00  0.00000000000E+00  0.10661050095E+04  0.10661050095E+04  0.50400001928E-02 0. -1.
        1   -1    0    0  501    0  0.00000000000E+00  0.00000000000E+00 -0.11414634810E+04  0.11414634810E+04  0.50400001928E-02 0.  1.
    10030    2    1    2    0    0  0.00000000000E+00  0.00000000000E+00 -0.75358471562E+02  0.22075684905E+04  0.22062818816E+04 0.  0.
        1    1    3    3  502    0  0.47625919940E+03 -0.57005461166E+03  0.77835436179E+03  0.10759277847E+04  0.50400001928E-02 0. -1.
       -1    1    3    3    0  502 -0.47625919940E+03  0.57005461166E+03 -0.85371283335E+03  0.11316407058E+04  0.50400001928E-02 0.  1.
</event>
<event>
 5   0  0.1049198E-05  0.2234773E+04  0.7818609E-02  0.8504093E-01
        1   -1    0    0  501    0  0.00000000000E+00  0.00000000000E+00  0.14389319379E+04  0.14389319379E+04  0.50400001928E-02 0.  1.
       -1   -1    0    0    0  501  0.00000000000E+00  0.00000000000E+00 -0.86769387781E+03  0.86769387783E+03  0.50400001928E-02 0. -1.
    10030    2    1    2    0    0  0.00000000000E+00  0.00000000000E+00  0.57123806013E+03  0.23066258158E+04  0.22347728593E+04 0.  0.
        1    1    3    3  502    0  0.44032635135E+03 -0.14024618204E+03  0.13356766391E+04  0.14133606657E+04  0.50400001928E-02 0.  1.
       -1    1    3    3    0  502 -0.44032635135E+03  0.14024618204E+03 -0.76443857894E+03  0.89326515004E+03  0.50400001928E-02 0. -1.
</event>
<event>
 5   0  0.2229552E-05  0.2189829E+04  0.7818609E-02  0.8522673E-01
        2   -1    0    0  501    0  0.00000000000E+00  0.00000000000E+00  0.20226204573E+04  0.20226204573E+04  0.25500000920E-02 0.  1.
       -2   -1    0    0    0  501  0.00000000000E+00  0.00000000000E+00 -0.59271531978E+03  0.59271531979E+03  0.25500000920E-02 0. -1.
    10030    2    1    2    0    0  0.00000000000E+00  0.00000000000E+00  0.14299051376E+04  0.26153357771E+04  0.21898293369E+04 0.  0.
        1    1    3    3  502    0 -0.21470501138E+03  0.10724248294E+04  0.65353116601E+03  0.12740864341E+04  0.50400001928E-02 0. -1.
       -1    1    3    3    0  502  0.21470501138E+03 -0.10724248294E+04  0.77637397155E+03  0.13412493431E+04  0.50400001928E-02 0.  1.
</event>
<event>
 5   0  0.1005538E-05  0.2206803E+04  0.7818609E-02  0.8515602E-01
       -1   -1    0    0    0  501  0.00000000000E+00  0.00000000000E+00  0.25459532709E+04  0.25459532709E+04  0.50400001928E-02 0.  1.
        1   -1    0    0  501    0  0.00000000000E+00  0.00000000000E+00 -0.47820807618E+03  0.47820807621E+03  0.50400001928E-02 0. -1.
    10030    2    1    2    0    0  0.00000000000E+00  0.00000000000E+00  0.20677451947E+04  0.30241613471E+04  0.22068034944E+04 0.  0.
        3    1    3    3  502    0 -0.44348980811E+03  0.26635653533E+03 -0.30171554946E+03  0.59888337495E+03  0.10100000352E+00 0. -1.
       -3    1    3    3    0  502  0.44348980811E+03 -0.26635653533E+03  0.23694607442E+04  0.24252779722E+04  0.10100000352E+00 0.  1.
</event>
<event>
 5   0  0.1049198E-05  0.2210127E+04  0.7818609E-02  0.8514225E-01
       -1   -1    0    0    0  501  0.00000000000E+00  0.00000000000E+00  0.20576449007E+04  0.20576449007E+04  0.50400001928E-02 0. -1.
        1   -1    0    0  501    0  0.00000000000E+00  0.00000000000E+00 -0.59347709295E+03  0.59347709297E+03  0.50400001928E-02 0.  1.
    10030    2    1    2    0    0  0.00000000000E+00  0.00000000000E+00  0.14641678078E+04  0.26511219937E+04  0.22101267964E+04 0.  0.
        1    1    3    3  502    0  0.23962848876E+03  0.21391151829E+03  0.20004088737E+04  0.20260344549E+04  0.50400001928E-02 0. -1.
       -1    1    3    3    0  502 -0.23962848876E+03 -0.21391151829E+03 -0.53624106598E+03  0.62508753879E+03  0.50400001928E-02 0.  1.
</event>
<event>
 5   0  0.2319707E-05  0.2203839E+04  0.7818609E-02  0.8516832E-01
        2   -1    0    0  501    0  0.00000000000E+00  0.00000000000E+00  0.13303697998E+04  0.13303697998E+04  0.25500000920E-02 0. -1.
       -2   -1    0    0    0  501  0.00000000000E+00  0.00000000000E+00 -0.91269819946E+03  0.91269819946E+03  0.25500000920E-02 0.  1.
    10030    2    1    2    0    0  0.00000000000E+00  0.00000000000E+00  0.41767160031E+03  0.22430679992E+04  0.22038385793E+04 0.  0.
        3    1    3    3  502    0  0.38229769263E+03  0.98701745310E+03 -0.10300194832E+03  0.10634680955E+04  0.10100000352E+00 0.  1.
       -3    1    3    3    0  502 -0.38229769263E+03 -0.98701745310E+03  0.52067354863E+03  0.11795999038E+04  0.10100000352E+00 0. -1.
</event>
<event>
 5   0  0.2289708E-05  0.2197440E+04  0.7818609E-02  0.8519494E-01
       -2   -1    0    0    0  501  0.00000000000E+00  0.00000000000E+00  0.10263791193E+04  0.10263791193E+04  0.25500000920E-02 0.  1.
        2   -1    0    0  501    0  0.00000000000E+00  0.00000000000E+00 -0.11761600854E+04  0.11761600854E+04  0.25500000920E-02 0. -1.
    10030    2    1    2    0    0  0.00000000000E+00  0.00000000000E+00 -0.14978096612E+03  0.22025392048E+04  0.21974404681E+04 0.  0.
        5    1    3    3  502    0 -0.66461653319E+03  0.85435849400E+03 -0.26379659296E+03  0.11141159297E+04  0.46999998093E+01 0. -1.
       -5    1    3    3    0  502  0.66461653319E+03 -0.85435849400E+03  0.11401562683E+03  0.10884232750E+04  0.46999998093E+01 0.  1.
</event>
<event>
 5   0  0.2284329E-05  0.2196282E+04  0.7818609E-02  0.8519977E-01
       -2   -1    0    0    0  501  0.00000000000E+00  0.00000000000E+00  0.10605683706E+04  0.10605683706E+04  0.25500000920E-02 0.  1.
        2   -1    0    0  501    0  0.00000000000E+00  0.00000000000E+00 -0.11370448104E+04  0.11370448104E+04  0.25500000920E-02 0. -1.
    10030    2    1    2    0    0  0.00000000000E+00  0.00000000000E+00 -0.76476439729E+02  0.21976131810E+04  0.21962820965E+04 0.  0.
        2    1    3    3  502    0 -0.52518634404E+03  0.84844385951E+03  0.42055475395E+03  0.10828406992E+04  0.25500000920E-02 0.  1.
       -2    1    3    3    0  502  0.52518634404E+03 -0.84844385951E+03 -0.49703119368E+03  0.11147724818E+04  0.25500000920E-02 0. -1.
</event>
<event>
 5   0  0.2284329E-05  0.2213732E+04  0.7818609E-02  0.8512734E-01
       -2   -1    0    0    0  501  0.00000000000E+00  0.00000000000E+00  0.13451901860E+04  0.13451901860E+04  0.25500000920E-02 0.  1.
        2   -1    0    0  501    0  0.00000000000E+00  0.00000000000E+00 -0.91076533441E+03  0.91076533441E+03  0.25500000920E-02 0. -1.
    10030    2    1    2    0    0  0.00000000000E+00  0.00000000000E+00  0.43442485160E+03  0.22559555204E+04  0.22137322237E+04 0.  0.
        2    1    3    3  502    0  0.10406770942E+04 -0.22140628278E+03 -0.93768679256E+02  0.10680927495E+04  0.25500000920E-02 0. -1.
       -2    1    3    3    0  502 -0.10406770942E+04  0.22140628278E+03  0.52819353085E+03  0.11878627709E+04  0.25500000920E-02 0.  1.
</event>
<event>
 5   0  0.2319707E-05  0.2198670E+04  0.7818609E-02  0.8518982E-01
       -2   -1    0    0    0  501  0.00000000000E+00  0.00000000000E+00  0.13750341261E+04  0.13750341261E+04  0.25500000920E-02 0. -1.
        2   -1    0    0  501    0  0.00000000000E+00  0.00000000000E+00 -0.87891437371E+03  0.87891437371E+03  0.25500000920E-02 0.  1.
    10030    2    1    2    0    0  0.00000000000E+00  0.00000000000E+00  0.49611975237E+03  0.22539484998E+04  0.21986698322E+04 0.  0.
        3    1    3    3  502    0 -0.36896100390E+03  0.29938637530E+02  0.13092222012E+04  0.13605481714E+04  0.10100000352E+00 0. -1.
       -3    1    3    3    0  502  0.36896100390E+03 -0.29938637530E+02 -0.81310244878E+03  0.89340032843E+03  0.10100000352E+00 0.  1.
</event>
<event>
 5   0  0.1007682E-05  0.2209836E+04  0.7818609E-02  0.8514345E-01
        1   -1    0    0  501    0  0.00000000000E+00  0.00000000000E+00  0.10782112114E+04  0.10782112114E+04  0.50400001928E-02 0.  1.
       -1   -1    0    0    0  501  0.00000000000E+00  0.00000000000E+00 -0.11322859889E+04  0.11322859889E+04  0.50400001928E-02 0. -1.
    10030    2    1    2    0    0  0.00000000000E+00  0.00000000000E+00 -0.54074777477E+02  0.22104972002E+04  0.22098356932E+04 0.  0.
        2    1    3    3  502    0  0.59359986011E+03 -0.24485381287E+03  0.87241433188E+03  0.10832455631E+04  0.25500000920E-02 0.  1.
       -2    1    3    3    0  502 -0.59359986011E+03  0.24485381287E+03 -0.92648910935E+03  0.11272516371E+04  0.25500000920E-02 0. -1.
</event>
<event>
 5   0  0.2229552E-05  0.2188429E+04  0.7818609E-02  0.8523260E-01
       -2   -1    0    0    0  501  0.00000000000E+00  0.00000000000E+00  0.12473048749E+04  0.12473048749E+04  0.25500000920E-02 0. -1.
        2   -1    0    0  501    0  0.00000000000E+00  0.00000000000E+00 -0.95991359223E+03  0.95991359224E+03  0.25500000920E-02 0.  1.
    10030    2    1    2    0    0  0.00000000000E+00  0.00000000000E+00  0.28739128268E+03  0.22072184671E+04  0.21884285715E+04 0.  0.
        1    1    3    3  502    0  0.90157866473E+02 -0.48287686707E+03 -0.84245518572E+03  0.97520728546E+03  0.50400001928E-02 0.  1.
       -1    1    3    3    0  502 -0.90157866473E+02  0.48287686707E+03  0.11298464684E+04  0.12320111817E+04  0.50400001928E-02 0. -1.
</event>
<event>
 5   0  0.1005538E-05  0.2185906E+04  0.7818609E-02  0.8524317E-01
        1   -1    0    0  501    0  0.00000000000E+00  0.00000000000E+00  0.10603351412E+04  0.10603351412E+04  0.50400001928E-02 0.  1.
       -1   -1    0    0    0  501  0.00000000000E+00  0.00000000000E+00 -0.11265744226E+04  0.11265744226E+04  0.50400001928E-02 0. -1.
    10030    2    1    2    0    0  0.00000000000E+00  0.00000000000E+00 -0.66239281348E+02  0.21869095638E+04  0.21859061732E+04 0.  0.
        3    1    3    3  502    0 -0.10612070075E+03  0.28177101049E+03  0.10180243065E+04  0.10616166937E+04  0.10100000352E+00 0.  1.
       -3    1    3    3    0  502  0.10612070075E+03 -0.28177101049E+03 -0.10842635879E+04  0.11252928702E+04  0.10100000352E+00 0. -1.
</event>
<event>
 5   0  0.1005538E-05  0.2191212E+04  0.7818609E-02  0.8522095E-01
        1   -1    0    0  501    0  0.00000000000E+00  0.00000000000E+00  0.13998649574E+04  0.13998649574E+04  0.50400001928E-02 0. -1.
       -1   -1    0    0    0  501  0.00000000000E+00  0.00000000000E+00 -0.85747724682E+03  0.85747724683E+03  0.50400001928E-02 0.  1.
    10030    2    1    2    0    0  0.00000000000E+00  0.00000000000E+00  0.54238771059E+03  0.22573422043E+04  0.21912118561E+04 0.  0.
        3    1    3    3  502    0  0.41347890236E+03 -0.22830041774E+03  0.12895965232E+04  0.13733699743E+04  0.10100000352E+00 0. -1.
       -3    1    3    3    0  502 -0.41347890236E+03  0.22830041774E+03 -0.74720881263E+03  0.88397222994E+03  0.10100000352E+00 0.  1.
</event>
<event>
 5   0  0.1071208E-05  0.2207441E+04  0.7818609E-02  0.8515338E-01
       -1   -1    0    0    0  501  0.00000000000E+00  0.00000000000E+00  0.16415068612E+04  0.16415068612E+04  0.50400001928E-02 0. -1.
        1   -1    0    0  501    0  0.00000000000E+00  0.00000000000E+00 -0.74212206324E+03  0.74212206325E+03  0.50400001928E-02 0.  1.
    10030    2    1    2    0    0  0.00000000000E+00  0.00000000000E+00  0.89938479793E+03  0.23836289244E+04  0.22074405620E+04 0.  0.
        4    1    3    3  502    0  0.12250426162E+03 -0.31577975636E+03 -0.68461411026E+03  0.76382081767E+03  0.12699999809E+01 0.  1.
       -4    1    3    3    0  502 -0.12250426162E+03  0.31577975636E+03  0.15839989082E+04  0.16198081067E+04  0.12699999809E+01 0. -1.
</event>
<event>
 5   0  0.2298329E-05  0.2197437E+04  0.7818609E-02  0.8519496E-01
       -2   -1    0    0    0  501  0.00000000000E+00  0.00000000000E+00  0.10941140239E+04  0.10941140239E+04  0.25500000920E-02 0. -1.
        2   -1    0    0  501    0  0.00000000000E+00  0.00000000000E+00 -0.11033426393E+04  0.11033426394E+04  0.25500000920E-02 0.  1.
    10030    2    1    2    0    0  0.00000000000E+00  0.00000000000E+00 -0.92286154985E+01  0.21974566632E+04  0.21974372845E+04 0.  0.
        4    1    3    3  502    0 -0.42505553385E+03 -0.18703999288E+03 -0.10003765104E+04  0.11029102145E+04  0.12699999809E+01 0.  1.
       -4    1    3    3    0  502  0.42505553385E+03  0.18703999288E+03  0.99114789493E+03  0.10945464487E+04  0.12699999809E+01 0. -1.
</event>
<event>
 5   0  0.1005538E-05  0.2200502E+04  0.7818609E-02  0.8518219E-01
       -1   -1    0    0    0  501  0.00000000000E+00  0.00000000000E+00  0.16324221747E+04  0.16324221747E+04  0.50400001928E-02 0.  1.
        1   -1    0    0  501    0  0.00000000000E+00  0.00000000000E+00 -0.74156846664E+03  0.74156846666E+03  0.50400001928E-02 0. -1.
    10030    2    1    2    0    0  0.00000000000E+00  0.00000000000E+00  0.89085370808E+03  0.23739906414E+04  0.22005024963E+04 0.  0.
        3    1    3    3  502    0 -0.35228001636E+03  0.41529294003E+03 -0.58597113949E+03  0.79995726291E+03  0.10100000352E+00 0. -1.
       -3    1    3    3    0  502  0.35228001636E+03 -0.41529294003E+03  0.14768248476E+04  0.15740333785E+04  0.10100000352E+00 0.  1.
</event>
<event>
 5   0  0.2289708E-05  0.2166483E+04  0.7818609E-02  0.8532510E-01
       -2   -1    0    0    0  501  0.00000000000E+00  0.00000000000E+00  0.53428001609E+03  0.53428001610E+03  0.25500000920E-02 0.  1.
        2   -1    0    0  501    0  0.00000000000E+00  0.00000000000E+00 -0.21962494310E+04  0.21962494310E+04  0.25500000920E-02 0. -1.
    10030    2    1    2    0    0  0.00000000000E+00  0.00000000000E+00 -0.16619694149E+04  0.27305294471E+04  0.21664830314E+04 0.  0.
        5    1    3    3  502    0  0.10777426576E+03 -0.93411234736E+03 -0.15319118257E+03  0.95271758578E+03  0.46999998093E+01 0. -1.
       -5    1    3    3    0  502 -0.10777426576E+03  0.93411234736E+03 -0.15087782323E+04  0.17778118613E+04  0.46999998093E+01 0.  1.
</event>
<event>
 5   0  0.1005538E-05  0.2199067E+04  0.7818609E-02  0.8518817E-01
       -1   -1    0    0    0  501  0.00000000000E+00  0.00000000000E+00  0.52706204197E+03  0.52706204200E+03  0.50400001928E-02 0.  1.
        1   -1    0    0  501    0  0.00000000000E+00  0.00000000000E+00 -0.22937973535E+04  0.22937973536E+04  0.50400001928E-02 0. -1.
    10030    2    1    2    0    0  0.00000000000E+00  0.00000000000E+00 -0.17667353116E+04  0.28208593956E+04  0.21990666357E+04 0.  0.
        3    1    3    3  502    0  0.30036060251E+03 -0.17441791700E+03 -0.22215781427E+04  0.22485656663E+04  0.10100000352E+00 0. -1.
       -3    1    3    3    0  502 -0.30036060251E+03  0.17441791700E+03  0.45484283113E+03  0.57229372926E+03  0.10100000352E+00 0.  1.
</event>
<event>
 5   0  0.2229552E-05  0.2196084E+04  0.7818609E-02  0.8520060E-01
       -2   -1    0    0    0  501  0.00000000000E+00  0.00000000000E+00  0.93352964803E+03  0.93352964804E+03  0.25500000920E-02 0.  1.
        2   -1    0    0  501    0  0.00000000000E+00  0.00000000000E+00 -0.12915457708E+04  0.12915457708E+04  0.25500000920E-02 0. -1.
    10030    2    1    2    0    0  0.00000000000E+00  0.00000000000E+00 -0.35801612277E+03  0.22250754188E+04  0.21960840319E+04 0.  0.
        1    1    3    3  502    0 -0.10921279440E+03  0.69720951321E+03  0.67332724283E+03  0.97539638903E+03  0.50400001928E-02 0.  1.
       -1    1    3    3    0  502  0.10921279440E+03 -0.69720951321E+03 -0.10313433656E+04  0.12496790298E+04  0.50400001928E-02 0. -1.
</event>
<event>
 5   0  0.1005538E-05  0.2202811E+04  0.7818609E-02  0.8517259E-01
        1   -1    0    0  501    0  0.00000000000E+00  0.00000000000E+00  0.19906552019E+04  0.19906552019E+04  0.50400001928E-02 0. -1.
       -1   -1    0    0    0  501  0.00000000000E+00  0.00000000000E+00 -0.60939463624E+03  0.60939463626E+03  0.50400001928E-02 0.  1.
    10030    2    1    2    0    0  0.00000000000E+00  0.00000000000E+00  0.13812605657E+04  0.26000498382E+04  0.22028114787E+04 0.  0.
        3    1    3    3  502    0  0.10976011279E+04 -0.87366625902E+02  0.65866464197E+03  0.12830433680E+04  0.10100000352E+00 0. -1.
       -3    1    3    3    0  502 -0.10976011279E+04  0.87366625902E+02  0.72259592373E+03  0.13170064702E+04  0.10100000352E+00 0.  1.
</event>
<event>
 5   0  0.2289708E-05  0.2195428E+04  0.7818609E-02  0.8520334E-01
       -2   -1    0    0    0  501  0.00000000000E+00  0.00000000000E+00  0.86769923666E+03  0.86769923666E+03  0.25500000920E-02 0.  1.
        2   -1    0    0  501    0  0.00000000000E+00  0.00000000000E+00 -0.13887020502E+04  0.13887020502E+04  0.25500000920E-02 0. -1.
    10030    2    1    2    0    0  0.00000000000E+00  0.00000000000E+00 -0.52100281358E+03  0.22564012869E+04  0.21954277114E+04 0.  0.
        5    1    3    3  502    0 -0.96655529340E+03  0.20863281774E+02  0.27383104272E+03  0.10048233385E+04  0.46999998093E+01 0.  1.
       -5    1    3    3    0  502  0.96655529340E+03 -0.20863281774E+02 -0.79483385630E+03  0.12515779484E+04  0.46999998093E+01 0. -1.
</event>
<event>
 5   0  0.2319707E-05  0.2202984E+04  0.7818609E-02  0.8517187E-01
        2   -1    0    0  501    0  0.00000000000E+00  0.00000000000E+00  0.13704036938E+04  0.13704036938E+04  0.25500000920E-02 0. -1.
       -2   -1    0    0    0  501  0.00000000000E+00  0.00000000000E+00 -0.88534824056E+03  0.88534824057E+03  0.25500000920E-02 0.  1.
    10030    2    1    2    0    0  0.00000000000E+00  0.00000000000E+00  0.48505545328E+03  0.22557519344E+04  0.22029838848E+04 0.  0.
        3    1    3    3  502    0 -0.51538024973E+03  0.54534715810E+03  0.10682327538E+04  0.13054277273E+04  0.10100000352E+00 0.  1.
       -3    1    3    3    0  502  0.51538024973E+03 -0.54534715810E+03 -0.58317730051E+03  0.95032420714E+03  0.10100000352E+00 0. -1.
</event>
<event>
 5   0  0.2319707E-05  0.2182699E+04  0.7818609E-02  0.8525664E-01
        2   -1    0    0  501    0  0.00000000000E+00  0.00000000000E+00  0.10069612662E+04  0.10069612662E+04  0.25500000920E-02 0. -1.
       -2   -1    0    0    0  501  0.00000000000E+00  0.00000000000E+00 -0.11828097117E+04  0.11828097117E+04  0.25500000920E-02 0.  1.
    10030    2    1    2    0    0  0.00000000000E+00  0.00000000000E+00 -0.17584844551E+03  0.21897709778E+04  0.21826988476E+04 0.  0.
        3    1    3    3  502    0 -0.97993871991E+03 -0.14126159500E+03  0.37270264561E+03  0.10578950823E+04  0.10100000352E+00 0.  1.
       -3    1    3    3    0  502  0.97993871991E+03  0.14126159500E+03 -0.54855109112E+03  0.11318758955E+04  0.10100000352E+00 0. -1.
</event>
<event>
 5   0  0.1049198E-05  0.2192704E+04  0.7818609E-02  0.8521471E-01
        1   -1    0    0  501    0  0.00000000000E+00  0.00000000000E+00  0.16260454154E+04  0.16260454154E+04  0.50400001928E-02 0. -1.
       -1   -1    0    0    0  501  0.00000000000E+00  0.00000000000E+00 -0.73920912905E+03  0.73920912907E+03  0.50400001928E-02 0.  1.
    10030    2    1    2    0    0  0.00000000000E+00  0.00000000000E+00  0.88683628632E+03  0.23652545445E+04  0.21927039156E+04 0.  0.
        1    1    3    3  502    0  0.92519223632E+03 -0.31166100924E+03 -0.94712804049E+02  0.98085869222E+03  0.50400001928E-02 0.  1.
       -1    1    3    3    0  502 -0.92519223632E+03  0.31166100924E+03  0.98154909037E+03  0.13843958522E+04  0.50400001928E-02 0. -1.
</event>
<event>
 5   0  0.1071208E-05  0.2196105E+04  0.7818609E-02  0.8520051E-01
       -1   -1    0    0    0  501  0.00000000000E+00  0.00000000000E+00  0.89300799327E+03  0.89300799329E+03  0.50400001928E-02 0.  1.
        1   -1    0    0  501    0  0.00000000000E+00  0.00000000000E+00 -0.13501777166E+04  0.13501777166E+04  0.50400001928E-02 0. -1.
    10030    2    1    2    0    0  0.00000000000E+00  0.00000000000E+00 -0.45716972329E+03  0.22431857099E+04  0.21961051826E+04 0.  0.
        4    1    3    3  502    0 -0.51632430232E+03  0.18506334201E+03  0.74305934292E+03  0.92356809479E+03  0.12699999809E+01 0.  1.
       -4    1    3    3    0  502  0.51632430232E+03 -0.18506334201E+03 -0.12002290662E+04  0.13196176151E+04  0.12699999809E+01 0. -1.
</event>
<event>
 5   0  0.1049198E-05  0.2198347E+04  0.7818609E-02  0.8519116E-01
        1   -1    0    0  501    0  0.00000000000E+00  0.00000000000E+00  0.61105779536E+03  0.61105779538E+03  0.50400001928E-02 0.  1.
       -1   -1    0    0    0  501  0.00000000000E+00  0.00000000000E+00 -0.19771988251E+04  0.19771988251E+04  0.50400001928E-02 0. -1.
    10030    2    1    2    0    0  0.00000000000E+00  0.00000000000E+00 -0.13661410297E+04  0.25882566205E+04  0.21983473384E+04 0.  0.
        1    1    3    3  502    0  0.98738676097E+03 -0.45934114844E+03 -0.50742660278E+03  0.12014194370E+04  0.50400001928E-02 0. -1.
       -1    1    3    3    0  502 -0.98738676097E+03  0.45934114844E+03 -0.85871442696E+03  0.13868371835E+04  0.50400001928E-02 0.  1.
</event>
<event>
 5   0  0.8003875E-06  0.2201175E+04  0.7818609E-02  0.8517939E-01
        3   -1    0    0  501    0  0.00000000000E+00  0.00000000000E+00  0.16614320944E+04  0.16614320974E+04  0.10100000352E+00 0.  1.
       -3   -1    0    0    0  501  0.00000000000E+00  0.00000000000E+00 -0.72906548928E+03  0.72906549627E+03  0.10100000352E+00 0. -1.
    10030    2    1    2    0    0  0.00000000000E+00  0.00000000000E+00  0.93236660509E+03  0.23904975937E+04  0.22011749724E+04 0.  0.
        4    1    3    3  502    0  0.35384095401E+02 -0.65708575325E+03 -0.49189493816E+03  0.82156920854E+03  0.12699999809E+01 0. -1.
       -4    1    3    3    0  502 -0.35384095401E+02  0.65708575325E+03  0.14242615432E+04  0.15689283852E+04  0.12699999809E+01 0.  1.
</event>
<event>
 5   0  0.1005538E-05  0.2210903E+04  0.7818609E-02  0.8513904E-01
       -1   -1    0    0    0  501  0.00000000000E+00  0.00000000000E+00  0.67363871246E+03  0.67363871248E+03  0.50400001928E-02 0.  1.
        1   -1    0    0  501    0  0.00000000000E+00  0.00000000000E+00 -0.18140630997E+04  0.18140630997E+04  0.50400001928E-02 0. -1.
    10030    2    1    2    0    0  0.00000000000E+00  0.00000000000E+00 -0.11404243872E+04  0.24877018122E+04  0.22109031013E+04 0.  0.
        3    1    3    3  502    0 -0.64225456512E+02 -0.59712867066E+03  0.47406261815E+03  0.76512935816E+03  0.10100000352E+00 0.  1.
       -3    1    3    3    0  502  0.64225456512E+02  0.59712867066E+03 -0.16144870054E+04  0.17225724540E+04  0.10100000352E+00 0. -1.
</event>
<event>
 5   0  0.1071208E-05  0.2202930E+04  0.7818609E-02  0.8517210E-01
        1   -1    0    0  501    0  0.00000000000E+00  0.00000000000E+00  0.86867524739E+03  0.86867524741E+03  0.50400001928E-02 0.  1.
       -1   -1    0    0    0  501  0.00000000000E+00  0.00000000000E+00 -0.13966380366E+04  0.13966380366E+04  0.50400001928E-02 0. -1.
    10030    2    1    2    0    0  0.00000000000E+00  0.00000000000E+00 -0.52796278921E+03  0.22653132840E+04  0.22029297692E+04 0.  0.
        4    1    3    3  502    0  0.10984211508E+04 -0.68309143853E+02 -0.31029130581E+03  0.11434498114E+04  0.12699999809E+01 0. -1.
       -4    1    3    3    0  502 -0.10984211508E+04  0.68309143853E+02 -0.21767148340E+03  0.11218634727E+04  0.12699999809E+01 0.  1.
</event>
<event>
 5   0  0.1007682E-05  0.2201860E+04  0.7818609E-02  0.8517655E-01
        1   -1    0    0  501    0  0.00000000000E+00  0.00000000000E+00  0.93040655038E+03  0.93040655040E+03  0.50400001928E-02 0. -1.
       -1   -1    0    0    0  501  0.00000000000E+00  0.00000000000E+00 -0.13027062573E+04  0.13027062573E+04  0.50400001928E-02 0.  1.
    10030    2    1    2    0    0  0.00000000000E+00  0.00000000000E+00 -0.37229970694E+03  0.22331128077E+04  0.22018596096E+04 0.  0.
        2    1    3    3  502    0  0.74895802806E+02 -0.80996077178E+03 -0.93857012480E+03  0.12419982739E+04  0.25500000920E-02 0.  1.
       -2    1    3    3    0  502 -0.74895802806E+02  0.80996077178E+03  0.56627041786E+03  0.99111453387E+03  0.25500000920E-02 0. -1.
</event>
<event>
 5   0  0.2284329E-05  0.2195601E+04  0.7818609E-02  0.8520261E-01
       -2   -1    0    0    0  501  0.00000000000E+00  0.00000000000E+00  0.11873664534E+04  0.11873664534E+04  0.25500000920E-02 0. -1.
        2   -1    0    0  501    0  0.00000000000E+00  0.00000000000E+00 -0.10149910961E+04  0.10149910961E+04  0.25500000920E-02 0.  1.
    10030    2    1    2    0    0  0.00000000000E+00  0.00000000000E+00  0.17237535723E+03  0.22023575495E+04  0.21956014010E+04 0.  0.
        2    1    3    3  502    0 -0.22591200640E+03 -0.89320310934E+03 -0.51257320664E+03  0.10543146216E+04  0.25500000920E-02 0. -1.
       -2    1    3    3    0  502  0.22591200640E+03  0.89320310934E+03  0.68494856387E+03  0.11480429279E+04  0.25500000920E-02 0.  1.
</event>
<event>
 5   0  0.1033733E-05  0.2200132E+04  0.7818609E-02  0.8518373E-01
       -1   -1    0    0    0  501  0.00000000000E+00  0.00000000000E+00  0.89315336121E+03  0.89315336123E+03  0.50400001928E-02 0.  1.
        1   -1    0    0  501    0  0.00000000000E+00  0.00000000000E+00 -0.13549136249E+04  0.13549136249E+04  0.50400001928E-02 0. -1.
    10030    2    1    2    0    0  0.00000000000E+00  0.00000000000E+00 -0.46176026364E+03  0.22480669861E+04  0.22001324126E+04 0.  0.
        5    1    3    3  502    0  0.17440653657E+03  0.52088778190E+03  0.74297566125E+03  0.92400034877E+03  0.46999998093E+01 0.  1.
       -5    1    3    3    0  502 -0.17440653657E+03 -0.52088778190E+03 -0.12047359249E+04  0.13240666373E+04  0.46999998093E+01 0. -1.
</event>
<event>
 5   0  0.1005538E-05  0.2198064E+04  0.7818609E-02  0.8519234E-01
       -1   -1    0    0    0  501  0.00000000000E+00  0.00000000000E+00  0.10927459644E+04  0.10927459644E+04  0.50400001928E-02 0. -1.
        1   -1    0    0  501    0  0.00000000000E+00  0.00000000000E+00 -0.11053545878E+04  0.11053545878E+04  0.50400001928E-02 0.  1.
    10030    2    1    2    0    0  0.00000000000E+00  0.00000000000E+00 -0.12608623395E+02  0.21981005523E+04  0.21980643895E+04 0.  0.
        3    1    3    3  502    0  0.86938810807E+03 -0.57743840940E+03  0.33808624905E+03  0.10970748020E+04  0.10100000352E+00 0. -1.
       -3    1    3    3    0  502 -0.86938810807E+03  0.57743840940E+03 -0.35069487244E+03  0.11010257503E+04  0.10100000352E+00 0.  1.
</event>
<event>
 5   0  0.2284329E-05  0.2201217E+04  0.7818609E-02  0.8517922E-01
       -2   -1    0    0    0  501  0.00000000000E+00  0.00000000000E+00  0.98053252196E+03  0.98053252196E+03  0.25500000920E-02 0. -1.
        2   -1    0    0  501    0  0.00000000000E+00  0.00000000000E+00 -0.12353890092E+04  0.12353890092E+04  0.25500000920E-02 0.  1.
    10030    2    1    2    0    0  0.00000000000E+00  0.00000000000E+00 -0.25485648723E+03  0.22159215312E+04  0.22012170277E+04 0.  0.
        2    1    3    3  502    0  0.70876817159E+03  0.22990354799E+03  0.68800204326E+03  0.10141768948E+04  0.25500000920E-02 0. -1.
       -2    1    3    3    0  502 -0.70876817159E+03 -0.22990354799E+03 -0.94285853049E+03  0.12017446363E+04  0.25500000920E-02 0.  1.
</event>
<event>
 5   0  0.1007682E-05  0.2197948E+04  0.7818609E-02  0.8519283E-01
       -1   -1    0    0    0  501  0.00000000000E+00  0.00000000000E+00  0.16737367154E+04  0.16737367154E+04  0.50400001928E-02 0. -1.
        1   -1    0    0  501    0  0.00000000000E+00  0.00000000000E+00 -0.72158558723E+03  0.72158558725E+03  0.50400001928E-02 0.  1.
    10030    2    1    2    0    0  0.00000000000E+00  0.00000000000E+00  0.95215112814E+03  0.23953223026E+04  0.21979483985E+04 0.  0.
        2    1    3    3  502    0  0.47962314684E+03 -0.27934555050E+03 -0.55761027327E+03  0.78676649422E+03  0.25500000920E-02 0.  1.
       -2    1    3    3    0  502 -0.47962314684E+03  0.27934555050E+03  0.15097614014E+04  0.16085558084E+04  0.25500000920E-02 0. -1.
</event>
<event>
 5   0  0.1033733E-05  0.2199225E+04  0.7818609E-02  0.8518751E-01
        1   -1    0    0  501    0  0.00000000000E+00  0.00000000000E+00  0.85358802508E+03  0.85358802510E+03  0.50400001928E-02 0. -1.
       -1   -1    0    0    0  501  0.00000000000E+00  0.00000000000E+00 -0.14165471116E+04  0.14165471116E+04  0.50400001928E-02 0.  1.
    10030    2    1    2    0    0  0.00000000000E+00  0.00000000000E+00 -0.56295908648E+03  0.22701351367E+04  0.21992250011E+04 0.  0.
        5    1    3    3  502    0 -0.20222533858E+03  0.36306811909E+03 -0.13323477819E+04  0.13956669547E+04  0.46999998093E+01 0.  1.
       -5    1    3    3    0  502  0.20222533858E+03 -0.36306811909E+03  0.76938869538E+03  0.87446818195E+03  0.46999998093E+01 0. -1.
</event>
<event>
 5   0  0.2229552E-05  0.2199860E+04  0.7818609E-02  0.8518486E-01
        2   -1    0    0  501    0  0.00000000000E+00  0.00000000000E+00  0.33922355662E+04  0.33922355662E+04  0.25500000920E-02 0. -1.
       -2   -1    0    0    0  501  0.00000000000E+00  0.00000000000E+00 -0.35665160886E+03  0.35665160887E+03  0.25500000920E-02 0.  1.
    10030    2    1    2    0    0  0.00000000000E+00  0.00000000000E+00  0.30355839573E+04  0.37488871751E+04  0.21998602431E+04 0.  0.
        1    1    3    3  502    0 -0.90856402279E+03  0.47593157439E+03  0.84073502160E+03  0.13262107011E+04  0.50400001928E-02 0.  1.
       -1    1    3    3    0  502  0.90856402279E+03 -0.47593157439E+03  0.21948489357E+04  0.24226764740E+04  0.50400001928E-02 0. -1.
</event>
<event>
 5   0  0.2284329E-05  0.2192970E+04  0.7818609E-02  0.8521360E-01
        2   -1    0    0  501    0  0.00000000000E+00  0.00000000000E+00  0.15381927151E+04  0.15381927151E+04  0.25500000920E-02 0. -1.
       -2   -1    0    0    0  501  0.00000000000E+00  0.00000000000E+00 -0.78161781140E+03  0.78161781140E+03  0.25500000920E-02 0.  1.
    10030    2    1    2    0    0  0.00000000000E+00  0.00000000000E+00  0.75657490374E+03  0.23198105265E+04  0.21929695151E+04 0.  0.
        2    1    3    3  502    0 -0.45227909883E+03  0.16474665792E+03  0.14204508309E+04  0.14997927882E+04  0.25500000920E-02 0. -1.
       -2    1    3    3    0  502  0.45227909883E+03 -0.16474665792E+03 -0.66387592715E+03  0.82001773834E+03  0.25500000920E-02 0.  1.
</event>
<event>
 5   0  0.2298329E-05  0.2199261E+04  0.7818609E-02  0.8518736E-01
       -2   -1    0    0    0  501  0.00000000000E+00  0.00000000000E+00  0.72174011419E+03  0.72174011419E+03  0.25500000920E-02 0.  1.
        2   -1    0    0  501    0  0.00000000000E+00  0.00000000000E+00 -0.16753769462E+04  0.16753769462E+04  0.25500000920E-02 0. -1.
    10030    2    1    2    0    0  0.00000000000E+00  0.00000000000E+00 -0.95363683205E+03  0.23971170604E+04  0.21992605562E+04 0.  0.
        4    1    3    3  502    0 -0.10284790712E+04 -0.25987591461E+03 -0.16114143108E+03  0.10729738415E+04  0.12699999809E+01 0. -1.
       -4    1    3    3    0  502  0.10284790712E+04  0.25987591461E+03 -0.79249540097E+03  0.13241432189E+04  0.12699999809E+01 0.  1.
</event>
<event>
 5   0  0.2289708E-05  0.2204034E+04  0.7818609E-02  0.8516751E-01
       -2   -1    0    0    0  501  0.00000000000E+00  0.00000000000E+00  0.78721954590E+03  0.78721954590E+03  0.25500000920E-02 0.  1.
        2   -1    0    0  501    0  0.00000000000E+00  0.00000000000E+00 -0.15426972314E+04  0.15426972314E+04  0.25500000920E-02 0. -1.
    10030    2    1    2    0    0  0.00000000000E+00  0.00000000000E+00 -0.75547768550E+03  0.23299167773E+04  0.22040339507E+04 0.  0.
        5    1    3    3  502    0 -0.93087902671E+03  0.40102036811E+03 -0.83495315934E+03  0.13132105567E+04  0.46999998093E+01 0. -1.
       -5    1    3    3    0  502  0.93087902671E+03 -0.40102036811E+03  0.79475473834E+02  0.10167062206E+04  0.46999998093E+01 0.  1.
</event>
<event>
 5   0  0.2298329E-05  0.2194702E+04  0.7818609E-02  0.8520636E-01
        2   -1    0    0  501    0  0.00000000000E+00  0.00000000000E+00  0.11000788184E+04  0.11000788184E+04  0.25500000920E-02 0. -1.
       -2   -1    0    0    0  501  0.00000000000E+00  0.00000000000E+00 -0.10946302181E+04  0.10946302181E+04  0.25500000920E-02 0.  1.
    10030    2    1    2    0    0  0.00000000000E+00  0.00000000000E+00  0.54486003950E+01  0.21947090365E+04  0.21947022731E+04 0.  0.
        4    1    3    3  502    0  0.63744280119E+03  0.85693246991E+03 -0.24929100230E+03  0.10967288633E+04  0.12699999809E+01 0.  1.
       -4    1    3    3    0  502 -0.63744280119E+03 -0.85693246991E+03  0.25473960270E+03  0.10979801732E+04  0.12699999809E+01 0. -1.
</event>
<event>
 5   0  0.2229552E-05  0.2204203E+04  0.7818609E-02  0.8516681E-01
        2   -1    0    0  501    0  0.00000000000E+00  0.00000000000E+00  0.23665604396E+04  0.23665604396E+04  0.25500000920E-02 0.  1.
       -2   -1    0    0    0  501  0.00000000000E+00  0.00000000000E+00 -0.51324586095E+03  0.51324586096E+03  0.25500000920E-02 0. -1.
    10030    2    1    2    0    0  0.00000000000E+00  0.00000000000E+00  0.18533145787E+04  0.28798063006E+04  0.22042026679E+04 0.  0.
        1    1    3    3  502    0  0.19058809657E+03 -0.10720648947E+04  0.70424239810E+03  0.12967668705E+04  0.50400001928E-02 0. -1.
       -1    1    3    3    0  502 -0.19058809657E+03  0.10720648947E+04  0.11490721806E+04  0.15830394301E+04  0.50400001928E-02 0.  1.
</event>
<event>
 5   0  0.1007682E-05  0.2198610E+04  0.7818609E-02  0.8519007E-01
        1   -1    0    0  501    0  0.00000000000E+00  0.00000000000E+00  0.10009548187E+04  0.10009548187E+04  0.50400001928E-02 0. -1.
       -1   -1    0    0    0  501  0.00000000000E+00  0.00000000000E+00 -0.12073185314E+04  0.12073185314E+04  0.50400001928E-02 0.  1.
    10030    2    1    2    0    0  0.00000000000E+00  0.00000000000E+00 -0.20636371267E+03  0.22082733501E+04  0.21986098350E+04 0.  0.
        2    1    3    3  502    0  0.94794753904E+03  0.20604682622E+03 -0.62257316845E+03  0.11526739268E+04  0.25500000920E-02 0.  1.
       -2    1    3    3    0  502 -0.94794753904E+03 -0.20604682622E+03  0.41620945578E+03  0.10555994233E+04  0.25500000920E-02 0. -1.
</event>
<event>
 5   0  0.2284329E-05  0.2163333E+04  0.7818609E-02  0.8533847E-01
        2   -1    0    0  501    0  0.00000000000E+00  0.00000000000E+00  0.24703327089E+04  0.24703327089E+04  0.25500000920E-02 0.  1.
       -2   -1    0    0    0  501  0.00000000000E+00  0.00000000000E+00 -0.47362134322E+03  0.47362134323E+03  0.25500000920E-02 0. -1.
    10030    2    1    2    0    0  0.00000000000E+00  0.00000000000E+00  0.19967113657E+04  0.29439540521E+04  0.21633328878E+04 0.  0.
        2    1    3    3  502    0  0.36984935114E+03  0.85848206016E+03  0.25769966848E+03  0.96963349225E+03  0.25500000920E-02 0.  1.
       -2    1    3    3    0  502 -0.36984935114E+03 -0.85848206016E+03  0.17390116972E+04  0.19743205599E+04  0.25500000920E-02 0. -1.
</event>
<event>
 5   0  0.2319707E-05  0.2203404E+04  0.7818609E-02  0.8517013E-01
       -2   -1    0    0    0  501  0.00000000000E+00  0.00000000000E+00  0.80422929082E+03  0.80422929083E+03  0.25500000920E-02 0.  1.
        2   -1    0    0  501    0  0.00000000000E+00  0.00000000000E+00 -0.15092051642E+04  0.15092051642E+04  0.25500000920E-02 0. -1.
    10030    2    1    2    0    0  0.00000000000E+00  0.00000000000E+00 -0.70497587339E+03  0.23134344550E+04  0.22034037296E+04 0.  0.
        3    1    3    3  502    0  0.71805895935E+03  0.80933376732E+03 -0.13447199210E+03  0.10902809468E+04  0.10100000352E+00 0.  1.
       -3    1    3    3    0  502 -0.71805895935E+03 -0.80933376732E+03 -0.57050388129E+03  0.12231535083E+04  0.10100000352E+00 0. -1.
</event>
<event>
 5   0  0.2289708E-05  0.2181792E+04  0.7818609E-02  0.8526045E-01
       -2   -1    0    0    0  501  0.00000000000E+00  0.00000000000E+00  0.13188034219E+04  0.13188034219E+04  0.25500000920E-02 0.  1.
        2   -1    0    0  501    0  0.00000000000E+00  0.00000000000E+00 -0.90237444461E+03  0.90237444462E+03  0.25500000920E-02 0. -1.
    10030    2    1    2    0    0  0.00000000000E+00  0.00000000000E+00  0.41642897725E+03  0.22211778665E+04  0.21817923873E+04 0.  0.
        5    1    3    3  502    0 -0.78734320386E+03 -0.51735850951E+03  0.76810903169E+03  0.12155586052E+04  0.46999998093E+01 0.  1.
       -5    1    3    3    0  502  0.78734320386E+03  0.51735850951E+03 -0.35168005444E+03  0.10056192613E+04  0.46999998093E+01 0. -1.
</event>
<event>
 5   0  0.2229552E-05  0.2195491E+04  0.7818609E-02  0.8520307E-01
        2   -1    0    0  501    0  0.00000000000E+00  0.00000000000E+00  0.21848202206E+04  0.21848202206E+04  0.25500000920E-02 0.  1.
       -2   -1    0    0    0  501  0.00000000000E+00  0.00000000000E+00 -0.55155333453E+03  0.55155333453E+03  0.25500000920E-02 0. -1.
    10030    2    1    2    0    0  0.00000000000E+00  0.00000000000E+00  0.16332668861E+04  0.27363735552E+04  0.21954907224E+04 0.  0.
        1    1    3    3  502    0 -0.37987824513E+03  0.29232921839E+03 -0.41422657791E+03  0.63351993727E+03  0.50400001928E-02 0. -1.
       -1    1    3    3    0  502  0.37987824513E+03 -0.29232921839E+03  0.20474934640E+04  0.21028536179E+04  0.50400001928E-02 0.  1.
</event>
<event>
 5   0  0.1049198E-05  0.2194097E+04  0.7818609E-02  0.8520889E-01
        1   -1    0    0  501    0  0.00000000000E+00  0.00000000000E+00  0.13941030538E+04  0.13941030538E+04  0.50400001928E-02 0.  1.
       -1   -1    0    0    0  501  0.00000000000E+00  0.00000000000E+00 -0.86328975651E+03  0.86328975653E+03  0.50400001928E-02 0. -1.
    10030    2    1    2    0    0  0.00000000000E+00  0.00000000000E+00  0.53081329730E+03  0.22573928103E+04  0.21940965210E+04 0.  0.
        1    1    3    3  502    0  0.46154120175E+03 -0.41628972887E+03 -0.66466180587E+03  0.90999600850E+03  0.50400001928E-02 0. -1.
       -1    1    3    3    0  502 -0.46154120175E+03  0.41628972887E+03  0.11954751032E+04  0.13473968018E+04  0.50400001928E-02 0.  1.
</event>
<event>
 5   0  0.2284329E-05  0.2198691E+04  0.7818609E-02  0.8518973E-01
        2   -1    0    0  501    0  0.00000000000E+00  0.00000000000E+00  0.16293059390E+04  0.16293059390E+04  0.25500000920E-02 0.  1.
       -2   -1    0    0    0  501  0.00000000000E+00  0.00000000000E+00 -0.74176384891E+03  0.74176384892E+03  0.25500000920E-02 0. -1.
    10030    2    1    2    0    0  0.00000000000E+00  0.00000000000E+00  0.88754209007E+03  0.23710697879E+04  0.21986907417E+04 0.  0.
        2    1    3    3  502    0 -0.83227620299E+03 -0.17017429221E+03 -0.30873116758E+03  0.90385723521E+03  0.25500000920E-02 0. -1.
       -2    1    3    3    0  502  0.83227620299E+03  0.17017429221E+03  0.11962732577E+04  0.14672125527E+04  0.25500000920E-02 0.  1.
</event>
<event>
 5   0  0.1033733E-05  0.2184113E+04  0.7818609E-02  0.8525070E-01
        1   -1    0    0  501    0  0.00000000000E+00  0.00000000000E+00  0.13900893974E+04  0.13900893974E+04  0.50400001928E-02 0. -1.
       -1   -1    0    0    0  501  0.00000000000E+00  0.00000000000E+00 -0.85792104807E+03  0.85792104809E+03  0.50400001928E-02 0.  1.
    10030    2    1    2    0    0  0.00000000000E+00  0.00000000000E+00  0.53216834931E+03  0.22480104455E+04  0.21841125912E+04 0.  0.
        5    1    3    3  502    0 -0.34020181270E+03 -0.14269328934E+03  0.13239999880E+04  0.13744441445E+04  0.46999998093E+01 0. -1.
       -5    1    3    3    0  502  0.34020181270E+03  0.14269328934E+03 -0.79183163867E+03  0.87356630097E+03  0.46999998093E+01 0.  1.
</event>
<event>
 5   0  0.2289708E-05  0.2199758E+04  0.7818609E-02  0.8518529E-01
        2   -1    0    0  501    0  0.00000000000E+00  0.00000000000E+00  0.16050971828E+04  0.16050971828E+04  0.25500000920E-02 0.  1.
       -2   -1    0    0    0  501  0.00000000000E+00  0.00000000000E+00 -0.75368284067E+03  0.75368284067E+03  0.25500000920E-02 0. -1.
    10030    2    1    2    0    0  0.00000000000E+00  0.00000000000E+00  0.85141434213E+03  0.23587800235E+04  0.21997583543E+04 0.  0.
        5    1    3    3  502    0 -0.12150575424E+03  0.84407534243E+03  0.11705326086E+04  0.14482387614E+04  0.46999998093E+01 0.  1.
       -5    1    3    3    0  502  0.12150575424E+03 -0.84407534243E+03 -0.31911826650E+03  0.91054126212E+03  0.46999998093E+01 0. -1.
</event>
<event>
 5   0  0.1071208E-05  0.2193203E+04  0.7818609E-02  0.8521262E-01
       -1   -1    0    0    0  501  0.00000000000E+00  0.00000000000E+00  0.73921878025E+03  0.73921878027E+03  0.50400001928E-02 0.  1.
        1   -1    0    0  501    0  0.00000000000E+00  0.00000000000E+00 -0.16267645944E+04  0.16267645944E+04  0.50400001928E-02 0. -1.
    10030    2    1    2    0    0  0.00000000000E+00  0.00000000000E+00 -0.88754581415E+03  0.23659833747E+04  0.21932030816E+04 0.  0.
        4    1    3    3  502    0  0.64793348557E+03 -0.48297789357E+03  0.35587000448E+03  0.88302351066E+03  0.12699999809E+01 0.  1.
       -4    1    3    3    0  502 -0.64793348557E+03  0.48297789357E+03 -0.12434158186E+04  0.14829598640E+04  0.12699999809E+01 0. -1.
</event>
<event>
 5   0  0.2298329E-05  0.2197165E+04  0.7818609E-02  0.8519609E-01
       -2   -1    0    0    0  501  0.00000000000E+00  0.00000000000E+00  0.19204813038E+04  0.19204813038E+04  0.25500000920E-02 0.  1.
        2   -1    0    0  501    0  0.00000000000E+00  0.00000000000E+00 -0.62842737878E+03  0.62842737879E+03  0.25500000920E-02 0. -1.
    10030    2    1    2    0    0  0.00000000000E+00  0.00000000000E+00  0.12920539250E+04  0.25489086826E+04  0.21971645653E+04 0.  0.
        4    1    3    3  502    0 -0.51492109232E+02 -0.22277526111E+03 -0.60051724785E+03  0.64257515680E+03  0.12699999809E+01 0. -1.
       -4    1    3    3    0  502  0.51492109232E+02  0.22277526111E+03  0.18925711729E+04  0.19063335258E+04  0.12699999809E+01 0.  1.
</event>
<event>
 5   0  0.1049198E-05  0.2201202E+04  0.7818609E-02  0.8517928E-01
       -1   -1    0    0    0  501  0.00000000000E+00  0.00000000000E+00  0.13936126115E+04  0.13936126115E+04  0.50400001928E-02 0. -1.
        1   -1    0    0  501    0  0.00000000000E+00  0.00000000000E+00 -0.86919597117E+03  0.86919597119E+03  0.50400001928E-02 0.  1.
    10030    2    1    2    0    0  0.00000000000E+00  0.00000000000E+00  0.52441664030E+03  0.22628085827E+04  0.22012019147E+04 0.  0.
        1    1    3    3  502    0  0.54027451370E+02  0.10177323935E+04  0.68931746652E+03  0.12303888653E+04  0.50400001928E-02 0. -1.
       -1    1    3    3    0  502 -0.54027451370E+02 -0.10177323935E+04 -0.16490082622E+03  0.10324197173E+04  0.50400001928E-02 0.  1.
</event>
<event>
 5   0  0.2229552E-05  0.2209226E+04  0.7818609E-02  0.8514598E-01
       -2   -1    0    0    0  501  0.00000000000E+00  0.00000000000E+00  0.11553479392E+04  0.11553479392E+04  0.25500000920E-02 0. -1.
        2   -1    0    0  501    0  0.00000000000E+00  0.00000000000E+00 -0.10561063203E+04  0.10561063203E+04  0.25500000920E-02 0.  1.
    10030    2    1    2    0    0  0.00000000000E+00  0.00000000000E+00  0.99241618846E+02  0.22114542595E+04  0.22092263448E+04 0.  0.
        1    1    3    3  502    0 -0.69911071828E+03 -0.50521153028E+03 -0.64112998924E+03  0.10747288727E+04  0.50400001928E-02 0.  1.
       -1    1    3    3    0  502  0.69911071828E+03  0.50521153028E+03  0.74037160809E+03  0.11367253867E+04  0.50400001928E-02 0. -1.
</event>
<event>
 5   0  0.1071208E-05  0.2201077E+04  0.7818609E-02  0.8517980E-01
        1   -1    0    0  501    0  0.00000000000E+00  0.00000000000E+00  0.12088352089E+04  0.12088352089E+04  0.50400001928E-02 0.  1.
       -1   -1    0    0    0  501  0.00000000000E+00  0.00000000000E+00 -0.10019436576E+04  0.10019436576E+04  0.50400001928E-02 0. -1.
    10030    2    1    2    0    0  0.00000000000E+00  0.00000000000E+00  0.20689155133E+03  0.22107788665E+04  0.22010768007E+04 0.  0.
        4    1    3    3  502    0  0.39714879743E+02 -0.37487501687E+03 -0.93507243226E+03  0.10082016745E+04  0.12699999809E+01 0. -1.
       -4    1    3    3    0  502 -0.39714879743E+02  0.37487501687E+03  0.11419639836E+04  0.12025771920E+04  0.12699999809E+01 0.  1.
</event>
<event>
 5   0  0.2319707E-05  0.2197996E+04  0.7818609E-02  0.8519263E-01
        2   -1    0    0  501    0  0.00000000000E+00  0.00000000000E+00  0.12950083750E+04  0.12950083750E+04  0.25500000920E-02 0. -1.
       -2   -1    0    0    0  501  0.00000000000E+00  0.00000000000E+00 -0.93265507724E+03  0.93265507724E+03  0.25500000920E-02 0.  1.
    10030    2    1    2    0    0  0.00000000000E+00  0.00000000000E+00  0.36235329778E+03  0.22276634523E+04  0.21979955742E+04 0.  0.
        3    1    3    3  502    0  0.28607878599E+02 -0.85220793612E+03 -0.52152110838E+03  0.99953041664E+03  0.10100000352E+00 0.  1.
       -3    1    3    3    0  502 -0.28607878599E+02  0.85220793612E+03  0.88387440616E+03  0.12281330356E+04  0.10100000352E+00 0. -1.
</event>
<event>
 5   0  0.1005538E-05  0.2201776E+04  0.7818609E-02  0.8517689E-01
        1   -1    0    0  501    0  0.00000000000E+00  0.00000000000E+00  0.65177581916E+03  0.65177581918E+03  0.50400001928E-02 0. -1.
       -1   -1    0    0    0  501  0.00000000000E+00  0.00000000000E+00 -0.18594653168E+04  0.18594653168E+04  0.50400001928E-02 0.  1.
    10030    2    1    2    0    0  0.00000000000E+00  0.00000000000E+00 -0.12076894976E+04  0.25112411360E+04  0.22017761286E+04 0.  0.
        3    1    3    3  502    0  0.41385357675E+03  0.38334914948E+03  0.47439854512E+03  0.73707892604E+03  0.10100000352E+00 0. -1.
       -3    1    3    3    0  502 -0.41385357675E+03 -0.38334914948E+03 -0.16820880427E+04  0.17741622099E+04  0.10100000352E+00 0.  1.
</event>
<event>
 5   0  0.2229552E-05  0.2199258E+04  0.7818609E-02  0.8518737E-01
        2   -1    0    0  501    0  0.00000000000E+00  0.00000000000E+00  0.23529564407E+04  0.23529564407E+04  0.25500000920E-02 0. -1.
       -2   -1    0    0    0  501  0.00000000000E+00  0.00000000000E+00 -0.51389961976E+03  0.51389961976E+03  0.25500000920E-02 0.  1.
    10030    2    1    2    0    0  0.00000000000E+00  0.00000000000E+00  0.18390568209E+04  0.28668560605E+04  0.21992575294E+04 0.  0.
        1    1    3    3  502    0  0.40288100497E+02  0.41491146188E+03 -0.40690581724E+03  0.58253497437E+03  0.50400001928E-02 0.  1.
       -1    1    3    3    0  502 -0.40288100497E+02 -0.41491146188E+03  0.22459626382E+04  0.22843210861E+04  0.50400001928E-02 0. -1.
</event>
<event>
 5   0  0.1071208E-05  0.2199676E+04  0.7818609E-02  0.8518563E-01
       -1   -1    0    0    0  501  0.00000000000E+00  0.00000000000E+00  0.95680120726E+03  0.95680120728E+03  0.50400001928E-02 0.  1.
        1   -1    0    0  501    0  0.00000000000E+00  0.00000000000E+00 -0.12642580282E+04  0.12642580282E+04  0.50400001928E-02 0. -1.
    10030    2    1    2    0    0  0.00000000000E+00  0.00000000000E+00 -0.30745682090E+03  0.22210592355E+04  0.21996759831E+04 0.  0.
        4    1    3    3  502    0 -0.39683773903E+03  0.62634331647E+03 -0.97394011999E+03  0.12240698965E+04  0.12699999809E+01 0. -1.
       -4    1    3    3    0  502  0.39683773903E+03 -0.62634331647E+03  0.66648329909E+03  0.99698933899E+03  0.12699999809E+01 0.  1.
</event>
<event>
 5   0  0.2319707E-05  0.2293519E+04  0.7818609E-02  0.8480481E-01
        2   -1    0    0  501    0  0.00000000000E+00  0.00000000000E+00  0.23170581829E+04  0.23170581829E+04  0.25500000920E-02 0.  1.
       -2   -1    0    0    0  501  0.00000000000E+00  0.00000000000E+00 -0.56755457740E+03  0.56755457740E+03  0.25500000920E-02 0. -1.
    10030    2    1    2    0    0  0.00000000000E+00  0.00000000000E+00  0.17495036055E+04  0.28846127603E+04  0.22935186747E+04 0.  0.
        3    1    3    3  502    0  0.17242885665E+03  0.92922790060E+03  0.16916535180E+04  0.19377532962E+04  0.10100000352E+00 0.  1.
       -3    1    3    3    0  502 -0.17242885665E+03 -0.92922790060E+03  0.57850087486E+02  0.94685946406E+03  0.10100000352E+00 0. -1.
</event>
<event>
 5   0  0.1071208E-05  0.2204923E+04  0.7818609E-02  0.8516382E-01
       -1   -1    0    0    0  501  0.00000000000E+00  0.00000000000E+00  0.15876787796E+04  0.15876787797E+04  0.50400001928E-02 0.  1.
        1   -1    0    0  501    0  0.00000000000E+00  0.00000000000E+00 -0.76553371223E+03  0.76553371225E+03  0.50400001928E-02 0. -1.
    10030    2    1    2    0    0  0.00000000000E+00  0.00000000000E+00  0.82214506742E+03  0.23532124919E+04  0.22049232459E+04 0.  0.
        4    1    3    3  502    0  0.41143399852E+03  0.20648191684E+03  0.14801961848E+04  0.15501274385E+04  0.12699999809E+01 0.  1.
       -4    1    3    3    0  502 -0.41143399852E+03 -0.20648191684E+03 -0.65805111736E+03  0.80308505345E+03  0.12699999809E+01 0. -1.
</event>
<event>
 5   0  0.8003875E-06  0.2198626E+04  0.7818609E-02  0.8519000E-01
       -3   -1    0    0    0  501  0.00000000000E+00  0.00000000000E+00  0.90428321017E+03  0.90428321581E+03  0.10100000352E+00 0. -1.
        3   -1    0    0  501    0  0.00000000000E+00  0.00000000000E+00 -0.13364054430E+04  0.13364054468E+04  0.10100000352E+00 0.  1.
    10030    2    1    2    0    0  0.00000000000E+00  0.00000000000E+00 -0.43212223286E+03  0.22406886627E+04  0.21986259479E+04 0.  0.
        4    1    3    3  502    0  0.10188441022E+04 -0.22177897171E+03 -0.57094452789E+03  0.11887844563E+04  0.12699999809E+01 0.  1.
       -4    1    3    3    0  502 -0.10188441022E+04  0.22177897171E+03  0.13882229503E+03  0.10519042063E+04  0.12699999809E+01 0. -1.
</event>
<event>
 5   0  0.1071208E-05  0.2200522E+04  0.7818609E-02  0.8518211E-01
        1   -1    0    0  501    0  0.00000000000E+00  0.00000000000E+00  0.21267696265E+04  0.21267696265E+04  0.50400001928E-02 0.  1.
       -1   -1    0    0    0  501  0.00000000000E+00  0.00000000000E+00 -0.56920797939E+03  0.56920797941E+03  0.50400001928E-02 0. -1.
    10030    2    1    2    0    0  0.00000000000E+00  0.00000000000E+00  0.15575616471E+04  0.26959776059E+04  0.22005219761E+04 0.  0.
        4    1    3    3  502    0  0.53871848525E+03  0.66620412766E+03  0.16245159415E+04  0.18365999029E+04  0.12699999809E+01 0.  1.
       -4    1    3    3    0  502 -0.53871848525E+03 -0.66620412766E+03 -0.66954294412E+02  0.85937770305E+03  0.12699999809E+01 0. -1.
</event>
<event>
 5   0  0.1033733E-05  0.2202268E+04  0.7818609E-02  0.8517485E-01
        1   -1    0    0  501    0  0.00000000000E+00  0.00000000000E+00  0.29438851611E+04  0.29438851611E+04  0.50400001928E-02 0. -1.
       -1   -1    0    0    0  501  0.00000000000E+00  0.00000000000E+00 -0.41186944943E+03  0.41186944946E+03  0.50400001928E-02 0.  1.
    10030    2    1    2    0    0  0.00000000000E+00  0.00000000000E+00  0.25320157117E+04  0.33557546106E+04  0.22022682494E+04 0.  0.
        5    1    3    3  502    0  0.18157647886E+02  0.62568892465E+03  0.26463955083E+04  0.27194204543E+04  0.46999998093E+01 0. -1.
       -5    1    3    3    0  502 -0.18157647886E+02 -0.62568892465E+03 -0.11437979663E+03  0.63633415631E+03  0.46999998093E+01 0.  1.
</event>
<event>
 5   0  0.2284329E-05  0.2164819E+04  0.7818609E-02  0.8533215E-01
        2   -1    0    0  501    0  0.00000000000E+00  0.00000000000E+00  0.13591126953E+04  0.13591126953E+04  0.25500000920E-02 0.  1.
       -2   -1    0    0    0  501  0.00000000000E+00  0.00000000000E+00 -0.86204076831E+03  0.86204076831E+03  0.25500000920E-02 0. -1.
    10030    2    1    2    0    0  0.00000000000E+00  0.00000000000E+00  0.49707192695E+03  0.22211534636E+04  0.21648192091E+04 0.  0.
        2    1    3    3  502    0  0.50576136026E+03 -0.53119827279E+03  0.10652682632E+04  0.12933532507E+04  0.25500000920E-02 0.  1.
       -2    1    3    3    0  502 -0.50576136026E+03  0.53119827279E+03 -0.56819633620E+03  0.92780021289E+03  0.25500000920E-02 0. -1.
</event>
<event>
 5   0  0.2298329E-05  0.2204953E+04  0.7818609E-02  0.8516369E-01
        2   -1    0    0  501    0  0.00000000000E+00  0.00000000000E+00  0.24239486718E+04  0.24239486718E+04  0.25500000920E-02 0.  1.
       -2   -1    0    0    0  501  0.00000000000E+00  0.00000000000E+00 -0.50143562641E+03  0.50143562642E+03  0.25500000920E-02 0. -1.
    10030    2    1    2    0    0  0.00000000000E+00  0.00000000000E+00  0.19225130454E+04  0.29253842982E+04  0.22049528073E+04 0.  0.
        4    1    3    3  502    0 -0.23821025424E+03  0.92028551523E+03  0.22044133053E+03  0.97584094394E+03  0.12699999809E+01 0. -1.
       -4    1    3    3    0  502  0.23821025424E+03 -0.92028551523E+03  0.17020717149E+04  0.19495433543E+04  0.12699999809E+01 0.  1.
</event>
<event>
 5   0  0.2289708E-05  0.2218060E+04  0.7818609E-02  0.8510949E-01
        2   -1    0    0  501    0  0.00000000000E+00  0.00000000000E+00  0.11154113888E+04  0.11154113888E+04  0.25500000920E-02 0.  1.
       -2   -1    0    0    0  501  0.00000000000E+00  0.00000000000E+00 -0.11026848864E+04  0.11026848864E+04  0.25500000920E-02 0. -1.
    10030    2    1    2    0    0  0.00000000000E+00  0.00000000000E+00  0.12726502436E+02  0.22180962752E+04  0.22180597652E+04 0.  0.
        5    1    3    3  502    0 -0.90865077963E+03 -0.12206706533E+03 -0.61764908956E+03  0.11054678175E+04  0.46999998093E+01 0. -1.
       -5    1    3    3    0  502  0.90865077963E+03  0.12206706533E+03  0.63037559199E+03  0.11126284576E+04  0.46999998093E+01 0.  1.
</event>
<event>
 5   0  0.2289708E-05  0.2192579E+04  0.7818609E-02  0.8521523E-01
       -2   -1    0    0    0  501  0.00000000000E+00  0.00000000000E+00  0.11226457877E+04  0.11226457877E+04  0.25500000920E-02 0.  1.
        2   -1    0    0  501    0  0.00000000000E+00  0.00000000000E+00 -0.10705524251E+04  0.10705524251E+04  0.25500000920E-02 0. -1.
    10030    2    1    2    0    0  0.00000000000E+00  0.00000000000E+00  0.52093362679E+02  0.21931982128E+04  0.21925794586E+04 0.  0.
        5    1    3    3  502    0  0.27682673252E+03 -0.36645438843E+03 -0.96967746539E+03  0.10729484310E+04  0.46999998093E+01 0. -1.
       -5    1    3    3    0  502 -0.27682673252E+03  0.36645438843E+03  0.10217708281E+04  0.11202497818E+04  0.46999998093E+01 0.  1.
</event>
<event>
 5   0  0.1071208E-05  0.2197742E+04  0.7818609E-02  0.8519368E-01
       -1   -1    0    0    0  501  0.00000000000E+00  0.00000000000E+00  0.12561604306E+04  0.12561604306E+04  0.50400001928E-02 0.  1.
        1   -1    0    0  501    0  0.00000000000E+00  0.00000000000E+00 -0.96127674201E+03  0.96127674202E+03  0.50400001928E-02 0. -1.
    10030    2    1    2    0    0  0.00000000000E+00  0.00000000000E+00  0.29488368861E+03  0.22174371726E+04  0.21977423017E+04 0.  0.
        4    1    3    3  502    0  0.77752565436E+02 -0.44567124846E+03 -0.86295524031E+03  0.97435192965E+03  0.12699999809E+01 0. -1.
       -4    1    3    3    0  502 -0.77752565436E+02  0.44567124846E+03  0.11578389289E+04  0.12430852430E+04  0.12699999809E+01 0.  1.
</event>
<event>
 5   0  0.1049198E-05  0.2240534E+04  0.7818609E-02  0.8501744E-01
        1   -1    0    0  501    0  0.00000000000E+00  0.00000000000E+00  0.13273923148E+04  0.13273923148E+04  0.50400001928E-02 0.  1.
       -1   -1    0    0    0  501  0.00000000000E+00  0.00000000000E+00 -0.94546122195E+03  0.94546122196E+03  0.50400001928E-02 0. -1.
    10030    2    1    2    0    0  0.00000000000E+00  0.00000000000E+00  0.38193109286E+03  0.22728535368E+04  0.22405338292E+04 0.  0.
        1    1    3    3  502    0 -0.44031668461E+03 -0.90571973097E+03 -0.30681740869E+03  0.10527791488E+04  0.50400001928E-02 0.  1.
       -1    1    3    3    0  502  0.44031668461E+03  0.90571973097E+03  0.68874850155E+03  0.12200743880E+04  0.50400001928E-02 0. -1.
</event>
<event>
 5   0  0.2319707E-05  0.2196008E+04  0.7818609E-02  0.8520092E-01
       -2   -1    0    0    0  501  0.00000000000E+00  0.00000000000E+00  0.82409448970E+03  0.82409448971E+03  0.25500000920E-02 0.  1.
        2   -1    0    0  501    0  0.00000000000E+00  0.00000000000E+00 -0.14629544391E+04  0.14629544391E+04  0.25500000920E-02 0. -1.
    10030    2    1    2    0    0  0.00000000000E+00  0.00000000000E+00 -0.63885994936E+03  0.22870489288E+04  0.21960079161E+04 0.  0.
        3    1    3    3  502    0  0.42762845231E+03 -0.12526758974E+03  0.72569461899E+03  0.85158132465E+03  0.10100000352E+00 0.  1.
       -3    1    3    3    0  502 -0.42762845231E+03  0.12526758974E+03 -0.13645545684E+04  0.14354676041E+04  0.10100000352E+00 0. -1.
</event>
<event>
 5   0  0.2229552E-05  0.2201479E+04  0.7818609E-02  0.8517813E-01
       -2   -1    0    0    0  501  0.00000000000E+00  0.00000000000E+00  0.90427913251E+03  0.90427913252E+03  0.25500000920E-02 0.  1.
        2   -1    0    0  501    0  0.00000000000E+00  0.00000000000E+00 -0.13398818165E+04  0.13398818165E+04  0.25500000920E-02 0. -1.
    10030    2    1    2    0    0  0.00000000000E+00  0.00000000000E+00 -0.43560268403E+03  0.22441609491E+04  0.22014787455E+04 0.  0.
        1    1    3    3  502    0 -0.32161649453E+01 -0.10434347953E+04 -0.57511195010E+03  0.11914362219E+04  0.50400001928E-02 0.  1.
       -1    1    3    3    0  502  0.32161649453E+01  0.10434347953E+04  0.13950926607E+03  0.10527247271E+04  0.50400001928E-02 0. -1.
</event>
<event>
 5   0  0.2289708E-05  0.2156864E+04  0.7818609E-02  0.8536600E-01
        2   -1    0    0  501    0  0.00000000000E+00  0.00000000000E+00  0.13233815560E+04  0.13233815561E+04  0.25500000920E-02 0. -1.
       -2   -1    0    0    0  501  0.00000000000E+00  0.00000000000E+00 -0.87882120815E+03  0.87882120815E+03  0.25500000920E-02 0.  1.
    10030    2    1    2    0    0  0.00000000000E+00  0.00000000000E+00  0.44456034790E+03  0.22022027642E+04  0.21568641848E+04 0.  0.
        5    1    3    3  502    0 -0.65727967556E+03 -0.20248047261E+03 -0.62583018906E+03  0.92989269770E+03  0.46999998093E+01 0.  1.
       -5    1    3    3    0  502  0.65727967556E+03  0.20248047261E+03  0.10703905370E+04  0.12723100665E+04  0.46999998093E+01 0. -1.
</event>
<event>
 5   0  0.1005538E-05  0.2208574E+04  0.7818609E-02  0.8514868E-01
        1   -1    0    0  501    0  0.00000000000E+00  0.00000000000E+00  0.11187815941E+04  0.11187815941E+04  0.50400001928E-02 0. -1.
       -1   -1    0    0    0  501  0.00000000000E+00  0.00000000000E+00 -0.10899799696E+04  0.10899799696E+04  0.50400001928E-02 0.  1.
    10030    2    1    2    0    0  0.00000000000E+00  0.00000000000E+00  0.28801624513E+02  0.22087615637E+04  0.22085737732E+04 0.  0.
        3    1    3    3  502    0  0.78887738536E+03  0.13385065061E+03  0.77552136349E+03  0.11143055780E+04  0.10100000352E+00 0. -1.
       -3    1    3    3    0  502 -0.78887738536E+03 -0.13385065061E+03 -0.74671973898E+03  0.10944559857E+04  0.10100000352E+00 0.  1.
</event>
<event>
 5   0  0.2284329E-05  0.2203119E+04  0.7818609E-02  0.8517131E-01
       -2   -1    0    0    0  501  0.00000000000E+00  0.00000000000E+00  0.78206803790E+03  0.78206803791E+03  0.25500000920E-02 0. -1.
        2   -1    0    0  501    0  0.00000000000E+00  0.00000000000E+00 -0.15515695229E+04  0.15515695229E+04  0.25500000920E-02 0.  1.
    10030    2    1    2    0    0  0.00000000000E+00  0.00000000000E+00 -0.76950148499E+03  0.23336375608E+04  0.22031186373E+04 0.  0.
        2    1    3    3  502    0 -0.17647760092E+03 -0.10332707550E+04 -0.26106496363E+02  0.10485582225E+04  0.25500000920E-02 0. -1.
       -2    1    3    3    0  502  0.17647760092E+03  0.10332707550E+04 -0.74339498863E+03  0.12850793383E+04  0.25500000920E-02 0.  1.
</event>
<event>
 5   0  0.1049198E-05  0.2299530E+04  0.7818609E-02  0.8478106E-01
        1   -1    0    0  501    0  0.00000000000E+00  0.00000000000E+00  0.69440032832E+03  0.69440032834E+03  0.50400001928E-02 0.  1.
       -1   -1    0    0    0  501  0.00000000000E+00  0.00000000000E+00 -0.19037432141E+04  0.19037432141E+04  0.50400001928E-02 0. -1.
    10030    2    1    2    0    0  0.00000000000E+00  0.00000000000E+00 -0.12093428858E+04  0.25981435424E+04  0.22995303111E+04 0.  0.
        1    1    3    3  502    0  0.23020961574E+00 -0.75217483564E+02 -0.19009603503E+04  0.19024478905E+04  0.50400001928E-02 0. -1.
       -1    1    3    3    0  502 -0.23020961574E+00  0.75217483564E+02  0.69161746451E+03  0.69569565190E+03  0.50400001928E-02 0.  1.
</event>
<event>
 5   0  0.2319707E-05  0.2206286E+04  0.7818609E-02  0.8515816E-01
       -2   -1    0    0    0  501  0.00000000000E+00  0.00000000000E+00  0.11385313281E+04  0.11385313281E+04  0.25500000920E-02 0. -1.
        2   -1    0    0  501    0  0.00000000000E+00  0.00000000000E+00 -0.10688546545E+04  0.10688546545E+04  0.25500000920E-02 0.  1.
    10030    2    1    2    0    0  0.00000000000E+00  0.00000000000E+00  0.69676673608E+02  0.22073859827E+04  0.22062860281E+04 0.  0.
        3    1    3    3  502    0 -0.12683734284E+03 -0.94546622557E+03  0.58912754248E+03  0.11211892645E+04  0.10100000352E+00 0. -1.
       -3    1    3    3    0  502  0.12683734284E+03  0.94546622557E+03 -0.51945086887E+03  0.10861967182E+04  0.10100000352E+00 0.  1.
</event>
<event>
 5   0  0.2284329E-05  0.2203476E+04  0.7818609E-02  0.8516983E-01
        2   -1    0    0  501    0  0.00000000000E+00  0.00000000000E+00  0.12673104519E+04  0.12673104519E+04  0.25500000920E-02 0. -1.
       -2   -1    0    0    0  501  0.00000000000E+00  0.00000000000E+00 -0.95779702626E+03  0.95779702627E+03  0.25500000920E-02 0.  1.
    10030    2    1    2    0    0  0.00000000000E+00  0.00000000000E+00  0.30951342567E+03  0.22251074782E+04  0.22034756021E+04 0.  0.
        2    1    3    3  502    0 -0.33352029268E+03 -0.51434800212E+02 -0.90432191496E+03  0.96523543769E+03  0.25500000920E-02 0.  1.
       -2    1    3    3    0  502  0.33352029268E+03  0.51434800212E+02  0.12138353406E+04  0.12598720405E+04  0.25500000920E-02 0. -1.
</event>
<event>
 5   0  0.1049198E-05  0.2215927E+04  0.7818609E-02  0.8511828E-01
       -1   -1    0    0    0  501  0.00000000000E+00  0.00000000000E+00  0.45973925803E+03  0.45973925806E+03  0.50400001928E-02 0. -1.
        1   -1    0    0  501    0  0.00000000000E+00  0.00000000000E+00 -0.26701734461E+04  0.26701734461E+04  0.50400001928E-02 0.  1.
    10030    2    1    2    0    0  0.00000000000E+00  0.00000000000E+00 -0.22104341880E+04  0.31299127041E+04  0.22159273986E+04 0.  0.
        1    1    3    3  502    0 -0.13823316938E+03 -0.20098756577E+03 -0.26317734198E+04  0.26430542453E+04  0.50400001928E-02 0.  1.
       -1    1    3    3    0  502  0.13823316938E+03  0.20098756577E+03  0.42133923172E+03  0.48685845882E+03  0.50400001928E-02 0. -1.
</event>
<event>
 5   0  0.2289708E-05  0.2201768E+04  0.7818609E-02  0.8517693E-01
       -2   -1    0    0    0  501  0.00000000000E+00  0.00000000000E+00  0.10972975991E+04  0.10972975991E+04  0.25500000920E-02 0.  1.
        2   -1    0    0  501    0  0.00000000000E+00  0.00000000000E+00 -0.11044816493E+04  0.11044816494E+04  0.25500000920E-02 0. -1.
    10030    2    1    2    0    0  0.00000000000E+00  0.00000000000E+00 -0.71840502283E+01  0.22017792485E+04  0.22017675282E+04 0.  0.
        5    1    3    3  502    0 -0.62977122594E+03 -0.16096388151E+03  0.88489557080E+03  0.10979906327E+04  0.46999998093E+01 0.  1.
       -5    1    3    3    0  502  0.62977122594E+03  0.16096388151E+03 -0.89207962103E+03  0.11037886158E+04  0.46999998093E+01 0. -1.
</event>
<event>
 5   0  0.2284329E-05  0.2199972E+04  0.7818609E-02  0.8518440E-01
       -2   -1    0    0    0  501  0.00000000000E+00  0.00000000000E+00  0.65834548014E+03  0.65834548015E+03  0.25500000920E-02 0. -1.
        2   -1    0    0  501    0  0.00000000000E+00  0.00000000000E+00 -0.18378936993E+04  0.18378936993E+04  0.25500000920E-02 0.  1.
    10030    2    1    2    0    0  0.00000000000E+00  0.00000000000E+00 -0.11795482192E+04  0.24962391795E+04  0.21999718270E+04 0.  0.
        2    1    3    3  502    0  0.20526500158E+03  0.28217153962E+03  0.59388414881E+03  0.68880540130E+03  0.25500000920E-02 0. -1.
       -2    1    3    3    0  502 -0.20526500158E+03 -0.28217153962E+03 -0.17734323680E+04  0.18074337782E+04  0.25500000920E-02 0.  1.
</event>
<event>
 5   0  0.2289708E-05  0.2191728E+04  0.7818609E-02  0.8521879E-01
       -2   -1    0    0    0  501  0.00000000000E+00  0.00000000000E+00  0.75717912875E+03  0.75717912875E+03  0.25500000920E-02 0. -1.
        2   -1    0    0  501    0  0.00000000000E+00  0.00000000000E+00 -0.15860424912E+04  0.15860424912E+04  0.25500000920E-02 0.  1.
    10030    2    1    2    0    0  0.00000000000E+00  0.00000000000E+00 -0.82886336246E+03  0.23432216200E+04  0.21917283332E+04 0.  0.
        5    1    3    3  502    0  0.16967016905E+03 -0.24264821374E+03 -0.15424576717E+04  0.15706253152E+04  0.46999998093E+01 0.  1.
       -5    1    3    3    0  502 -0.16967016905E+03  0.24264821374E+03  0.71359430924E+03  0.77259630472E+03  0.46999998093E+01 0. -1.
</event>
<event>
 5   0  0.1049198E-05  0.2196578E+04  0.7818609E-02  0.8519854E-01
       -1   -1    0    0    0  501  0.00000000000E+00  0.00000000000E+00  0.13714096608E+04  0.13714096608E+04  0.50400001928E-02 0.  1.
        1   -1    0    0  501    0  0.00000000000E+00  0.00000000000E+00 -0.87956151139E+03  0.87956151141E+03  0.50400001928E-02 0. -1.
    10030    2    1    2    0    0  0.00000000000E+00  0.00000000000E+00  0.49184814939E+03  0.22509711722E+04  0.21965783883E+04 0.  0.
        1    1    3    3  502    0  0.26947401832E+03  0.57471276716E+03 -0.67255595421E+03  0.92479323248E+03  0.50400001928E-02 0. -1.
       -1    1    3    3    0  502 -0.26947401832E+03 -0.57471276716E+03  0.11644041036E+04  0.13261779397E+04  0.50400001928E-02 0.  1.
</event>
<event>
 5   0  0.2298329E-05  0.2207670E+04  0.7818609E-02  0.8515242E-01
       -2   -1    0    0    0  501  0.00000000000E+00  0.00000000000E+00  0.11057057147E+04  0.11057057147E+04  0.25500000920E-02 0.  1.
        2   -1    0    0  501    0  0.00000000000E+00  0.00000000000E+00 -0.11019679493E+04  0.11019679493E+04  0.25500000920E-02 0. -1.
    10030    2    1    2    0    0  0.00000000000E+00  0.00000000000E+00  0.37377654187E+01  0.22076736641E+04  0.22076704999E+04 0.  0.
        4    1    3    3  502    0  0.10626700142E+04 -0.32413739844E+02  0.29874038550E+03  0.11043394589E+04  0.12699999809E+01 0. -1.
       -4    1    3    3    0  502 -0.10626700142E+04  0.32413739844E+02 -0.29500262008E+03  0.11033342052E+04  0.12699999809E+01 0.  1.
</event>
<event>
 5   0  0.2319707E-05  0.2222943E+04  0.7818609E-02  0.8508939E-01
       -2   -1    0    0    0  501  0.00000000000E+00  0.00000000000E+00  0.17042825057E+04  0.17042825057E+04  0.25500000920E-02 0. -1.
        2   -1    0    0  501    0  0.00000000000E+00  0.00000000000E+00 -0.72486144970E+03  0.72486144971E+03  0.25500000920E-02 0.  1.
    10030    2    1    2    0    0  0.00000000000E+00  0.00000000000E+00  0.97942105602E+03  0.24291439554E+04  0.22229428133E+04 0.  0.
        3    1    3    3  502    0 -0.33630467572E+03 -0.46037093671E+03 -0.55290344620E+03  0.79419422392E+03  0.10100000352E+00 0.  1.
       -3    1    3    3    0  502  0.33630467572E+03  0.46037093671E+03  0.15323245022E+04  0.16349497315E+04  0.10100000352E+00 0. -1.
</event>
<event>
 5   0  0.2289708E-05  0.2203534E+04  0.7818609E-02  0.8516959E-01
        2   -1    0    0  501    0  0.00000000000E+00  0.00000000000E+00  0.11925557137E+04  0.11925557137E+04  0.25500000920E-02 0.  1.
       -2   -1    0    0    0  501  0.00000000000E+00  0.00000000000E+00 -0.10178900373E+04  0.10178900373E+04  0.25500000920E-02 0. -1.
    10030    2    1    2    0    0  0.00000000000E+00  0.00000000000E+00  0.17466567635E+03  0.22104457510E+04  0.22035340523E+04 0.  0.
        5    1    3    3  502    0 -0.84035983496E+02  0.64545111585E+03  0.97905264860E+03  0.11756850634E+04  0.46999998093E+01 0.  1.
       -5    1    3    3    0  502  0.84035983496E+02 -0.64545111585E+03 -0.80438697225E+03  0.10347606876E+04  0.46999998093E+01 0. -1.
</event>
<event>
 5   0  0.2319707E-05  0.2165361E+04  0.7818609E-02  0.8532986E-01
       -2   -1    0    0    0  501  0.00000000000E+00  0.00000000000E+00  0.54412722582E+03  0.54412722583E+03  0.25500000920E-02 0.  1.
        2   -1    0    0  501    0  0.00000000000E+00  0.00000000000E+00 -0.21542701316E+04  0.21542701316E+04  0.25500000920E-02 0. -1.
    10030    2    1    2    0    0  0.00000000000E+00  0.00000000000E+00 -0.16101429057E+04  0.26983973574E+04  0.21653609679E+04 0.  0.
        3    1    3    3  502    0  0.14965072223E+03  0.85745879337E+02 -0.21370403129E+04  0.21439890400E+04  0.10100000352E+00 0. -1.
       -3    1    3    3    0  502 -0.14965072223E+03 -0.85745879337E+02  0.52689740718E+03  0.55440831738E+03  0.10100000352E+00 0.  1.
</event>
<event>
 5   0  0.1005538E-05  0.2203165E+04  0.7818609E-02  0.8517112E-01
        1   -1    0    0  501    0  0.00000000000E+00  0.00000000000E+00  0.89853686160E+03  0.89853686161E+03  0.50400001928E-02 0. -1.
       -1   -1    0    0    0  501  0.00000000000E+00  0.00000000000E+00 -0.13505106486E+04  0.13505106486E+04  0.50400001928E-02 0.  1.
    10030    2    1    2    0    0  0.00000000000E+00  0.00000000000E+00 -0.45197378696E+03  0.22490475102E+04  0.22031646327E+04 0.  0.
        3    1    3    3  502    0 -0.35655912085E+03  0.56533248937E+03  0.66789081348E+03  0.94488802465E+03  0.10100000352E+00 0. -1.
       -3    1    3    3    0  502  0.35655912085E+03 -0.56533248937E+03 -0.11198646004E+04  0.13041594855E+04  0.10100000352E+00 0.  1.
</event>
<event>
 5   0  0.1005538E-05  0.2189887E+04  0.7818609E-02  0.8522649E-01
        1   -1    0    0  501    0  0.00000000000E+00  0.00000000000E+00  0.10448930755E+04  0.10448930755E+04  0.50400001928E-02 0.  1.
       -1   -1    0    0    0  501  0.00000000000E+00  0.00000000000E+00 -0.11473910544E+04  0.11473910545E+04  0.50400001928E-02 0. -1.
    10030    2    1    2    0    0  0.00000000000E+00  0.00000000000E+00 -0.10249797896E+03  0.21922841299E+04  0.21898867255E+04 0.  0.
        3    1    3    3  502    0 -0.55956633415E+03 -0.83230328589E+03 -0.49111334503E+03  0.11167074684E+04  0.10100000352E+00 0. -1.
       -3    1    3    3    0  502  0.55956633415E+03  0.83230328589E+03  0.38861536607E+03  0.10755766616E+04  0.10100000352E+00 0.  1.
</event>
<event>
 5   0  0.2298329E-05  0.2200735E+04  0.7818609E-02  0.8518122E-01
       -2   -1    0    0    0  501  0.00000000000E+00  0.00000000000E+00  0.14473257374E+04  0.14473257374E+04  0.25500000920E-02 0.  1.
        2   -1    0    0  501    0  0.00000000000E+00  0.00000000000E+00 -0.83658332777E+03  0.83658332777E+03  0.25500000920E-02 0. -1.
    10030    2    1    2    0    0  0.00000000000E+00  0.00000000000E+00  0.61074240964E+03  0.22839090652E+04  0.22007349516E+04 0.  0.
        4    1    3    3  502    0  0.49700998821E+03 -0.86535491879E+03  0.78651920603E+03  0.12706188013E+04  0.12699999809E+01 0.  1.
       -4    1    3    3    0  502 -0.49700998821E+03  0.86535491879E+03 -0.17577679639E+03  0.10132902639E+04  0.12699999809E+01 0. -1.
</event>
<event>
 5   0  0.1033733E-05  0.2150354E+04  0.7818609E-02  0.8539381E-01
       -1   -1    0    0    0  501  0.00000000000E+00  0.00000000000E+00  0.55213642003E+03  0.55213642005E+03  0.50400001928E-02 0. -1.
        1   -1    0    0  501    0  0.00000000000E+00  0.00000000000E+00 -0.20936954750E+04  0.20936954750E+04  0.50400001928E-02 0.  1.
    10030    2    1    2    0    0  0.00000000000E+00  0.00000000000E+00 -0.15415590549E+04  0.26458318950E+04  0.21503539469E+04 0.  0.
        5    1    3    3  502    0  0.34180932735E+03  0.76444213069E+02 -0.20215188204E+04  0.20516426992E+04  0.46999998093E+01 0.  1.
       -5    1    3    3    0  502 -0.34180932735E+03 -0.76444213069E+02  0.47995976546E+03  0.59418919582E+03  0.46999998093E+01 0. -1.
</event>
<event>
 5   0  0.1005538E-05  0.2200367E+04  0.7818609E-02  0.8518275E-01
        1   -1    0    0  501    0  0.00000000000E+00  0.00000000000E+00  0.35655524875E+03  0.35655524879E+03  0.50400001928E-02 0. -1.
       -1   -1    0    0    0  501  0.00000000000E+00  0.00000000000E+00 -0.33947152038E+04  0.33947152038E+04  0.50400001928E-02 0.  1.
    10030    2    1    2    0    0  0.00000000000E+00  0.00000000000E+00 -0.30381599550E+04  0.37512704526E+04  0.22003668094E+04 0.  0.
        3    1    3    3  502    0  0.57548967002E+03 -0.76863719455E+03 -0.24346466310E+04  0.26171541271E+04  0.10100000352E+00 0.  1.
       -3    1    3    3    0  502 -0.57548967002E+03  0.76863719455E+03 -0.60351332403E+03  0.11341163254E+04  0.10100000352E+00 0. -1.
</event>
<event>
 5   0  0.8003875E-06  0.2201776E+04  0.7818609E-02  0.8517689E-01
        3   -1    0    0  501    0  0.00000000000E+00  0.00000000000E+00  0.19910958579E+04  0.19910958605E+04  0.10100000352E+00 0.  1.
       -3   -1    0    0    0  501  0.00000000000E+00  0.00000000000E+00 -0.60868685706E+03  0.60868686544E+03  0.10100000352E+00 0. -1.
    10030    2    1    2    0    0  0.00000000000E+00  0.00000000000E+00  0.13824090009E+04  0.25997827259E+04  0.22017755509E+04 0.  0.
        1    1    3    3  502    0  0.32180634782E+03  0.34496392475E+03  0.18656929385E+04  0.19244140864E+04  0.50400001928E-02 0.  1.
       -1    1    3    3    0  502 -0.32180634782E+03 -0.34496392475E+03 -0.48328393767E+03  0.67536863957E+03  0.50400001928E-02 0. -1.
</event>
<event>
 5   0  0.1005538E-05  0.2149855E+04  0.7818609E-02  0.8539594E-01
       -1   -1    0    0    0  501  0.00000000000E+00  0.00000000000E+00  0.86365490967E+03  0.86365490968E+03  0.50400001928E-02 0.  1.
        1   -1    0    0  501    0  0.00000000000E+00  0.00000000000E+00 -0.13378828800E+04  0.13378828801E+04  0.50400001928E-02 0. -1.
    10030    2    1    2    0    0  0.00000000000E+00  0.00000000000E+00 -0.47422797038E+03  0.22015377897E+04  0.21498549885E+04 0.  0.
        3    1    3    3  502    0  0.59512862097E+03  0.58990450790E+03 -0.92657801176E+03  0.12492846857E+04  0.10100000352E+00 0. -1.
       -3    1    3    3    0  502 -0.59512862097E+03 -0.58990450790E+03  0.45235004138E+03  0.95225310400E+03  0.10100000352E+00 0.  1.
</event>
<event>
 5   0  0.2229552E-05  0.2202813E+04  0.7818609E-02  0.8517258E-01
       -2   -1    0    0    0  501  0.00000000000E+00  0.00000000000E+00  0.11021125492E+04  0.11021125492E+04  0.25500000920E-02 0. -1.
        2   -1    0    0  501    0  0.00000000000E+00  0.00000000000E+00 -0.11007008520E+04  0.11007008520E+04  0.25500000920E-02 0.  1.
    10030    2    1    2    0    0  0.00000000000E+00  0.00000000000E+00  0.14116971586E+01  0.22028134013E+04  0.22028129489E+04 0.  0.
        1    1    3    3  502    0  0.81736100221E+03  0.61554818021E+03 -0.40686956786E+03  0.11011455014E+04  0.50400001928E-02 0.  1.
       -1    1    3    3    0  502 -0.81736100221E+03 -0.61554818021E+03  0.40828126501E+03  0.11016678998E+04  0.50400001928E-02 0. -1.
</event>
<event>
 5   0  0.1007682E-05  0.2195431E+04  0.7818609E-02  0.8520332E-01
        1   -1    0    0  501    0  0.00000000000E+00  0.00000000000E+00  0.16616781092E+04  0.16616781092E+04  0.50400001928E-02 0.  1.
       -1   -1    0    0    0  501  0.00000000000E+00  0.00000000000E+00 -0.72515824884E+03  0.72515824886E+03  0.50400001928E-02 0. -1.
    10030    2    1    2    0    0  0.00000000000E+00  0.00000000000E+00  0.93651986033E+03  0.23868363580E+04  0.21954312449E+04 0.  0.
        2    1    3    3  502    0 -0.94518877132E+03 -0.10802886877E+03 -0.12714301040E+03  0.95980070588E+03  0.25500000920E-02 0. -1.
       -2    1    3    3    0  502  0.94518877132E+03  0.10802886877E+03  0.10636628707E+04  0.14270356521E+04  0.25500000920E-02 0.  1.
</event>
<event>
 5   0  0.1005538E-05  0.2196032E+04  0.7818609E-02  0.8520081E-01
        1   -1    0    0  501    0  0.00000000000E+00  0.00000000000E+00  0.52906136254E+03  0.52906136256E+03  0.50400001928E-02 0. -1.
       -1   -1    0    0    0  501  0.00000000000E+00  0.00000000000E+00 -0.22788268767E+04  0.22788268767E+04  0.50400001928E-02 0.  1.
    10030    2    1    2    0    0  0.00000000000E+00  0.00000000000E+00 -0.17497655142E+04  0.28078882393E+04  0.21960321058E+04 0.  0.
        3    1    3    3  502    0  0.90110282269E+03  0.10565439962E+03 -0.16656546567E+04  0.18967220658E+04  0.10100000352E+00 0.  1.
       -3    1    3    3    0  502 -0.90110282269E+03 -0.10565439962E+03 -0.84110857495E+02  0.91116617352E+03  0.10100000352E+00 0. -1.
</event>
<event>
 5   0  0.1007682E-05  0.2197536E+04  0.7818609E-02  0.8519454E-01
       -1   -1    0    0    0  501  0.00000000000E+00  0.00000000000E+00  0.10593134929E+04  0.10593134929E+04  0.50400001928E-02 0.  1.
        1   -1    0    0  501    0  0.00000000000E+00  0.00000000000E+00 -0.11396917982E+04  0.11396917983E+04  0.50400001928E-02 0. -1.
    10030    2    1    2    0    0  0.00000000000E+00  0.00000000000E+00 -0.80378305388E+02  0.21990052911E+04  0.21975358014E+04 0.  0.
        2    1    3    3  502    0  0.51062177466E+03 -0.37459117146E+03 -0.93869701475E+03  0.11323450128E+04  0.25500000920E-02 0. -1.
       -2    1    3    3    0  502 -0.51062177466E+03  0.37459117146E+03  0.85831870936E+03  0.10666602783E+04  0.25500000920E-02 0.  1.
</event>
<event>
 5   0  0.1005538E-05  0.2202627E+04  0.7818609E-02  0.8517336E-01
        1   -1    0    0  501    0  0.00000000000E+00  0.00000000000E+00  0.86085923621E+03  0.86085923622E+03  0.50400001928E-02 0.  1.
       -1   -1    0    0    0  501  0.00000000000E+00  0.00000000000E+00 -0.14089305718E+04  0.14089305718E+04  0.50400001928E-02 0. -1.
    10030    2    1    2    0    0  0.00000000000E+00  0.00000000000E+00 -0.54807133556E+03  0.22697898080E+04  0.22026265193E+04 0.  0.
        3    1    3    3  502    0  0.21332893026E+03 -0.31149808546E+03  0.79208854176E+03  0.87746484711E+03  0.10100000352E+00 0.  1.
       -3    1    3    3    0  502 -0.21332893026E+03  0.31149808546E+03 -0.13401598773E+04  0.13923249609E+04  0.10100000352E+00 0. -1.
</event>
<event>
 5   0  0.2289708E-05  0.2199832E+04  0.7818609E-02  0.8518498E-01
        2   -1    0    0  501    0  0.00000000000E+00  0.00000000000E+00  0.15057332494E+04  0.15057332494E+04  0.25500000920E-02 0.  1.
       -2   -1    0    0    0  501  0.00000000000E+00  0.00000000000E+00 -0.80347210998E+03  0.80347210998E+03  0.25500000920E-02 0. -1.
    10030    2    1    2    0    0  0.00000000000E+00  0.00000000000E+00  0.70226113944E+03  0.23092053594E+04  0.21998315126E+04 0.  0.
        5    1    3    3  502    0  0.17319684260E+03 -0.13469624593E+03 -0.78025654044E+03  0.81053228427E+03  0.46999998093E+01 0. -1.
       -5    1    3    3    0  502 -0.17319684260E+03  0.13469624593E+03  0.14825176799E+04  0.14986730751E+04  0.46999998093E+01 0.  1.
</event>
<event>
 5   0  0.2229552E-05  0.2178929E+04  0.7818609E-02  0.8527250E-01
       -2   -1    0    0    0  501  0.00000000000E+00  0.00000000000E+00  0.44712280139E+03  0.44712280139E+03  0.25500000920E-02 0. -1.
        2   -1    0    0  501    0  0.00000000000E+00  0.00000000000E+00 -0.26546022617E+04  0.26546022617E+04  0.25500000920E-02 0.  1.
    10030    2    1    2    0    0  0.00000000000E+00  0.00000000000E+00 -0.22074794604E+04  0.31017250631E+04  0.21789292782E+04 0.  0.
        1    1    3    3  502    0  0.36504459828E+03 -0.10230691502E+04 -0.12228828700E+04  0.16356560025E+04  0.50400001928E-02 0.  1.
       -1    1    3    3    0  502 -0.36504459828E+03  0.10230691502E+04 -0.98459659034E+03  0.14660690606E+04  0.50400001928E-02 0. -1.
</event>
<event>
 5   0  0.1049198E-05  0.2222565E+04  0.7818609E-02  0.8509094E-01
        1   -1    0    0  501    0  0.00000000000E+00  0.00000000000E+00  0.14682151789E+04  0.14682151789E+04  0.50400001928E-02 0. -1.
       -1   -1    0    0    0  501  0.00000000000E+00  0.00000000000E+00 -0.84112222792E+03  0.84112222793E+03  0.50400001928E-02 0.  1.
    10030    2    1    2    0    0  0.00000000000E+00  0.00000000000E+00  0.62709295101E+03  0.23093374069E+04  0.22225646649E+04 0.  0.
        1    1    3    3  502    0 -0.76266540830E+03 -0.69561778412E+03 -0.11411203312E+03  0.10385394469E+04  0.50400001928E-02 0.  1.
       -1    1    3    3    0  502  0.76266540830E+03  0.69561778412E+03  0.74120498413E+03  0.12707979600E+04  0.50400001928E-02 0. -1.
</event>
<event>
 5   0  0.2284329E-05  0.2198462E+04  0.7818609E-02  0.8519069E-01
        2   -1    0    0  501    0  0.00000000000E+00  0.00000000000E+00  0.78531304088E+03  0.78531304088E+03  0.25500000920E-02 0.  1.
       -2   -1    0    0    0  501  0.00000000000E+00  0.00000000000E+00 -0.15386328258E+04  0.15386328258E+04  0.25500000920E-02 0. -1.
    10030    2    1    2    0    0  0.00000000000E+00  0.00000000000E+00 -0.75331978489E+03  0.23239458667E+04  0.21984616651E+04 0.  0.
        2    1    3    3  502    0 -0.19883036105E+03 -0.98686024217E+03  0.89991667077E+02  0.10107052737E+04  0.25500000920E-02 0.  1.
       -2    1    3    3    0  502  0.19883036105E+03  0.98686024217E+03 -0.84331145196E+03  0.13132405930E+04  0.25500000920E-02 0. -1.
</event>
<event>
 5   0  0.2289708E-05  0.2201340E+04  0.7818609E-02  0.8517871E-01
       -2   -1    0    0    0  501  0.00000000000E+00  0.00000000000E+00  0.10842855656E+04  0.10842855656E+04  0.25500000920E-02 0. -1.
        2   -1    0    0  501    0  0.00000000000E+00  0.00000000000E+00 -0.11173016301E+04  0.11173016301E+04  0.25500000920E-02 0.  1.
    10030    2    1    2    0    0  0.00000000000E+00  0.00000000000E+00 -0.33016064489E+02  0.22015871958E+04  0.22013396194E+04 0.  0.
        5    1    3    3  502    0 -0.12981648677E+03  0.71070251144E+03 -0.84696372642E+03  0.11132475124E+04  0.46999998093E+01 0.  1.
       -5    1    3    3    0  502  0.12981648677E+03 -0.71070251144E+03  0.81394766193E+03  0.10883396834E+04  0.46999998093E+01 0. -1.
</event>
<event>
 5   0  0.1007682E-05  0.2206560E+04  0.7818609E-02  0.8515703E-01
        1   -1    0    0  501    0  0.00000000000E+00  0.00000000000E+00  0.13255963507E+04  0.13255963508E+04  0.50400001928E-02 0. -1.
       -1   -1    0    0    0  501  0.00000000000E+00  0.00000000000E+00 -0.91824841528E+03  0.91824841529E+03  0.50400001928E-02 0.  1.
    10030    2    1    2    0    0  0.00000000000E+00  0.00000000000E+00  0.40734793547E+03  0.22438447661E+04  0.22065599909E+04 0.  0.
        2    1    3    3  502    0 -0.89943032535E+03 -0.24570267322E+03 -0.39610753719E+03  0.10130379533E+04  0.25500000920E-02 0.  1.
       -2    1    3    3    0  502  0.89943032535E+03  0.24570267322E+03  0.80345547266E+03  0.12308068128E+04  0.25500000920E-02 0. -1.
</event>
<event>
 5   0  0.2284329E-05  0.2199315E+04  0.7818609E-02  0.8518713E-01
        2   -1    0    0  501    0  0.00000000000E+00  0.00000000000E+00  0.13903097496E+04  0.13903097496E+04  0.25500000920E-02 0. -1.
       -2   -1    0    0    0  501  0.00000000000E+00  0.00000000000E+00 -0.86976791758E+03  0.86976791758E+03  0.25500000920E-02 0.  1.
    10030    2    1    2    0    0  0.00000000000E+00  0.00000000000E+00  0.52054183206E+03  0.22600776672E+04  0.21993151804E+04 0.  0.
        2    1    3    3  502    0 -0.71717773760E+03  0.79215694434E+03  0.52703940886E+03  0.11914810407E+04  0.25500000920E-02 0. -1.
       -2    1    3    3    0  502  0.71717773760E+03 -0.79215694434E+03 -0.64975768047E+01  0.10685966266E+04  0.25500000920E-02 0.  1.
</event>
<event>
 5   0  0.2319707E-05  0.2194257E+04  0.7818609E-02  0.8520822E-01
       -2   -1    0    0    0  501  0.00000000000E+00  0.00000000000E+00  0.11586914276E+04  0.11586914276E+04  0.25500000920E-02 0. -1.
        2   -1    0    0  501    0  0.00000000000E+00  0.00000000000E+00 -0.10388360883E+04  0.10388360883E+04  0.25500000920E-02 0.  1.
    10030    2    1    2    0    0  0.00000000000E+00  0.00000000000E+00  0.11985533926E+03  0.21975275159E+04  0.21942565667E+04 0.  0.
        3    1    3    3  502    0  0.10909712841E+04  0.10216919847E+03  0.11508764642E+03  0.11017722380E+04  0.10100000352E+00 0. -1.
       -3    1    3    3    0  502 -0.10909712841E+04 -0.10216919847E+03  0.47676928390E+01  0.10957552779E+04  0.10100000352E+00 0.  1.
</event>
<event>
 5   0  0.8003875E-06  0.2196567E+04  0.7818609E-02  0.8519859E-01
        3   -1    0    0  501    0  0.00000000000E+00  0.00000000000E+00  0.71720402118E+03  0.71720402829E+03  0.10100000352E+00 0.  1.
       -3   -1    0    0    0  501  0.00000000000E+00  0.00000000000E+00 -0.16818452993E+04  0.16818453024E+04  0.10100000352E+00 0. -1.
    10030    2    1    2    0    0  0.00000000000E+00  0.00000000000E+00 -0.96464127817E+03  0.23990493307E+04  0.21965666153E+04 0.  0.
        4    1    3    3  502    0 -0.75478739399E+02  0.95293845132E+03  0.10830205070E+03  0.96203933349E+03  0.12699999809E+01 0.  1.
       -4    1    3    3    0  502  0.75478739399E+02 -0.95293845132E+03 -0.10729433289E+04  0.14370099972E+04  0.12699999809E+01 0. -1.
</event>
<event>
 5   0  0.1033733E-05  0.2200209E+04  0.7818609E-02  0.8518341E-01
        1   -1    0    0  501    0  0.00000000000E+00  0.00000000000E+00  0.15729949059E+04  0.15729949059E+04  0.50400001928E-02 0.  1.
       -1   -1    0    0    0  501  0.00000000000E+00  0.00000000000E+00 -0.76937926019E+03  0.76937926020E+03  0.50400001928E-02 0. -1.
    10030    2    1    2    0    0  0.00000000000E+00  0.00000000000E+00  0.80361564567E+03  0.23423741661E+04  0.22002087692E+04 0.  0.
        5    1    3    3  502    0  0.10045404862E+04 -0.11221630861E+03 -0.60427981047E+02  0.10126044239E+04  0.46999998093E+01 0.  1.
       -5    1    3    3    0  502 -0.10045404862E+04  0.11221630861E+03  0.86404362671E+03  0.13297697422E+04  0.46999998093E+01 0. -1.
</event>
<event>
 5   0  0.2229552E-05  0.2194241E+04  0.7818609E-02  0.8520829E-01
        2   -1    0    0  501    0  0.00000000000E+00  0.00000000000E+00  0.11159900126E+04  0.11159900126E+04  0.25500000920E-02 0. -1.
       -2   -1    0    0    0  501  0.00000000000E+00  0.00000000000E+00 -0.10785697910E+04  0.10785697910E+04  0.25500000920E-02 0.  1.
    10030    2    1    2    0    0  0.00000000000E+00  0.00000000000E+00  0.37420221544E+02  0.21945598036E+04  0.21942407477E+04 0.  0.
        1    1    3    3  502    0 -0.21455328536E+03  0.10749806136E+04  0.64067368972E+02  0.10980533046E+04  0.50400001928E-02 0. -1.
       -1    1    3    3    0  502  0.21455328536E+03 -0.10749806136E+04 -0.26647147428E+02  0.10965064990E+04  0.50400001928E-02 0.  1.
</event>
<event>
 5   0  0.1071208E-05  0.2197889E+04  0.7818609E-02  0.8519307E-01
        1   -1    0    0  501    0  0.00000000000E+00  0.00000000000E+00  0.16082892446E+04  0.16082892446E+04  0.50400001928E-02 0.  1.
       -1   -1    0    0    0  501  0.00000000000E+00  0.00000000000E+00 -0.75090925705E+03  0.75090925706E+03  0.50400001928E-02 0. -1.
    10030    2    1    2    0    0  0.00000000000E+00  0.00000000000E+00  0.85737998759E+03  0.23591985017E+04  0.21978892437E+04 0.  0.
        4    1    3    3  502    0  0.18363751211E+02  0.81584375213E+03 -0.36135876809E+03  0.89247970701E+03  0.12699999809E+01 0. -1.
       -4    1    3    3    0  502 -0.18363751211E+02 -0.81584375213E+03  0.12187387557E+04  0.14667187947E+04  0.12699999809E+01 0.  1.
</event>
<event>
 5   0  0.1007682E-05  0.2147803E+04  0.7818609E-02  0.8540473E-01
       -1   -1    0    0    0  501  0.00000000000E+00  0.00000000000E+00  0.11502910861E+04  0.11502910861E+04  0.50400001928E-02 0. -1.
        1   -1    0    0  501    0  0.00000000000E+00  0.00000000000E+00 -0.10025845406E+04  0.10025845406E+04  0.50400001928E-02 0.  1.
    10030    2    1    2    0    0  0.00000000000E+00  0.00000000000E+00  0.14770654555E+03  0.21528756267E+04  0.21478026540E+04 0.  0.
        2    1    3    3  502    0  0.55667393947E+02  0.70450459388E+03  0.88436593499E+03  0.11320462396E+04  0.25500000920E-02 0. -1.
       -2    1    3    3    0  502 -0.55667393947E+02 -0.70450459388E+03 -0.73665938944E+03  0.10208293871E+04  0.25500000920E-02 0.  1.
</event>
<event>
 5   0  0.2298329E-05  0.2185662E+04  0.7818609E-02  0.8524420E-01
        2   -1    0    0  501    0  0.00000000000E+00  0.00000000000E+00  0.10916693193E+04  0.10916693193E+04  0.25500000920E-02 0. -1.
       -2   -1    0    0    0  501  0.00000000000E+00  0.00000000000E+00 -0.10939934400E+04  0.10939934400E+04  0.25500000920E-02 0.  1.
    10030    2    1    2    0    0  0.00000000000E+00  0.00000000000E+00 -0.23241206797E+01  0.21856627592E+04  0.21856615236E+04 0.  0.
        4    1    3    3  502    0  0.41939677536E+03 -0.76580437136E+03 -0.65837432362E+03  0.10935302251E+04  0.12699999809E+01 0.  1.
       -4    1    3    3    0  502 -0.41939677536E+03  0.76580437136E+03  0.65605020294E+03  0.10921325341E+04  0.12699999809E+01 0. -1.
</event>
<event>
 5   0  0.2284329E-05  0.2198278E+04  0.7818609E-02  0.8519145E-01
       -2   -1    0    0    0  501  0.00000000000E+00  0.00000000000E+00  0.84803954054E+03  0.84803954054E+03  0.25500000920E-02 0. -1.
        2   -1    0    0  501    0  0.00000000000E+00  0.00000000000E+00 -0.14245869357E+04  0.14245869357E+04  0.25500000920E-02 0.  1.
    10030    2    1    2    0    0  0.00000000000E+00  0.00000000000E+00 -0.57654739518E+03  0.22726264763E+04  0.21982775534E+04 0.  0.
        2    1    3    3  502    0 -0.68447298018E+03 -0.40276154003E+03  0.49728498932E+03  0.93702320106E+03  0.25500000920E-02 0. -1.
       -2    1    3    3    0  502  0.68447298018E+03  0.40276154003E+03 -0.10738323845E+04  0.13356032752E+04  0.25500000920E-02 0.  1.
</event>
<event>
 5   0  0.2319707E-05  0.2218660E+04  0.7818609E-02  0.8510701E-01
       -2   -1    0    0    0  501  0.00000000000E+00  0.00000000000E+00  0.93939769753E+03  0.93939769753E+03  0.25500000920E-02 0.  1.
        2   -1    0    0  501    0  0.00000000000E+00  0.00000000000E+00 -0.13100023067E+04  0.13100023067E+04  0.25500000920E-02 0. -1.
    10030    2    1    2    0    0  0.00000000000E+00  0.00000000000E+00 -0.37060460921E+03  0.22494000043E+04  0.22186600918E+04 0.  0.
        3    1    3    3  502    0  0.40029479630E+03  0.10086038813E+04  0.48314715209E+02  0.10862099407E+04  0.10100000352E+00 0.  1.
       -3    1    3    3    0  502 -0.40029479630E+03 -0.10086038813E+04 -0.41891932442E+03  0.11631900636E+04  0.10100000352E+00 0. -1.
</event>
<event>
 5   0  0.1007682E-05  0.2190373E+04  0.7818609E-02  0.8522446E-01
        1   -1    0    0  501    0  0.00000000000E+00  0.00000000000E+00  0.85762442352E+03  0.85762442353E+03  0.50400001928E-02 0. -1.
       -1   -1    0    0    0  501  0.00000000000E+00  0.00000000000E+00 -0.13985530063E+04  0.13985530063E+04  0.50400001928E-02 0.  1.
    10030    2    1    2    0    0  0.00000000000E+00  0.00000000000E+00 -0.54092858278E+03  0.22561774298E+04  0.21903727681E+04 0.  0.
        2    1    3    3  502    0  0.10292176382E+04  0.33489047118E+03 -0.44280074754E+03  0.11694071475E+04  0.25500000920E-02 0.  1.
       -2    1    3    3    0  502 -0.10292176382E+04 -0.33489047118E+03 -0.98127835243E+02  0.10867702824E+04  0.25500000920E-02 0. -1.
</event>
<event>
 5   0  0.2298329E-05  0.2192711E+04  0.7818609E-02  0.8521468E-01
       -2   -1    0    0    0  501  0.00000000000E+00  0.00000000000E+00  0.97102465713E+03  0.97102465713E+03  0.25500000920E-02 0. -1.
        2   -1    0    0  501    0  0.00000000000E+00  0.00000000000E+00 -0.12378629040E+04  0.12378629040E+04  0.25500000920E-02 0.  1.
    10030    2    1    2    0    0  0.00000000000E+00  0.00000000000E+00 -0.26683824685E+03  0.22088875611E+04  0.21927110178E+04 0.  0.
        4    1    3    3  502    0  0.26808247575E+03  0.45963413939E+03  0.83222558346E+03  0.98779187613E+03  0.12699999809E+01 0. -1.
       -4    1    3    3    0  502 -0.26808247575E+03 -0.45963413939E+03 -0.10990638303E+04  0.12210956850E+04  0.12699999809E+01 0.  1.
</event>
<event>
 5   0  0.2319707E-05  0.2194816E+04  0.7818609E-02  0.8520589E-01
       -2   -1    0    0    0  501  0.00000000000E+00  0.00000000000E+00  0.62752659619E+03  0.62752659620E+03  0.25500000920E-02 0. -1.
        2   -1    0    0  501    0  0.00000000000E+00  0.00000000000E+00 -0.19191285005E+04  0.19191285005E+04  0.25500000920E-02 0.  1.
    10030    2    1    2    0    0  0.00000000000E+00  0.00000000000E+00 -0.12916019043E+04  0.25466550967E+04  0.21948158698E+04 0.  0.
        3    1    3    3  502    0  0.35561153628E+03  0.79001593767E+03 -0.14273670679E+04  0.16697189893E+04  0.10100000352E+00 0.  1.
       -3    1    3    3    0  502 -0.35561153628E+03 -0.79001593767E+03  0.13576516365E+03  0.87693610735E+03  0.10100000352E+00 0. -1.
</event>
<event>
 5   0  0.1005538E-05  0.2217079E+04  0.7818609E-02  0.8511353E-01
       -1   -1    0    0    0  501  0.00000000000E+00  0.00000000000E+00  0.10938101849E+04  0.10938101850E+04  0.50400001928E-02 0.  1.
        1   -1    0    0  501    0  0.00000000000E+00  0.00000000000E+00 -0.11234667181E+04  0.11234667181E+04  0.50400001928E-02 0. -1.
    10030    2    1    2    0    0  0.00000000000E+00  0.00000000000E+00 -0.29656533131E+02  0.22172769030E+04  0.22170785631E+04 0.  0.
        3    1    3    3  502    0 -0.22403184989E+03  0.19079645289E+03  0.10540356891E+04  0.10943421770E+04  0.10100000352E+00 0.  1.
       -3    1    3    3    0  502  0.22403184989E+03 -0.19079645289E+03 -0.10836922222E+04  0.11229347260E+04  0.10100000352E+00 0. -1.
</event>
<event>
 5   0  0.2319707E-05  0.2122563E+04  0.7818609E-02  0.8551369E-01
        2   -1    0    0  501    0  0.00000000000E+00  0.00000000000E+00  0.91361431134E+03  0.91361431135E+03  0.25500000920E-02 0.  1.
       -2   -1    0    0    0  501  0.00000000000E+00  0.00000000000E+00 -0.12328155523E+04  0.12328155523E+04  0.25500000920E-02 0. -1.
    10030    2    1    2    0    0  0.00000000000E+00  0.00000000000E+00 -0.31920124096E+03  0.21464298637E+04  0.21225625379E+04 0.  0.
        3    1    3    3  502    0 -0.45669900266E+03 -0.20797676174E+03  0.78605614501E+03  0.93258382238E+03  0.10100000352E+00 0.  1.
       -3    1    3    3    0  502  0.45669900266E+03  0.20797676174E+03 -0.11052573860E+04  0.12138460413E+04  0.10100000352E+00 0. -1.
</event>
<event>
 5   0  0.1007682E-05  0.2207037E+04  0.7818609E-02  0.8515505E-01
        1   -1    0    0  501    0  0.00000000000E+00  0.00000000000E+00  0.10194389896E+04  0.10194389896E+04  0.50400001928E-02 0.  1.
       -1   -1    0    0    0  501  0.00000000000E+00  0.00000000000E+00 -0.11945325267E+04  0.11945325267E+04  0.50400001928E-02 0. -1.
    10030    2    1    2    0    0  0.00000000000E+00  0.00000000000E+00 -0.17509353715E+03  0.22139715163E+04  0.22070369567E+04 0.  0.
        2    1    3    3  502    0 -0.28524337632E+03  0.81920567498E+03 -0.77181266383E+03  0.11611014209E+04  0.25500000920E-02 0. -1.
       -2    1    3    3    0  502  0.28524337632E+03 -0.81920567498E+03  0.59671912668E+03  0.10528700954E+04  0.25500000920E-02 0.  1.
</event>
<event>
 5   0  0.1049198E-05  0.2196816E+04  0.7818609E-02  0.8519754E-01
        1   -1    0    0  501    0  0.00000000000E+00  0.00000000000E+00  0.13303873878E+04  0.13303873878E+04  0.50400001928E-02 0.  1.
       -1   -1    0    0    0  501  0.00000000000E+00  0.00000000000E+00 -0.90687912774E+03  0.90687912775E+03  0.50400001928E-02 0. -1.
    10030    2    1    2    0    0  0.00000000000E+00  0.00000000000E+00  0.42350826003E+03  0.22372665155E+04  0.21968163818E+04 0.  0.
        1    1    3    3  502    0 -0.91433904111E+02 -0.58899942759E+03 -0.72784994474E+03  0.94076884865E+03  0.50400001928E-02 0. -1.
       -1    1    3    3    0  502  0.91433904111E+02  0.58899942759E+03  0.11513582048E+04  0.12964976669E+04  0.50400001928E-02 0.  1.
</event>
<event>
 5   0  0.2298329E-05  0.2172010E+04  0.7818609E-02  0.8530169E-01
        2   -1    0    0  501    0  0.00000000000E+00  0.00000000000E+00  0.64812922801E+03  0.64812922802E+03  0.25500000920E-02 0. -1.
       -2   -1    0    0    0  501  0.00000000000E+00  0.00000000000E+00 -0.18197088111E+04  0.18197088111E+04  0.25500000920E-02 0.  1.
    10030    2    1    2    0    0  0.00000000000E+00  0.00000000000E+00 -0.11715795830E+04  0.24678380391E+04  0.21720096380E+04 0.  0.
        4    1    3    3  502    0 -0.17463947983E+02  0.25684111822E+02  0.64762365566E+03  0.64836924306E+03  0.12699999809E+01 0. -1.
       -4    1    3    3    0  502  0.17463947983E+02 -0.25684111822E+02 -0.18192032387E+04  0.18194687960E+04  0.12699999809E+01 0.  1.
</event>
<event>
 5   0  0.2298329E-05  0.2199032E+04  0.7818609E-02  0.8518831E-01
        2   -1    0    0  501    0  0.00000000000E+00  0.00000000000E+00  0.27658565335E+04  0.27658565335E+04  0.25500000920E-02 0.  1.
       -2   -1    0    0    0  501  0.00000000000E+00  0.00000000000E+00 -0.43709250565E+03  0.43709250566E+03  0.25500000920E-02 0. -1.
    10030    2    1    2    0    0  0.00000000000E+00  0.00000000000E+00  0.23287640279E+04  0.32029490392E+04  0.21990317529E+04 0.  0.
        4    1    3    3  502    0  0.60171486189E+03 -0.79895646687E+02 -0.17093586621E+03  0.63060667031E+03  0.12699999809E+01 0. -1.
       -4    1    3    3    0  502 -0.60171486189E+03  0.79895646687E+02  0.24996998941E+04  0.25723423689E+04  0.12699999809E+01 0.  1.
</event>
<event>
 5   0  0.2298329E-05  0.2192858E+04  0.7818609E-02  0.8521407E-01
       -2   -1    0    0    0  501  0.00000000000E+00  0.00000000000E+00  0.13251508807E+04  0.13251508807E+04  0.25500000920E-02 0. -1.
        2   -1    0    0  501    0  0.00000000000E+00  0.00000000000E+00 -0.90718444896E+03  0.90718444896E+03  0.25500000920E-02 0.  1.
    10030    2    1    2    0    0  0.00000000000E+00  0.00000000000E+00  0.41796643173E+03  0.22323353297E+04  0.21928577441E+04 0.  0.
        4    1    3    3  502    0  0.91658034672E+03 -0.55588056998E+03 -0.25449189234E+02  0.10722742253E+04  0.12699999809E+01 0.  1.
       -4    1    3    3    0  502 -0.91658034672E+03  0.55588056998E+03  0.44341562096E+03  0.11600611044E+04  0.12699999809E+01 0. -1.
</event>
<event>
 5   0  0.1049198E-05  0.2196953E+04  0.7818609E-02  0.8519697E-01
        1   -1    0    0  501    0  0.00000000000E+00  0.00000000000E+00  0.11569352865E+04  0.11569352865E+04  0.50400001928E-02 0. -1.
       -1   -1    0    0    0  501  0.00000000000E+00  0.00000000000E+00 -0.10429719280E+04  0.10429719280E+04  0.50400001928E-02 0.  1.
    10030    2    1    2    0    0  0.00000000000E+00  0.00000000000E+00  0.11396335850E+03  0.21999072146E+04  0.21969533690E+04 0.  0.
        1    1    3    3  502    0 -0.88655677751E+03  0.62300580227E+03  0.23759013767E+03  0.11093097958E+04  0.50400001928E-02 0.  1.
       -1    1    3    3    0  502  0.88655677751E+03 -0.62300580227E+03 -0.12362677917E+03  0.10905974188E+04  0.50400001928E-02 0. -1.
</event>
<event>
 5   0  0.2319707E-05  0.2213172E+04  0.7818609E-02  0.8512966E-01
       -2   -1    0    0    0  501  0.00000000000E+00  0.00000000000E+00  0.10806687245E+04  0.10806687245E+04  0.25500000920E-02 0.  1.
        2   -1    0    0  501    0  0.00000000000E+00  0.00000000000E+00 -0.11331243589E+04  0.11331243589E+04  0.25500000920E-02 0. -1.
    10030    2    1    2    0    0  0.00000000000E+00  0.00000000000E+00 -0.52455634416E+02  0.22137930834E+04  0.22131715303E+04 0.  0.
        3    1    3    3  502    0 -0.20590602956E+03 -0.28917013230E+03  0.10221673820E+04  0.10820549087E+04  0.10100000352E+00 0.  1.
       -3    1    3    3    0  502  0.20590602956E+03  0.28917013230E+03 -0.10746230164E+04  0.11317381747E+04  0.10100000352E+00 0. -1.
</event>
<event>
 5   0  0.2229552E-05  0.2198804E+04  0.7818609E-02  0.8518926E-01
        2   -1    0    0  501    0  0.00000000000E+00  0.00000000000E+00  0.55407942446E+03  0.55407942447E+03  0.25500000920E-02 0.  1.
       -2   -1    0    0    0  501  0.00000000000E+00  0.00000000000E+00 -0.21814295798E+04  0.21814295798E+04  0.25500000920E-02 0. -1.
    10030    2    1    2    0    0  0.00000000000E+00  0.00000000000E+00 -0.16273501553E+04  0.27355090042E+04  0.21988044443E+04 0.  0.
        1    1    3    3  502    0 -0.10392028519E+04  0.12093511957E+03 -0.39340600670E+03  0.11177370696E+04  0.50400001928E-02 0.  1.
       -1    1    3    3    0  502  0.10392028519E+04 -0.12093511957E+03 -0.12339441486E+04  0.16177719346E+04  0.50400001928E-02 0. -1.
</event>
<event>
 5   0  0.1007682E-05  0.2160382E+04  0.7818609E-02  0.8535101E-01
        1   -1    0    0  501    0  0.00000000000E+00  0.00000000000E+00  0.95001666733E+03  0.95001666734E+03  0.50400001928E-02 0.  1.
       -1   -1    0    0    0  501  0.00000000000E+00  0.00000000000E+00 -0.12282024793E+04  0.12282024793E+04  0.50400001928E-02 0. -1.
    10030    2    1    2    0    0  0.00000000000E+00  0.00000000000E+00 -0.27818581197E+03  0.21782191467E+04  0.21603822127E+04 0.  0.
        2    1    3    3  502    0  0.23457359655E+03  0.76241640657E+02 -0.11994293430E+04  0.12245277902E+04  0.25500000920E-02 0. -1.
       -2    1    3    3    0  502 -0.23457359655E+03 -0.76241640657E+02  0.92124353104E+03  0.95369135650E+03  0.25500000920E-02 0.  1.
</event>
<event>
 5   0  0.1049198E-05  0.2228346E+04  0.7818609E-02  0.8506722E-01
        1   -1    0    0  501    0  0.00000000000E+00  0.00000000000E+00  0.13791433169E+04  0.13791433169E+04  0.50400001928E-02 0. -1.
       -1   -1    0    0    0  501  0.00000000000E+00  0.00000000000E+00 -0.90011079613E+03  0.90011079615E+03  0.50400001928E-02 0.  1.
    10030    2    1    2    0    0  0.00000000000E+00  0.00000000000E+00  0.47903252079E+03  0.22792541131E+04  0.22283462828E+04 0.  0.
        1    1    3    3  502    0 -0.24192450448E+03 -0.21837127515E+03  0.13292996790E+04  0.13686676427E+04  0.50400001928E-02 0. -1.
       -1    1    3    3    0  502  0.24192450448E+03  0.21837127515E+03 -0.85026715819E+03  0.91058647036E+03  0.50400001928E-02 0.  1.
</event>
<event>
 5   0  0.1007682E-05  0.2203400E+04  0.7818609E-02  0.8517014E-01
       -1   -1    0    0    0  501  0.00000000000E+00  0.00000000000E+00  0.15839196316E+04  0.15839196316E+04  0.50400001928E-02 0. -1.
        1   -1    0    0  501    0  0.00000000000E+00  0.00000000000E+00 -0.76629055946E+03  0.76629055948E+03  0.50400001928E-02 0.  1.
    10030    2    1    2    0    0  0.00000000000E+00  0.00000000000E+00  0.81762907213E+03  0.23502101911E+04  0.22033997918E+04 0.  0.
        2    1    3    3  502    0  0.24212459504E+03 -0.21743368981E+03 -0.71385543044E+03  0.78453253888E+03  0.25500000920E-02 0.  1.
       -2    1    3    3    0  502 -0.24212459504E+03  0.21743368981E+03  0.15314845026E+04  0.15656776522E+04  0.25500000920E-02 0. -1.
</event>
<event>
 5   0  0.2319707E-05  0.2158190E+04  0.7818609E-02  0.8536035E-01
        2   -1    0    0  501    0  0.00000000000E+00  0.00000000000E+00  0.11967580856E+04  0.11967580856E+04  0.25500000920E-02 0.  1.
       -2   -1    0    0    0  501  0.00000000000E+00  0.00000000000E+00 -0.97300020067E+03  0.97300020067E+03  0.25500000920E-02 0. -1.
    10030    2    1    2    0    0  0.00000000000E+00  0.00000000000E+00  0.22375788489E+03  0.21697582862E+04  0.21581898502E+04 0.  0.
        3    1    3    3  502    0 -0.82431171250E+03  0.24990692704E+03 -0.54160721160E+03  0.10174879132E+04  0.10100000352E+00 0. -1.
       -3    1    3    3    0  502  0.82431171250E+03 -0.24990692704E+03  0.76536509649E+03  0.11522703731E+04  0.10100000352E+00 0.  1.
</event>
<event>
 5   0  0.1007682E-05  0.2195442E+04  0.7818609E-02  0.8520328E-01
        1   -1    0    0  501    0  0.00000000000E+00  0.00000000000E+00  0.23652638027E+04  0.23652638027E+04  0.50400001928E-02 0. -1.
       -1   -1    0    0    0  501  0.00000000000E+00  0.00000000000E+00 -0.50945321688E+03  0.50945321691E+03  0.50400001928E-02 0.  1.
    10030    2    1    2    0    0  0.00000000000E+00  0.00000000000E+00  0.18558105858E+04  0.28747170196E+04  0.21954418718E+04 0.  0.
        2    1    3    3  502    0  0.16660184749E+03 -0.45369580363E+03  0.22184442912E+04  0.22704825767E+04  0.25500000920E-02 0. -1.
       -2    1    3    3    0  502 -0.16660184749E+03  0.45369580363E+03 -0.36263370534E+03  0.60423444298E+03  0.25500000920E-02 0.  1.
</event>
<event>
 5   0  0.2298329E-05  0.2205183E+04  0.7818609E-02  0.8516274E-01
        2   -1    0    0  501    0  0.00000000000E+00  0.00000000000E+00  0.15018546072E+04  0.15018546072E+04  0.25500000920E-02 0.  1.
       -2   -1    0    0    0  501  0.00000000000E+00  0.00000000000E+00 -0.80947139877E+03  0.80947139877E+03  0.25500000920E-02 0. -1.
    10030    2    1    2    0    0  0.00000000000E+00  0.00000000000E+00  0.69238320843E+03  0.23113260060E+04  0.22051833027E+04 0.  0.
        4    1    3    3  502    0 -0.69741942849E+03  0.85385123617E+03  0.36279530560E+03  0.11606368249E+04  0.12699999809E+01 0. -1.
       -4    1    3    3    0  502  0.69741942849E+03 -0.85385123617E+03  0.32958790283E+03  0.11506891810E+04  0.12699999809E+01 0.  1.
</event>
<event>
 5   0  0.1005538E-05  0.2201196E+04  0.7818609E-02  0.8517931E-01
        1   -1    0    0  501    0  0.00000000000E+00  0.00000000000E+00  0.11561289951E+04  0.11561289951E+04  0.50400001928E-02 0.  1.
       -1   -1    0    0    0  501  0.00000000000E+00  0.00000000000E+00 -0.10477340307E+04  0.10477340307E+04  0.50400001928E-02 0. -1.
    10030    2    1    2    0    0  0.00000000000E+00  0.00000000000E+00  0.10839496441E+03  0.22038630258E+04  0.22011957587E+04 0.  0.
        3    1    3    3  502    0 -0.48382804805E+03 -0.62443788483E+02  0.10419662475E+04  0.11505140060E+04  0.10100000352E+00 0.  1.
       -3    1    3    3    0  502  0.48382804805E+03  0.62443788483E+02 -0.93357128309E+03  0.10533490198E+04  0.10100000352E+00 0. -1.
</event>
<event>
 5   0  0.1049198E-05  0.2201889E+04  0.7818609E-02  0.8517642E-01
        1   -1    0    0  501    0  0.00000000000E+00  0.00000000000E+00  0.89434184131E+03  0.89434184132E+03  0.50400001928E-02 0. -1.
       -1   -1    0    0    0  501  0.00000000000E+00  0.00000000000E+00 -0.13552740063E+04  0.13552740063E+04  0.50400001928E-02 0.  1.
    10030    2    1    2    0    0  0.00000000000E+00  0.00000000000E+00 -0.46093216497E+03  0.22496158476E+04  0.22018885079E+04 0.  0.
        1    1    3    3  502    0  0.34135297537E+03 -0.33085452348E+03  0.78407978313E+03  0.91693384486E+03  0.50400001928E-02 0. -1.
       -1    1    3    3    0  502 -0.34135297537E+03  0.33085452348E+03 -0.12450119481E+04  0.13326820028E+04  0.50400001928E-02 0.  1.
</event>
<event>
 5   0  0.2298329E-05  0.2195433E+04  0.7818609E-02  0.8520331E-01
       -2   -1    0    0    0  501  0.00000000000E+00  0.00000000000E+00  0.10199545641E+04  0.10199545641E+04  0.25500000920E-02 0. -1.
        2   -1    0    0  501    0  0.00000000000E+00  0.00000000000E+00 -0.11814075785E+04  0.11814075785E+04  0.25500000920E-02 0.  1.
    10030    2    1    2    0    0  0.00000000000E+00  0.00000000000E+00 -0.16145301443E+03  0.22013621426E+04  0.21954334896E+04 0.  0.
        4    1    3    3  502    0 -0.20813882454E+03 -0.80099735039E+03  0.64237411208E+03  0.10476471918E+04  0.12699999809E+01 0. -1.
       -4    1    3    3    0  502  0.20813882454E+03  0.80099735039E+03 -0.80382712651E+03  0.11537149509E+04  0.12699999809E+01 0.  1.
</event>
<event>
 5   0  0.2289708E-05  0.2193565E+04  0.7818609E-02  0.8521111E-01
        2   -1    0    0  501    0  0.00000000000E+00  0.00000000000E+00  0.15571729432E+04  0.15571729432E+04  0.25500000920E-02 0. -1.
       -2   -1    0    0    0  501  0.00000000000E+00  0.00000000000E+00 -0.77250995990E+03  0.77250995990E+03  0.25500000920E-02 0.  1.
    10030    2    1    2    0    0  0.00000000000E+00  0.00000000000E+00  0.78466298335E+03  0.23296829031E+04  0.21935647772E+04 0.  0.
        5    1    3    3  502    0 -0.95932335394E+03  0.50736895978E+03  0.56087691892E+03  0.12216094167E+04  0.46999998093E+01 0. -1.
       -5    1    3    3    0  502  0.95932335394E+03 -0.50736895978E+03  0.22378606443E+03  0.11080734865E+04  0.46999998093E+01 0.  1.
</event>
<event>
 5   0  0.1007682E-05  0.2199413E+04  0.7818609E-02  0.8518673E-01
        1   -1    0    0  501    0  0.00000000000E+00  0.00000000000E+00  0.62064034894E+03  0.62064034896E+03  0.50400001928E-02 0. -1.
       -1   -1    0    0    0  501  0.00000000000E+00  0.00000000000E+00 -0.19485587592E+04  0.19485587592E+04  0.50400001928E-02 0.  1.
    10030    2    1    2    0    0  0.00000000000E+00  0.00000000000E+00 -0.13279184102E+04  0.25691991081E+04  0.21994128200E+04 0.  0.
        2    1    3    3  502    0 -0.92861003654E+03  0.54500219331E+03 -0.92518754804E+03  0.14196182549E+04  0.25500000920E-02 0. -1.
       -2    1    3    3    0  502  0.92861003654E+03 -0.54500219331E+03 -0.40273086219E+03  0.11495808532E+04  0.25500000920E-02 0.  1.
</event>
<event>
 5   0  0.1007682E-05  0.2197551E+04  0.7818609E-02  0.8519448E-01
       -1   -1    0    0    0  501  0.00000000000E+00  0.00000000000E+00  0.79591519679E+03  0.79591519680E+03  0.50400001928E-02 0.  1.
        1   -1    0    0  501    0  0.00000000000E+00  0.00000000000E+00 -0.15168793226E+04  0.15168793226E+04  0.50400001928E-02 0. -1.
    10030    2    1    2    0    0  0.00000000000E+00  0.00000000000E+00 -0.72096412582E+03  0.23127945194E+04  0.21975507317E+04 0.  0.
        2    1    3    3  502    0 -0.65125427996E+03  0.16892991942E+03  0.55377312143E+03  0.87139779944E+03  0.25500000920E-02 0.  1.
       -2    1    3    3    0  502  0.65125427996E+03 -0.16892991942E+03 -0.12747372472E+04  0.14413967200E+04  0.25500000920E-02 0. -1.
</event>
<event>
 5   0  0.1049198E-05  0.2107469E+04  0.7818609E-02  0.8557960E-01
        1   -1    0    0  501    0  0.00000000000E+00  0.00000000000E+00  0.93656097194E+03  0.93656097196E+03  0.50400001928E-02 0. -1.
       -1   -1    0    0    0  501  0.00000000000E+00  0.00000000000E+00 -0.11855679313E+04  0.11855679313E+04  0.50400001928E-02 0.  1.
    10030    2    1    2    0    0  0.00000000000E+00  0.00000000000E+00 -0.24900695936E+03  0.21221289033E+04  0.21074692444E+04 0.  0.
        1    1    3    3  502    0 -0.21273082591E+03 -0.62349641648E+03  0.70362495493E+03  0.96389328397E+03  0.50400001928E-02 0. -1.
       -1    1    3    3    0  502  0.21273082591E+03  0.62349641648E+03 -0.95263191429E+03  0.11582356193E+04  0.50400001928E-02 0.  1.
</event>
<event>
 5   0  0.1033733E-05  0.2210709E+04  0.7818609E-02  0.8513984E-01
        1   -1    0    0  501    0  0.00000000000E+00  0.00000000000E+00  0.14765849662E+04  0.14765849662E+04  0.50400001928E-02 0.  1.
       -1   -1    0    0    0  501  0.00000000000E+00  0.00000000000E+00 -0.82745544800E+03  0.82745544802E+03  0.50400001928E-02 0. -1.
    10030    2    1    2    0    0  0.00000000000E+00  0.00000000000E+00  0.64912951817E+03  0.23040404142E+04  0.22107087323E+04 0.  0.
        5    1    3    3  502    0  0.63419029491E+03 -0.38002341317E+03 -0.53181318838E+03  0.91074830884E+03  0.46999998093E+01 0. -1.
       -5    1    3    3    0  502 -0.63419029491E+03  0.38002341317E+03  0.11809427066E+04  0.13932921054E+04  0.46999998093E+01 0.  1.
</event>
<event>
 5   0  0.1005538E-05  0.2199198E+04  0.7818609E-02  0.8518762E-01
        1   -1    0    0  501    0  0.00000000000E+00  0.00000000000E+00  0.17255742277E+04  0.17255742277E+04  0.50400001928E-02 0. -1.
       -1   -1    0    0    0  501  0.00000000000E+00  0.00000000000E+00 -0.70070490009E+03  0.70070490011E+03  0.50400001928E-02 0.  1.
    10030    2    1    2    0    0  0.00000000000E+00  0.00000000000E+00  0.10248693276E+04  0.24262791278E+04  0.21991983238E+04 0.  0.
        3    1    3    3  502    0  0.57402444208E+03  0.77753153053E+03 -0.66179777908E+02  0.96873067170E+03  0.10100000352E+00 0.  1.
       -3    1    3    3    0  502 -0.57402444208E+03 -0.77753153053E+03  0.10910491055E+04  0.14575484561E+04  0.10100000352E+00 0. -1.
</event>
<event>
 5   0  0.2229552E-05  0.2187441E+04  0.7818609E-02  0.8523674E-01
        2   -1    0    0  501    0  0.00000000000E+00  0.00000000000E+00  0.11743241032E+04  0.11743241032E+04  0.25500000920E-02 0.  1.
       -2   -1    0    0    0  501  0.00000000000E+00  0.00000000000E+00 -0.10186491812E+04  0.10186491812E+04  0.25500000920E-02 0. -1.
    10030    2    1    2    0    0  0.00000000000E+00  0.00000000000E+00  0.15567492207E+03  0.21929732844E+04  0.21874407751E+04 0.  0.
        1    1    3    3  502    0  0.10841838656E+04 -0.14323829886E+03  0.61909502232E+02  0.10953559473E+04  0.50400001928E-02 0.  1.
       -1    1    3    3    0  502 -0.10841838656E+04  0.14323829886E+03  0.93765419840E+02  0.10976173371E+04  0.50400001928E-02 0. -1.
</event>
<event>
 5   0  0.1033733E-05  0.2168821E+04  0.7818609E-02  0.8531519E-01
        1   -1    0    0  501    0  0.00000000000E+00  0.00000000000E+00  0.88764853367E+03  0.88764853369E+03  0.50400001928E-02 0. -1.
       -1   -1    0    0    0  501  0.00000000000E+00  0.00000000000E+00 -0.13247881833E+04  0.13247881833E+04  0.50400001928E-02 0.  1.
    10030    2    1    2    0    0  0.00000000000E+00  0.00000000000E+00 -0.43713964966E+03  0.22124367170E+04  0.21688211437E+04 0.  0.
        5    1    3    3  502    0  0.90586367304E+03  0.22356961315E+03  0.34512933041E+03  0.99484104799E+03  0.46999998093E+01 0. -1.
       -5    1    3    3    0  502 -0.90586367304E+03 -0.22356961315E+03 -0.78226898007E+03  0.12175956690E+04  0.46999998093E+01 0.  1.
</event>
<event>
 5   0  0.1049198E-05  0.2074519E+04  0.7818609E-02  0.8572552E-01
        1   -1    0    0  501    0  0.00000000000E+00  0.00000000000E+00  0.75132071135E+03  0.75132071137E+03  0.50400001928E-02 0.  1.
       -1   -1    0    0    0  501  0.00000000000E+00  0.00000000000E+00 -0.14320209796E+04  0.14320209796E+04  0.50400001928E-02 0. -1.
    10030    2    1    2    0    0  0.00000000000E+00  0.00000000000E+00 -0.68070026827E+03  0.21833416910E+04  0.20745187597E+04 0.  0.
        1    1    3    3  502    0 -0.62394148022E+03  0.82341473045E+03 -0.24279338064E+03  0.10612555841E+04  0.50400001928E-02 0.  1.
       -1    1    3    3    0  502  0.62394148022E+03 -0.82341473045E+03 -0.43790688763E+03  0.11220861069E+04  0.50400001928E-02 0. -1.
</event>
<event>
 5   0  0.1005538E-05  0.2198788E+04  0.7818609E-02  0.8518933E-01
        1   -1    0    0  501    0  0.00000000000E+00  0.00000000000E+00  0.89484302755E+03  0.89484302756E+03  0.50400001928E-02 0. -1.
       -1   -1    0    0    0  501  0.00000000000E+00  0.00000000000E+00 -0.13507033871E+04  0.13507033871E+04  0.50400001928E-02 0.  1.
    10030    2    1    2    0    0  0.00000000000E+00  0.00000000000E+00 -0.45586035951E+03  0.22455464146E+04  0.21987883102E+04 0.  0.
        3    1    3    3  502    0 -0.21613498111E+03 -0.32134168928E+03  0.82287831106E+03  0.90945232769E+03  0.10100000352E+00 0. -1.
       -3    1    3    3    0  502  0.21613498111E+03  0.32134168928E+03 -0.12787386706E+04  0.13360940869E+04  0.10100000352E+00 0.  1.
</event>
<event>
 5   0  0.1071208E-05  0.2232435E+04  0.7818609E-02  0.8505048E-01
        1   -1    0    0  501    0  0.00000000000E+00  0.00000000000E+00  0.85897644898E+03  0.85897644899E+03  0.50400001928E-02 0. -1.
       -1   -1    0    0    0  501  0.00000000000E+00  0.00000000000E+00 -0.14504950313E+04  0.14504950313E+04  0.50400001928E-02 0.  1.
    10030    2    1    2    0    0  0.00000000000E+00  0.00000000000E+00 -0.59151858231E+03  0.23094714803E+04  0.22324346094E+04 0.  0.
        4    1    3    3  502    0 -0.10492681558E+04  0.37681631040E+03 -0.23923629006E+03  0.11402586592E+04  0.12699999809E+01 0. -1.
       -4    1    3    3    0  502  0.10492681558E+04 -0.37681631040E+03 -0.35228229226E+03  0.11692128211E+04  0.12699999809E+01 0.  1.
</event>
<event>
 5   0  0.1005538E-05  0.2201109E+04  0.7818609E-02  0.8517967E-01
        1   -1    0    0  501    0  0.00000000000E+00  0.00000000000E+00  0.12015187859E+04  0.12015187859E+04  0.50400001928E-02 0. -1.
       -1   -1    0    0    0  501  0.00000000000E+00  0.00000000000E+00 -0.10080743784E+04  0.10080743784E+04  0.50400001928E-02 0.  1.
    10030    2    1    2    0    0  0.00000000000E+00  0.00000000000E+00  0.19344440751E+03  0.22095931643E+04  0.22011090870E+04 0.  0.
        3    1    3    3  502    0 -0.84470214719E+03 -0.63601123892E+03  0.40316639802E+03  0.11316250122E+04  0.10100000352E+00 0. -1.
       -3    1    3    3    0  502  0.84470214719E+03  0.63601123892E+03 -0.20972199051E+03  0.10779681521E+04  0.10100000352E+00 0.  1.
</event>
<event>
 5   0  0.2229552E-05  0.2207671E+04  0.7818609E-02  0.8515242E-01
        2   -1    0    0  501    0  0.00000000000E+00  0.00000000000E+00  0.11831364894E+04  0.11831364895E+04  0.25500000920E-02 0.  1.
       -2   -1    0    0    0  501  0.00000000000E+00  0.00000000000E+00 -0.10298496796E+04  0.10298496796E+04  0.25500000920E-02 0. -1.
    10030    2    1    2    0    0  0.00000000000E+00  0.00000000000E+00  0.15328680981E+03  0.22129861691E+04  0.22076709308E+04 0.  0.
        1    1    3    3  502    0  0.41161196627E+03 -0.70641463697E+03 -0.66676650201E+03  0.10549993452E+04  0.50400001928E-02 0. -1.
       -1    1    3    3    0  502 -0.41161196627E+03  0.70641463697E+03  0.82005331182E+03  0.11579868239E+04  0.50400001928E-02 0.  1.
</event>
<event>
 5   0  0.2319707E-05  0.2213102E+04  0.7818609E-02  0.8512994E-01
       -2   -1    0    0    0  501  0.00000000000E+00  0.00000000000E+00  0.61030710074E+03  0.61030710075E+03  0.25500000920E-02 0. -1.
        2   -1    0    0  501    0  0.00000000000E+00  0.00000000000E+00 -0.20062936149E+04  0.20062936149E+04  0.25500000920E-02 0.  1.
    10030    2    1    2    0    0  0.00000000000E+00  0.00000000000E+00 -0.13959865141E+04  0.26166007156E+04  0.22131021118E+04 0.  0.
        3    1    3    3  502    0  0.53146254345E+03  0.73121269774E+02 -0.18422568497E+04  0.19187781179E+04  0.10100000352E+00 0.  1.
       -3    1    3    3    0  502 -0.53146254345E+03 -0.73121269774E+02  0.44627033563E+03  0.69782259769E+03  0.10100000352E+00 0. -1.
</event>
<event>
 5   0  0.1005538E-05  0.2195474E+04  0.7818609E-02  0.8520314E-01
       -1   -1    0    0    0  501  0.00000000000E+00  0.00000000000E+00  0.75802423032E+03  0.75802423034E+03  0.50400001928E-02 0. -1.
        1   -1    0    0  501    0  0.00000000000E+00  0.00000000000E+00 -0.15896941233E+04  0.15896941233E+04  0.50400001928E-02 0.  1.
    10030    2    1    2    0    0  0.00000000000E+00  0.00000000000E+00 -0.83166989301E+03  0.23477183537E+04  0.21954741304E+04 0.  0.
        3    1    3    3  502    0 -0.63239582774E+03 -0.36731033833E+03  0.45958233457E+03  0.86374608540E+03  0.10100000352E+00 0. -1.
       -3    1    3    3    0  502  0.63239582774E+03  0.36731033833E+03 -0.12912522276E+04  0.14839722683E+04  0.10100000352E+00 0.  1.
</event>
<event>
 5   0  0.8003875E-06  0.2184252E+04  0.7818609E-02  0.8525011E-01
       -4   -1    0    0    0  501  0.00000000000E+00  0.00000000000E+00  0.81483578997E+03  0.81483677968E+03  0.12699999809E+01 0. -1.
        4   -1    0    0  501    0  0.00000000000E+00  0.00000000000E+00 -0.14637767549E+04  0.14637773058E+04  0.12699999809E+01 0.  1.
    10030    2    1    2    0    0  0.00000000000E+00  0.00000000000E+00 -0.64894096489E+03  0.22786140855E+04  0.21842522232E+04 0.  0.
        2    1    3    3  502    0  0.53065548338E+03  0.11331167848E+03  0.66426431468E+03  0.85771898561E+03  0.25500000920E-02 0. -1.
       -2    1    3    3    0  502 -0.53065548338E+03 -0.11331167848E+03 -0.13132052796E+04  0.14208950999E+04  0.25500000920E-02 0.  1.
</event>
<event>
 5   0  0.1071208E-05  0.2203206E+04  0.7818609E-02  0.8517095E-01
       -1   -1    0    0    0  501  0.00000000000E+00  0.00000000000E+00  0.57337820056E+03  0.57337820058E+03  0.50400001928E-02 0. -1.
        1   -1    0    0  501    0  0.00000000000E+00  0.00000000000E+00 -0.21164543335E+04  0.21164543335E+04  0.50400001928E-02 0.  1.
    10030    2    1    2    0    0  0.00000000000E+00  0.00000000000E+00 -0.15430761329E+04  0.26898325340E+04  0.22032056439E+04 0.  0.
        4    1    3    3  502    0 -0.90188980213E+03 -0.58393681718E+03 -0.47463825461E+03  0.11745937627E+04  0.12699999809E+01 0. -1.
       -4    1    3    3    0  502  0.90188980213E+03  0.58393681718E+03 -0.10684378783E+04  0.15152387714E+04  0.12699999809E+01 0.  1.
</event>
<event>
 5   0  0.1007682E-05  0.2195726E+04  0.7818609E-02  0.8520209E-01
       -1   -1    0    0    0  501  0.00000000000E+00  0.00000000000E+00  0.10741688285E+04  0.10741688285E+04  0.50400001928E-02 0. -1.
        1   -1    0    0  501    0  0.00000000000E+00  0.00000000000E+00 -0.11220794843E+04  0.11220794843E+04  0.50400001928E-02 0.  1.
    10030    2    1    2    0    0  0.00000000000E+00  0.00000000000E+00 -0.47910655810E+02  0.21962483129E+04  0.21957256707E+04 0.  0.
        2    1    3    3  502    0 -0.15997825874E+03 -0.18615483074E+03  0.10463723390E+04  0.10747752026E+04  0.25500000920E-02 0. -1.
       -2    1    3    3    0  502  0.15997825874E+03  0.18615483074E+03 -0.10942829948E+04  0.11214731103E+04  0.25500000920E-02 0.  1.
</event>
<event>
 5   0  0.1049198E-05  0.2211966E+04  0.7818609E-02  0.8513464E-01
       -1   -1    0    0    0  501  0.00000000000E+00  0.00000000000E+00  0.14448754756E+04  0.14448754756E+04  0.50400001928E-02 0.  1.
        1   -1    0    0  501    0  0.00000000000E+00  0.00000000000E+00 -0.84657701819E+03  0.84657701820E+03  0.50400001928E-02 0. -1.
    10030    2    1    2    0    0  0.00000000000E+00  0.00000000000E+00  0.59829845738E+03  0.22914524938E+04  0.22119659778E+04 0.  0.
        1    1    3    3  502    0 -0.15121644892E+03 -0.54343008121E+03  0.12846579518E+04  0.14030426654E+04  0.50400001928E-02 0.  1.
       -1    1    3    3    0  502  0.15121644892E+03  0.54343008121E+03 -0.68635949445E+03  0.88840982842E+03  0.50400001928E-02 0. -1.
</event>
<event>
 5   0  0.1033733E-05  0.2198182E+04  0.7818609E-02  0.8519185E-01
        1   -1    0    0  501    0  0.00000000000E+00  0.00000000000E+00  0.15024816532E+04  0.15024816532E+04  0.50400001928E-02 0.  1.
       -1   -1    0    0    0  501  0.00000000000E+00  0.00000000000E+00 -0.80400376768E+03  0.80400376770E+03  0.50400001928E-02 0. -1.
    10030    2    1    2    0    0  0.00000000000E+00  0.00000000000E+00  0.69847788556E+03  0.23064854209E+04  0.21981818943E+04 0.  0.
        5    1    3    3  502    0 -0.12331271448E+03  0.72659047083E+03 -0.50631098325E+03  0.89415470676E+03  0.46999998093E+01 0. -1.
       -5    1    3    3    0  502  0.12331271448E+03 -0.72659047083E+03  0.12047888688E+04  0.14123307142E+04  0.46999998093E+01 0.  1.
</event>
<event>
 5   0  0.2289708E-05  0.2197782E+04  0.7818609E-02  0.8519352E-01
       -2   -1    0    0    0  501  0.00000000000E+00  0.00000000000E+00  0.59034888781E+03  0.59034888782E+03  0.25500000920E-02 0.  1.
        2   -1    0    0  501    0  0.00000000000E+00  0.00000000000E+00 -0.20455039384E+04  0.20455039384E+04  0.25500000920E-02 0. -1.
    10030    2    1    2    0    0  0.00000000000E+00  0.00000000000E+00 -0.14551550505E+04  0.26358528262E+04  0.21977815861E+04 0.  0.
        5    1    3    3  502    0 -0.93406899512E+03 -0.18377278784E+03 -0.69278968697E+02  0.95450457866E+03  0.46999998093E+01 0.  1.
       -5    1    3    3    0  502  0.93406899512E+03  0.18377278784E+03 -0.13858760819E+04  0.16813482475E+04  0.46999998093E+01 0. -1.
</event>
<event>
 5   0  0.2298329E-05  0.2205037E+04  0.7818609E-02  0.8516335E-01
       -2   -1    0    0    0  501  0.00000000000E+00  0.00000000000E+00  0.60224561147E+03  0.60224561148E+03  0.25500000920E-02 0.  1.
        2   -1    0    0  501    0  0.00000000000E+00  0.00000000000E+00 -0.20183573716E+04  0.20183573716E+04  0.25500000920E-02 0. -1.
    10030    2    1    2    0    0  0.00000000000E+00  0.00000000000E+00 -0.14161117601E+04  0.26206029830E+04  0.22050368427E+04 0.  0.
        4    1    3    3  502    0  0.99234235536E+03 -0.38441147157E+03 -0.10505098343E+04  0.14953554944E+04  0.12699999809E+01 0.  1.
       -4    1    3    3    0  502 -0.99234235536E+03  0.38441147157E+03 -0.36560192583E+03  0.11252474887E+04  0.12699999809E+01 0. -1.
</event>
<event>
 5   0  0.1033733E-05  0.2142550E+04  0.7818609E-02  0.8542728E-01
        1   -1    0    0  501    0  0.00000000000E+00  0.00000000000E+00  0.60179530348E+03  0.60179530350E+03  0.50400001928E-02 0.  1.
       -1   -1    0    0    0  501  0.00000000000E+00  0.00000000000E+00 -0.19070110703E+04  0.19070110703E+04  0.50400001928E-02 0. -1.
    10030    2    1    2    0    0  0.00000000000E+00  0.00000000000E+00 -0.13052157668E+04  0.25088063738E+04  0.21425501682E+04 0.  0.
        5    1    3    3  502    0 -0.13649340463E+03 -0.64898269160E+03 -0.16377325379E+04  0.17669179209E+04  0.46999998093E+01 0. -1.
       -5    1    3    3    0  502  0.13649340463E+03  0.64898269160E+03  0.33251677108E+03  0.74188845291E+03  0.46999998093E+01 0.  1.
</event>
<event>
 5   0  0.8003875E-06  0.2242951E+04  0.7818609E-02  0.8500761E-01
       -3   -1    0    0    0  501  0.00000000000E+00  0.00000000000E+00  0.16591920444E+04  0.16591920475E+04  0.10100000352E+00 0.  1.
        3   -1    0    0  501    0  0.00000000000E+00  0.00000000000E+00 -0.75802407122E+03  0.75802407794E+03  0.10100000352E+00 0. -1.
    10030    2    1    2    0    0  0.00000000000E+00  0.00000000000E+00  0.90116797320E+03  0.24172161254E+04  0.22429511990E+04 0.  0.
        1    1    3    3  502    0  0.74739980522E+03 -0.81983936528E+03  0.62755069566E+03  0.12745834337E+04  0.50400001928E-02 0.  1.
       -1    1    3    3    0  502 -0.74739980522E+03  0.81983936528E+03  0.27361727754E+03  0.11426326918E+04  0.50400001928E-02 0. -1.
</event>
<event>
 5   0  0.2229552E-05  0.2246757E+04  0.7818609E-02  0.8499215E-01
        2   -1    0    0  501    0  0.00000000000E+00  0.00000000000E+00  0.17087191108E+04  0.17087191108E+04  0.25500000920E-02 0.  1.
       -2   -1    0    0    0  501  0.00000000000E+00  0.00000000000E+00 -0.73855290660E+03  0.73855290661E+03  0.25500000920E-02 0. -1.
    10030    2    1    2    0    0  0.00000000000E+00  0.00000000000E+00  0.97016620420E+03  0.24472720174E+04  0.22467571884E+04 0.  0.
        1    1    3    3  502    0 -0.36054590496E+03  0.88758002950E+03  0.11241169254E+04  0.14769666619E+04  0.50400001928E-02 0.  1.
       -1    1    3    3    0  502  0.36054590496E+03 -0.88758002950E+03 -0.15395072120E+03  0.97030535552E+03  0.50400001928E-02 0. -1.
</event>
<event>
 5   0  0.2298329E-05  0.2203827E+04  0.7818609E-02  0.8516837E-01
        2   -1    0    0  501    0  0.00000000000E+00  0.00000000000E+00  0.85615036049E+03  0.85615036050E+03  0.25500000920E-02 0. -1.
       -2   -1    0    0    0  501  0.00000000000E+00  0.00000000000E+00 -0.14182250784E+04  0.14182250784E+04  0.25500000920E-02 0.  1.
    10030    2    1    2    0    0  0.00000000000E+00  0.00000000000E+00 -0.56207471793E+03  0.22743754389E+04  0.22038274997E+04 0.  0.
        4    1    3    3  502    0 -0.51654961373E+02 -0.34256322217E+03  0.79848545060E+03  0.87040130052E+03  0.12699999809E+01 0. -1.
       -4    1    3    3    0  502  0.51654961373E+02  0.34256322217E+03 -0.13605601685E+04  0.14039741384E+04  0.12699999809E+01 0.  1.
</event>
<event>
 5   0  0.2298329E-05  0.2202177E+04  0.7818609E-02  0.8517523E-01
       -2   -1    0    0    0  501  0.00000000000E+00  0.00000000000E+00  0.87672620924E+03  0.87672620925E+03  0.25500000920E-02 0. -1.
        2   -1    0    0  501    0  0.00000000000E+00  0.00000000000E+00 -0.13828672348E+04  0.13828672348E+04  0.25500000920E-02 0.  1.
    10030    2    1    2    0    0  0.00000000000E+00  0.00000000000E+00 -0.50614102558E+03  0.22595934441E+04  0.22021770580E+04 0.  0.
        4    1    3    3  502    0  0.65444602915E+03 -0.81444403679E+03  0.10351832860E+03  0.10499220692E+04  0.12699999809E+01 0. -1.
       -4    1    3    3    0  502 -0.65444602915E+03  0.81444403679E+03 -0.60965935417E+03  0.12096713749E+04  0.12699999809E+01 0.  1.
</event>
<event>
 5   0  0.1049198E-05  0.2110668E+04  0.7818609E-02  0.8556559E-01
       -1   -1    0    0    0  501  0.00000000000E+00  0.00000000000E+00  0.12517634744E+04  0.12517634744E+04  0.50400001928E-02 0. -1.
        1   -1    0    0  501    0  0.00000000000E+00  0.00000000000E+00 -0.88972849583E+03  0.88972849585E+03  0.50400001928E-02 0.  1.
    10030    2    1    2    0    0  0.00000000000E+00  0.00000000000E+00  0.36203497857E+03  0.21414919703E+04  0.21106677931E+04 0.  0.
        1    1    3    3  502    0  0.98614911157E+03  0.16015776695E+03 -0.16393153371E+03  0.10124298140E+04  0.50400001928E-02 0.  1.
       -1    1    3    3    0  502 -0.98614911157E+03 -0.16015776695E+03  0.52596651229E+03  0.11290621562E+04  0.50400001928E-02 0. -1.
</event>
<event>
 5   0  0.1005538E-05  0.2200268E+04  0.7818609E-02  0.8518316E-01
        1   -1    0    0  501    0  0.00000000000E+00  0.00000000000E+00  0.11012041903E+04  0.11012041903E+04  0.50400001928E-02 0. -1.
       -1   -1    0    0    0  501  0.00000000000E+00  0.00000000000E+00 -0.10990652560E+04  0.10990652560E+04  0.50400001928E-02 0.  1.
    10030    2    1    2    0    0  0.00000000000E+00  0.00000000000E+00  0.21389343017E+01  0.22002694463E+04  0.22002684066E+04 0.  0.
        3    1    3    3  502    0 -0.88629159483E+03 -0.33139744246E+03  0.56228109998E+03  0.11006802903E+04  0.10100000352E+00 0. -1.
       -3    1    3    3    0  502  0.88629159483E+03  0.33139744246E+03 -0.56014216567E+03  0.10995891560E+04  0.10100000352E+00 0.  1.
</event>
<event>
 5   0  0.1005538E-05  0.2205323E+04  0.7818609E-02  0.8516216E-01
       -1   -1    0    0    0  501  0.00000000000E+00  0.00000000000E+00  0.91345896198E+03  0.91345896199E+03  0.50400001928E-02 0. -1.
        1   -1    0    0  501    0  0.00000000000E+00  0.00000000000E+00 -0.13310527275E+04  0.13310527275E+04  0.50400001928E-02 0.  1.
    10030    2    1    2    0    0  0.00000000000E+00  0.00000000000E+00 -0.41759376548E+03  0.22445116895E+04  0.22053226909E+04 0.  0.
        3    1    3    3  502    0 -0.10552174076E+04  0.31135725197E+03 -0.28382882351E+03  0.11362156164E+04  0.10100000352E+00 0. -1.
       -3    1    3    3    0  502  0.10552174076E+04 -0.31135725197E+03 -0.13376494198E+03  0.11082960731E+04  0.10100000352E+00 0.  1.
</event>
<event>
 5   0  0.2298329E-05  0.2192406E+04  0.7818609E-02  0.8521596E-01
       -2   -1    0    0    0  501  0.00000000000E+00  0.00000000000E+00  0.47353882670E+03  0.47353882670E+03  0.25500000920E-02 0.  1.
        2   -1    0    0  501    0  0.00000000000E+00  0.00000000000E+00 -0.25376178749E+04  0.25376178749E+04  0.25500000920E-02 0. -1.
    10030    2    1    2    0    0  0.00000000000E+00  0.00000000000E+00 -0.20640790482E+04  0.30111567016E+04  0.21924056113E+04 0.  0.
        4    1    3    3  502    0  0.15637185525E+03  0.10849729732E+04 -0.10233023477E+04  0.14995892163E+04  0.12699999809E+01 0.  1.
       -4    1    3    3    0  502 -0.15637185525E+03 -0.10849729732E+04 -0.10407767005E+04  0.15115674854E+04  0.12699999809E+01 0. -1.
</event>
<event>
 5   0  0.1071208E-05  0.2201663E+04  0.7818609E-02  0.8517736E-01
        1   -1    0    0  501    0  0.00000000000E+00  0.00000000000E+00  0.92894156423E+03  0.92894156424E+03  0.50400001928E-02 0.  1.
       -1   -1    0    0    0  501  0.00000000000E+00  0.00000000000E+00 -0.13045273493E+04  0.13045273493E+04  0.50400001928E-02 0. -1.
    10030    2    1    2    0    0  0.00000000000E+00  0.00000000000E+00 -0.37558578505E+03  0.22334689135E+04  0.22016627139E+04 0.  0.
        4    1    3    3  502    0 -0.99462963781E+03  0.46023305734E+03 -0.29285291626E+03  0.11344016162E+04  0.12699999809E+01 0. -1.
       -4    1    3    3    0  502  0.99462963781E+03 -0.46023305734E+03 -0.82732868785E+02  0.10990672973E+04  0.12699999809E+01 0.  1.
</event>
<event>
 5   0  0.2229552E-05  0.2198253E+04  0.7818609E-02  0.8519156E-01
        2   -1    0    0  501    0  0.00000000000E+00  0.00000000000E+00  0.22780501278E+04  0.22780501278E+04  0.25500000920E-02 0.  1.
       -2   -1    0    0    0  501  0.00000000000E+00  0.00000000000E+00 -0.53031284379E+03  0.53031284380E+03  0.25500000920E-02 0. -1.
    10030    2    1    2    0    0  0.00000000000E+00  0.00000000000E+00  0.17477372840E+04  0.28083629716E+04  0.21982531625E+04 0.  0.
        1    1    3    3  502    0  0.75306488632E+03  0.41626137769E+03  0.17475614180E+04  0.19479094351E+04  0.50400001928E-02 0.  1.
       -1    1    3    3    0  502 -0.75306488632E+03 -0.41626137769E+03  0.17586601858E+00  0.86045353653E+03  0.50400001928E-02 0. -1.
</event>
<event>
 5   0  0.1033733E-05  0.2204316E+04  0.7818609E-02  0.8516634E-01
        1   -1    0    0  501    0  0.00000000000E+00  0.00000000000E+00  0.17731598025E+04  0.17731598025E+04  0.50400001928E-02 0.  1.
       -1   -1    0    0    0  501  0.00000000000E+00  0.00000000000E+00 -0.68507770652E+03  0.68507770654E+03  0.50400001928E-02 0. -1.
    10030    2    1    2    0    0  0.00000000000E+00  0.00000000000E+00  0.10880820960E+04  0.24582375090E+04  0.22043159944E+04 0.  0.
        5    1    3    3  502    0 -0.92310553634E+03 -0.30923399670E+03  0.11202631260E+04  0.14841701578E+04  0.46999998093E+01 0.  1.
       -5    1    3    3    0  502  0.92310553634E+03  0.30923399670E+03 -0.32181030056E+02  0.97406735118E+03  0.46999998093E+01 0. -1.
</event>
<event>
 5   0  0.2319707E-05  0.2192451E+04  0.7818609E-02  0.8521577E-01
        2   -1    0    0  501    0  0.00000000000E+00  0.00000000000E+00  0.20768639305E+04  0.20768639305E+04  0.25500000920E-02 0.  1.
       -2   -1    0    0    0  501  0.00000000000E+00  0.00000000000E+00 -0.57861755000E+03  0.57861755001E+03  0.25500000920E-02 0. -1.
    10030    2    1    2    0    0  0.00000000000E+00  0.00000000000E+00  0.14982463805E+04  0.26554814805E+04  0.21924506099E+04 0.  0.
        3    1    3    3  502    0 -0.60351199880E+01 -0.10204933668E+04  0.26424214543E+03  0.10541665219E+04  0.10100000352E+00 0. -1.
       -3    1    3    3    0  502  0.60351199880E+01  0.10204933668E+04  0.12340042351E+04  0.16013149586E+04  0.10100000352E+00 0.  1.
</event>
<event>
 5   0  0.2229552E-05  0.2198003E+04  0.7818609E-02  0.8519260E-01
        2   -1    0    0  501    0  0.00000000000E+00  0.00000000000E+00  0.70979424626E+03  0.70979424627E+03  0.25500000920E-02 0. -1.
       -2   -1    0    0    0  501  0.00000000000E+00  0.00000000000E+00 -0.17016266824E+04  0.17016266824E+04  0.25500000920E-02 0.  1.
    10030    2    1    2    0    0  0.00000000000E+00  0.00000000000E+00 -0.99183243613E+03  0.24114209287E+04  0.21980034836E+04 0.  0.
        1    1    3    3  502    0  0.86666655108E+02  0.10629854213E+04 -0.78691712020E+03  0.13254009465E+04  0.50400001928E-02 0.  1.
       -1    1    3    3    0  502 -0.86666655108E+02 -0.10629854213E+04 -0.20491531593E+03  0.10860199822E+04  0.50400001928E-02 0. -1.
</event>
<event>
 5   0  0.1033733E-05  0.2193483E+04  0.7818609E-02  0.8521146E-01
        1   -1    0    0  501    0  0.00000000000E+00  0.00000000000E+00  0.11022161429E+04  0.11022161429E+04  0.50400001928E-02 0.  1.
       -1   -1    0    0    0  501  0.00000000000E+00  0.00000000000E+00 -0.10912936664E+04  0.10912936664E+04  0.50400001928E-02 0. -1.
    10030    2    1    2    0    0  0.00000000000E+00  0.00000000000E+00  0.10922476540E+02  0.21935098093E+04  0.21934826151E+04 0.  0.
        5    1    3    3  502    0  0.66692281017E+03 -0.78018130297E+03  0.39192496067E+03  0.10986792821E+04  0.46999998093E+01 0.  1.
       -5    1    3    3    0  502 -0.66692281017E+03  0.78018130297E+03 -0.38100248413E+03  0.10948305271E+04  0.46999998093E+01 0. -1.
</event>
<event>
 5   0  0.1007682E-05  0.2199332E+04  0.7818609E-02  0.8518706E-01
       -1   -1    0    0    0  501  0.00000000000E+00  0.00000000000E+00  0.70966031456E+03  0.70966031458E+03  0.50400001928E-02 0.  1.
        1   -1    0    0  501    0  0.00000000000E+00  0.00000000000E+00 -0.17040054228E+04  0.17040054228E+04  0.50400001928E-02 0. -1.
    10030    2    1    2    0    0  0.00000000000E+00  0.00000000000E+00 -0.99434510827E+03  0.24136657374E+04  0.21993317389E+04 0.  0.
        2    1    3    3  502    0  0.10426101701E+04  0.31700972867E+03 -0.33538127403E+03  0.11401805707E+04  0.25500000920E-02 0.  1.
       -2    1    3    3    0  502 -0.10426101701E+04 -0.31700972867E+03 -0.65896383425E+03  0.12734851667E+04  0.25500000920E-02 0. -1.
</event>
<event>
 5   0  0.2284329E-05  0.2202147E+04  0.7818609E-02  0.8517535E-01
        2   -1    0    0  501    0  0.00000000000E+00  0.00000000000E+00  0.84526926140E+03  0.84526926140E+03  0.25500000920E-02 0.  1.
       -2   -1    0    0    0  501  0.00000000000E+00  0.00000000000E+00 -0.14342916765E+04  0.14342916765E+04  0.25500000920E-02 0. -1.
    10030    2    1    2    0    0  0.00000000000E+00  0.00000000000E+00 -0.58902241511E+03  0.22795609379E+04  0.22021468307E+04 0.  0.
        2    1    3    3  502    0 -0.85073703724E+03  0.66792786750E+02 -0.10147789288E+04  0.13258925512E+04  0.25500000920E-02 0. -1.
       -2    1    3    3    0  502  0.85073703724E+03 -0.66792786750E+02  0.42575651371E+03  0.95366838673E+03  0.25500000920E-02 0.  1.
</event>
<event>
 5   0  0.2284329E-05  0.2191911E+04  0.7818609E-02  0.8521802E-01
        2   -1    0    0  501    0  0.00000000000E+00  0.00000000000E+00  0.15026783820E+04  0.15026783820E+04  0.25500000920E-02 0. -1.
       -2   -1    0    0    0  501  0.00000000000E+00  0.00000000000E+00 -0.79931836087E+03  0.79931836087E+03  0.25500000920E-02 0.  1.
    10030    2    1    2    0    0  0.00000000000E+00  0.00000000000E+00  0.70336002116E+03  0.23019967429E+04  0.21919109665E+04 0.  0.
        2    1    3    3  502    0  0.67308248438E+02 -0.68033491059E+03  0.12512825087E+04  0.14258660202E+04  0.25500000920E-02 0. -1.
       -2    1    3    3    0  502 -0.67308248438E+02  0.68033491059E+03 -0.54792248757E+03  0.87613072271E+03  0.25500000920E-02 0.  1.
</event>
<event>
 5   0  0.1005538E-05  0.2176966E+04  0.7818609E-02  0.8528077E-01
        1   -1    0    0  501    0  0.00000000000E+00  0.00000000000E+00  0.13796425083E+04  0.13796425083E+04  0.50400001928E-02 0.  1.
       -1   -1    0    0    0  501  0.00000000000E+00  0.00000000000E+00 -0.85877007804E+03  0.85877007806E+03  0.50400001928E-02 0. -1.
    10030    2    1    2    0    0  0.00000000000E+00  0.00000000000E+00  0.52087243027E+03  0.22384125864E+04  0.21769664256E+04 0.  0.
        3    1    3    3  502    0  0.19984676523E+03  0.72788370350E+03 -0.54594591207E+03  0.93156339801E+03  0.10100000352E+00 0. -1.
       -3    1    3    3    0  502 -0.19984676523E+03 -0.72788370350E+03  0.10668183423E+04  0.13068491884E+04  0.10100000352E+00 0.  1.
</event>
<event>
 5   0  0.1007682E-05  0.2210883E+04  0.7818609E-02  0.8513912E-01
        1   -1    0    0  501    0  0.00000000000E+00  0.00000000000E+00  0.95326791844E+03  0.95326791845E+03  0.50400001928E-02 0. -1.
       -1   -1    0    0    0  501  0.00000000000E+00  0.00000000000E+00 -0.12819069406E+04  0.12819069406E+04  0.50400001928E-02 0.  1.
    10030    2    1    2    0    0  0.00000000000E+00  0.00000000000E+00 -0.32863902219E+03  0.22351748591E+04  0.22108828652E+04 0.  0.
        2    1    3    3  502    0  0.72649591719E+03  0.59861951274E+03 -0.75022065292E+03  0.12037328054E+04  0.25500000920E-02 0.  1.
       -2    1    3    3    0  502 -0.72649591719E+03 -0.59861951274E+03  0.42158163073E+03  0.10314420537E+04  0.25500000920E-02 0. -1.
</event>
<event>
 5   0  0.2229552E-05  0.2202243E+04  0.7818609E-02  0.8517495E-01
       -2   -1    0    0    0  501  0.00000000000E+00  0.00000000000E+00  0.15212716847E+04  0.15212716847E+04  0.25500000920E-02 0.  1.
        2   -1    0    0  501    0  0.00000000000E+00  0.00000000000E+00 -0.79701001882E+03  0.79701001883E+03  0.25500000920E-02 0. -1.
    10030    2    1    2    0    0  0.00000000000E+00  0.00000000000E+00  0.72426166584E+03  0.23182817035E+04  0.22022431964E+04 0.  0.
        1    1    3    3  502    0 -0.18826650904E+03 -0.55859175551E+02  0.15026885513E+04  0.15154660696E+04  0.50400001928E-02 0.  1.
       -1    1    3    3    0  502  0.18826650904E+03  0.55859175551E+02 -0.77842688547E+03  0.80281563386E+03  0.50400001928E-02 0. -1.
</event>
<event>
 5   0  0.1071208E-05  0.2197525E+04  0.7818609E-02  0.8519459E-01
        1   -1    0    0  501    0  0.00000000000E+00  0.00000000000E+00  0.14377410236E+04  0.14377410236E+04  0.50400001928E-02 0. -1.
       -1   -1    0    0    0  501  0.00000000000E+00  0.00000000000E+00 -0.83970580907E+03  0.83970580909E+03  0.50400001928E-02 0.  1.
    10030    2    1    2    0    0  0.00000000000E+00  0.00000000000E+00  0.59803521448E+03  0.22774468327E+04  0.21975254169E+04 0.  0.
        4    1    3    3  502    0 -0.10572847621E+04  0.51359151604E+02  0.60433166213E+03  0.12188958944E+04  0.12699999809E+01 0.  1.
       -4    1    3    3    0  502  0.10572847621E+04 -0.51359151604E+02 -0.62964476573E+01  0.10585509382E+04  0.12699999809E+01 0. -1.
</event>
<event>
 5   0  0.2229552E-05  0.2180549E+04  0.7818609E-02  0.8526568E-01
       -2   -1    0    0    0  501  0.00000000000E+00  0.00000000000E+00  0.13133413274E+04  0.13133413274E+04  0.25500000920E-02 0. -1.
        2   -1    0    0  501    0  0.00000000000E+00  0.00000000000E+00 -0.90509523437E+03  0.90509523438E+03  0.25500000920E-02 0.  1.
    10030    2    1    2    0    0  0.00000000000E+00  0.00000000000E+00  0.40824609299E+03  0.22184365617E+04  0.21805494505E+04 0.  0.
        1    1    3    3  502    0 -0.82879425668E+03  0.73741820930E+02 -0.51264722970E+03  0.97731517854E+03  0.50400001928E-02 0.  1.
       -1    1    3    3    0  502  0.82879425668E+03 -0.73741820930E+02  0.92089332269E+03  0.12411213832E+04  0.50400001928E-02 0. -1.
</event>
<event>
 5   0  0.1049198E-05  0.2215923E+04  0.7818609E-02  0.8511830E-01
       -1   -1    0    0    0  501  0.00000000000E+00  0.00000000000E+00  0.59101329369E+03  0.59101329371E+03  0.50400001928E-02 0.  1.
        1   -1    0    0  501    0  0.00000000000E+00  0.00000000000E+00 -0.20770751157E+04  0.20770751157E+04  0.50400001928E-02 0. -1.
    10030    2    1    2    0    0  0.00000000000E+00  0.00000000000E+00 -0.14860618221E+04  0.26680884095E+04  0.22159232888E+04 0.  0.
        1    1    3    3  502    0  0.81577211420E+02  0.95932977357E+03 -0.14031884741E+04  0.17017362750E+04  0.50400001928E-02 0. -1.
       -1    1    3    3    0  502 -0.81577211420E+02 -0.95932977357E+03 -0.82873347946E+02  0.96635213443E+03  0.50400001928E-02 0.  1.
</event>
<event>
 5   0  0.2298329E-05  0.2070111E+04  0.7818609E-02  0.8574525E-01
       -2   -1    0    0    0  501  0.00000000000E+00  0.00000000000E+00  0.66291729433E+03  0.66291729434E+03  0.25500000920E-02 0. -1.
        2   -1    0    0  501    0  0.00000000000E+00  0.00000000000E+00 -0.16160990375E+04  0.16160990375E+04  0.25500000920E-02 0.  1.
    10030    2    1    2    0    0  0.00000000000E+00  0.00000000000E+00 -0.95318174316E+03  0.22790163318E+04  0.20701111094E+04 0.  0.
        4    1    3    3  502    0 -0.54712802310E+03 -0.65172218143E+03 -0.11253348703E+04  0.14108405504E+04  0.12699999809E+01 0.  1.
       -4    1    3    3    0  502  0.54712802310E+03  0.65172218143E+03  0.17215312712E+03  0.86817578145E+03  0.12699999809E+01 0. -1.
</event>
<event>
 5   0  0.8003875E-06  0.2205193E+04  0.7818609E-02  0.8516270E-01
        3   -1    0    0  501    0  0.00000000000E+00  0.00000000000E+00  0.14207388443E+04  0.14207388478E+04  0.10100000352E+00 0. -1.
       -3   -1    0    0    0  501  0.00000000000E+00  0.00000000000E+00 -0.85569477902E+03  0.85569478498E+03  0.10100000352E+00 0.  1.
    10030    2    1    2    0    0  0.00000000000E+00  0.00000000000E+00  0.56504406523E+03  0.22764336328E+04  0.22051928009E+04 0.  0.
        4    1    3    3  502    0  0.82032505958E+03  0.32754045583E+03  0.96376672740E+03  0.13073116963E+04  0.12699999809E+01 0. -1.
       -4    1    3    3    0  502 -0.82032505958E+03 -0.32754045583E+03 -0.39872266217E+03  0.96912193650E+03  0.12699999809E+01 0.  1.
</event>
<event>
 5   0  0.2319707E-05  0.2198758E+04  0.7818609E-02  0.8518945E-01
        2   -1    0    0  501    0  0.00000000000E+00  0.00000000000E+00  0.91546456951E+03  0.91546456951E+03  0.25500000920E-02 0.  1.
       -2   -1    0    0    0  501  0.00000000000E+00  0.00000000000E+00 -0.13202415974E+04  0.13202415974E+04  0.25500000920E-02 0. -1.
    10030    2    1    2    0    0  0.00000000000E+00  0.00000000000E+00 -0.40477702785E+03  0.22357061669E+04  0.21987582001E+04 0.  0.
        3    1    3    3  502    0 -0.87074053172E+03  0.30791554028E+03 -0.80875960505E+03  0.12276372276E+04  0.10100000352E+00 0. -1.
       -3    1    3    3    0  502  0.87074053172E+03 -0.30791554028E+03  0.40398257719E+03  0.10080689393E+04  0.10100000352E+00 0.  1.
</event>
<event>
 5   0  0.2284329E-05  0.2194136E+04  0.7818609E-02  0.8520873E-01
       -2   -1    0    0    0  501  0.00000000000E+00  0.00000000000E+00  0.11714771474E+04  0.11714771474E+04  0.25500000920E-02 0. -1.
        2   -1    0    0  501    0  0.00000000000E+00  0.00000000000E+00 -0.10273851763E+04  0.10273851763E+04  0.25500000920E-02 0.  1.
    10030    2    1    2    0    0  0.00000000000E+00  0.00000000000E+00  0.14409197108E+03  0.21988623236E+04  0.21941360537E+04 0.  0.
        2    1    3    3  502    0  0.40151405054E+03 -0.52853946934E+03 -0.80332897790E+03  0.10420676323E+04  0.25500000920E-02 0.  1.
       -2    1    3    3    0  502 -0.40151405054E+03  0.52853946934E+03  0.94742094899E+03  0.11567946914E+04  0.25500000920E-02 0. -1.
</event>
<event>
 5   0  0.2229552E-05  0.2206072E+04  0.7818609E-02  0.8515905E-01
       -2   -1    0    0    0  501  0.00000000000E+00  0.00000000000E+00  0.64981824000E+03  0.64981824000E+03  0.25500000920E-02 0. -1.
        2   -1    0    0  501    0  0.00000000000E+00  0.00000000000E+00 -0.18723527345E+04  0.18723527345E+04  0.25500000920E-02 0.  1.
    10030    2    1    2    0    0  0.00000000000E+00  0.00000000000E+00 -0.12225344945E+04  0.25221709745E+04  0.22060724907E+04 0.  0.
        1    1    3    3  502    0  0.31977234905E+03  0.10537058648E+04 -0.53771786088E+03  0.12254349850E+04  0.50400001928E-02 0. -1.
       -1    1    3    3    0  502 -0.31977234905E+03 -0.10537058648E+04 -0.68481663363E+03  0.12967359895E+04  0.50400001928E-02 0.  1.
</event>
<event>
 5   0  0.1007682E-05  0.2186921E+04  0.7818609E-02  0.8523892E-01
       -1   -1    0    0    0  501  0.00000000000E+00  0.00000000000E+00  0.56926340667E+03  0.56926340670E+03  0.50400001928E-02 0.  1.
        1   -1    0    0  501    0  0.00000000000E+00  0.00000000000E+00 -0.21003563249E+04  0.21003563249E+04  0.50400001928E-02 0. -1.
    10030    2    1    2    0    0  0.00000000000E+00  0.00000000000E+00 -0.15310929182E+04  0.26696197316E+04  0.21869211204E+04 0.  0.
        2    1    3    3  502    0 -0.49895685969E+03  0.61999365643E+03 -0.16809289701E+04  0.18598043672E+04  0.25500000920E-02 0. -1.
       -2    1    3    3    0  502  0.49895685969E+03 -0.61999365643E+03  0.14983605191E+03  0.80981536433E+03  0.25500000920E-02 0.  1.
</event>
<event>
 5   0  0.2284329E-05  0.2144233E+04  0.7818609E-02  0.8542005E-01
        2   -1    0    0  501    0  0.00000000000E+00  0.00000000000E+00  0.14500533089E+04  0.14500533089E+04  0.25500000920E-02 0. -1.
       -2   -1    0    0    0  501  0.00000000000E+00  0.00000000000E+00 -0.79268358416E+03  0.79268358416E+03  0.25500000920E-02 0.  1.
    10030    2    1    2    0    0  0.00000000000E+00  0.00000000000E+00  0.65736972470E+03  0.22427368930E+04  0.21442326871E+04 0.  0.
        2    1    3    3  502    0  0.84467458943E+03 -0.64860075987E+03  0.45795611226E+03  0.11592592068E+04  0.25500000920E-02 0. -1.
       -2    1    3    3    0  502 -0.84467458943E+03  0.64860075987E+03  0.19941361243E+03  0.10834776862E+04  0.25500000920E-02 0.  1.
</event>
<event>
 5   0  0.1005538E-05  0.2200064E+04  0.7818609E-02  0.8518402E-01
        1   -1    0    0  501    0  0.00000000000E+00  0.00000000000E+00  0.16366994796E+04  0.16366994797E+04  0.50400001928E-02 0.  1.
       -1   -1    0    0    0  501  0.00000000000E+00  0.00000000000E+00 -0.73933544791E+03  0.73933544793E+03  0.50400001928E-02 0. -1.
    10030    2    1    2    0    0  0.00000000000E+00  0.00000000000E+00  0.89736403173E+03  0.23760349276E+04  0.22000635835E+04 0.  0.
        3    1    3    3  502    0  0.33782553556E+03  0.33599430587E+03 -0.62211156719E+03  0.78360773240E+03  0.10100000352E+00 0. -1.
       -3    1    3    3    0  502 -0.33782553556E+03 -0.33599430587E+03  0.15194755989E+04  0.15924271952E+04  0.10100000352E+00 0.  1.
</event>
<event>
 5   0  0.1071208E-05  0.2207804E+04  0.7818609E-02  0.8515187E-01
       -1   -1    0    0    0  501  0.00000000000E+00  0.00000000000E+00  0.70748100743E+03  0.70748100745E+03  0.50400001928E-02 0. -1.
        1   -1    0    0  501    0  0.00000000000E+00  0.00000000000E+00 -0.17224484178E+04  0.17224484178E+04  0.50400001928E-02 0.  1.
    10030    2    1    2    0    0  0.00000000000E+00  0.00000000000E+00 -0.10149674104E+04  0.24299294253E+04  0.22078039242E+04 0.  0.
        4    1    3    3  502    0 -0.78148708349E+03  0.34214718738E+03 -0.12785476183E+04  0.15370336316E+04  0.12699999809E+01 0.  1.
       -4    1    3    3    0  502  0.78148708349E+03 -0.34214718738E+03  0.26358020789E+03  0.89289579369E+03  0.12699999809E+01 0. -1.
</event>
<event>
 5   0  0.1007682E-05  0.2201588E+04  0.7818609E-02  0.8517767E-01
        1   -1    0    0  501    0  0.00000000000E+00  0.00000000000E+00  0.15107171347E+04  0.15107171347E+04  0.50400001928E-02 0.  1.
       -1   -1    0    0    0  501  0.00000000000E+00  0.00000000000E+00 -0.80210100971E+03  0.80210100973E+03  0.50400001928E-02 0. -1.
    10030    2    1    2    0    0  0.00000000000E+00  0.00000000000E+00  0.70861612499E+03  0.23128181444E+04  0.22015882805E+04 0.  0.
        2    1    3    3  502    0  0.35147787993E+03  0.94624194176E+03 -0.10701038268E+03  0.10150673546E+04  0.25500000920E-02 0.  1.
       -2    1    3    3    0  502 -0.35147787993E+03 -0.94624194176E+03  0.81562650767E+03  0.12977507898E+04  0.25500000920E-02 0. -1.
</event>
<event>
 5   0  0.1033733E-05  0.2192887E+04  0.7818609E-02  0.8521395E-01
       -1   -1    0    0    0  501  0.00000000000E+00  0.00000000000E+00  0.83949937916E+03  0.83949937917E+03  0.50400001928E-02 0.  1.
        1   -1    0    0  501    0  0.00000000000E+00  0.00000000000E+00 -0.14320296790E+04  0.14320296790E+04  0.50400001928E-02 0. -1.
    10030    2    1    2    0    0  0.00000000000E+00  0.00000000000E+00 -0.59253029979E+03  0.22715290581E+04  0.21928867061E+04 0.  0.
        5    1    3    3  502    0  0.22175447286E+03  0.10732981101E+04 -0.26314901316E+03  0.11271261564E+04  0.46999998093E+01 0.  1.
       -5    1    3    3    0  502 -0.22175447286E+03 -0.10732981101E+04 -0.32938128664E+03  0.11444029017E+04  0.46999998093E+01 0. -1.
</event>
<event>
 5   0  0.2229552E-05  0.2189899E+04  0.7818609E-02  0.8522644E-01
       -2   -1    0    0    0  501  0.00000000000E+00  0.00000000000E+00  0.10091182538E+04  0.10091182538E+04  0.25500000920E-02 0. -1.
        2   -1    0    0  501    0  0.00000000000E+00  0.00000000000E+00 -0.11880808787E+04  0.11880808787E+04  0.25500000920E-02 0.  1.
    10030    2    1    2    0    0  0.00000000000E+00  0.00000000000E+00 -0.17896262489E+03  0.21971991325E+04  0.21898987206E+04 0.  0.
        1    1    3    3  502    0 -0.25275840680E+03  0.10645445651E+04 -0.47243962675E+02  0.10951593196E+04  0.50400001928E-02 0. -1.
       -1    1    3    3    0  502  0.25275840680E+03 -0.10645445651E+04 -0.13171866222E+03  0.11020398129E+04  0.50400001928E-02 0.  1.
</event>
<event>
 5   0  0.2298329E-05  0.2203148E+04  0.7818609E-02  0.8517119E-01
        2   -1    0    0  501    0  0.00000000000E+00  0.00000000000E+00  0.73711019598E+03  0.73711019599E+03  0.25500000920E-02 0.  1.
       -2   -1    0    0    0  501  0.00000000000E+00  0.00000000000E+00 -0.16462471246E+04  0.16462471246E+04  0.25500000920E-02 0. -1.
    10030    2    1    2    0    0  0.00000000000E+00  0.00000000000E+00 -0.90913692861E+03  0.23833573206E+04  0.22031482389E+04 0.  0.
        4    1    3    3  502    0 -0.95362966808E+03 -0.52063108120E+03 -0.25805739537E+03  0.11167190778E+04  0.12699999809E+01 0.  1.
       -4    1    3    3    0  502  0.95362966808E+03  0.52063108120E+03 -0.65107953324E+03  0.12666382428E+04  0.12699999809E+01 0. -1.
</event>
<event>
 5   0  0.2319707E-05  0.2196249E+04  0.7818609E-02  0.8519991E-01
       -2   -1    0    0    0  501  0.00000000000E+00  0.00000000000E+00  0.73023740285E+03  0.73023740286E+03  0.25500000920E-02 0.  1.
        2   -1    0    0  501    0  0.00000000000E+00  0.00000000000E+00 -0.16513493113E+04  0.16513493113E+04  0.25500000920E-02 0. -1.
    10030    2    1    2    0    0  0.00000000000E+00  0.00000000000E+00 -0.92111190841E+03  0.23815867141E+04  0.21962486492E+04 0.  0.
        3    1    3    3  502    0  0.15582096476E+03  0.93116888220E+03 -0.10687049098E+04  0.14260034553E+04  0.10100000352E+00 0. -1.
       -3    1    3    3    0  502 -0.15582096476E+03 -0.93116888220E+03  0.14759300136E+03  0.95558325879E+03  0.10100000352E+00 0.  1.
</event>
<event>
 5   0  0.1007682E-05  0.2219176E+04  0.7818609E-02  0.8510489E-01
       -1   -1    0    0    0  501  0.00000000000E+00  0.00000000000E+00  0.88469378192E+03  0.88469378193E+03  0.50400001928E-02 0.  1.
        1   -1    0    0  501    0  0.00000000000E+00  0.00000000000E+00 -0.13916512438E+04  0.13916512439E+04  0.50400001928E-02 0. -1.
    10030    2    1    2    0    0  0.00000000000E+00  0.00000000000E+00 -0.50695746193E+03  0.22763450258E+04  0.22191757047E+04 0.  0.
        2    1    3    3  502    0  0.11621752076E+02  0.90618743675E+03 -0.91018601252E+03  0.12844256744E+04  0.25500000920E-02 0. -1.
       -2    1    3    3    0  502 -0.11621752076E+02 -0.90618743675E+03  0.40322855059E+03  0.99191935139E+03  0.25500000920E-02 0.  1.
</event>
<event>
 5   0  0.1007682E-05  0.2201418E+04  0.7818609E-02  0.8517838E-01
       -1   -1    0    0    0  501  0.00000000000E+00  0.00000000000E+00  0.74238910789E+03  0.74238910790E+03  0.50400001928E-02 0. -1.
        1   -1    0    0  501    0  0.00000000000E+00  0.00000000000E+00 -0.16319744454E+04  0.16319744454E+04  0.50400001928E-02 0.  1.
    10030    2    1    2    0    0  0.00000000000E+00  0.00000000000E+00 -0.88958533754E+03  0.23743635533E+04  0.22014177729E+04 0.  0.
        2    1    3    3  502    0  0.81047407710E+03  0.63073165741E+03 -0.17609762908E+02  0.10271322977E+04  0.25500000920E-02 0. -1.
       -2    1    3    3    0  502 -0.81047407710E+03 -0.63073165741E+03 -0.87197557464E+03  0.13472312556E+04  0.25500000920E-02 0.  1.
</event>
<event>
 5   0  0.8003875E-06  0.2276906E+04  0.7818609E-02  0.8487083E-01
        3   -1    0    0  501    0  0.00000000000E+00  0.00000000000E+00  0.12004839001E+04  0.12004839043E+04  0.10100000352E+00 0.  1.
       -3   -1    0    0    0  501  0.00000000000E+00  0.00000000000E+00 -0.10796272510E+04  0.10796272557E+04  0.10100000352E+00 0. -1.
    10030    2    1    2    0    0  0.00000000000E+00  0.00000000000E+00  0.12085664907E+03  0.22801111601E+04  0.22769059209E+04 0.  0.
        5    1    3    3  502    0  0.78162002855E+03  0.22462774137E+03  0.85820879475E+03  0.11823417089E+04  0.46999998093E+01 0.  1.
       -5    1    3    3    0  502 -0.78162002855E+03 -0.22462774137E+03 -0.73735214568E+03  0.10977694512E+04  0.46999998093E+01 0. -1.
</event>
<event>
 5   0  0.8003875E-06  0.2200819E+04  0.7818609E-02  0.8518087E-01
       -3   -1    0    0    0  501  0.00000000000E+00  0.00000000000E+00  0.13094702564E+04  0.13094702603E+04  0.10100000352E+00 0. -1.
        3   -1    0    0  501    0  0.00000000000E+00  0.00000000000E+00 -0.92472553327E+03  0.92472553878E+03  0.10100000352E+00 0.  1.
    10030    2    1    2    0    0  0.00000000000E+00  0.00000000000E+00  0.38474472315E+03  0.22341957991E+04  0.22008185674E+04 0.  0.
        1    1    3    3  502    0 -0.82331997484E+03  0.70789386252E+03  0.37377510970E+03  0.11483367686E+04  0.50400001928E-02 0. -1.
       -1    1    3    3    0  502  0.82331997484E+03 -0.70789386252E+03  0.10969613443E+02  0.10858590304E+04  0.50400001928E-02 0.  1.
</event>
<event>
 5   0  0.1071208E-05  0.2199051E+04  0.7818609E-02  0.8518823E-01
        1   -1    0    0  501    0  0.00000000000E+00  0.00000000000E+00  0.13368642239E+04  0.13368642239E+04  0.50400001928E-02 0.  1.
       -1   -1    0    0    0  501  0.00000000000E+00  0.00000000000E+00 -0.90432284245E+03  0.90432284247E+03  0.50400001928E-02 0. -1.
    10030    2    1    2    0    0  0.00000000000E+00  0.00000000000E+00  0.43254138145E+03  0.22411870664E+04  0.21990514819E+04 0.  0.
        4    1    3    3  502    0 -0.33091498243E+03  0.70008717853E+03 -0.57928107147E+03  0.96705478428E+03  0.12699999809E+01 0. -1.
       -4    1    3    3    0  502  0.33091498243E+03 -0.70008717853E+03  0.10118224529E+04  0.12741322821E+04  0.12699999809E+01 0.  1.
</event>
<event>
 5   0  0.1049198E-05  0.2195572E+04  0.7818609E-02  0.8520273E-01
        1   -1    0    0  501    0  0.00000000000E+00  0.00000000000E+00  0.15418269761E+04  0.15418269761E+04  0.50400001928E-02 0. -1.
       -1   -1    0    0    0  501  0.00000000000E+00  0.00000000000E+00 -0.78162752573E+03  0.78162752574E+03  0.50400001928E-02 0.  1.
    10030    2    1    2    0    0  0.00000000000E+00  0.00000000000E+00  0.76019945037E+03  0.23234545019E+04  0.21955722757E+04 0.  0.
        1    1    3    3  502    0 -0.96302869512E+03  0.52636749000E+03  0.40702583074E+03  0.11705370686E+04  0.50400001928E-02 0. -1.
       -1    1    3    3    0  502  0.96302869512E+03 -0.52636749000E+03  0.35317361963E+03  0.11529174332E+04  0.50400001928E-02 0.  1.
</event>
<event>
 5   0  0.2298329E-05  0.2159444E+04  0.7818609E-02  0.8535501E-01
        2   -1    0    0  501    0  0.00000000000E+00  0.00000000000E+00  0.11742843783E+04  0.11742843784E+04  0.25500000920E-02 0. -1.
       -2   -1    0    0    0  501  0.00000000000E+00  0.00000000000E+00 -0.99277409536E+03  0.99277409537E+03  0.25500000920E-02 0.  1.
    10030    2    1    2    0    0  0.00000000000E+00  0.00000000000E+00  0.18151028298E+03  0.21670584737E+04  0.21594435500E+04 0.  0.
        4    1    3    3  502    0 -0.94620972633E+03  0.17209871631E+03  0.58326750999E+03  0.11247814968E+04  0.12699999809E+01 0.  1.
       -4    1    3    3    0  502  0.94620972633E+03 -0.17209871631E+03 -0.40175722700E+03  0.10422769770E+04  0.12699999809E+01 0. -1.
</event>
<event>
 5   0  0.2289708E-05  0.2199845E+04  0.7818609E-02  0.8518492E-01
       -2   -1    0    0    0  501  0.00000000000E+00  0.00000000000E+00  0.10304668469E+04  0.10304668469E+04  0.25500000920E-02 0.  1.
        2   -1    0    0  501    0  0.00000000000E+00  0.00000000000E+00 -0.11740600008E+04  0.11740600008E+04  0.25500000920E-02 0. -1.
    10030    2    1    2    0    0  0.00000000000E+00  0.00000000000E+00 -0.14359315388E+03  0.22045268477E+04  0.21998453647E+04 0.  0.
        5    1    3    3  502    0  0.38270461374E+03  0.90617822751E+03 -0.56496784833E+03  0.11343864249E+04  0.46999998093E+01 0. -1.
       -5    1    3    3    0  502 -0.38270461374E+03 -0.90617822751E+03  0.42137469445E+03  0.10701404228E+04  0.46999998093E+01 0.  1.
</event>
<event>
 5   0  0.1033733E-05  0.2199543E+04  0.7818609E-02  0.8518618E-01
       -1   -1    0    0    0  501  0.00000000000E+00  0.00000000000E+00  0.42136011939E+03  0.42136011942E+03  0.50400001928E-02 0. -1.
        1   -1    0    0  501    0  0.00000000000E+00  0.00000000000E+00 -0.28704594981E+04  0.28704594981E+04  0.50400001928E-02 0.  1.
    10030    2    1    2    0    0  0.00000000000E+00  0.00000000000E+00 -0.24490993787E+04  0.32918196175E+04  0.21995428224E+04 0.  0.
        5    1    3    3  502    0  0.73464635795E+02  0.34804701389E+03  0.33287144524E+03  0.48719530544E+03  0.46999998093E+01 0. -1.
       -5    1    3    3    0  502 -0.73464635795E+02 -0.34804701389E+03 -0.27819708240E+04  0.28046243121E+04  0.46999998093E+01 0.  1.
</event>
<event>
 5   0  0.2229552E-05  0.2203936E+04  0.7818609E-02  0.8516792E-01
       -2   -1    0    0    0  501  0.00000000000E+00  0.00000000000E+00  0.13394424660E+04  0.13394424660E+04  0.25500000920E-02 0. -1.
        2   -1    0    0  501    0  0.00000000000E+00  0.00000000000E+00 -0.90659582598E+03  0.90659582598E+03  0.25500000920E-02 0.  1.
    10030    2    1    2    0    0  0.00000000000E+00  0.00000000000E+00  0.43284664005E+03  0.22460382920E+04  0.22039355243E+04 0.  0.
        1    1    3    3  502    0 -0.10120824536E+04  0.28909085436E+03 -0.11607397239E+03  0.10589417274E+04  0.50400001928E-02 0.  1.
       -1    1    3    3    0  502  0.10120824536E+04 -0.28909085436E+03  0.54892061244E+03  0.11870965646E+04  0.50400001928E-02 0. -1.
</event>
<event>
 5   0  0.2284329E-05  0.2200897E+04  0.7818609E-02  0.8518055E-01
        2   -1    0    0  501    0  0.00000000000E+00  0.00000000000E+00  0.16430925941E+04  0.16430925941E+04  0.25500000920E-02 0.  1.
       -2   -1    0    0    0  501  0.00000000000E+00  0.00000000000E+00 -0.73701675846E+03  0.73701675846E+03  0.25500000920E-02 0. -1.
    10030    2    1    2    0    0  0.00000000000E+00  0.00000000000E+00  0.90607583561E+03  0.23801093525E+04  0.22008968877E+04 0.  0.
        2    1    3    3  502    0 -0.62424423901E+03  0.36779622270E+03  0.13487518983E+04  0.15310410232E+04  0.25500000920E-02 0.  1.
       -2    1    3    3    0  502  0.62424423901E+03 -0.36779622270E+03 -0.44267606274E+03  0.84906832935E+03  0.25500000920E-02 0. -1.
</event>
<event>
 5   0  0.2284329E-05  0.2192431E+04  0.7818609E-02  0.8521585E-01
        2   -1    0    0  501    0  0.00000000000E+00  0.00000000000E+00  0.14074326032E+04  0.14074326032E+04  0.25500000920E-02 0. -1.
       -2   -1    0    0    0  501  0.00000000000E+00  0.00000000000E+00 -0.85381610850E+03  0.85381610850E+03  0.25500000920E-02 0.  1.
    10030    2    1    2    0    0  0.00000000000E+00  0.00000000000E+00  0.55361649475E+03  0.22612487117E+04  0.21924311878E+04 0.  0.
        2    1    3    3  502    0 -0.21098387266E+03 -0.33142237474E+02  0.13857674229E+04  0.14021283653E+04  0.25500000920E-02 0. -1.
       -2    1    3    3    0  502  0.21098387266E+03  0.33142237474E+02 -0.83215092815E+03  0.85912034644E+03  0.25500000920E-02 0.  1.
</event>
<event>
 5   0  0.1071208E-05  0.2200320E+04  0.7818609E-02  0.8518295E-01
       -1   -1    0    0    0  501  0.00000000000E+00  0.00000000000E+00  0.13155039342E+04  0.13155039342E+04  0.50400001928E-02 0.  1.
        1   -1    0    0  501    0  0.00000000000E+00  0.00000000000E+00 -0.92006738442E+03  0.92006738444E+03  0.50400001928E-02 0. -1.
    10030    2    1    2    0    0  0.00000000000E+00  0.00000000000E+00  0.39543654982E+03  0.22355713187E+04  0.22003202167E+04 0.  0.
        4    1    3    3  502    0 -0.49187574445E+02 -0.78361020690E+03  0.98070479487E+03  0.12562833603E+04  0.12699999809E+01 0.  1.
       -4    1    3    3    0  502  0.49187574445E+02  0.78361020690E+03 -0.58526824505E+03  0.97928795837E+03  0.12699999809E+01 0. -1.
</event>
<event>
 5   0  0.1049198E-05  0.2206639E+04  0.7818609E-02  0.8515670E-01
        1   -1    0    0  501    0  0.00000000000E+00  0.00000000000E+00  0.16909238925E+04  0.16909238925E+04  0.50400001928E-02 0.  1.
       -1   -1    0    0    0  501  0.00000000000E+00  0.00000000000E+00 -0.71991081701E+03  0.71991081703E+03  0.50400001928E-02 0. -1.
    10030    2    1    2    0    0  0.00000000000E+00  0.00000000000E+00  0.97101307548E+03  0.24108347095E+04  0.22066394368E+04 0.  0.
        1    1    3    3  502    0  0.15733114288E+03  0.55066526552E+03 -0.54480201773E+03  0.79043947379E+03  0.50400001928E-02 0. -1.
       -1    1    3    3    0  502 -0.15733114288E+03 -0.55066526552E+03  0.15158150932E+04  0.16203952357E+04  0.50400001928E-02 0.  1.
</event>
<event>
 5   0  0.2289708E-05  0.2206033E+04  0.7818609E-02  0.8515921E-01
        2   -1    0    0  501    0  0.00000000000E+00  0.00000000000E+00  0.24822632502E+04  0.24822632502E+04  0.25500000920E-02 0.  1.
       -2   -1    0    0    0  501  0.00000000000E+00  0.00000000000E+00 -0.49013545270E+03  0.49013545271E+03  0.25500000920E-02 0. -1.
    10030    2    1    2    0    0  0.00000000000E+00  0.00000000000E+00  0.19921277975E+04  0.29723987029E+04  0.22060328392E+04 0.  0.
        5    1    3    3  502    0 -0.65768748107E+03  0.11203920720E+03 -0.18743535336E+03  0.69300772607E+03  0.46999998093E+01 0. -1.
       -5    1    3    3    0  502  0.65768748107E+03 -0.11203920720E+03  0.21795631509E+04  0.22793909769E+04  0.46999998093E+01 0.  1.
</event>
<event>
 5   0  0.1033733E-05  0.2202096E+04  0.7818609E-02  0.8517556E-01
        1   -1    0    0  501    0  0.00000000000E+00  0.00000000000E+00  0.14202463152E+04  0.14202463152E+04  0.50400001928E-02 0.  1.
       -1   -1    0    0    0  501  0.00000000000E+00  0.00000000000E+00 -0.85358931539E+03  0.85358931541E+03  0.50400001928E-02 0. -1.
    10030    2    1    2    0    0  0.00000000000E+00  0.00000000000E+00  0.56665699980E+03  0.22738356306E+04  0.22020963466E+04 0.  0.
        5    1    3    3  502    0  0.10527329284E+04 -0.28081239244E+03  0.11946790995E+03  0.10960825196E+04  0.46999998093E+01 0. -1.
       -5    1    3    3    0  502 -0.10527329284E+04  0.28081239244E+03  0.44718908985E+03  0.11777531110E+04  0.46999998093E+01 0.  1.
</event>
<event>
 5   0  0.2284329E-05  0.2202297E+04  0.7818609E-02  0.8517473E-01
       -2   -1    0    0    0  501  0.00000000000E+00  0.00000000000E+00  0.14078370210E+04  0.14078370210E+04  0.25500000920E-02 0. -1.
        2   -1    0    0  501    0  0.00000000000E+00  0.00000000000E+00 -0.86126988939E+03  0.86126988940E+03  0.25500000920E-02 0.  1.
    10030    2    1    2    0    0  0.00000000000E+00  0.00000000000E+00  0.54656713156E+03  0.22691069104E+04  0.22022966515E+04 0.  0.
        2    1    3    3  502    0 -0.72264797632E+03 -0.83083949112E+03  0.27703795567E+03  0.11354577872E+04  0.25500000920E-02 0.  1.
       -2    1    3    3    0  502  0.72264797632E+03  0.83083949112E+03  0.26952917590E+03  0.11336491231E+04  0.25500000920E-02 0. -1.
</event>
<event>
 5   0  0.2298329E-05  0.2185953E+04  0.7818609E-02  0.8524298E-01
        2   -1    0    0  501    0  0.00000000000E+00  0.00000000000E+00  0.11643169522E+04  0.11643169522E+04  0.25500000920E-02 0.  1.
       -2   -1    0    0    0  501  0.00000000000E+00  0.00000000000E+00 -0.10260074393E+04  0.10260074393E+04  0.25500000920E-02 0. -1.
    10030    2    1    2    0    0  0.00000000000E+00  0.00000000000E+00  0.13830951291E+03  0.21903243916E+04  0.21859532060E+04 0.  0.
        4    1    3    3  502    0 -0.53903658697E+03 -0.94477592214E+03 -0.37990154402E+02  0.10883964580E+04  0.12699999809E+01 0.  1.
       -4    1    3    3    0  502  0.53903658697E+03  0.94477592214E+03  0.17629966731E+03  0.11019279335E+04  0.12699999809E+01 0. -1.
</event>
<event>
 5   0  0.1071208E-05  0.2072516E+04  0.7818609E-02  0.8573448E-01
       -1   -1    0    0    0  501  0.00000000000E+00  0.00000000000E+00  0.11285825519E+04  0.11285825519E+04  0.50400001928E-02 0. -1.
        1   -1    0    0  501    0  0.00000000000E+00  0.00000000000E+00 -0.95148594076E+03  0.95148594077E+03  0.50400001928E-02 0.  1.
    10030    2    1    2    0    0  0.00000000000E+00  0.00000000000E+00  0.17709661115E+03  0.20800684927E+04  0.20725157960E+04 0.  0.
        4    1    3    3  502    0  0.34238218645E+03 -0.22072108281E+03 -0.86775425116E+03  0.95861483991E+03  0.12699999809E+01 0.  1.
       -4    1    3    3    0  502 -0.34238218645E+03  0.22072108281E+03  0.10448508623E+04  0.11214536528E+04  0.12699999809E+01 0. -1.
</event>
<event>
 5   0  0.2289708E-05  0.2200508E+04  0.7818609E-02  0.8518217E-01
       -2   -1    0    0    0  501  0.00000000000E+00  0.00000000000E+00  0.72269757794E+03  0.72269757794E+03  0.25500000920E-02 0. -1.
        2   -1    0    0  501    0  0.00000000000E+00  0.00000000000E+00 -0.16750556553E+04  0.16750556553E+04  0.25500000920E-02 0.  1.
    10030    2    1    2    0    0  0.00000000000E+00  0.00000000000E+00 -0.95235807732E+03  0.23977532332E+04  0.22005078186E+04 0.  0.
        5    1    3    3  502    0  0.81217041848E+03  0.71014528735E+03 -0.24093501892E+03  0.11054405869E+04  0.46999998093E+01 0. -1.
       -5    1    3    3    0  502 -0.81217041848E+03 -0.71014528735E+03 -0.71142305840E+03  0.12923126463E+04  0.46999998093E+01 0.  1.
</event>
<event>
 5   0  0.2319707E-05  0.2200710E+04  0.7818609E-02  0.8518133E-01
       -2   -1    0    0    0  501  0.00000000000E+00  0.00000000000E+00  0.84126464889E+03  0.84126464889E+03  0.25500000920E-02 0. -1.
        2   -1    0    0  501    0  0.00000000000E+00  0.00000000000E+00 -0.14392388058E+04  0.14392388058E+04  0.25500000920E-02 0.  1.
    10030    2    1    2    0    0  0.00000000000E+00  0.00000000000E+00 -0.59797415694E+03  0.22805034547E+04  0.22007096389E+04 0.  0.
        3    1    3    3  502    0 -0.12387361596E+03 -0.19503681120E+03  0.81584410097E+03  0.84793020806E+03  0.10100000352E+00 0. -1.
       -3    1    3    3    0  502  0.12387361596E+03  0.19503681120E+03 -0.14138182579E+04  0.14325732467E+04  0.10100000352E+00 0.  1.
</event>
<event>
 5   0  0.2298329E-05  0.2202094E+04  0.7818609E-02  0.8517557E-01
       -2   -1    0    0    0  501  0.00000000000E+00  0.00000000000E+00  0.12258060411E+04  0.12258060411E+04  0.25500000920E-02 0. -1.
        2   -1    0    0  501    0  0.00000000000E+00  0.00000000000E+00 -0.98898592913E+03  0.98898592914E+03  0.25500000920E-02 0.  1.
    10030    2    1    2    0    0  0.00000000000E+00  0.00000000000E+00  0.23682011200E+03  0.22147919703E+04  0.22020943908E+04 0.  0.
        4    1    3    3  502    0 -0.45063870738E+03 -0.10042992961E+04  0.93549256259E+02  0.11047377051E+04  0.12699999809E+01 0.  1.
       -4    1    3    3    0  502  0.45063870738E+03  0.10042992961E+04  0.14327085575E+03  0.11100542652E+04  0.12699999809E+01 0. -1.
</event>
<event>
 5   0  0.1007682E-05  0.2190215E+04  0.7818609E-02  0.8522512E-01
       -1   -1    0    0    0  501  0.00000000000E+00  0.00000000000E+00  0.79917972869E+03  0.79917972871E+03  0.50400001928E-02 0. -1.
        1   -1    0    0  501    0  0.00000000000E+00  0.00000000000E+00 -0.15006143127E+04  0.15006143127E+04  0.50400001928E-02 0.  1.
    10030    2    1    2    0    0  0.00000000000E+00  0.00000000000E+00 -0.70143458400E+03  0.22997940414E+04  0.21902150938E+04 0.  0.
        2    1    3    3  502    0 -0.10424934412E+04  0.26703497462E+03 -0.13768699531E+03  0.10849230209E+04  0.25500000920E-02 0. -1.
       -2    1    3    3    0  502  0.10424934412E+04 -0.26703497462E+03 -0.56374758870E+03  0.12148710205E+04  0.25500000920E-02 0.  1.
</event>
<event>
 5   0  0.2289708E-05  0.2185869E+04  0.7818609E-02  0.8524333E-01
        2   -1    0    0  501    0  0.00000000000E+00  0.00000000000E+00  0.24376431537E+04  0.24376431537E+04  0.25500000920E-02 0.  1.
       -2   -1    0    0    0  501  0.00000000000E+00  0.00000000000E+00 -0.49002483935E+03  0.49002483935E+03  0.25500000920E-02 0. -1.
    10030    2    1    2    0    0  0.00000000000E+00  0.00000000000E+00  0.19476183143E+04  0.29276679930E+04  0.21858688843E+04 0.  0.
        5    1    3    3  502    0  0.53325898219E+03 -0.26365615231E+02 -0.30345510077E+03  0.61413954109E+03  0.46999998093E+01 0. -1.
       -5    1    3    3    0  502 -0.53325898219E+03  0.26365615231E+02  0.22510734151E+04  0.23135284520E+04  0.46999998093E+01 0.  1.
</event>
<event>
 5   0  0.1033733E-05  0.2205442E+04  0.7818609E-02  0.8516167E-01
       -1   -1    0    0    0  501  0.00000000000E+00  0.00000000000E+00  0.96166560654E+03  0.96166560656E+03  0.50400001928E-02 0.  1.
        1   -1    0    0  501    0  0.00000000000E+00  0.00000000000E+00 -0.12644657844E+04  0.12644657844E+04  0.50400001928E-02 0. -1.
    10030    2    1    2    0    0  0.00000000000E+00  0.00000000000E+00 -0.30280017785E+03  0.22261313910E+04  0.22054416841E+04 0.  0.
        5    1    3    3  502    0  0.22908397063E+03 -0.26520191870E+03  0.90395111501E+03  0.96951597800E+03  0.46999998093E+01 0.  1.
       -5    1    3    3    0  502 -0.22908397063E+03  0.26520191870E+03 -0.12067512929E+04  0.12566154130E+04  0.46999998093E+01 0. -1.
</event>
<event>
 5   0  0.2298329E-05  0.2207408E+04  0.7818609E-02  0.8515351E-01
       -2   -1    0    0    0  501  0.00000000000E+00  0.00000000000E+00  0.15743873286E+04  0.15743873286E+04  0.25500000920E-02 0.  1.
        2   -1    0    0  501    0  0.00000000000E+00  0.00000000000E+00 -0.77373721217E+03  0.77373721217E+03  0.25500000920E-02 0. -1.
    10030    2    1    2    0    0  0.00000000000E+00  0.00000000000E+00  0.80065011644E+03  0.23481245408E+04  0.22074075858E+04 0.  0.
        4    1    3    3  502    0 -0.22025671146E+03  0.34822360573E+03 -0.68885471066E+03  0.80267996352E+03  0.12699999809E+01 0. -1.
       -4    1    3    3    0  502  0.22025671146E+03 -0.34822360573E+03  0.14895048271E+04  0.15454445773E+04  0.12699999809E+01 0.  1.
</event>
<event>
 5   0  0.1049198E-05  0.2196118E+04  0.7818609E-02  0.8520045E-01
       -1   -1    0    0    0  501  0.00000000000E+00  0.00000000000E+00  0.63634450081E+03  0.63634450083E+03  0.50400001928E-02 0. -1.
        1   -1    0    0  501    0  0.00000000000E+00  0.00000000000E+00 -0.18947816695E+04  0.18947816695E+04  0.50400001928E-02 0.  1.
    10030    2    1    2    0    0  0.00000000000E+00  0.00000000000E+00 -0.12584371686E+04  0.25311261703E+04  0.21961182989E+04 0.  0.
        1    1    3    3  502    0  0.75608230378E+03  0.59946829535E+03 -0.12333010823E+04  0.15659036519E+04  0.50400001928E-02 0.  1.
       -1    1    3    3    0  502 -0.75608230378E+03 -0.59946829535E+03 -0.25136086307E+02  0.96522251843E+03  0.50400001928E-02 0. -1.
</event>
<event>
 5   0  0.2289708E-05  0.2206522E+04  0.7818609E-02  0.8515718E-01
        2   -1    0    0  501    0  0.00000000000E+00  0.00000000000E+00  0.97860431051E+03  0.97860431052E+03  0.25500000920E-02 0.  1.
       -2   -1    0    0    0  501  0.00000000000E+00  0.00000000000E+00 -0.12437965131E+04  0.12437965131E+04  0.25500000920E-02 0. -1.
    10030    2    1    2    0    0  0.00000000000E+00  0.00000000000E+00 -0.26519220257E+03  0.22224008236E+04  0.22065218142E+04 0.  0.
        5    1    3    3  502    0 -0.53623149161E+03  0.94550214941E+03 -0.32275097217E+03  0.11338910032E+04  0.46999998093E+01 0. -1.
       -5    1    3    3    0  502  0.53623149161E+03 -0.94550214941E+03  0.57558769591E+02  0.10885098204E+04  0.46999998093E+01 0.  1.
</event>
<event>
 5   0  0.1033733E-05  0.2144938E+04  0.7818609E-02  0.8541702E-01
        1   -1    0    0  501    0  0.00000000000E+00  0.00000000000E+00  0.17037204928E+04  0.17037204928E+04  0.50400001928E-02 0. -1.
       -1   -1    0    0    0  501  0.00000000000E+00  0.00000000000E+00 -0.67510444513E+03  0.67510444515E+03  0.50400001928E-02 0.  1.
    10030    2    1    2    0    0  0.00000000000E+00  0.00000000000E+00  0.10286160477E+04  0.23788249380E+04  0.21449375543E+04 0.  0.
        5    1    3    3  502    0  0.83235556058E+03  0.90834036856E+02 -0.22891583139E+03  0.86803867963E+03  0.46999998093E+01 0.  1.
       -5    1    3    3    0  502 -0.83235556058E+03 -0.90834036856E+02  0.12575318791E+04  0.15107862583E+04  0.46999998093E+01 0. -1.
</event>
<event>
 5   0  0.1033733E-05  0.2201553E+04  0.7818609E-02  0.8517782E-01
        1   -1    0    0  501    0  0.00000000000E+00  0.00000000000E+00  0.26330377755E+04  0.26330377755E+04  0.50400001928E-02 0. -1.
       -1   -1    0    0    0  501  0.00000000000E+00  0.00000000000E+00 -0.46019407017E+03  0.46019407020E+03  0.50400001928E-02 0.  1.
    10030    2    1    2    0    0  0.00000000000E+00  0.00000000000E+00  0.21728437053E+04  0.30932318457E+04  0.22015525166E+04 0.  0.
        5    1    3    3  502    0  0.40992916381E+03 -0.24992155999E+03 -0.30531958410E+03  0.56898580291E+03  0.46999998093E+01 0.  1.
       -5    1    3    3    0  502 -0.40992916381E+03  0.24992155999E+03  0.24781632894E+04  0.25242460427E+04  0.46999998093E+01 0. -1.
</event>
<event>
 5   0  0.2289708E-05  0.2208283E+04  0.7818609E-02  0.8514988E-01
       -2   -1    0    0    0  501  0.00000000000E+00  0.00000000000E+00  0.61727986120E+03  0.61727986120E+03  0.25500000920E-02 0.  1.
        2   -1    0    0  501    0  0.00000000000E+00  0.00000000000E+00 -0.19750017464E+04  0.19750017464E+04  0.25500000920E-02 0. -1.
    10030    2    1    2    0    0  0.00000000000E+00  0.00000000000E+00 -0.13577218852E+04  0.25922816076E+04  0.22082833187E+04 0.  0.
        5    1    3    3  502    0 -0.88243296643E+03 -0.66354240975E+03 -0.69225790861E+03  0.13031575391E+04  0.46999998093E+01 0.  1.
       -5    1    3    3    0  502  0.88243296643E+03  0.66354240975E+03 -0.66546397661E+03  0.12891240685E+04  0.46999998093E+01 0. -1.
</event>
<event>
 5   0  0.1071208E-05  0.2193269E+04  0.7818609E-02  0.8521235E-01
        1   -1    0    0  501    0  0.00000000000E+00  0.00000000000E+00  0.62912019150E+03  0.62912019152E+03  0.50400001928E-02 0.  1.
       -1   -1    0    0    0  501  0.00000000000E+00  0.00000000000E+00 -0.19115690930E+04  0.19115690930E+04  0.50400001928E-02 0. -1.
    10030    2    1    2    0    0  0.00000000000E+00  0.00000000000E+00 -0.12824489015E+04  0.25406892845E+04  0.21932685325E+04 0.  0.
        4    1    3    3  502    0  0.76092529375E+03 -0.28590258545E+03 -0.14939362974E+04  0.17007630243E+04  0.12699999809E+01 0. -1.
       -4    1    3    3    0  502 -0.76092529375E+03  0.28590258545E+03  0.21148739597E+03  0.83992626021E+03  0.12699999809E+01 0.  1.
</event>
<event>
 5   0  0.1071208E-05  0.2196367E+04  0.7818609E-02  0.8519942E-01
       -1   -1    0    0    0  501  0.00000000000E+00  0.00000000000E+00  0.72886968586E+03  0.72886968588E+03  0.50400001928E-02 0.  1.
        1   -1    0    0  501    0  0.00000000000E+00  0.00000000000E+00 -0.16546261800E+04  0.16546261800E+04  0.50400001928E-02 0. -1.
    10030    2    1    2    0    0  0.00000000000E+00  0.00000000000E+00 -0.92575649413E+03  0.23834958659E+04  0.21963668765E+04 0.  0.
        4    1    3    3  502    0  0.32469627329E+03 -0.18429868419E+03  0.65788185981E+03  0.75644155706E+03  0.12699999809E+01 0.  1.
       -4    1    3    3    0  502 -0.32469627329E+03  0.18429868419E+03 -0.15836383539E+04  0.16270543088E+04  0.12699999809E+01 0. -1.
</event>
<event>
 5   0  0.1033733E-05  0.2201157E+04  0.7818609E-02  0.8517947E-01
        1   -1    0    0  501    0  0.00000000000E+00  0.00000000000E+00  0.17600547403E+04  0.17600547403E+04  0.50400001928E-02 0. -1.
       -1   -1    0    0    0  501  0.00000000000E+00  0.00000000000E+00 -0.68820187904E+03  0.68820187906E+03  0.50400001928E-02 0.  1.
    10030    2    1    2    0    0  0.00000000000E+00  0.00000000000E+00  0.10718528612E+04  0.24482566193E+04  0.22011569499E+04 0.  0.
        5    1    3    3  502    0 -0.96869071905E+03 -0.18674787935E+03  0.10785611185E+04  0.14616951310E+04  0.46999998093E+01 0. -1.
       -5    1    3    3    0  502  0.96869071905E+03  0.18674787935E+03 -0.67082572498E+01  0.98656148837E+03  0.46999998093E+01 0.  1.
</event>
<event>
 5   0  0.1071208E-05  0.2199845E+04  0.7818609E-02  0.8518493E-01
        1   -1    0    0  501    0  0.00000000000E+00  0.00000000000E+00  0.13813443127E+04  0.13813443127E+04  0.50400001928E-02 0.  1.
       -1   -1    0    0    0  501  0.00000000000E+00  0.00000000000E+00 -0.87583471715E+03  0.87583471716E+03  0.50400001928E-02 0. -1.
    10030    2    1    2    0    0  0.00000000000E+00  0.00000000000E+00  0.50550959556E+03  0.22571790299E+04  0.21998448176E+04 0.  0.
        4    1    3    3  502    0  0.10305941055E+04 -0.23956231181E+03 -0.55599504043E+02  0.10595316084E+04  0.12699999809E+01 0. -1.
       -4    1    3    3    0  502 -0.10305941055E+04  0.23956231181E+03  0.56110909960E+03  0.11976474214E+04  0.12699999809E+01 0.  1.
</event>
<event>
 5   0  0.1071208E-05  0.2182002E+04  0.7818609E-02  0.8525957E-01
        1   -1    0    0  501    0  0.00000000000E+00  0.00000000000E+00  0.80050761106E+03  0.80050761108E+03  0.50400001928E-02 0.  1.
       -1   -1    0    0    0  501  0.00000000000E+00  0.00000000000E+00 -0.14869100736E+04  0.14869100736E+04  0.50400001928E-02 0. -1.
    10030    2    1    2    0    0  0.00000000000E+00  0.00000000000E+00 -0.68640246255E+03  0.22874176847E+04  0.21820016782E+04 0.  0.
        4    1    3    3  502    0 -0.90819013814E+03 -0.48741995777E+03  0.31698327177E+02  0.10312099394E+04  0.12699999809E+01 0. -1.
       -4    1    3    3    0  502  0.90819013814E+03  0.48741995777E+03 -0.71810078973E+03  0.12562077453E+04  0.12699999809E+01 0.  1.
</event>
<event>
 5   0  0.1071208E-05  0.2204075E+04  0.7818609E-02  0.8516734E-01
       -1   -1    0    0    0  501  0.00000000000E+00  0.00000000000E+00  0.13116897118E+04  0.13116897118E+04  0.50400001928E-02 0.  1.
        1   -1    0    0  501    0  0.00000000000E+00  0.00000000000E+00 -0.92589498082E+03  0.92589498083E+03  0.50400001928E-02 0. -1.
    10030    2    1    2    0    0  0.00000000000E+00  0.00000000000E+00  0.38579473094E+03  0.22375846926E+04  0.22040752442E+04 0.  0.
        4    1    3    3  502    0  0.37189813623E+03 -0.76801059473E+03  0.90087842085E+03  0.12408593955E+04  0.12699999809E+01 0.  1.
       -4    1    3    3    0  502 -0.37189813623E+03  0.76801059473E+03 -0.51508368991E+03  0.99672529709E+03  0.12699999809E+01 0. -1.
</event>
<event>
 5   0  0.1049198E-05  0.2198411E+04  0.7818609E-02  0.8519090E-01
       -1   -1    0    0    0  501  0.00000000000E+00  0.00000000000E+00  0.12287411240E+04  0.12287411240E+04  0.50400001928E-02 0.  1.
        1   -1    0    0  501    0  0.00000000000E+00  0.00000000000E+00 -0.98332560071E+03  0.98332560073E+03  0.50400001928E-02 0. -1.
    10030    2    1    2    0    0  0.00000000000E+00  0.00000000000E+00  0.24541552330E+03  0.22120667247E+04  0.21984108842E+04 0.  0.
        1    1    3    3  502    0 -0.10118358472E+04  0.36937819854E+03 -0.97743479842E+02  0.10815756206E+04  0.50400001928E-02 0. -1.
       -1    1    3    3    0  502  0.10118358472E+04 -0.36937819854E+03  0.34315900314E+03  0.11304911042E+04  0.50400001928E-02 0.  1.
</event>
<event>
 5   0  0.2284329E-05  0.2206078E+04  0.7818609E-02  0.8515903E-01
       -2   -1    0    0    0  501  0.00000000000E+00  0.00000000000E+00  0.14423694555E+04  0.14423694555E+04  0.25500000920E-02 0.  1.
        2   -1    0    0  501    0  0.00000000000E+00  0.00000000000E+00 -0.84353888600E+03  0.84353888600E+03  0.25500000920E-02 0. -1.
    10030    2    1    2    0    0  0.00000000000E+00  0.00000000000E+00  0.59883056947E+03  0.22859083415E+04  0.22060777173E+04 0.  0.
        2    1    3    3  502    0 -0.62888519772E+03 -0.84876182234E+03  0.62839680507E+03  0.12291361876E+04  0.25500000920E-02 0.  1.
       -2    1    3    3    0  502  0.62888519772E+03  0.84876182234E+03 -0.29566235596E+02  0.10567721539E+04  0.25500000920E-02 0. -1.
</event>
<event>
 5   0  0.1049198E-05  0.2209255E+04  0.7818609E-02  0.8514586E-01
        1   -1    0    0  501    0  0.00000000000E+00  0.00000000000E+00  0.17455489769E+04  0.17455489769E+04  0.50400001928E-02 0. -1.
       -1   -1    0    0    0  501  0.00000000000E+00  0.00000000000E+00 -0.69903615914E+03  0.69903615916E+03  0.50400001928E-02 0.  1.
    10030    2    1    2    0    0  0.00000000000E+00  0.00000000000E+00  0.10465128178E+04  0.24445851361E+04  0.22092549445E+04 0.  0.
        1    1    3    3  502    0 -0.29267878946E+03 -0.34530413357E+03  0.16382126290E+04  0.16995989046E+04  0.50400001928E-02 0. -1.
       -1    1    3    3    0  502  0.29267878946E+03  0.34530413357E+03 -0.59169981127E+03  0.74498623151E+03  0.50400001928E-02 0.  1.
</event>
<event>
 5   0  0.1049198E-05  0.2198946E+04  0.7818609E-02  0.8518867E-01
       -1   -1    0    0    0  501  0.00000000000E+00  0.00000000000E+00  0.73497416961E+03  0.73497416963E+03  0.50400001928E-02 0. -1.
        1   -1    0    0  501    0  0.00000000000E+00  0.00000000000E+00 -0.16447393923E+04  0.16447393923E+04  0.50400001928E-02 0.  1.
    10030    2    1    2    0    0  0.00000000000E+00  0.00000000000E+00 -0.90976522272E+03  0.23797135620E+04  0.21989460831E+04 0.  0.
        1    1    3    3  502    0  0.28890146022E+03 -0.31444771348E+03 -0.15513342644E+04  0.16090305834E+04  0.50400001928E-02 0.  1.
       -1    1    3    3    0  502 -0.28890146022E+03  0.31444771348E+03  0.64156904169E+03  0.77068297861E+03  0.50400001928E-02 0. -1.
</event>
<event>
 5   0  0.2289708E-05  0.2193268E+04  0.7818609E-02  0.8521235E-01
       -2   -1    0    0    0  501  0.00000000000E+00  0.00000000000E+00  0.17084220990E+04  0.17084220990E+04  0.25500000920E-02 0.  1.
        2   -1    0    0  501    0  0.00000000000E+00  0.00000000000E+00 -0.70392818069E+03  0.70392818069E+03  0.25500000920E-02 0. -1.
    10030    2    1    2    0    0  0.00000000000E+00  0.00000000000E+00  0.10044939183E+04  0.24123502797E+04  0.21932683009E+04 0.  0.
        5    1    3    3  502    0 -0.10800655839E+04  0.16149602239E+03  0.39246873717E+03  0.11604638859E+04  0.46999998093E+01 0. -1.
       -5    1    3    3    0  502  0.10800655839E+04 -0.16149602239E+03  0.61202518111E+03  0.12518863938E+04  0.46999998093E+01 0.  1.
</event>
<event>
 5   0  0.8003875E-06  0.2196065E+04  0.7818609E-02  0.8520068E-01
        4   -1    0    0  501    0  0.00000000000E+00  0.00000000000E+00  0.76382843526E+03  0.76382949106E+03  0.12699999809E+01 0.  1.
       -4   -1    0    0    0  501  0.00000000000E+00  0.00000000000E+00 -0.15784611300E+04  0.15784616409E+04  0.12699999809E+01 0. -1.
    10030    2    1    2    0    0  0.00000000000E+00  0.00000000000E+00 -0.81463269472E+03  0.23422911319E+04  0.21960649625E+04 0.  0.
        1    1    3    3  502    0 -0.60204115255E+01  0.79696189164E+03 -0.12129173987E+04  0.14513280533E+04  0.50400001928E-02 0. -1.
       -1    1    3    3    0  502  0.60204115255E+01 -0.79696189164E+03  0.39828470401E+03  0.89096307867E+03  0.50400001928E-02 0.  1.
</event>
<event>
 5   0  0.1005538E-05  0.2208820E+04  0.7818609E-02  0.8514766E-01
        1   -1    0    0  501    0  0.00000000000E+00  0.00000000000E+00  0.14843148009E+04  0.14843148009E+04  0.50400001928E-02 0. -1.
       -1   -1    0    0    0  501  0.00000000000E+00  0.00000000000E+00 -0.82174046820E+03  0.82174046822E+03  0.50400001928E-02 0.  1.
    10030    2    1    2    0    0  0.00000000000E+00  0.00000000000E+00  0.66257433267E+03  0.23060552691E+04  0.22088200827E+04 0.  0.
        3    1    3    3  502    0 -0.43159008063E+03 -0.53425188515E+03 -0.57167145352E+03  0.89359013841E+03  0.10100000352E+00 0.  1.
       -3    1    3    3    0  502  0.43159008063E+03  0.53425188515E+03  0.12342457862E+04  0.14124651307E+04  0.10100000352E+00 0. -1.
</event>
<event>
 5   0  0.1071208E-05  0.2197858E+04  0.7818609E-02  0.8519320E-01
        1   -1    0    0  501    0  0.00000000000E+00  0.00000000000E+00  0.11230626729E+04  0.11230626729E+04  0.50400001928E-02 0. -1.
       -1   -1    0    0    0  501  0.00000000000E+00  0.00000000000E+00 -0.10753141576E+04  0.10753141576E+04  0.50400001928E-02 0.  1.
    10030    2    1    2    0    0  0.00000000000E+00  0.00000000000E+00  0.47748515269E+02  0.21983768306E+04  0.21978582230E+04 0.  0.
        4    1    3    3  502    0 -0.45591716824E+03 -0.96816027552E+03 -0.22608227895E+03  0.10937593854E+04  0.12699999809E+01 0. -1.
       -4    1    3    3    0  502  0.45591716824E+03  0.96816027552E+03  0.27383079422E+03  0.11046174452E+04  0.12699999809E+01 0.  1.
</event>
<event>
 5   0  0.1071208E-05  0.2214224E+04  0.7818609E-02  0.8512531E-01
       -1   -1    0    0    0  501  0.00000000000E+00  0.00000000000E+00  0.73941615961E+03  0.73941615963E+03  0.50400001928E-02 0. -1.
        1   -1    0    0  501    0  0.00000000000E+00  0.00000000000E+00 -0.16576544017E+04  0.16576544017E+04  0.50400001928E-02 0.  1.
    10030    2    1    2    0    0  0.00000000000E+00  0.00000000000E+00 -0.91823824211E+03  0.23970705614E+04  0.22142235223E+04 0.  0.
        4    1    3    3  502    0  0.86192245710E+03 -0.39225624691E+03  0.16175592365E+03  0.96069864007E+03  0.12699999809E+01 0. -1.
       -4    1    3    3    0  502 -0.86192245710E+03  0.39225624691E+03 -0.10799941658E+04  0.14363719213E+04  0.12699999809E+01 0.  1.
</event>
<event>
 5   0  0.2298329E-05  0.2206226E+04  0.7818609E-02  0.8515841E-01
        2   -1    0    0  501    0  0.00000000000E+00  0.00000000000E+00  0.13017348566E+04  0.13017348566E+04  0.25500000920E-02 0. -1.
       -2   -1    0    0    0  501  0.00000000000E+00  0.00000000000E+00 -0.93479727139E+03  0.93479727139E+03  0.25500000920E-02 0.  1.
    10030    2    1    2    0    0  0.00000000000E+00  0.00000000000E+00  0.36693758522E+03  0.22365321280E+04  0.22062259105E+04 0.  0.
        4    1    3    3  502    0  0.73763743935E+03  0.56280900795E+03 -0.42137922336E+03  0.10190314196E+04  0.12699999809E+01 0.  1.
       -4    1    3    3    0  502 -0.73763743935E+03 -0.56280900795E+03  0.78831680858E+03  0.12175007084E+04  0.12699999809E+01 0. -1.
</event>
<event>
 5   0  0.8003875E-06  0.2197357E+04  0.7818609E-02  0.8519529E-01
        3   -1    0    0  501    0  0.00000000000E+00  0.00000000000E+00  0.15008494818E+04  0.15008494852E+04  0.10100000352E+00 0.  1.
       -3   -1    0    0    0  501  0.00000000000E+00  0.00000000000E+00 -0.80427398072E+03  0.80427398707E+03  0.10100000352E+00 0. -1.
    10030    2    1    2    0    0  0.00000000000E+00  0.00000000000E+00  0.69657550110E+03  0.23051234723E+04  0.21973567743E+04 0.  0.
        3    1    3    3  502    0  0.28669810934E+03 -0.38713534915E+03  0.13841485626E+04  0.14655841286E+04  0.10100000352E+00 0.  1.
       -3    1    3    3    0  502 -0.28669810934E+03  0.38713534915E+03 -0.68757306151E+03  0.83953934367E+03  0.10100000352E+00 0. -1.
</event>
<event>
 5   0  0.1005538E-05  0.2200041E+04  0.7818609E-02  0.8518411E-01
       -1   -1    0    0    0  501  0.00000000000E+00  0.00000000000E+00  0.15791102508E+04  0.15791102508E+04  0.50400001928E-02 0. -1.
        1   -1    0    0  501    0  0.00000000000E+00  0.00000000000E+00 -0.76628313146E+03  0.76628313148E+03  0.50400001928E-02 0.  1.
    10030    2    1    2    0    0  0.00000000000E+00  0.00000000000E+00  0.81282711930E+03  0.23453933822E+04  0.22000414068E+04 0.  0.
        3    1    3    3  502    0  0.38399667572E+03 -0.98368483608E+03  0.73492203735E+03  0.12865456521E+04  0.10100000352E+00 0. -1.
       -3    1    3    3    0  502 -0.38399667572E+03  0.98368483608E+03  0.77905081949E+02  0.10588477302E+04  0.10100000352E+00 0.  1.
</event>
<event>
 5   0  0.2284329E-05  0.2076589E+04  0.7818609E-02  0.8571627E-01
       -2   -1    0    0    0  501  0.00000000000E+00  0.00000000000E+00  0.48325672333E+03  0.48325672334E+03  0.25500000920E-02 0. -1.
        2   -1    0    0  501    0  0.00000000000E+00  0.00000000000E+00 -0.22308128065E+04  0.22308128065E+04  0.25500000920E-02 0.  1.
    10030    2    1    2    0    0  0.00000000000E+00  0.00000000000E+00 -0.17475560832E+04  0.27140695299E+04  0.20765888252E+04 0.  0.
        2    1    3    3  502    0 -0.12645318710E+03  0.27072453413E+03  0.42584911991E+03  0.52022077510E+03  0.25500000920E-02 0. -1.
       -2    1    3    3    0  502  0.12645318710E+03 -0.27072453413E+03 -0.21734052031E+04  0.21938487548E+04  0.25500000920E-02 0.  1.
</event>
<event>
 5   0  0.2289708E-05  0.2194830E+04  0.7818609E-02  0.8520583E-01
       -2   -1    0    0    0  501  0.00000000000E+00  0.00000000000E+00  0.23179172341E+04  0.23179172341E+04  0.25500000920E-02 0.  1.
        2   -1    0    0  501    0  0.00000000000E+00  0.00000000000E+00 -0.51956997078E+03  0.51956997079E+03  0.25500000920E-02 0. -1.
    10030    2    1    2    0    0  0.00000000000E+00  0.00000000000E+00  0.17983472633E+04  0.28374872048E+04  0.21948304623E+04 0.  0.
        5    1    3    3  502    0 -0.71742448130E+03 -0.33988520715E+03  0.18787053030E+04  0.20395527809E+04  0.46999998093E+01 0.  1.
       -5    1    3    3    0  502  0.71742448130E+03  0.33988520715E+03 -0.80358039739E+02  0.79793442397E+03  0.46999998093E+01 0. -1.
</event>
<event>
 5   0  0.2319707E-05  0.2190871E+04  0.7818609E-02  0.8522238E-01
        2   -1    0    0  501    0  0.00000000000E+00  0.00000000000E+00  0.77135745931E+03  0.77135745931E+03  0.25500000920E-02 0.  1.
       -2   -1    0    0    0  501  0.00000000000E+00  0.00000000000E+00 -0.15556711771E+04  0.15556711771E+04  0.25500000920E-02 0. -1.
    10030    2    1    2    0    0  0.00000000000E+00  0.00000000000E+00 -0.78431371781E+03  0.23270286364E+04  0.21908706641E+04 0.  0.
        3    1    3    3  502    0 -0.50666283029E+03  0.21682579309E+03 -0.13977018060E+04  0.15024283666E+04  0.10100000352E+00 0. -1.
       -3    1    3    3    0  502  0.50666283029E+03 -0.21682579309E+03  0.61338808815E+03  0.82460026984E+03  0.10100000352E+00 0.  1.
</event>
<event>
 5   0  0.1007682E-05  0.2212096E+04  0.7818609E-02  0.8513410E-01
        1   -1    0    0  501    0  0.00000000000E+00  0.00000000000E+00  0.22620208053E+04  0.22620208053E+04  0.50400001928E-02 0. -1.
       -1   -1    0    0    0  501  0.00000000000E+00  0.00000000000E+00 -0.54081822182E+03  0.54081822185E+03  0.50400001928E-02 0.  1.
    10030    2    1    2    0    0  0.00000000000E+00  0.00000000000E+00  0.17212025834E+04  0.28028390271E+04  0.22120959018E+04 0.  0.
        2    1    3    3  502    0 -0.11906361607E+03 -0.88576850317E+03  0.34993060673E+02  0.89441964434E+03  0.25500000920E-02 0.  1.
       -2    1    3    3    0  502  0.11906361607E+03  0.88576850317E+03  0.16862095228E+04  0.19084193828E+04  0.25500000920E-02 0. -1.
</event>
<event>
 5   0  0.2319707E-05  0.2198478E+04  0.7818609E-02  0.8519062E-01
       -2   -1    0    0    0  501  0.00000000000E+00  0.00000000000E+00  0.15039078842E+04  0.15039078842E+04  0.25500000920E-02 0. -1.
        2   -1    0    0  501    0  0.00000000000E+00  0.00000000000E+00 -0.80345805646E+03  0.80345805647E+03  0.25500000920E-02 0.  1.
    10030    2    1    2    0    0  0.00000000000E+00  0.00000000000E+00  0.70044982769E+03  0.23073659406E+04  0.21984784790E+04 0.  0.
        3    1    3    3  502    0  0.17022258735E+03  0.79814975893E+03  0.11231142514E+04  0.13883099074E+04  0.10100000352E+00 0. -1.
       -3    1    3    3    0  502 -0.17022258735E+03 -0.79814975893E+03 -0.42266442376E+03  0.91905603324E+03  0.10100000352E+00 0.  1.
</event>
<event>
 5   0  0.1033733E-05  0.2205573E+04  0.7818609E-02  0.8516112E-01
       -1   -1    0    0    0  501  0.00000000000E+00  0.00000000000E+00  0.10145510068E+04  0.10145510068E+04  0.50400001928E-02 0. -1.
        1   -1    0    0  501    0  0.00000000000E+00  0.00000000000E+00 -0.11986959665E+04  0.11986959665E+04  0.50400001928E-02 0.  1.
    10030    2    1    2    0    0  0.00000000000E+00  0.00000000000E+00 -0.18414495966E+03  0.22132469733E+04  0.22055731225E+04 0.  0.
        5    1    3    3  502    0 -0.66379320578E+03  0.46202825496E+01  0.79160106797E+03  0.10331007249E+04  0.46999998093E+01 0. -1.
       -5    1    3    3    0  502  0.66379320578E+03 -0.46202825496E+01 -0.97574602763E+03  0.11801462483E+04  0.46999998093E+01 0.  1.
</event>
<event>
 5   0  0.1005538E-05  0.2203023E+04  0.7818609E-02  0.8517171E-01
       -1   -1    0    0    0  501  0.00000000000E+00  0.00000000000E+00  0.91367294105E+03  0.91367294107E+03  0.50400001928E-02 0. -1.
        1   -1    0    0  501    0  0.00000000000E+00  0.00000000000E+00 -0.13279668615E+04  0.13279668615E+04  0.50400001928E-02 0.  1.
    10030    2    1    2    0    0  0.00000000000E+00  0.00000000000E+00 -0.41429392045E+03  0.22416398026E+04  0.22030228215E+04 0.  0.
        3    1    3    3  502    0 -0.10710900983E+04 -0.19879646915E+03 -0.41276164064E+02  0.10901641009E+04  0.10100000352E+00 0. -1.
       -3    1    3    3    0  502  0.10710900983E+04  0.19879646915E+03 -0.37301775639E+03  0.11514757017E+04  0.10100000352E+00 0.  1.
</event>
<event>
 5   0  0.1071208E-05  0.2199492E+04  0.7818609E-02  0.8518639E-01
       -1   -1    0    0    0  501  0.00000000000E+00  0.00000000000E+00  0.72017487419E+03  0.72017487420E+03  0.50400001928E-02 0. -1.
        1   -1    0    0  501    0  0.00000000000E+00  0.00000000000E+00 -0.16793721418E+04  0.16793721418E+04  0.50400001928E-02 0.  1.
    10030    2    1    2    0    0  0.00000000000E+00  0.00000000000E+00 -0.95919726757E+03  0.23995470160E+04  0.21994923241E+04 0.  0.
        4    1    3    3  502    0 -0.55384574020E+02 -0.33509803952E+03 -0.16207196975E+04  0.16559263564E+04  0.12699999809E+01 0.  1.
       -4    1    3    3    0  502  0.55384574020E+02  0.33509803952E+03  0.66152242992E+03  0.74362065956E+03  0.12699999809E+01 0. -1.
</event>
<event>
 5   0  0.2298329E-05  0.2203694E+04  0.7818609E-02  0.8516892E-01
        2   -1    0    0  501    0  0.00000000000E+00  0.00000000000E+00  0.56255355364E+03  0.56255355365E+03  0.25500000920E-02 0. -1.
       -2   -1    0    0    0  501  0.00000000000E+00  0.00000000000E+00 -0.21581352073E+04  0.21581352073E+04  0.25500000920E-02 0.  1.
    10030    2    1    2    0    0  0.00000000000E+00  0.00000000000E+00 -0.15955816537E+04  0.27206887610E+04  0.22036938355E+04 0.  0.
        4    1    3    3  502    0 -0.94244302292E+03 -0.11523351328E+03 -0.10752981761E+03  0.95553225410E+03  0.12699999809E+01 0. -1.
       -4    1    3    3    0  502  0.94244302292E+03  0.11523351328E+03 -0.14880518361E+04  0.17651565069E+04  0.12699999809E+01 0.  1.
</event>
<event>
 5   0  0.1071208E-05  0.2198757E+04  0.7818609E-02  0.8518946E-01
        1   -1    0    0  501    0  0.00000000000E+00  0.00000000000E+00  0.18876582289E+04  0.18876582289E+04  0.50400001928E-02 0. -1.
       -1   -1    0    0    0  501  0.00000000000E+00  0.00000000000E+00 -0.64028153455E+03  0.64028153457E+03  0.50400001928E-02 0.  1.
    10030    2    1    2    0    0  0.00000000000E+00  0.00000000000E+00  0.12473766943E+04  0.25279397635E+04  0.21987566555E+04 0.  0.
        4    1    3    3  502    0 -0.90110900366E+03 -0.20416239446E+03  0.13086621871E+04  0.16019606901E+04  0.12699999809E+01 0. -1.
       -4    1    3    3    0  502  0.90110900366E+03  0.20416239446E+03 -0.61285492747E+02  0.92597907337E+03  0.12699999809E+01 0.  1.
</event>
<event>
 5   0  0.2289708E-05  0.2215227E+04  0.7818609E-02  0.8512117E-01
       -2   -1    0    0    0  501  0.00000000000E+00  0.00000000000E+00  0.10903722413E+04  0.10903722413E+04  0.25500000920E-02 0.  1.
        2   -1    0    0  501    0  0.00000000000E+00  0.00000000000E+00 -0.11251270293E+04  0.11251270293E+04  0.25500000920E-02 0. -1.
    10030    2    1    2    0    0  0.00000000000E+00  0.00000000000E+00 -0.34754787988E+02  0.22154992707E+04  0.22152266528E+04 0.  0.
        5    1    3    3  502    0 -0.21780094002E+03 -0.67221950399E+03  0.83564543300E+03  0.10943681696E+04  0.46999998093E+01 0.  1.
       -5    1    3    3    0  502  0.21780094002E+03  0.67221950399E+03 -0.87040022099E+03  0.11211311010E+04  0.46999998093E+01 0. -1.
</event>
<event>
 5   0  0.1005538E-05  0.2197173E+04  0.7818609E-02  0.8519606E-01
        1   -1    0    0  501    0  0.00000000000E+00  0.00000000000E+00  0.25003042193E+04  0.25003042193E+04  0.50400001928E-02 0. -1.
       -1   -1    0    0    0  501  0.00000000000E+00  0.00000000000E+00 -0.48269813119E+03  0.48269813121E+03  0.50400001928E-02 0.  1.
    10030    2    1    2    0    0  0.00000000000E+00  0.00000000000E+00  0.20176060881E+04  0.29830023505E+04  0.21971728872E+04 0.  0.
        3    1    3    3  502    0  0.86981645786E+03  0.64729089585E+03  0.12490964009E+04  0.16540278121E+04  0.10100000352E+00 0. -1.
       -3    1    3    3    0  502 -0.86981645786E+03 -0.64729089585E+03  0.76850968716E+03  0.13289745384E+04  0.10100000352E+00 0.  1.
</event>
<event>
 5   0  0.2284329E-05  0.2220086E+04  0.7818609E-02  0.8510114E-01
       -2   -1    0    0    0  501  0.00000000000E+00  0.00000000000E+00  0.89384799551E+03  0.89384799552E+03  0.25500000920E-02 0.  1.
        2   -1    0    0  501    0  0.00000000000E+00  0.00000000000E+00 -0.13785290150E+04  0.13785290150E+04  0.25500000920E-02 0. -1.
    10030    2    1    2    0    0  0.00000000000E+00  0.00000000000E+00 -0.48468101951E+03  0.22723770105E+04  0.22200859414E+04 0.  0.
        2    1    3    3  502    0  0.18565050063E+03 -0.10608022916E+04 -0.51780346796E+03  0.11949426939E+04  0.25500000920E-02 0. -1.
       -2    1    3    3    0  502 -0.18565050063E+03  0.10608022916E+04  0.33122448453E+02  0.10774343167E+04  0.25500000920E-02 0.  1.
</event>
<event>
 5   0  0.2298329E-05  0.2200267E+04  0.7818609E-02  0.8518317E-01
       -2   -1    0    0    0  501  0.00000000000E+00  0.00000000000E+00  0.11422826687E+04  0.11422826687E+04  0.25500000920E-02 0.  1.
        2   -1    0    0  501    0  0.00000000000E+00  0.00000000000E+00 -0.10595392476E+04  0.10595392476E+04  0.25500000920E-02 0. -1.
    10030    2    1    2    0    0  0.00000000000E+00  0.00000000000E+00  0.82743421108E+02  0.22018219162E+04  0.22002666377E+04 0.  0.
        4    1    3    3  502    0 -0.46275212785E+03 -0.47861024466E+03  0.91782435202E+03  0.11338476318E+04  0.12699999809E+01 0.  1.
       -4    1    3    3    0  502  0.46275212785E+03  0.47861024466E+03 -0.83508093091E+03  0.10679742844E+04  0.12699999809E+01 0. -1.
</event>
<event>
 5   0  0.2284329E-05  0.2247975E+04  0.7818609E-02  0.8498721E-01
        2   -1    0    0  501    0  0.00000000000E+00  0.00000000000E+00  0.10987775292E+04  0.10987775292E+04  0.25500000920E-02 0.  1.
       -2   -1    0    0    0  501  0.00000000000E+00  0.00000000000E+00 -0.11497755146E+04  0.11497755146E+04  0.25500000920E-02 0. -1.
    10030    2    1    2    0    0  0.00000000000E+00  0.00000000000E+00 -0.50997985397E+02  0.22485530438E+04  0.22479746432E+04 0.  0.
        2    1    3    3  502    0  0.43200073055E+02  0.11224619673E+04 -0.65010860991E+02  0.11251726652E+04  0.25500000920E-02 0. -1.
       -2    1    3    3    0  502 -0.43200073055E+02 -0.11224619673E+04  0.14012875594E+02  0.11233803786E+04  0.25500000920E-02 0.  1.
</event>
<event>
 5   0  0.1071208E-05  0.2205802E+04  0.7818609E-02  0.8516017E-01
        1   -1    0    0  501    0  0.00000000000E+00  0.00000000000E+00  0.85131587461E+03  0.85131587463E+03  0.50400001928E-02 0. -1.
       -1   -1    0    0    0  501  0.00000000000E+00  0.00000000000E+00 -0.14288361960E+04  0.14288361960E+04  0.50400001928E-02 0.  1.
    10030    2    1    2    0    0  0.00000000000E+00  0.00000000000E+00 -0.57752032134E+03  0.22801520706E+04  0.22058022902E+04 0.  0.
        4    1    3    3  502    0  0.90371733032E+03  0.49065124506E+03  0.12335783007E+03  0.10356941752E+04  0.12699999809E+01 0. -1.
       -4    1    3    3    0  502 -0.90371733032E+03 -0.49065124506E+03 -0.70087815141E+03  0.12444578954E+04  0.12699999809E+01 0.  1.
</event>
<event>
 5   0  0.2289708E-05  0.2178889E+04  0.7818609E-02  0.8527267E-01
       -2   -1    0    0    0  501  0.00000000000E+00  0.00000000000E+00  0.62590348974E+03  0.62590348974E+03  0.25500000920E-02 0.  1.
        2   -1    0    0  501    0  0.00000000000E+00  0.00000000000E+00 -0.18962817795E+04  0.18962817795E+04  0.25500000920E-02 0. -1.
    10030    2    1    2    0    0  0.00000000000E+00  0.00000000000E+00 -0.12703782898E+04  0.25221852692E+04  0.21788890594E+04 0.  0.
        5    1    3    3  502    0 -0.27399221036E+03 -0.76956681110E+03  0.19918484910E+03  0.84083381366E+03  0.46999998093E+01 0.  1.
       -5    1    3    3    0  502  0.27399221036E+03  0.76956681110E+03 -0.14695631389E+04  0.16813514556E+04  0.46999998093E+01 0. -1.
</event>
<event>
 5   0  0.1007682E-05  0.2109022E+04  0.7818609E-02  0.8557279E-01
        1   -1    0    0  501    0  0.00000000000E+00  0.00000000000E+00  0.91028051551E+03  0.91028051553E+03  0.50400001928E-02 0.  1.
       -1   -1    0    0    0  501  0.00000000000E+00  0.00000000000E+00 -0.12215947044E+04  0.12215947044E+04  0.50400001928E-02 0. -1.
    10030    2    1    2    0    0  0.00000000000E+00  0.00000000000E+00 -0.31131418889E+03  0.21318752199E+04  0.21090223871E+04 0.  0.
        2    1    3    3  502    0 -0.60096204015E+03  0.74704425801E+03 -0.59946275366E+03  0.11307458115E+04  0.25500000920E-02 0. -1.
       -2    1    3    3    0  502  0.60096204015E+03 -0.74704425801E+03  0.28814856477E+03  0.10011294085E+04  0.25500000920E-02 0.  1.
</event>
<event>
 5   0  0.1049198E-05  0.2195791E+04  0.7818609E-02  0.8520182E-01
        1   -1    0    0  501    0  0.00000000000E+00  0.00000000000E+00  0.21035415110E+04  0.21035415110E+04  0.50400001928E-02 0.  1.
       -1   -1    0    0    0  501  0.00000000000E+00  0.00000000000E+00 -0.57302131205E+03  0.57302131207E+03  0.50400001928E-02 0. -1.
    10030    2    1    2    0    0  0.00000000000E+00  0.00000000000E+00  0.15305201989E+04  0.26765628230E+04  0.21957906244E+04 0.  0.
        1    1    3    3  502    0 -0.33445041517E+03 -0.60969551113E+03  0.18008587363E+04  0.19304605369E+04  0.50400001928E-02 0.  1.
       -1    1    3    3    0  502  0.33445041517E+03  0.60969551113E+03 -0.27033853740E+03  0.74610228610E+03  0.50400001928E-02 0. -1.
</event>
<event>
 5   0  0.1033733E-05  0.2196833E+04  0.7818609E-02  0.8519748E-01
        1   -1    0    0  501    0  0.00000000000E+00  0.00000000000E+00  0.14548799043E+04  0.14548799043E+04  0.50400001928E-02 0. -1.
       -1   -1    0    0    0  501  0.00000000000E+00  0.00000000000E+00 -0.82929063453E+03  0.82929063455E+03  0.50400001928E-02 0.  1.
    10030    2    1    2    0    0  0.00000000000E+00  0.00000000000E+00  0.62558926976E+03  0.22841705389E+04  0.21968325189E+04 0.  0.
        5    1    3    3  502    0 -0.97286561911E+03 -0.49517246612E+03  0.43942699009E+03  0.11767673745E+04  0.46999998093E+01 0.  1.
       -5    1    3    3    0  502  0.97286561911E+03  0.49517246612E+03  0.18616227967E+03  0.11074031644E+04  0.46999998093E+01 0. -1.
</event>
<event>
 5   0  0.1071208E-05  0.2189807E+04  0.7818609E-02  0.8522683E-01
       -1   -1    0    0    0  501  0.00000000000E+00  0.00000000000E+00  0.10044874220E+04  0.10044874220E+04  0.50400001928E-02 0. -1.
        1   -1    0    0  501    0  0.00000000000E+00  0.00000000000E+00 -0.11934578209E+04  0.11934578209E+04  0.50400001928E-02 0.  1.
    10030    2    1    2    0    0  0.00000000000E+00  0.00000000000E+00 -0.18897039888E+03  0.21979452429E+04  0.21898067219E+04 0.  0.
        4    1    3    3  502    0  0.79151786577E+03 -0.49553180183E+03 -0.66823846183E+03  0.11483015951E+04  0.12699999809E+01 0.  1.
       -4    1    3    3    0  502 -0.79151786577E+03  0.49553180183E+03  0.47926806294E+03  0.10496436479E+04  0.12699999809E+01 0. -1.
</event>
<event>
 5   0  0.2229552E-05  0.2197594E+04  0.7818609E-02  0.8519430E-01
        2   -1    0    0  501    0  0.00000000000E+00  0.00000000000E+00  0.12326131512E+04  0.12326131512E+04  0.25500000920E-02 0. -1.
       -2   -1    0    0    0  501  0.00000000000E+00  0.00000000000E+00 -0.97950848174E+03  0.97950848175E+03  0.25500000920E-02 0.  1.
    10030    2    1    2    0    0  0.00000000000E+00  0.00000000000E+00  0.25310466941E+03  0.22121216329E+04  0.21975941721E+04 0.  0.
        1    1    3    3  502    0 -0.41953482845E+03 -0.83609762827E+03 -0.45370112580E+03  0.10396698648E+04  0.50400001928E-02 0.  1.
       -1    1    3    3    0  502  0.41953482845E+03  0.83609762827E+03  0.70680579521E+03  0.11724517681E+04  0.50400001928E-02 0. -1.
</event>
<event>
 5   0  0.1049198E-05  0.2197082E+04  0.7818609E-02  0.8519644E-01
        1   -1    0    0  501    0  0.00000000000E+00  0.00000000000E+00  0.10958522795E+04  0.10958522795E+04  0.50400001928E-02 0. -1.
       -1   -1    0    0    0  501  0.00000000000E+00  0.00000000000E+00 -0.11012361233E+04  0.11012361234E+04  0.50400001928E-02 0.  1.
    10030    2    1    2    0    0  0.00000000000E+00  0.00000000000E+00 -0.53838438298E+01  0.21970884029E+04  0.21970818065E+04 0.  0.
        1    1    3    3  502    0  0.27333653269E+02 -0.52465063143E+03 -0.96746769457E+03  0.11009083312E+04  0.50400001928E-02 0.  1.
       -1    1    3    3    0  502 -0.27333653269E+02  0.52465063143E+03  0.96208385074E+03  0.10961800717E+04  0.50400001928E-02 0. -1.
</event>
<event>
 5   0  0.2319707E-05  0.2196177E+04  0.7818609E-02  0.8520021E-01
       -2   -1    0    0    0  501  0.00000000000E+00  0.00000000000E+00  0.13243076127E+04  0.13243076127E+04  0.25500000920E-02 0.  1.
        2   -1    0    0  501    0  0.00000000000E+00  0.00000000000E+00 -0.91051257636E+03  0.91051257636E+03  0.25500000920E-02 0. -1.
    10030    2    1    2    0    0  0.00000000000E+00  0.00000000000E+00  0.41379503632E+03  0.22348201890E+04  0.21961773483E+04 0.  0.
        3    1    3    3  502    0 -0.52437866480E+01 -0.53862165629E+03 -0.76683979231E+03  0.93711475455E+03  0.10100000352E+00 0. -1.
       -3    1    3    3    0  502  0.52437866480E+01  0.53862165629E+03  0.11806348286E+04  0.12977054345E+04  0.10100000352E+00 0.  1.
</event>
<event>
 5   0  0.2229552E-05  0.2043884E+04  0.7818609E-02  0.8586374E-01
       -2   -1    0    0    0  501  0.00000000000E+00  0.00000000000E+00  0.57372767543E+03  0.57372767544E+03  0.25500000920E-02 0. -1.
        2   -1    0    0  501    0  0.00000000000E+00  0.00000000000E+00 -0.18203150098E+04  0.18203150098E+04  0.25500000920E-02 0.  1.
    10030    2    1    2    0    0  0.00000000000E+00  0.00000000000E+00 -0.12465873343E+04  0.23940426852E+04  0.20438836553E+04 0.  0.
        1    1    3    3  502    0  0.50933757996E+03 -0.56689967499E+02  0.41233283875E+03  0.65776659441E+03  0.50400001928E-02 0. -1.
       -1    1    3    3    0  502 -0.50933757996E+03  0.56689967499E+02 -0.16589201731E+04  0.17362760908E+04  0.50400001928E-02 0.  1.
</event>
<event>
 5   0  0.2229552E-05  0.2189806E+04  0.7818609E-02  0.8522683E-01
        2   -1    0    0  501    0  0.00000000000E+00  0.00000000000E+00  0.13161464746E+04  0.13161464746E+04  0.25500000920E-02 0.  1.
       -2   -1    0    0    0  501  0.00000000000E+00  0.00000000000E+00 -0.91085015490E+03  0.91085015490E+03  0.25500000920E-02 0. -1.
    10030    2    1    2    0    0  0.00000000000E+00  0.00000000000E+00  0.40529631967E+03  0.22269966295E+04  0.21898056720E+04 0.  0.
        1    1    3    3  502    0  0.56265223216E+03 -0.58858983468E+03  0.94706124338E+03  0.12489757910E+04  0.50400001928E-02 0.  1.
       -1    1    3    3    0  502 -0.56265223216E+03  0.58858983468E+03 -0.54176492371E+03  0.97802083844E+03  0.50400001928E-02 0. -1.
</event>
<event>
 5   0  0.2289708E-05  0.2196991E+04  0.7818609E-02  0.8519682E-01
       -2   -1    0    0    0  501  0.00000000000E+00  0.00000000000E+00  0.77499111659E+03  0.77499111660E+03  0.25500000920E-02 0.  1.
        2   -1    0    0  501    0  0.00000000000E+00  0.00000000000E+00 -0.15570396685E+04  0.15570396685E+04  0.25500000920E-02 0. -1.
    10030    2    1    2    0    0  0.00000000000E+00  0.00000000000E+00 -0.78204855191E+03  0.23320307851E+04  0.21969905883E+04 0.  0.
        5    1    3    3  502    0 -0.80823839922E+03  0.28497294049E+03  0.33838973712E+03  0.92140576891E+03  0.46999998093E+01 0.  1.
       -5    1    3    3    0  502  0.80823839922E+03 -0.28497294049E+03 -0.11204382890E+04  0.14106250162E+04  0.46999998093E+01 0. -1.
</event>
<event>
 5   0  0.1033733E-05  0.2211459E+04  0.7818609E-02  0.8513674E-01
        1   -1    0    0  501    0  0.00000000000E+00  0.00000000000E+00  0.10537907061E+04  0.10537907061E+04  0.50400001928E-02 0.  1.
       -1   -1    0    0    0  501  0.00000000000E+00  0.00000000000E+00 -0.11602281715E+04  0.11602281715E+04  0.50400001928E-02 0. -1.
    10030    2    1    2    0    0  0.00000000000E+00  0.00000000000E+00 -0.10643746539E+03  0.22140188776E+04  0.22114589429E+04 0.  0.
        5    1    3    3  502    0 -0.90028521267E+03 -0.61639524895E+03  0.12631818031E+03  0.10983783227E+04  0.46999998093E+01 0. -1.
       -5    1    3    3    0  502  0.90028521267E+03  0.61639524895E+03 -0.23275564570E+03  0.11156405549E+04  0.46999998093E+01 0.  1.
</event>
<event>
 5   0  0.2319707E-05  0.2190208E+04  0.7818609E-02  0.8522515E-01
       -2   -1    0    0    0  501  0.00000000000E+00  0.00000000000E+00  0.84494636538E+03  0.84494636538E+03  0.25500000920E-02 0. -1.
        2   -1    0    0  501    0  0.00000000000E+00  0.00000000000E+00 -0.14193246945E+04  0.14193246945E+04  0.25500000920E-02 0.  1.
    10030    2    1    2    0    0  0.00000000000E+00  0.00000000000E+00 -0.57437832914E+03  0.22642710599E+04  0.21902084302E+04 0.  0.
        3    1    3    3  502    0 -0.37567989827E+03 -0.14585419486E+03  0.76549905451E+03  0.86509978892E+03  0.10100000352E+00 0. -1.
       -3    1    3    3    0  502  0.37567989827E+03  0.14585419486E+03 -0.13398773836E+04  0.13991712710E+04  0.10100000352E+00 0.  1.
</event>
<event>
 5   0  0.1007682E-05  0.2195305E+04  0.7818609E-02  0.8520385E-01
       -1   -1    0    0    0  501  0.00000000000E+00  0.00000000000E+00  0.11157227617E+04  0.11157227617E+04  0.50400001928E-02 0.  1.
        1   -1    0    0  501    0  0.00000000000E+00  0.00000000000E+00 -0.10798745668E+04  0.10798745668E+04  0.50400001928E-02 0. -1.
    10030    2    1    2    0    0  0.00000000000E+00  0.00000000000E+00  0.35848194900E+02  0.21955973286E+04  0.21953046568E+04 0.  0.
        2    1    3    3  502    0 -0.31127797084E+03 -0.89633925075E+03  0.56983333640E+03  0.11068098567E+04  0.25500000920E-02 0.  1.
       -2    1    3    3    0  502  0.31127797084E+03  0.89633925075E+03 -0.53398514150E+03  0.10887874719E+04  0.25500000920E-02 0. -1.
</event>
<event>
 5   0  0.1049198E-05  0.2213814E+04  0.7818609E-02  0.8512701E-01
       -1   -1    0    0    0  501  0.00000000000E+00  0.00000000000E+00  0.82968915520E+03  0.82968915522E+03  0.50400001928E-02 0. -1.
        1   -1    0    0  501    0  0.00000000000E+00  0.00000000000E+00 -0.14767489278E+04  0.14767489278E+04  0.50400001928E-02 0.  1.
    10030    2    1    2    0    0  0.00000000000E+00  0.00000000000E+00 -0.64705977258E+03  0.23064380830E+04  0.22138135155E+04 0.  0.
        1    1    3    3  502    0 -0.28969007323E+02 -0.60708200533E+03  0.64030094083E+03  0.88282108008E+03  0.50400001928E-02 0. -1.
       -1    1    3    3    0  502  0.28969007323E+02  0.60708200533E+03 -0.12873607134E+04  0.14236170029E+04  0.50400001928E-02 0.  1.
</event>
<event>
 5   0  0.1005538E-05  0.2202170E+04  0.7818609E-02  0.8517525E-01
       -1   -1    0    0    0  501  0.00000000000E+00  0.00000000000E+00  0.12160940045E+04  0.12160940045E+04  0.50400001928E-02 0. -1.
        1   -1    0    0  501    0  0.00000000000E+00  0.00000000000E+00 -0.99695313215E+03  0.99695313216E+03  0.50400001928E-02 0.  1.
    10030    2    1    2    0    0  0.00000000000E+00  0.00000000000E+00  0.21914087238E+03  0.22130471367E+04  0.22021704991E+04 0.  0.
        3    1    3    3  502    0 -0.89652453357E+03 -0.48295998619E+03 -0.31128446845E+03  0.10648495753E+04  0.10100000352E+00 0.  1.
       -3    1    3    3    0  502  0.89652453357E+03  0.48295998619E+03  0.53042534084E+03  0.11481975614E+04  0.10100000352E+00 0. -1.
</event>
<event>
 5   0  0.1005538E-05  0.2194040E+04  0.7818609E-02  0.8520913E-01
        1   -1    0    0  501    0  0.00000000000E+00  0.00000000000E+00  0.18134313483E+04  0.18134313483E+04  0.50400001928E-02 0.  1.
       -1   -1    0    0    0  501  0.00000000000E+00  0.00000000000E+00 -0.66363283814E+03  0.66363283816E+03  0.50400001928E-02 0. -1.
    10030    2    1    2    0    0  0.00000000000E+00  0.00000000000E+00  0.11497985102E+04  0.24770641865E+04  0.21940397376E+04 0.  0.
        3    1    3    3  502    0 -0.50992364012E+03  0.59240292411E+03 -0.29412721439E+03  0.83514919127E+03  0.10100000352E+00 0. -1.
       -3    1    3    3    0  502  0.50992364012E+03 -0.59240292411E+03  0.14439257246E+04  0.16419149952E+04  0.10100000352E+00 0.  1.
</event>
<event>
 5   0  0.2284329E-05  0.2194990E+04  0.7818609E-02  0.8520516E-01
       -2   -1    0    0    0  501  0.00000000000E+00  0.00000000000E+00  0.79060491192E+03  0.79060491192E+03  0.25500000920E-02 0.  1.
        2   -1    0    0  501    0  0.00000000000E+00  0.00000000000E+00 -0.15235116004E+04  0.15235116005E+04  0.25500000920E-02 0. -1.
    10030    2    1    2    0    0  0.00000000000E+00  0.00000000000E+00 -0.73290668853E+03  0.23141165124E+04  0.21949904371E+04 0.  0.
        2    1    3    3  502    0  0.52129854256E+03  0.82474473365E+03  0.16335333144E+03  0.98926253191E+03  0.25500000920E-02 0.  1.
       -2    1    3    3    0  502 -0.52129854256E+03 -0.82474473365E+03 -0.89626001997E+03  0.13248539805E+04  0.25500000920E-02 0. -1.
</event>
<event>
 5   0  0.1033733E-05  0.2195125E+04  0.7818609E-02  0.8520460E-01
       -1   -1    0    0    0  501  0.00000000000E+00  0.00000000000E+00  0.13435156843E+04  0.13435156843E+04  0.50400001928E-02 0. -1.
        1   -1    0    0  501    0  0.00000000000E+00  0.00000000000E+00 -0.89663482976E+03  0.89663482978E+03  0.50400001928E-02 0.  1.
    10030    2    1    2    0    0  0.00000000000E+00  0.00000000000E+00  0.44688085449E+03  0.22401505140E+04  0.21951245585E+04 0.  0.
        5    1    3    3  502    0 -0.54220744313E+03  0.35676168324E+03  0.11266671996E+04  0.13002572355E+04  0.46999998093E+01 0. -1.
       -5    1    3    3    0  502  0.54220744313E+03 -0.35676168324E+03 -0.67978634507E+03  0.93989327850E+03  0.46999998093E+01 0.  1.
</event>
<event>
 5   0  0.2289708E-05  0.2192773E+04  0.7818609E-02  0.8521442E-01
        2   -1    0    0  501    0  0.00000000000E+00  0.00000000000E+00  0.17186777475E+04  0.17186777475E+04  0.25500000920E-02 0.  1.
       -2   -1    0    0    0  501  0.00000000000E+00  0.00000000000E+00 -0.69941187338E+03  0.69941187338E+03  0.25500000920E-02 0. -1.
    10030    2    1    2    0    0  0.00000000000E+00  0.00000000000E+00  0.10192658741E+04  0.24180896209E+04  0.21927732424E+04 0.  0.
        5    1    3    3  502    0 -0.83920913951E+03 -0.19351166028E+03 -0.23855363344E+03  0.89367145447E+03  0.46999998093E+01 0. -1.
       -5    1    3    3    0  502  0.83920913951E+03  0.19351166028E+03  0.12578195076E+04  0.15244181664E+04  0.46999998093E+01 0.  1.
</event>
<event>
 5   0  0.1007682E-05  0.2165195E+04  0.7818609E-02  0.8533056E-01
        1   -1    0    0  501    0  0.00000000000E+00  0.00000000000E+00  0.20699551616E+04  0.20699551616E+04  0.50400001928E-02 0. -1.
       -1   -1    0    0    0  501  0.00000000000E+00  0.00000000000E+00 -0.56620443512E+03  0.56620443515E+03  0.50400001928E-02 0.  1.
    10030    2    1    2    0    0  0.00000000000E+00  0.00000000000E+00  0.15037507265E+04  0.26361595968E+04  0.21651954120E+04 0.  0.
        2    1    3    3  502    0 -0.40749712653E+03 -0.83224026389E+01  0.19729742760E+04  0.20146341267E+04  0.25500000920E-02 0. -1.
       -2    1    3    3    0  502  0.40749712653E+03  0.83224026389E+01 -0.46922354954E+03  0.62152547008E+03  0.25500000920E-02 0.  1.
</event>
<event>
 5   0  0.8003875E-06  0.2196792E+04  0.7818609E-02  0.8519765E-01
        4   -1    0    0  501    0  0.00000000000E+00  0.00000000000E+00  0.16771498561E+04  0.16771503370E+04  0.12699999809E+01 0.  1.
       -4   -1    0    0    0  501  0.00000000000E+00  0.00000000000E+00 -0.71935841540E+03  0.71935953647E+03  0.12699999809E+01 0. -1.
    10030    2    1    2    0    0  0.00000000000E+00  0.00000000000E+00  0.95779144071E+03  0.23965098734E+04  0.21967920087E+04 0.  0.
        5    1    3    3  502    0  0.23117780911E+03 -0.67684102282E+03 -0.43049348672E+03  0.83480757166E+03  0.46999998093E+01 0. -1.
       -5    1    3    3    0  502 -0.23117780911E+03  0.67684102282E+03  0.13882849274E+04  0.15617023018E+04  0.46999998093E+01 0.  1.
</event>
<event>
 5   0  0.1049198E-05  0.2205245E+04  0.7818609E-02  0.8516248E-01
        1   -1    0    0  501    0  0.00000000000E+00  0.00000000000E+00  0.84967461122E+03  0.84967461123E+03  0.50400001928E-02 0.  1.
       -1   -1    0    0    0  501  0.00000000000E+00  0.00000000000E+00 -0.14308729850E+04  0.14308729850E+04  0.50400001928E-02 0. -1.
    10030    2    1    2    0    0  0.00000000000E+00  0.00000000000E+00 -0.58119837379E+03  0.22805475963E+04  0.22052450633E+04 0.  0.
        1    1    3    3  502    0 -0.70789500760E+03  0.84468310659E+03 -0.32599595459E+03  0.11492946771E+04  0.50400001928E-02 0. -1.
       -1    1    3    3    0  502  0.70789500760E+03 -0.84468310659E+03 -0.25520241920E+03  0.11312529192E+04  0.50400001928E-02 0.  1.
</event>
<event>
 5   0  0.1007682E-05  0.2105591E+04  0.7818609E-02  0.8558785E-01
        1   -1    0    0  501    0  0.00000000000E+00  0.00000000000E+00  0.16480835662E+04  0.16480835662E+04  0.50400001928E-02 0. -1.
       -1   -1    0    0    0  501  0.00000000000E+00  0.00000000000E+00 -0.67252544919E+03  0.67252544921E+03  0.50400001928E-02 0.  1.
    10030    2    1    2    0    0  0.00000000000E+00  0.00000000000E+00  0.97555811698E+03  0.23206090154E+04  0.21055907871E+04 0.  0.
        2    1    3    3  502    0 -0.54612791381E+03 -0.36037587671E+03  0.13967768157E+04  0.15424370145E+04  0.25500000920E-02 0. -1.
       -2    1    3    3    0  502  0.54612791381E+03  0.36037587671E+03 -0.42121869875E+03  0.77817200087E+03  0.25500000920E-02 0.  1.
</event>
<event>
 5   0  0.2229552E-05  0.2205752E+04  0.7818609E-02  0.8516038E-01
        2   -1    0    0  501    0  0.00000000000E+00  0.00000000000E+00  0.55771061616E+03  0.55771061617E+03  0.25500000920E-02 0.  1.
       -2   -1    0    0    0  501  0.00000000000E+00  0.00000000000E+00 -0.21809430619E+04  0.21809430619E+04  0.25500000920E-02 0. -1.
    10030    2    1    2    0    0  0.00000000000E+00  0.00000000000E+00 -0.16232324457E+04  0.27386536781E+04  0.22057516622E+04 0.  0.
        1    1    3    3  502    0  0.74195460704E+03 -0.40004558380E+03  0.71404240496E+02  0.84595016024E+03  0.50400001928E-02 0.  1.
       -1    1    3    3    0  502 -0.74195460704E+03  0.40004558380E+03 -0.16946366862E+04  0.18927035178E+04  0.50400001928E-02 0. -1.
</event>
<event>
 5   0  0.2229552E-05  0.2199102E+04  0.7818609E-02  0.8518802E-01
        2   -1    0    0  501    0  0.00000000000E+00  0.00000000000E+00  0.94705666550E+03  0.94705666550E+03  0.25500000920E-02 0. -1.
       -2   -1    0    0    0  501  0.00000000000E+00  0.00000000000E+00 -0.12765993426E+04  0.12765993426E+04  0.25500000920E-02 0.  1.
    10030    2    1    2    0    0  0.00000000000E+00  0.00000000000E+00 -0.32954267708E+03  0.22236560081E+04  0.21991015589E+04 0.  0.
        1    1    3    3  502    0 -0.42924719808E+03 -0.33219743337E+02 -0.11878267762E+04  0.12634433737E+04  0.50400001928E-02 0.  1.
       -1    1    3    3    0  502  0.42924719808E+03  0.33219743337E+02  0.85828409908E+03  0.96021263436E+03  0.50400001928E-02 0. -1.
</event>
<event>
 5   0  0.8003875E-06  0.2183334E+04  0.7818609E-02  0.8525397E-01
        3   -1    0    0  501    0  0.00000000000E+00  0.00000000000E+00  0.17967887486E+04  0.17967887514E+04  0.10100000352E+00 0.  1.
       -3   -1    0    0    0  501  0.00000000000E+00  0.00000000000E+00 -0.66325904967E+03  0.66325905736E+03  0.10100000352E+00 0. -1.
    10030    2    1    2    0    0  0.00000000000E+00  0.00000000000E+00  0.11335296989E+04  0.24600478088E+04  0.21833336079E+04 0.  0.
        5    1    3    3  502    0  0.10375997338E+04  0.26831362643E+03  0.80070618997E+03  0.13378183368E+04  0.46999998093E+01 0.  1.
       -5    1    3    3    0  502 -0.10375997338E+04 -0.26831362643E+03  0.33282350897E+03  0.11222294720E+04  0.46999998093E+01 0. -1.
</event>
<event>
 5   0  0.1071208E-05  0.2210246E+04  0.7818609E-02  0.8514176E-01
       -1   -1    0    0    0  501  0.00000000000E+00  0.00000000000E+00  0.74756107023E+03  0.74756107025E+03  0.50400001928E-02 0. -1.
        1   -1    0    0  501    0  0.00000000000E+00  0.00000000000E+00 -0.16337078668E+04  0.16337078668E+04  0.50400001928E-02 0.  1.
    10030    2    1    2    0    0  0.00000000000E+00  0.00000000000E+00 -0.88614679656E+03  0.23812689370E+04  0.22102455985E+04 0.  0.
        4    1    3    3  502    0  0.73327815358E+02  0.85469237552E+01  0.74490071691E+03  0.74855107332E+03  0.12699999809E+01 0. -1.
       -4    1    3    3    0  502 -0.73327815358E+02 -0.85469237552E+01 -0.16310475135E+04  0.16327178637E+04  0.12699999809E+01 0.  1.
</event>
<event>
 5   0  0.2289708E-05  0.2206583E+04  0.7818609E-02  0.8515693E-01
       -2   -1    0    0    0  501  0.00000000000E+00  0.00000000000E+00  0.61025457740E+03  0.61025457741E+03  0.25500000920E-02 0.  1.
        2   -1    0    0  501    0  0.00000000000E+00  0.00000000000E+00 -0.19946636162E+04  0.19946636162E+04  0.25500000920E-02 0. -1.
    10030    2    1    2    0    0  0.00000000000E+00  0.00000000000E+00 -0.13844090388E+04  0.26049181936E+04  0.22065834244E+04 0.  0.
        5    1    3    3  502    0 -0.52809441877E+03 -0.87179513445E+03 -0.19369458814E+03  0.10375211588E+04  0.46999998093E+01 0.  1.
       -5    1    3    3    0  502  0.52809441877E+03  0.87179513445E+03 -0.11907144507E+04  0.15673970348E+04  0.46999998093E+01 0. -1.
</event>
<event>
 5   0  0.1033733E-05  0.2201642E+04  0.7818609E-02  0.8517745E-01
        1   -1    0    0  501    0  0.00000000000E+00  0.00000000000E+00  0.66424460392E+03  0.66424460394E+03  0.50400001928E-02 0. -1.
       -1   -1    0    0    0  501  0.00000000000E+00  0.00000000000E+00 -0.18243384475E+04  0.18243384475E+04  0.50400001928E-02 0.  1.
    10030    2    1    2    0    0  0.00000000000E+00  0.00000000000E+00 -0.11600938436E+04  0.24885830515E+04  0.22016420867E+04 0.  0.
        5    1    3    3  502    0  0.69540356493E+03 -0.36105947677E+03  0.29392206537E+03  0.83687653474E+03  0.46999998093E+01 0. -1.
       -5    1    3    3    0  502 -0.69540356493E+03  0.36105947677E+03 -0.14540159090E+04  0.16517065167E+04  0.46999998093E+01 0.  1.
</event>
<event>
 5   0  0.1007682E-05  0.2211090E+04  0.7818609E-02  0.8513826E-01
        1   -1    0    0  501    0  0.00000000000E+00  0.00000000000E+00  0.82994330546E+03  0.82994330548E+03  0.50400001928E-02 0.  1.
       -1   -1    0    0    0  501  0.00000000000E+00  0.00000000000E+00 -0.14726669640E+04  0.14726669641E+04  0.50400001928E-02 0. -1.
    10030    2    1    2    0    0  0.00000000000E+00  0.00000000000E+00 -0.64272365858E+03  0.23026102695E+04  0.22110903084E+04 0.  0.
        2    1    3    3  502    0  0.93330749150E+03  0.48295880375E+03 -0.67896719256E+03  0.12511229070E+04  0.25500000920E-02 0. -1.
       -2    1    3    3    0  502 -0.93330749150E+03 -0.48295880375E+03  0.36243533974E+02  0.10514873625E+04  0.25500000920E-02 0.  1.
</event>
<event>
 5   0  0.2289708E-05  0.2201858E+04  0.7818609E-02  0.8517655E-01
        2   -1    0    0  501    0  0.00000000000E+00  0.00000000000E+00  0.10658113667E+04  0.10658113667E+04  0.25500000920E-02 0.  1.
       -2   -1    0    0    0  501  0.00000000000E+00  0.00000000000E+00 -0.11372037397E+04  0.11372037397E+04  0.25500000920E-02 0. -1.
    10030    2    1    2    0    0  0.00000000000E+00  0.00000000000E+00 -0.71392372921E+02  0.22030151064E+04  0.22018580082E+04 0.  0.
        5    1    3    3  502    0 -0.17708130281E+03 -0.91318152522E+03 -0.62487260158E+03  0.11206007960E+04  0.46999998093E+01 0. -1.
       -5    1    3    3    0  502  0.17708130281E+03  0.91318152522E+03  0.55348022866E+03  0.10824143104E+04  0.46999998093E+01 0.  1.
</event>
<event>
 5   0  0.2229552E-05  0.2202691E+04  0.7818609E-02  0.8517309E-01
       -2   -1    0    0    0  501  0.00000000000E+00  0.00000000000E+00  0.11995603178E+04  0.11995603178E+04  0.25500000920E-02 0.  1.
        2   -1    0    0  501    0  0.00000000000E+00  0.00000000000E+00 -0.10111724503E+04  0.10111724503E+04  0.25500000920E-02 0. -1.
    10030    2    1    2    0    0  0.00000000000E+00  0.00000000000E+00  0.18838786747E+03  0.22107327681E+04  0.22026913954E+04 0.  0.
        1    1    3    3  502    0 -0.72983990720E+03  0.71979307594E+03 -0.31000946724E+03  0.10709221410E+04  0.50400001928E-02 0. -1.
       -1    1    3    3    0  502  0.72983990720E+03 -0.71979307594E+03  0.49839733471E+03  0.11398106271E+04  0.50400001928E-02 0.  1.
</event>
<event>
 5   0  0.1007682E-05  0.2197068E+04  0.7818609E-02  0.8519650E-01
        1   -1    0    0  501    0  0.00000000000E+00  0.00000000000E+00  0.64659710409E+03  0.64659710411E+03  0.50400001928E-02 0.  1.
       -1   -1    0    0    0  501  0.00000000000E+00  0.00000000000E+00 -0.18663501445E+04  0.18663501445E+04  0.50400001928E-02 0. -1.
    10030    2    1    2    0    0  0.00000000000E+00  0.00000000000E+00 -0.12197530404E+04  0.25129472487E+04  0.21970676810E+04 0.  0.
        2    1    3    3  502    0  0.97781429128E+02 -0.87820711422E+03  0.13662079160E+03  0.89413320263E+03  0.25500000920E-02 0.  1.
       -2    1    3    3    0  502 -0.97781429128E+02  0.87820711422E+03 -0.13563738320E+04  0.16188140460E+04  0.25500000920E-02 0. -1.
</event>
<event>
 5   0  0.1033733E-05  0.2203011E+04  0.7818609E-02  0.8517176E-01
        1   -1    0    0  501    0  0.00000000000E+00  0.00000000000E+00  0.18915660140E+04  0.18915660140E+04  0.50400001928E-02 0. -1.
       -1   -1    0    0    0  501  0.00000000000E+00  0.00000000000E+00 -0.64143382116E+03  0.64143382118E+03  0.50400001928E-02 0.  1.
    10030    2    1    2    0    0  0.00000000000E+00  0.00000000000E+00  0.12501321928E+04  0.25329998352E+04  0.22030110452E+04 0.  0.
        5    1    3    3  502    0 -0.55459280360E+02 -0.15826699912E+03 -0.62665759768E+03  0.64872645200E+03  0.46999998093E+01 0.  1.
       -5    1    3    3    0  502  0.55459280360E+02  0.15826699912E+03  0.18767897905E+04  0.18842733832E+04  0.46999998093E+01 0. -1.
</event>
<event>
 5   0  0.1005538E-05  0.2200205E+04  0.7818609E-02  0.8518343E-01
       -1   -1    0    0    0  501  0.00000000000E+00  0.00000000000E+00  0.76452014190E+03  0.76452014192E+03  0.50400001928E-02 0.  1.
        1   -1    0    0  501    0  0.00000000000E+00  0.00000000000E+00 -0.15829874691E+04  0.15829874691E+04  0.50400001928E-02 0. -1.
    10030    2    1    2    0    0  0.00000000000E+00  0.00000000000E+00 -0.81846732716E+03  0.23475076110E+04  0.22002052672E+04 0.  0.
        3    1    3    3  502    0  0.10559519337E+03 -0.57506705551E+03  0.58501965119E+03  0.82710366078E+03  0.10100000352E+00 0.  1.
       -3    1    3    3    0  502 -0.10559519337E+03  0.57506705551E+03 -0.14034869784E+04  0.15204039502E+04  0.10100000352E+00 0. -1.
</event>
<event>
 5   0  0.1005538E-05  0.2198364E+04  0.7818609E-02  0.8519110E-01
       -1   -1    0    0    0  501  0.00000000000E+00  0.00000000000E+00  0.71524250559E+03  0.71524250561E+03  0.50400001928E-02 0.  1.
        1   -1    0    0  501    0  0.00000000000E+00  0.00000000000E+00 -0.16892181236E+04  0.16892181236E+04  0.50400001928E-02 0. -1.
    10030    2    1    2    0    0  0.00000000000E+00  0.00000000000E+00 -0.97397561798E+03  0.24044606292E+04  0.21983635761E+04 0.  0.
        3    1    3    3  502    0  0.47615688728E+03 -0.41887438401E+02  0.59561533113E+03  0.76369992253E+03  0.10100000352E+00 0.  1.
       -3    1    3    3    0  502 -0.47615688728E+03  0.41887438401E+02 -0.15695909491E+04  0.16407607067E+04  0.10100000352E+00 0. -1.
</event>
<event>
 5   0  0.1033733E-05  0.2202085E+04  0.7818609E-02  0.8517561E-01
       -1   -1    0    0    0  501  0.00000000000E+00  0.00000000000E+00  0.61960051645E+03  0.61960051647E+03  0.50400001928E-02 0. -1.
        1   -1    0    0  501    0  0.00000000000E+00  0.00000000000E+00 -0.19565753228E+04  0.19565753228E+04  0.50400001928E-02 0.  1.
    10030    2    1    2    0    0  0.00000000000E+00  0.00000000000E+00 -0.13369748064E+04  0.25761758393E+04  0.22020854484E+04 0.  0.
        5    1    3    3  502    0  0.42540832916E+03 -0.65944804627E+03 -0.15719719284E+04  0.17569751865E+04  0.46999998093E+01 0.  1.
       -5    1    3    3    0  502 -0.42540832916E+03  0.65944804627E+03  0.23499712202E+03  0.81920065283E+03  0.46999998093E+01 0. -1.
</event>
<event>
 5   0  0.1071208E-05  0.2204458E+04  0.7818609E-02  0.8516575E-01
        1   -1    0    0  501    0  0.00000000000E+00  0.00000000000E+00  0.21236113216E+04  0.21236113216E+04  0.50400001928E-02 0.  1.
       -1   -1    0    0    0  501  0.00000000000E+00  0.00000000000E+00 -0.57209548576E+03  0.57209548578E+03  0.50400001928E-02 0. -1.
    10030    2    1    2    0    0  0.00000000000E+00  0.00000000000E+00  0.15515158358E+04  0.26957068074E+04  0.22044577117E+04 0.  0.
        4    1    3    3  502    0  0.99604350321E+03 -0.41692530215E+03  0.50513220593E+03  0.11920945962E+04  0.12699999809E+01 0. -1.
       -4    1    3    3    0  502 -0.99604350321E+03  0.41692530215E+03  0.10463836299E+04  0.15036122112E+04  0.12699999809E+01 0.  1.
</event>
<event>
 5   0  0.1033733E-05  0.2208220E+04  0.7818609E-02  0.8515015E-01
       -1   -1    0    0    0  501  0.00000000000E+00  0.00000000000E+00  0.72383410267E+03  0.72383410269E+03  0.50400001928E-02 0. -1.
        1   -1    0    0  501    0  0.00000000000E+00  0.00000000000E+00 -0.16841689462E+04  0.16841689462E+04  0.50400001928E-02 0.  1.
    10030    2    1    2    0    0  0.00000000000E+00  0.00000000000E+00 -0.96033484356E+03  0.24080030489E+04  0.22082200234E+04 0.  0.
        5    1    3    3  502    0  0.98274072513E+03  0.30592703524E+03 -0.44433764104E+02  0.10302267387E+04  0.46999998093E+01 0. -1.
       -5    1    3    3    0  502 -0.98274072513E+03 -0.30592703524E+03 -0.91590107945E+03  0.13777763102E+04  0.46999998093E+01 0.  1.
</event>
<event>
 5   0  0.2298329E-05  0.2199378E+04  0.7818609E-02  0.8518687E-01
        2   -1    0    0  501    0  0.00000000000E+00  0.00000000000E+00  0.17485386056E+04  0.17485386056E+04  0.25500000920E-02 0.  1.
       -2   -1    0    0    0  501  0.00000000000E+00  0.00000000000E+00 -0.69161526976E+03  0.69161526977E+03  0.25500000920E-02 0. -1.
    10030    2    1    2    0    0  0.00000000000E+00  0.00000000000E+00  0.10569233358E+04  0.24401538754E+04  0.21993780934E+04 0.  0.
        4    1    3    3  502    0  0.57105916489E+03 -0.28296080623E+03  0.15227507626E+04  0.16507413140E+04  0.12699999809E+01 0.  1.
       -4    1    3    3    0  502 -0.57105916489E+03  0.28296080623E+03 -0.46582742678E+03  0.78941256141E+03  0.12699999809E+01 0. -1.
</event>
<event>
 5   0  0.1033733E-05  0.2200220E+04  0.7818609E-02  0.8518336E-01
        1   -1    0    0  501    0  0.00000000000E+00  0.00000000000E+00  0.10680114559E+04  0.10680114559E+04  0.50400001928E-02 0. -1.
       -1   -1    0    0    0  501  0.00000000000E+00  0.00000000000E+00 -0.11331734114E+04  0.11331734115E+04  0.50400001928E-02 0.  1.
    10030    2    1    2    0    0  0.00000000000E+00  0.00000000000E+00 -0.65161955560E+02  0.22011848674E+04  0.22002201571E+04 0.  0.
        5    1    3    3  502    0 -0.57498711330E+03 -0.48784603125E+02 -0.96959720364E+03  0.11283310442E+04  0.46999998093E+01 0.  1.
       -5    1    3    3    0  502  0.57498711330E+03  0.48784603125E+02  0.90443524808E+03  0.10728538232E+04  0.46999998093E+01 0. -1.
</event>
<event>
 5   0  0.2319707E-05  0.2205385E+04  0.7818609E-02  0.8516190E-01
       -2   -1    0    0    0  501  0.00000000000E+00  0.00000000000E+00  0.86990679393E+03  0.86990679394E+03  0.25500000920E-02 0.  1.
        2   -1    0    0  501    0  0.00000000000E+00  0.00000000000E+00 -0.13977707655E+04  0.13977707655E+04  0.25500000920E-02 0. -1.
    10030    2    1    2    0    0  0.00000000000E+00  0.00000000000E+00 -0.52786397153E+03  0.22676775594E+04  0.22053845789E+04 0.  0.
        3    1    3    3  502    0 -0.12925293566E+03  0.30425308202E+02 -0.13895199283E+04  0.13958501575E+04  0.10100000352E+00 0. -1.
       -3    1    3    3    0  502  0.12925293566E+03 -0.30425308202E+02  0.86165595676E+03  0.87182740194E+03  0.10100000352E+00 0.  1.
</event>
<event>
 5   0  0.2319707E-05  0.2203015E+04  0.7818609E-02  0.8517174E-01
       -2   -1    0    0    0  501  0.00000000000E+00  0.00000000000E+00  0.99121466525E+03  0.99121466526E+03  0.25500000920E-02 0.  1.
        2   -1    0    0  501    0  0.00000000000E+00  0.00000000000E+00 -0.12240722390E+04  0.12240722390E+04  0.25500000920E-02 0. -1.
    10030    2    1    2    0    0  0.00000000000E+00  0.00000000000E+00 -0.23285757379E+03  0.22152869043E+04  0.22030146206E+04 0.  0.
        3    1    3    3  502    0 -0.35912331843E+03  0.10287244815E+04 -0.27880503159E+03  0.11247114619E+04  0.10100000352E+00 0. -1.
       -3    1    3    3    0  502  0.35912331843E+03 -0.10287244815E+04  0.45947457807E+02  0.10905754424E+04  0.10100000352E+00 0.  1.
</event>
<event>
 5   0  0.8003875E-06  0.2127529E+04  0.7818609E-02  0.8549212E-01
       -4   -1    0    0    0  501  0.00000000000E+00  0.00000000000E+00  0.82310800819E+03  0.82310898795E+03  0.12699999809E+01 0. -1.
        4   -1    0    0  501    0  0.00000000000E+00  0.00000000000E+00 -0.13747815440E+04  0.13747821306E+04  0.12699999809E+01 0.  1.
    10030    2    1    2    0    0  0.00000000000E+00  0.00000000000E+00 -0.55167353579E+03  0.21978911185E+04  0.21275294778E+04 0.  0.
        5    1    3    3  502    0  0.27015598266E+03 -0.47227973119E+03  0.66847293605E+03  0.86192259263E+03  0.46999998093E+01 0. -1.
       -5    1    3    3    0  502 -0.27015598266E+03  0.47227973119E+03 -0.12201464718E+04  0.13359685259E+04  0.46999998093E+01 0.  1.
</event>
<event>
 5   0  0.2289708E-05  0.2194770E+04  0.7818609E-02  0.8520608E-01
       -2   -1    0    0    0  501  0.00000000000E+00  0.00000000000E+00  0.86594609126E+03  0.86594609127E+03  0.25500000920E-02 0.  1.
        2   -1    0    0  501    0  0.00000000000E+00  0.00000000000E+00 -0.13906800875E+04  0.13906800875E+04  0.25500000920E-02 0. -1.
    10030    2    1    2    0    0  0.00000000000E+00  0.00000000000E+00 -0.52473399621E+03  0.22566261787E+04  0.21947701346E+04 0.  0.
        5    1    3    3  502    0 -0.38253524303E+02  0.10407083778E+04 -0.61808670417E+03  0.12110287047E+04  0.46999998093E+01 0.  1.
       -5    1    3    3    0  502  0.38253524303E+02 -0.10407083778E+04  0.93352707966E+02  0.10455974741E+04  0.46999998093E+01 0. -1.
</event>
<event>
 5   0  0.1033733E-05  0.2190829E+04  0.7818609E-02  0.8522255E-01
        1   -1    0    0  501    0  0.00000000000E+00  0.00000000000E+00  0.98504597247E+03  0.98504597248E+03  0.50400001928E-02 0. -1.
       -1   -1    0    0    0  501  0.00000000000E+00  0.00000000000E+00 -0.12181495442E+04  0.12181495442E+04  0.50400001928E-02 0.  1.
    10030    2    1    2    0    0  0.00000000000E+00  0.00000000000E+00 -0.23310357174E+03  0.22031955167E+04  0.21908293429E+04 0.  0.
        5    1    3    3  502    0 -0.83977264646E+03  0.45399100681E+03  0.42368179697E+03  0.10444397001E+04  0.46999998093E+01 0. -1.
       -5    1    3    3    0  502  0.83977264646E+03 -0.45399100681E+03 -0.65678536871E+03  0.11587558166E+04  0.46999998093E+01 0.  1.
</event>
<event>
 5   0  0.1007682E-05  0.2207389E+04  0.7818609E-02  0.8515359E-01
       -1   -1    0    0    0  501  0.00000000000E+00  0.00000000000E+00  0.96055025077E+03  0.96055025078E+03  0.50400001928E-02 0. -1.
        1   -1    0    0  501    0  0.00000000000E+00  0.00000000000E+00 -0.12681703732E+04  0.12681703732E+04  0.50400001928E-02 0.  1.
    10030    2    1    2    0    0  0.00000000000E+00  0.00000000000E+00 -0.30762012245E+03  0.22287206240E+04  0.22073888376E+04 0.  0.
        2    1    3    3  502    0 -0.57363928830E+03  0.35928680236E+02 -0.11051408213E+04  0.12456681492E+04  0.25500000920E-02 0.  1.
       -2    1    3    3    0  502  0.57363928830E+03 -0.35928680236E+02  0.79752069881E+03  0.98305247479E+03  0.25500000920E-02 0. -1.
</event>
<event>
 5   0  0.2289708E-05  0.2190094E+04  0.7818609E-02  0.8522562E-01
       -2   -1    0    0    0  501  0.00000000000E+00  0.00000000000E+00  0.69742588425E+03  0.69742588426E+03  0.25500000920E-02 0. -1.
        2   -1    0    0  501    0  0.00000000000E+00  0.00000000000E+00 -0.17193632086E+04  0.17193632086E+04  0.25500000920E-02 0.  1.
    10030    2    1    2    0    0  0.00000000000E+00  0.00000000000E+00 -0.10219373243E+04  0.24167890928E+04  0.21900944328E+04 0.  0.
        5    1    3    3  502    0  0.71117406322E+03 -0.20180078184E+03 -0.14024334114E+04  0.15853496987E+04  0.46999998093E+01 0.  1.
       -5    1    3    3    0  502 -0.71117406322E+03  0.20180078184E+03  0.38049608712E+03  0.83143939410E+03  0.46999998093E+01 0. -1.
</event>
<event>
 5   0  0.2229552E-05  0.2237193E+04  0.7818609E-02  0.8503105E-01
       -2   -1    0    0    0  501  0.00000000000E+00  0.00000000000E+00  0.12549118114E+04  0.12549118114E+04  0.25500000920E-02 0. -1.
        2   -1    0    0  501    0  0.00000000000E+00  0.00000000000E+00 -0.99708865418E+03  0.99708865418E+03  0.25500000920E-02 0.  1.
    10030    2    1    2    0    0  0.00000000000E+00  0.00000000000E+00  0.25782315723E+03  0.22520004656E+04  0.22371931782E+04 0.  0.
        1    1    3    3  502    0 -0.88510836308E+03  0.56021390313E+03 -0.26611655378E+03  0.10807749312E+04  0.50400001928E-02 0.  1.
       -1    1    3    3    0  502  0.88510836308E+03 -0.56021390313E+03  0.52393971100E+03  0.11712255344E+04  0.50400001928E-02 0. -1.
</event>
<event>
 5   0  0.1007682E-05  0.2196424E+04  0.7818609E-02  0.8519918E-01
        1   -1    0    0  501    0  0.00000000000E+00  0.00000000000E+00  0.22886832391E+04  0.22886832391E+04  0.50400001928E-02 0. -1.
       -1   -1    0    0    0  501  0.00000000000E+00  0.00000000000E+00 -0.52697096884E+03  0.52697096886E+03  0.50400001928E-02 0.  1.
    10030    2    1    2    0    0  0.00000000000E+00  0.00000000000E+00  0.17617122703E+04  0.28156542080E+04  0.21964240246E+04 0.  0.
        2    1    3    3  502    0  0.42311829401E+02 -0.44345150953E+03 -0.40595170057E+03  0.60269089541E+03  0.25500000920E-02 0.  1.
       -2    1    3    3    0  502 -0.42311829401E+02  0.44345150953E+03  0.21676639708E+04  0.22129633126E+04  0.25500000920E-02 0. -1.
</event>
<event>
 5   0  0.2229552E-05  0.2204879E+04  0.7818609E-02  0.8516400E-01
       -2   -1    0    0    0  501  0.00000000000E+00  0.00000000000E+00  0.45976371426E+03  0.45976371426E+03  0.25500000920E-02 0. -1.
        2   -1    0    0  501    0  0.00000000000E+00  0.00000000000E+00 -0.26434720430E+04  0.26434720430E+04  0.25500000920E-02 0.  1.
    10030    2    1    2    0    0  0.00000000000E+00  0.00000000000E+00 -0.21837083287E+04  0.31032357572E+04  0.22048787042E+04 0.  0.
        1    1    3    3  502    0  0.88695480466E+03 -0.41887299248E+03 -0.38360366872E+03  0.10532308313E+04  0.50400001928E-02 0. -1.
       -1    1    3    3    0  502 -0.88695480466E+03  0.41887299248E+03 -0.18001046600E+04  0.20500049259E+04  0.50400001928E-02 0.  1.
</event>
<event>
 5   0  0.1071208E-05  0.2193600E+04  0.7818609E-02  0.8521097E-01
       -1   -1    0    0    0  501  0.00000000000E+00  0.00000000000E+00  0.64045082889E+03  0.64045082891E+03  0.50400001928E-02 0. -1.
        1   -1    0    0  501    0  0.00000000000E+00  0.00000000000E+00 -0.18783177517E+04  0.18783177517E+04  0.50400001928E-02 0.  1.
    10030    2    1    2    0    0  0.00000000000E+00  0.00000000000E+00 -0.12378669228E+04  0.25187685806E+04  0.21935999280E+04 0.  0.
        4    1    3    3  502    0  0.59324476500E+03 -0.38831120787E+03 -0.15797830731E+04  0.17316007382E+04  0.12699999809E+01 0.  1.
       -4    1    3    3    0  502 -0.59324476500E+03  0.38831120787E+03  0.34191615036E+03  0.78716784241E+03  0.12699999809E+01 0. -1.
</event>
<event>
 5   0  0.2319707E-05  0.2171665E+04  0.7818609E-02  0.8530315E-01
        2   -1    0    0  501    0  0.00000000000E+00  0.00000000000E+00  0.17703839325E+04  0.17703839325E+04  0.25500000920E-02 0. -1.
       -2   -1    0    0    0  501  0.00000000000E+00  0.00000000000E+00 -0.66597567347E+03  0.66597567347E+03  0.25500000920E-02 0.  1.
    10030    2    1    2    0    0  0.00000000000E+00  0.00000000000E+00  0.11044082590E+04  0.24363596059E+04  0.21716653810E+04 0.  0.
        3    1    3    3  502    0 -0.10836274971E+04 -0.20797450740E+02  0.62621060570E+03  0.12517271345E+04  0.10100000352E+00 0. -1.
       -3    1    3    3    0  502  0.10836274971E+04  0.20797450740E+02  0.47819765328E+03  0.11846324714E+04  0.10100000352E+00 0.  1.
</event>
<event>
 5   0  0.1071208E-05  0.2208572E+04  0.7818609E-02  0.8514869E-01
        1   -1    0    0  501    0  0.00000000000E+00  0.00000000000E+00  0.93256394395E+03  0.93256394396E+03  0.50400001928E-02 0. -1.
       -1   -1    0    0    0  501  0.00000000000E+00  0.00000000000E+00 -0.13076289259E+04  0.13076289259E+04  0.50400001928E-02 0.  1.
    10030    2    1    2    0    0  0.00000000000E+00  0.00000000000E+00 -0.37506498190E+03  0.22401928698E+04  0.22085720168E+04 0.  0.
        4    1    3    3  502    0 -0.68332854772E+03 -0.77242442372E+03  0.21292197019E+03  0.10530502233E+04  0.12699999809E+01 0. -1.
       -4    1    3    3    0  502  0.68332854772E+03  0.77242442372E+03 -0.58798695209E+03  0.11871426465E+04  0.12699999809E+01 0.  1.
</event>
<event>
 5   0  0.2319707E-05  0.2201187E+04  0.7818609E-02  0.8517934E-01
        2   -1    0    0  501    0  0.00000000000E+00  0.00000000000E+00  0.94002269431E+03  0.94002269431E+03  0.25500000920E-02 0. -1.
       -2   -1    0    0    0  501  0.00000000000E+00  0.00000000000E+00 -0.12885922363E+04  0.12885922363E+04  0.25500000920E-02 0.  1.
    10030    2    1    2    0    0  0.00000000000E+00  0.00000000000E+00 -0.34856954195E+03  0.22286149306E+04  0.22011869033E+04 0.  0.
        3    1    3    3  502    0  0.28315458364E+03  0.93046900268E+03 -0.69583155178E+03  0.11958806972E+04  0.10100000352E+00 0.  1.
       -3    1    3    3    0  502 -0.28315458364E+03 -0.93046900268E+03  0.34726200984E+03  0.10327342334E+04  0.10100000352E+00 0. -1.
</event>
<event>
 5   0  0.2298329E-05  0.2178422E+04  0.7818609E-02  0.8527463E-01
        2   -1    0    0  501    0  0.00000000000E+00  0.00000000000E+00  0.15002767340E+04  0.15002767340E+04  0.25500000920E-02 0. -1.
       -2   -1    0    0    0  501  0.00000000000E+00  0.00000000000E+00 -0.79077445129E+03  0.79077445129E+03  0.25500000920E-02 0.  1.
    10030    2    1    2    0    0  0.00000000000E+00  0.00000000000E+00  0.70950228271E+03  0.22910511853E+04  0.21784219161E+04 0.  0.
        4    1    3    3  502    0 -0.59996512715E+03 -0.74878907225E+01  0.13107968725E+04  0.14415978205E+04  0.12699999809E+01 0. -1.
       -4    1    3    3    0  502  0.59996512715E+03  0.74878907225E+01 -0.60129458979E+03  0.84945336476E+03  0.12699999809E+01 0.  1.
</event>
<event>
 5   0  0.2284329E-05  0.2112605E+04  0.7818609E-02  0.8555711E-01
       -2   -1    0    0    0  501  0.00000000000E+00  0.00000000000E+00  0.60833152986E+03  0.60833152986E+03  0.25500000920E-02 0. -1.
        2   -1    0    0  501    0  0.00000000000E+00  0.00000000000E+00 -0.18341553697E+04  0.18341553697E+04  0.25500000920E-02 0.  1.
    10030    2    1    2    0    0  0.00000000000E+00  0.00000000000E+00 -0.12258238398E+04  0.24424868995E+04  0.21126045934E+04 0.  0.
        2    1    3    3  502    0  0.89004401309E+03  0.55222639696E+03 -0.77076848303E+03  0.13004677594E+04  0.25500000920E-02 0.  1.
       -2    1    3    3    0  502 -0.89004401309E+03 -0.55222639696E+03 -0.45505535677E+03  0.11420191402E+04  0.25500000920E-02 0. -1.
</event>
<event>
 5   0  0.2284329E-05  0.2182532E+04  0.7818609E-02  0.8525734E-01
        2   -1    0    0  501    0  0.00000000000E+00  0.00000000000E+00  0.14037796173E+04  0.14037796173E+04  0.25500000920E-02 0. -1.
       -2   -1    0    0    0  501  0.00000000000E+00  0.00000000000E+00 -0.84832518022E+03  0.84832518022E+03  0.25500000920E-02 0.  1.
    10030    2    1    2    0    0  0.00000000000E+00  0.00000000000E+00  0.55545443712E+03  0.22521047976E+04  0.21825321046E+04 0.  0.
        2    1    3    3  502    0 -0.43295918935E+03  0.74213800285E+02  0.13085203605E+04  0.13802850726E+04  0.25500000920E-02 0. -1.
       -2    1    3    3    0  502  0.43295918935E+03 -0.74213800285E+02 -0.75306592340E+03  0.87181972494E+03  0.25500000920E-02 0.  1.
</event>
<event>
 5   0  0.1071208E-05  0.2180065E+04  0.7818609E-02  0.8526772E-01
       -1   -1    0    0    0  501  0.00000000000E+00  0.00000000000E+00  0.10670057565E+04  0.10670057565E+04  0.50400001928E-02 0. -1.
        1   -1    0    0  501    0  0.00000000000E+00  0.00000000000E+00 -0.11135559623E+04  0.11135559623E+04  0.50400001928E-02 0.  1.
    10030    2    1    2    0    0  0.00000000000E+00  0.00000000000E+00 -0.46550205802E+02  0.21805617189E+04  0.21800647899E+04 0.  0.
        4    1    3    3  502    0 -0.10464275196E+04 -0.30520006680E+03 -0.19901692555E+02  0.10902088445E+04  0.12699999809E+01 0. -1.
       -4    1    3    3    0  502  0.10464275196E+04  0.30520006680E+03 -0.26648513247E+02  0.10903528744E+04  0.12699999809E+01 0.  1.
</event>
<event>
 5   0  0.2284329E-05  0.2196317E+04  0.7818609E-02  0.8519963E-01
        2   -1    0    0  501    0  0.00000000000E+00  0.00000000000E+00  0.78779896572E+03  0.78779896572E+03  0.25500000920E-02 0.  1.
       -2   -1    0    0    0  501  0.00000000000E+00  0.00000000000E+00 -0.15307864882E+04  0.15307864882E+04  0.25500000920E-02 0. -1.
    10030    2    1    2    0    0  0.00000000000E+00  0.00000000000E+00 -0.74298752249E+03  0.23185854539E+04  0.21963169281E+04 0.  0.
        2    1    3    3  502    0 -0.46048158294E+03  0.29973995309E+03  0.63226153623E+03  0.83764072126E+03  0.25500000920E-02 0.  1.
       -2    1    3    3    0  502  0.46048158294E+03 -0.29973995309E+03 -0.13752490587E+04  0.14809447327E+04  0.25500000920E-02 0. -1.
</event>
<event>
 5   0  0.2289708E-05  0.2205947E+04  0.7818609E-02  0.8515957E-01
        2   -1    0    0  501    0  0.00000000000E+00  0.00000000000E+00  0.87547917942E+03  0.87547917942E+03  0.25500000920E-02 0. -1.
       -2   -1    0    0    0  501  0.00000000000E+00  0.00000000000E+00 -0.13895823331E+04  0.13895823331E+04  0.25500000920E-02 0.  1.
    10030    2    1    2    0    0  0.00000000000E+00  0.00000000000E+00 -0.51410315372E+03  0.22650615126E+04  0.22059468722E+04 0.  0.
        5    1    3    3  502    0  0.10087891154E+04  0.33588480232E+03  0.44159588230E+02  0.10641645733E+04  0.46999998093E+01 0. -1.
       -5    1    3    3    0  502 -0.10087891154E+04 -0.33588480232E+03 -0.55826274194E+03  0.12008969393E+04  0.46999998093E+01 0.  1.
</event>
<event>
 5   0  0.2289708E-05  0.2210125E+04  0.7818609E-02  0.8514225E-01
       -2   -1    0    0    0  501  0.00000000000E+00  0.00000000000E+00  0.12132717533E+04  0.12132717533E+04  0.25500000920E-02 0. -1.
        2   -1    0    0  501    0  0.00000000000E+00  0.00000000000E+00 -0.10065046431E+04  0.10065046431E+04  0.25500000920E-02 0.  1.
    10030    2    1    2    0    0  0.00000000000E+00  0.00000000000E+00  0.20676711017E+03  0.22197763963E+04  0.22101254742E+04 0.  0.
        5    1    3    3  502    0 -0.81796813019E+03  0.28935421638E+03 -0.58396132848E+03  0.10458635894E+04  0.46999998093E+01 0.  1.
       -5    1    3    3    0  502  0.81796813019E+03 -0.28935421638E+03  0.79072843865E+03  0.11739128069E+04  0.46999998093E+01 0. -1.
</event>
<event>
 5   0  0.2319707E-05  0.2190760E+04  0.7818609E-02  0.8522284E-01
       -2   -1    0    0    0  501  0.00000000000E+00  0.00000000000E+00  0.40038810784E+03  0.40038810785E+03  0.25500000920E-02 0. -1.
        2   -1    0    0  501    0  0.00000000000E+00  0.00000000000E+00 -0.29967348067E+04  0.29967348067E+04  0.25500000920E-02 0.  1.
    10030    2    1    2    0    0  0.00000000000E+00  0.00000000000E+00 -0.25963466989E+04  0.33971229145E+04  0.21907596664E+04 0.  0.
        3    1    3    3  502    0 -0.29364991906E+03  0.42664421073E+03 -0.27948624398E+04  0.28424481746E+04  0.10100000352E+00 0.  1.
       -3    1    3    3    0  502  0.29364991906E+03 -0.42664421073E+03  0.19851574097E+03  0.55467473994E+03  0.10100000352E+00 0. -1.
</event>
<event>
 5   0  0.1033733E-05  0.2214844E+04  0.7818609E-02  0.8512275E-01
        1   -1    0    0  501    0  0.00000000000E+00  0.00000000000E+00  0.11338070741E+04  0.11338070741E+04  0.50400001928E-02 0. -1.
       -1   -1    0    0    0  501  0.00000000000E+00  0.00000000000E+00 -0.10816510650E+04  0.10816510650E+04  0.50400001928E-02 0.  1.
    10030    2    1    2    0    0  0.00000000000E+00  0.00000000000E+00  0.52156009143E+02  0.22154581391E+04  0.22148441293E+04 0.  0.
        5    1    3    3  502    0  0.72298010271E+03 -0.83803144729E+03  0.63028787762E+02  0.11085989598E+04  0.46999998093E+01 0.  1.
       -5    1    3    3    0  502 -0.72298010271E+03  0.83803144729E+03 -0.10872778619E+02  0.11068591793E+04  0.46999998093E+01 0. -1.
</event>
<event>
 5   0  0.1049198E-05  0.2204227E+04  0.7818609E-02  0.8516671E-01
        1   -1    0    0  501    0  0.00000000000E+00  0.00000000000E+00  0.16285070221E+04  0.16285070221E+04  0.50400001928E-02 0.  1.
       -1   -1    0    0    0  501  0.00000000000E+00  0.00000000000E+00 -0.74586982364E+03  0.74586982366E+03  0.50400001928E-02 0. -1.
    10030    2    1    2    0    0  0.00000000000E+00  0.00000000000E+00  0.88263719843E+03  0.23743768457E+04  0.22042270712E+04 0.  0.
        1    1    3    3  502    0 -0.65524484302E+03 -0.75175949263E+03  0.94675736440E+03  0.13750773237E+04  0.50400001928E-02 0.  1.
       -1    1    3    3    0  502  0.65524484302E+03  0.75175949263E+03 -0.64120165968E+02  0.99929952205E+03  0.50400001928E-02 0. -1.
</event>
<event>
 5   0  0.2319707E-05  0.2180932E+04  0.7818609E-02  0.8526407E-01
       -2   -1    0    0    0  501  0.00000000000E+00  0.00000000000E+00  0.82290957675E+03  0.82290957675E+03  0.25500000920E-02 0. -1.
        2   -1    0    0  501    0  0.00000000000E+00  0.00000000000E+00 -0.14450144051E+04  0.14450144051E+04  0.25500000920E-02 0.  1.
    10030    2    1    2    0    0  0.00000000000E+00  0.00000000000E+00 -0.62210482833E+03  0.22679239818E+04  0.21809320874E+04 0.  0.
        3    1    3    3  502    0 -0.95255502105E+02  0.84075728018E+03  0.40425848976E+03  0.93774802138E+03  0.10100000352E+00 0. -1.
       -3    1    3    3    0  502  0.95255502105E+02 -0.84075728018E+03 -0.10263633181E+04  0.13301759605E+04  0.10100000352E+00 0.  1.
</event>
<event>
 5   0  0.1007682E-05  0.2207813E+04  0.7818609E-02  0.8515183E-01
        1   -1    0    0  501    0  0.00000000000E+00  0.00000000000E+00  0.17683517857E+04  0.17683517857E+04  0.50400001928E-02 0.  1.
       -1   -1    0    0    0  501  0.00000000000E+00  0.00000000000E+00 -0.68912178938E+03  0.68912178940E+03  0.50400001928E-02 0. -1.
    10030    2    1    2    0    0  0.00000000000E+00  0.00000000000E+00  0.10792299963E+04  0.24574735751E+04  0.22078131686E+04 0.  0.
        2    1    3    3  502    0  0.34495245215E+03 -0.10467657231E+04  0.60911858988E+03  0.12592601518E+04  0.25500000920E-02 0. -1.
       -2    1    3    3    0  502 -0.34495245215E+03  0.10467657231E+04  0.47011140641E+03  0.11982134233E+04  0.25500000920E-02 0.  1.
</event>
<event>
 5   0  0.2298329E-05  0.2195418E+04  0.7818609E-02  0.8520338E-01
        2   -1    0    0  501    0  0.00000000000E+00  0.00000000000E+00  0.12344064586E+04  0.12344064586E+04  0.25500000920E-02 0.  1.
       -2   -1    0    0    0  501  0.00000000000E+00  0.00000000000E+00 -0.97614961681E+03  0.97614961681E+03  0.25500000920E-02 0. -1.
    10030    2    1    2    0    0  0.00000000000E+00  0.00000000000E+00  0.25825684183E+03  0.22105560754E+04  0.21954183124E+04 0.  0.
        4    1    3    3  502    0  0.17371373866E+03 -0.10166533133E+04 -0.24923292669E+03  0.10610744965E+04  0.12699999809E+01 0. -1.
       -4    1    3    3    0  502 -0.17371373866E+03  0.10166533133E+04  0.50748976852E+03  0.11494815790E+04  0.12699999809E+01 0.  1.
</event>
<event>
 5   0  0.1071208E-05  0.2230092E+04  0.7818609E-02  0.8506007E-01
       -1   -1    0    0    0  501  0.00000000000E+00  0.00000000000E+00  0.62560364802E+03  0.62560364804E+03  0.50400001928E-02 0. -1.
        1   -1    0    0  501    0  0.00000000000E+00  0.00000000000E+00 -0.19874041938E+04  0.19874041938E+04  0.50400001928E-02 0.  1.
    10030    2    1    2    0    0  0.00000000000E+00  0.00000000000E+00 -0.13618005457E+04  0.26130078418E+04  0.22300917593E+04 0.  0.
        4    1    3    3  502    0 -0.61391491506E+03  0.31881966337E+03  0.34378045830E+03  0.77247920173E+03  0.12699999809E+01 0. -1.
       -4    1    3    3    0  502  0.61391491506E+03 -0.31881966337E+03 -0.17055810040E+04  0.18405286401E+04  0.12699999809E+01 0.  1.
</event>
<event>
 5   0  0.2298329E-05  0.2223193E+04  0.7818609E-02  0.8508836E-01
       -2   -1    0    0    0  501  0.00000000000E+00  0.00000000000E+00  0.10845756710E+04  0.10845756710E+04  0.25500000920E-02 0.  1.
        2   -1    0    0  501    0  0.00000000000E+00  0.00000000000E+00 -0.11392909453E+04  0.11392909453E+04  0.25500000920E-02 0. -1.
    10030    2    1    2    0    0  0.00000000000E+00  0.00000000000E+00 -0.54715274318E+02  0.22238666162E+04  0.22231934161E+04 0.  0.
        4    1    3    3  502    0  0.37804005150E+03  0.76925364944E+03  0.68065621723E+03  0.10945135708E+04  0.12699999809E+01 0.  1.
       -4    1    3    3    0  502 -0.37804005150E+03 -0.76925364944E+03 -0.73537149155E+03  0.11293530454E+04  0.12699999809E+01 0. -1.
</event>
<event>
 5   0  0.2229552E-05  0.2211034E+04  0.7818609E-02  0.8513850E-01
        2   -1    0    0  501    0  0.00000000000E+00  0.00000000000E+00  0.93447239672E+03  0.93447239672E+03  0.25500000920E-02 0. -1.
       -2   -1    0    0    0  501  0.00000000000E+00  0.00000000000E+00 -0.13078693510E+04  0.13078693510E+04  0.25500000920E-02 0.  1.
    10030    2    1    2    0    0  0.00000000000E+00  0.00000000000E+00 -0.37339695423E+03  0.22423417477E+04  0.22110339726E+04 0.  0.
        1    1    3    3  502    0  0.63510223574E+03  0.60824829834E+02 -0.11023186998E+04  0.12736408543E+04  0.50400001928E-02 0.  1.
       -1    1    3    3    0  502 -0.63510223574E+03 -0.60824829834E+02  0.72892174554E+03  0.96870089342E+03  0.50400001928E-02 0. -1.
</event>
<event>
 5   0  0.2284329E-05  0.2203642E+04  0.7818609E-02  0.8516914E-01
       -2   -1    0    0    0  501  0.00000000000E+00  0.00000000000E+00  0.96832776699E+03  0.96832776699E+03  0.25500000920E-02 0. -1.
        2   -1    0    0  501    0  0.00000000000E+00  0.00000000000E+00 -0.12537176302E+04  0.12537176302E+04  0.25500000920E-02 0.  1.
    10030    2    1    2    0    0  0.00000000000E+00  0.00000000000E+00 -0.28538986323E+03  0.22220453972E+04  0.22036420701E+04 0.  0.
        2    1    3    3  502    0 -0.94428345928E+03 -0.35376549362E+03 -0.59046232314E+03  0.11685319983E+04  0.25500000920E-02 0. -1.
       -2    1    3    3    0  502  0.94428345928E+03  0.35376549362E+03  0.30507245991E+03  0.10535133989E+04  0.25500000920E-02 0.  1.
</event>
<event>
 5   0  0.1005538E-05  0.2194035E+04  0.7818609E-02  0.8520915E-01
        1   -1    0    0  501    0  0.00000000000E+00  0.00000000000E+00  0.92587740046E+03  0.92587740047E+03  0.50400001928E-02 0.  1.
       -1   -1    0    0    0  501  0.00000000000E+00  0.00000000000E+00 -0.12997916513E+04  0.12997916513E+04  0.50400001928E-02 0. -1.
    10030    2    1    2    0    0  0.00000000000E+00  0.00000000000E+00 -0.37391425080E+03  0.22256690517E+04  0.21940352916E+04 0.  0.
        3    1    3    3  502    0 -0.93922949620E+03  0.56677232138E+03 -0.17879158139E+03  0.11114627077E+04  0.10100000352E+00 0. -1.
       -3    1    3    3    0  502  0.93922949620E+03 -0.56677232138E+03 -0.19512266941E+03  0.11142063441E+04  0.10100000352E+00 0.  1.
</event>
<event>
 5   0  0.1049198E-05  0.2208680E+04  0.7818609E-02  0.8514824E-01
        1   -1    0    0  501    0  0.00000000000E+00  0.00000000000E+00  0.13949198175E+04  0.13949198175E+04  0.50400001928E-02 0. -1.
       -1   -1    0    0    0  501  0.00000000000E+00  0.00000000000E+00 -0.87429159144E+03  0.87429159146E+03  0.50400001928E-02 0.  1.
    10030    2    1    2    0    0  0.00000000000E+00  0.00000000000E+00  0.52062822607E+03  0.22692114090E+04  0.22086798475E+04 0.  0.
        1    1    3    3  502    0 -0.62588647873E+03 -0.76017476635E+03 -0.25335520095E+03  0.10167538628E+04  0.50400001928E-02 0.  1.
       -1    1    3    3    0  502  0.62588647873E+03  0.76017476635E+03  0.77398342702E+03  0.12524575462E+04  0.50400001928E-02 0. -1.
</event>
<event>
 5   0  0.1007682E-05  0.2201543E+04  0.7818609E-02  0.8517786E-01
        1   -1    0    0  501    0  0.00000000000E+00  0.00000000000E+00  0.66585383238E+03  0.66585383240E+03  0.50400001928E-02 0.  1.
       -1   -1    0    0    0  501  0.00000000000E+00  0.00000000000E+00 -0.18197657319E+04  0.18197657319E+04  0.50400001928E-02 0. -1.
    10030    2    1    2    0    0  0.00000000000E+00  0.00000000000E+00 -0.11539118995E+04  0.24856195643E+04  0.22015430830E+04 0.  0.
        2    1    3    3  502    0  0.19291677219E+03 -0.73103216251E+03  0.32632375386E+03  0.82347561952E+03  0.25500000920E-02 0.  1.
       -2    1    3    3    0  502 -0.19291677219E+03  0.73103216251E+03 -0.14802356533E+04  0.16621439447E+04  0.25500000920E-02 0. -1.
</event>
<event>
 5   0  0.2284329E-05  0.2197136E+04  0.7818609E-02  0.8519621E-01
       -2   -1    0    0    0  501  0.00000000000E+00  0.00000000000E+00  0.95504323505E+03  0.95504323505E+03  0.25500000920E-02 0. -1.
        2   -1    0    0  501    0  0.00000000000E+00  0.00000000000E+00 -0.12636621548E+04  0.12636621548E+04  0.25500000920E-02 0.  1.
    10030    2    1    2    0    0  0.00000000000E+00  0.00000000000E+00 -0.30861891977E+03  0.22187053899E+04  0.21971363111E+04 0.  0.
        2    1    3    3  502    0 -0.23810824978E+03 -0.44895098724E+03  0.82921253013E+03  0.97254611597E+03  0.25500000920E-02 0. -1.
       -2    1    3    3    0  502  0.23810824978E+03  0.44895098724E+03 -0.11378314499E+04  0.12461592739E+04  0.25500000920E-02 0.  1.
</event>
<event>
 5   0  0.2289708E-05  0.2202192E+04  0.7818609E-02  0.8517516E-01
        2   -1    0    0  501    0  0.00000000000E+00  0.00000000000E+00  0.21281996121E+04  0.21281996121E+04  0.25500000920E-02 0. -1.
       -2   -1    0    0    0  501  0.00000000000E+00  0.00000000000E+00 -0.56968899622E+03  0.56968899623E+03  0.25500000920E-02 0.  1.
    10030    2    1    2    0    0  0.00000000000E+00  0.00000000000E+00  0.15585106159E+04  0.26978886083E+04  0.22021915455E+04 0.  0.
        5    1    3    3  502    0  0.89187184083E+03 -0.56592142648E+03  0.11601928677E+04  0.15690035124E+04  0.46999998093E+01 0. -1.
       -5    1    3    3    0  502 -0.89187184083E+03  0.56592142648E+03  0.39831774812E+03  0.11288850960E+04  0.46999998093E+01 0.  1.
</event>
<event>
 5   0  0.1049198E-05  0.2191426E+04  0.7818609E-02  0.8522005E-01
        1   -1    0    0  501    0  0.00000000000E+00  0.00000000000E+00  0.85340467636E+03  0.85340467637E+03  0.50400001928E-02 0.  1.
       -1   -1    0    0    0  501  0.00000000000E+00  0.00000000000E+00 -0.14068206690E+04  0.14068206690E+04  0.50400001928E-02 0. -1.
    10030    2    1    2    0    0  0.00000000000E+00  0.00000000000E+00 -0.55341599268E+03  0.22602253454E+04  0.21914263280E+04 0.  0.
        1    1    3    3  502    0 -0.43367541654E+03 -0.97685518273E+02 -0.13096333740E+04  0.13830243677E+04  0.50400001928E-02 0. -1.
       -1    1    3    3    0  502  0.43367541654E+03  0.97685518273E+02  0.75621738134E+03  0.87720097768E+03  0.50400001928E-02 0.  1.
</event>
<event>
 5   0  0.2229552E-05  0.2200124E+04  0.7818609E-02  0.8518376E-01
       -2   -1    0    0    0  501  0.00000000000E+00  0.00000000000E+00  0.65525481305E+03  0.65525481306E+03  0.25500000920E-02 0. -1.
        2   -1    0    0  501    0  0.00000000000E+00  0.00000000000E+00 -0.18468182073E+04  0.18468182073E+04  0.25500000920E-02 0.  1.
    10030    2    1    2    0    0  0.00000000000E+00  0.00000000000E+00 -0.11915633943E+04  0.25020730204E+04  0.22001241048E+04 0.  0.
        1    1    3    3  502    0  0.10715660546E+03  0.65340768752E+03 -0.15948163049E+04  0.17268072245E+04  0.50400001928E-02 0.  1.
       -1    1    3    3    0  502 -0.10715660546E+03 -0.65340768752E+03  0.40325291067E+03  0.77526579584E+03  0.50400001928E-02 0. -1.
</event>
<event>
 5   0  0.1049198E-05  0.2205524E+04  0.7818609E-02  0.8516132E-01
       -1   -1    0    0    0  501  0.00000000000E+00  0.00000000000E+00  0.96456799938E+03  0.96456799939E+03  0.50400001928E-02 0. -1.
        1   -1    0    0  501    0  0.00000000000E+00  0.00000000000E+00 -0.12607550649E+04  0.12607550649E+04  0.50400001928E-02 0.  1.
    10030    2    1    2    0    0  0.00000000000E+00  0.00000000000E+00 -0.29618706553E+03  0.22253230643E+04  0.22055239656E+04 0.  0.
        1    1    3    3  502    0 -0.47434944380E+03  0.88637274026E+03 -0.60539501527E+03  0.11735276537E+04  0.50400001928E-02 0.  1.
       -1    1    3    3    0  502  0.47434944380E+03 -0.88637274026E+03  0.30920794974E+03  0.10517954106E+04  0.50400001928E-02 0. -1.
</event>
<event>
 5   0  0.2289708E-05  0.2195335E+04  0.7818609E-02  0.8520372E-01
       -2   -1    0    0    0  501  0.00000000000E+00  0.00000000000E+00  0.83213586814E+03  0.83213586814E+03  0.25500000920E-02 0. -1.
        2   -1    0    0  501    0  0.00000000000E+00  0.00000000000E+00 -0.14479291475E+04  0.14479291476E+04  0.25500000920E-02 0.  1.
    10030    2    1    2    0    0  0.00000000000E+00  0.00000000000E+00 -0.61579327941E+03  0.22800650157E+04  0.21953348521E+04 0.  0.
        5    1    3    3  502    0  0.66125316002E+03  0.72524147029E+03  0.20262432195E+03  0.10021525022E+04  0.46999998093E+01 0. -1.
       -5    1    3    3    0  502 -0.66125316002E+03 -0.72524147029E+03 -0.81841760136E+03  0.12779125135E+04  0.46999998093E+01 0.  1.
</event>
<event>
 5   0  0.2229552E-05  0.2206879E+04  0.7818609E-02  0.8515570E-01
       -2   -1    0    0    0  501  0.00000000000E+00  0.00000000000E+00  0.72019355998E+03  0.72019355998E+03  0.25500000920E-02 0. -1.
        2   -1    0    0  501    0  0.00000000000E+00  0.00000000000E+00 -0.16906275328E+04  0.16906275328E+04  0.25500000920E-02 0.  1.
    10030    2    1    2    0    0  0.00000000000E+00  0.00000000000E+00 -0.97043397285E+03  0.24108210928E+04  0.22068793003E+04 0.  0.
        1    1    3    3  502    0 -0.15207182294E+03 -0.33291483055E+03 -0.16223862046E+04  0.16631581766E+04  0.50400001928E-02 0.  1.
       -1    1    3    3    0  502  0.15207182294E+03  0.33291483055E+03  0.65195223172E+03  0.74766291616E+03  0.50400001928E-02 0. -1.
</event>
<event>
 5   0  0.2289708E-05  0.2203864E+04  0.7818609E-02  0.8516821E-01
       -2   -1    0    0    0  501  0.00000000000E+00  0.00000000000E+00  0.43355874828E+03  0.43355874828E+03  0.25500000920E-02 0. -1.
        2   -1    0    0  501    0  0.00000000000E+00  0.00000000000E+00 -0.28006687189E+04  0.28006687189E+04  0.25500000920E-02 0.  1.
    10030    2    1    2    0    0  0.00000000000E+00  0.00000000000E+00 -0.23671099706E+04  0.32342274672E+04  0.22038642645E+04 0.  0.
        5    1    3    3  502    0 -0.16672716471E+03 -0.33701923916E+03  0.33648744371E+03  0.50460460243E+03  0.46999998093E+01 0. -1.
       -5    1    3    3    0  502  0.16672716471E+03  0.33701923916E+03 -0.27035974143E+04  0.27296228647E+04  0.46999998093E+01 0.  1.
</event>
<event>
 5   0  0.2289708E-05  0.2202940E+04  0.7818609E-02  0.8517206E-01
       -2   -1    0    0    0  501  0.00000000000E+00  0.00000000000E+00  0.66822818708E+03  0.66822818709E+03  0.25500000920E-02 0.  1.
        2   -1    0    0  501    0  0.00000000000E+00  0.00000000000E+00 -0.18156010972E+04  0.18156010972E+04  0.25500000920E-02 0. -1.
    10030    2    1    2    0    0  0.00000000000E+00  0.00000000000E+00 -0.11473729101E+04  0.24838292843E+04  0.22029396993E+04 0.  0.
        5    1    3    3  502    0  0.45633707280E+03  0.99854862874E+03 -0.67371639267E+03  0.12881221820E+04  0.46999998093E+01 0. -1.
       -5    1    3    3    0  502 -0.45633707280E+03 -0.99854862874E+03 -0.47365651745E+03  0.11957071023E+04  0.46999998093E+01 0.  1.
</event>
<event>
 5   0  0.8003875E-06  0.2203643E+04  0.7818609E-02  0.8516913E-01
       -4   -1    0    0    0  501  0.00000000000E+00  0.00000000000E+00  0.10229374773E+04  0.10229382656E+04  0.12699999809E+01 0. -1.
        4   -1    0    0  501    0  0.00000000000E+00  0.00000000000E+00 -0.11867870642E+04  0.11867877437E+04  0.12699999809E+01 0.  1.
    10030    2    1    2    0    0  0.00000000000E+00  0.00000000000E+00 -0.16384958691E+03  0.22097260093E+04  0.22036429723E+04 0.  0.
        5    1    3    3  502    0 -0.81068936717E+03  0.74557203109E+03 -0.11190034967E+03  0.11070856705E+04  0.46999998093E+01 0.  1.
       -5    1    3    3    0  502  0.81068936717E+03 -0.74557203109E+03 -0.51949237240E+02  0.11026403388E+04  0.46999998093E+01 0. -1.
</event>
<event>
 5   0  0.2229552E-05  0.2168536E+04  0.7818609E-02  0.8531639E-01
       -2   -1    0    0    0  501  0.00000000000E+00  0.00000000000E+00  0.76973074611E+03  0.76973074611E+03  0.25500000920E-02 0. -1.
        2   -1    0    0  501    0  0.00000000000E+00  0.00000000000E+00 -0.15273353326E+04  0.15273353326E+04  0.25500000920E-02 0.  1.
    10030    2    1    2    0    0  0.00000000000E+00  0.00000000000E+00 -0.75760458653E+03  0.22970660787E+04  0.21685358795E+04 0.  0.
        1    1    3    3  502    0 -0.14740679328E+03  0.30733237248E+03  0.71150304129E+03  0.78893505923E+03  0.50400001928E-02 0. -1.
       -1    1    3    3    0  502  0.14740679328E+03 -0.30733237248E+03 -0.14691076278E+04  0.15081310195E+04  0.50400001928E-02 0.  1.
</event>
<event>
 5   0  0.1007682E-05  0.2220640E+04  0.7818609E-02  0.8509886E-01
       -1   -1    0    0    0  501  0.00000000000E+00  0.00000000000E+00  0.88233021760E+03  0.88233021761E+03  0.50400001928E-02 0.  1.
        1   -1    0    0  501    0  0.00000000000E+00  0.00000000000E+00 -0.13972211752E+04  0.13972211752E+04  0.50400001928E-02 0. -1.
    10030    2    1    2    0    0  0.00000000000E+00  0.00000000000E+00 -0.51489095763E+03  0.22795513928E+04  0.22206399651E+04 0.  0.
        2    1    3    3  502    0 -0.81638993271E+03 -0.21291073024E+03  0.48349728998E+03  0.97241613043E+03  0.25500000920E-02 0.  1.
       -2    1    3    3    0  502  0.81638993271E+03  0.21291073024E+03 -0.99838824762E+03  0.13071352624E+04  0.25500000920E-02 0. -1.
</event>
<event>
 5   0  0.2298329E-05  0.2198833E+04  0.7818609E-02  0.8518914E-01
       -2   -1    0    0    0  501  0.00000000000E+00  0.00000000000E+00  0.71152357996E+03  0.71152357996E+03  0.25500000920E-02 0.  1.
        2   -1    0    0  501    0  0.00000000000E+00  0.00000000000E+00 -0.16987725939E+04  0.16987725939E+04  0.25500000920E-02 0. -1.
    10030    2    1    2    0    0  0.00000000000E+00  0.00000000000E+00 -0.98724901391E+03  0.24102961738E+04  0.21988331065E+04 0.  0.
        4    1    3    3  502    0  0.53647346486E+03  0.52695167776E+03 -0.13727733368E+04  0.15652444206E+04  0.12699999809E+01 0. -1.
       -4    1    3    3    0  502 -0.53647346486E+03 -0.52695167776E+03  0.38552432287E+03  0.84505175322E+03  0.12699999809E+01 0.  1.
</event>
<event>
 5   0  0.1005538E-05  0.2201446E+04  0.7818609E-02  0.8517827E-01
        1   -1    0    0  501    0  0.00000000000E+00  0.00000000000E+00  0.17150064679E+04  0.17150064679E+04  0.50400001928E-02 0.  1.
       -1   -1    0    0    0  501  0.00000000000E+00  0.00000000000E+00 -0.70646435772E+03  0.70646435774E+03  0.50400001928E-02 0. -1.
    10030    2    1    2    0    0  0.00000000000E+00  0.00000000000E+00  0.10085421102E+04  0.24214708257E+04  0.22014458366E+04 0.  0.
        3    1    3    3  502    0  0.63191543352E+03  0.79177745698E+03  0.97783858035E+03  0.14079761915E+04  0.10100000352E+00 0.  1.
       -3    1    3    3    0  502 -0.63191543352E+03 -0.79177745698E+03  0.30703529863E+02  0.10134946341E+04  0.10100000352E+00 0. -1.
</event>
<event>
 5   0  0.2319707E-05  0.2202617E+04  0.7818609E-02  0.8517340E-01
       -2   -1    0    0    0  501  0.00000000000E+00  0.00000000000E+00  0.54003317385E+03  0.54003317385E+03  0.25500000920E-02 0.  1.
        2   -1    0    0  501    0  0.00000000000E+00  0.00000000000E+00 -0.22459360264E+04  0.22459360264E+04  0.25500000920E-02 0. -1.
    10030    2    1    2    0    0  0.00000000000E+00  0.00000000000E+00 -0.17059028526E+04  0.27859692003E+04  0.22026165900E+04 0.  0.
        3    1    3    3  502    0  0.24762508825E+02  0.32246071046E+02  0.53908361978E+03  0.54061460418E+03  0.10100000352E+00 0.  1.
       -3    1    3    3    0  502 -0.24762508825E+02 -0.32246071046E+02 -0.22449864724E+04  0.22453545961E+04  0.10100000352E+00 0. -1.
</event>
<event>
 5   0  0.1071208E-05  0.2193214E+04  0.7818609E-02  0.8521258E-01
        1   -1    0    0  501    0  0.00000000000E+00  0.00000000000E+00  0.11020435290E+04  0.11020435290E+04  0.50400001928E-02 0. -1.
       -1   -1    0    0    0  501  0.00000000000E+00  0.00000000000E+00 -0.10911968709E+04  0.10911968710E+04  0.50400001928E-02 0.  1.
    10030    2    1    2    0    0  0.00000000000E+00  0.00000000000E+00  0.10846658035E+02  0.21932404000E+04  0.21932135787E+04 0.  0.
        4    1    3    3  502    0 -0.13103872912E+03  0.10788756625E+04 -0.14086924556E+03  0.10958967109E+04  0.12699999809E+01 0.  1.
       -4    1    3    3    0  502  0.13103872912E+03 -0.10788756625E+04  0.15171590359E+03  0.10973436891E+04  0.12699999809E+01 0. -1.
</event>
<event>
 5   0  0.2229552E-05  0.2189278E+04  0.7818609E-02  0.8522904E-01
       -2   -1    0    0    0  501  0.00000000000E+00  0.00000000000E+00  0.12179654458E+04  0.12179654458E+04  0.25500000920E-02 0.  1.
        2   -1    0    0  501    0  0.00000000000E+00  0.00000000000E+00 -0.98380009136E+03  0.98380009136E+03  0.25500000920E-02 0. -1.
    10030    2    1    2    0    0  0.00000000000E+00  0.00000000000E+00  0.23416535446E+03  0.22017655372E+04  0.21892779786E+04 0.  0.
        1    1    3    3  502    0 -0.22901512526E+03 -0.10600191978E+04 -0.32581108278E+02  0.10849655091E+04  0.50400001928E-02 0. -1.
       -1    1    3    3    0  502  0.22901512526E+03  0.10600191978E+04  0.26674646274E+03  0.11168000281E+04  0.50400001928E-02 0.  1.
</event>
<event>
 5   0  0.1033733E-05  0.2192127E+04  0.7818609E-02  0.8521712E-01
        1   -1    0    0  501    0  0.00000000000E+00  0.00000000000E+00  0.14182639787E+04  0.14182639787E+04  0.50400001928E-02 0.  1.
       -1   -1    0    0    0  501  0.00000000000E+00  0.00000000000E+00 -0.84706057453E+03  0.84706057455E+03  0.50400001928E-02 0. -1.
    10030    2    1    2    0    0  0.00000000000E+00  0.00000000000E+00  0.57120340414E+03  0.22653245532E+04  0.21921272779E+04 0.  0.
        5    1    3    3  502    0  0.23755573471E+03  0.10837032535E+03  0.13856446060E+04  0.14100389777E+04  0.46999998093E+01 0.  1.
       -5    1    3    3    0  502 -0.23755573471E+03 -0.10837032535E+03 -0.81444120183E+03  0.85528557555E+03  0.46999998093E+01 0. -1.
</event>
<event>
 5   0  0.1071208E-05  0.2197114E+04  0.7818609E-02  0.8519630E-01
       -1   -1    0    0    0  501  0.00000000000E+00  0.00000000000E+00  0.89766772012E+03  0.89766772014E+03  0.50400001928E-02 0. -1.
        1   -1    0    0  501    0  0.00000000000E+00  0.00000000000E+00 -0.13444035259E+04  0.13444035259E+04  0.50400001928E-02 0.  1.
    10030    2    1    2    0    0  0.00000000000E+00  0.00000000000E+00 -0.44673580575E+03  0.22420712460E+04  0.21971141509E+04 0.  0.
        4    1    3    3  502    0 -0.65206680659E+03  0.68363295175E+02  0.67612243442E+03  0.94181092562E+03  0.12699999809E+01 0. -1.
       -4    1    3    3    0  502  0.65206680659E+03 -0.68363295175E+02 -0.11228582402E+04  0.13002603204E+04  0.12699999809E+01 0.  1.
</event>
<event>
 5   0  0.2319707E-05  0.2193850E+04  0.7818609E-02  0.8520992E-01
       -2   -1    0    0    0  501  0.00000000000E+00  0.00000000000E+00  0.81569758015E+03  0.81569758016E+03  0.25500000920E-02 0. -1.
        2   -1    0    0  501    0  0.00000000000E+00  0.00000000000E+00 -0.14751103523E+04  0.14751103523E+04  0.25500000920E-02 0.  1.
    10030    2    1    2    0    0  0.00000000000E+00  0.00000000000E+00 -0.65941277219E+03  0.22908079325E+04  0.21938495344E+04 0.  0.
        3    1    3    3  502    0 -0.10593067298E+04  0.22381214795E+03 -0.14579360937E+03  0.10924643757E+04  0.10100000352E+00 0.  1.
       -3    1    3    3    0  502  0.10593067298E+04 -0.22381214795E+03 -0.51361916282E+03  0.11983435568E+04  0.10100000352E+00 0. -1.
</event>
<event>
 5   0  0.1033733E-05  0.2203428E+04  0.7818609E-02  0.8517003E-01
        1   -1    0    0  501    0  0.00000000000E+00  0.00000000000E+00  0.13863890541E+04  0.13863890541E+04  0.50400001928E-02 0. -1.
       -1   -1    0    0    0  501  0.00000000000E+00  0.00000000000E+00 -0.87549269910E+03  0.87549269912E+03  0.50400001928E-02 0.  1.
    10030    2    1    2    0    0  0.00000000000E+00  0.00000000000E+00  0.51089635497E+03  0.22618817532E+04  0.22034277796E+04 0.  0.
        5    1    3    3  502    0 -0.37165505349E+01 -0.78198729816E+03  0.10520724161E+04  0.13108761978E+04  0.46999998093E+01 0. -1.
       -5    1    3    3    0  502  0.37165505349E+01  0.78198729816E+03 -0.54117606114E+03  0.95100555539E+03  0.46999998093E+01 0.  1.
</event>
<event>
 5   0  0.1005538E-05  0.2179186E+04  0.7818609E-02  0.8527141E-01
       -1   -1    0    0    0  501  0.00000000000E+00  0.00000000000E+00  0.99331822223E+03  0.99331822225E+03  0.50400001928E-02 0. -1.
        1   -1    0    0  501    0  0.00000000000E+00  0.00000000000E+00 -0.11951994088E+04  0.11951994088E+04  0.50400001928E-02 0.  1.
    10030    2    1    2    0    0  0.00000000000E+00  0.00000000000E+00 -0.20188118658E+03  0.21885176311E+04  0.21791864097E+04 0.  0.
        3    1    3    3  502    0 -0.37248187096E+03 -0.68276262212E+03 -0.86729776445E+03  0.11649519152E+04  0.10100000352E+00 0.  1.
       -3    1    3    3    0  502  0.37248187096E+03  0.68276262212E+03  0.66541657787E+03  0.10235657159E+04  0.10100000352E+00 0. -1.
</event>
<event>
 5   0  0.1007682E-05  0.2211733E+04  0.7818609E-02  0.8513561E-01
       -1   -1    0    0    0  501  0.00000000000E+00  0.00000000000E+00  0.10354813639E+04  0.10354813639E+04  0.50400001928E-02 0.  1.
        1   -1    0    0  501    0  0.00000000000E+00  0.00000000000E+00 -0.11810355868E+04  0.11810355868E+04  0.50400001928E-02 0. -1.
    10030    2    1    2    0    0  0.00000000000E+00  0.00000000000E+00 -0.14555422297E+03  0.22165169507E+04  0.22117326604E+04 0.  0.
        2    1    3    3  502    0 -0.68248823562E+03  0.78827706366E+03  0.29648895998E+03  0.10840095130E+04  0.25500000920E-02 0. -1.
       -2    1    3    3    0  502  0.68248823562E+03 -0.78827706366E+03 -0.44204318295E+03  0.11325074377E+04  0.25500000920E-02 0.  1.
</event>
<event>
 5   0  0.2284329E-05  0.2207047E+04  0.7818609E-02  0.8515501E-01
        2   -1    0    0  501    0  0.00000000000E+00  0.00000000000E+00  0.77654247430E+03  0.77654247431E+03  0.25500000920E-02 0.  1.
       -2   -1    0    0    0  501  0.00000000000E+00  0.00000000000E+00 -0.15681878462E+04  0.15681878462E+04  0.25500000920E-02 0. -1.
    10030    2    1    2    0    0  0.00000000000E+00  0.00000000000E+00 -0.79164537192E+03  0.23447303205E+04  0.22070473219E+04 0.  0.
        2    1    3    3  502    0  0.33284672220E+03  0.31234491628E+03  0.67155179701E+03  0.81199021132E+03  0.25500000920E-02 0.  1.
       -2    1    3    3    0  502 -0.33284672220E+03 -0.31234491628E+03 -0.14631971689E+04  0.15327401092E+04  0.25500000920E-02 0. -1.
</event>
<event>
 5   0  0.1007682E-05  0.2203727E+04  0.7818609E-02  0.8516878E-01
        1   -1    0    0  501    0  0.00000000000E+00  0.00000000000E+00  0.19491854388E+04  0.19491854388E+04  0.50400001928E-02 0.  1.
       -1   -1    0    0    0  501  0.00000000000E+00  0.00000000000E+00 -0.62287714982E+03  0.62287714984E+03  0.50400001928E-02 0. -1.
    10030    2    1    2    0    0  0.00000000000E+00  0.00000000000E+00  0.13263082889E+04  0.25720625886E+04  0.22037269074E+04 0.  0.
        2    1    3    3  502    0 -0.28895098390E+03 -0.10115414356E+04  0.28066913244E+03  0.10887992969E+04  0.25500000920E-02 0. -1.
       -2    1    3    3    0  502  0.28895098390E+03  0.10115414356E+04  0.10456391565E+04  0.14832632917E+04  0.25500000920E-02 0.  1.
</event>
<event>
 5   0  0.1007682E-05  0.2190792E+04  0.7818609E-02  0.8522270E-01
       -1   -1    0    0    0  501  0.00000000000E+00  0.00000000000E+00  0.76196607007E+03  0.76196607009E+03  0.50400001928E-02 0. -1.
        1   -1    0    0  501    0  0.00000000000E+00  0.00000000000E+00 -0.15747320986E+04  0.15747320986E+04  0.50400001928E-02 0.  1.
    10030    2    1    2    0    0  0.00000000000E+00  0.00000000000E+00 -0.81276602849E+03  0.23366981687E+04  0.21907920290E+04 0.  0.
        2    1    3    3  502    0 -0.24929966806E+03 -0.99350834139E+03 -0.82041509978E+03  0.13123605011E+04  0.25500000920E-02 0.  1.
       -2    1    3    3    0  502  0.24929966806E+03  0.99350834139E+03  0.76490712841E+01  0.10243376676E+04  0.25500000920E-02 0. -1.
</event>
<event>
 5   0  0.1005538E-05  0.2198805E+04  0.7818609E-02  0.8518926E-01
       -1   -1    0    0    0  501  0.00000000000E+00  0.00000000000E+00  0.57016640322E+03  0.57016640325E+03  0.50400001928E-02 0.  1.
        1   -1    0    0  501    0  0.00000000000E+00  0.00000000000E+00 -0.21198833607E+04  0.21198833607E+04  0.50400001928E-02 0. -1.
    10030    2    1    2    0    0  0.00000000000E+00  0.00000000000E+00 -0.15497169575E+04  0.26900497639E+04  0.21988053766E+04 0.  0.
        3    1    3    3  502    0 -0.54388038420E+03  0.50728265571E+03  0.21568758798E+03  0.77437891947E+03  0.10100000352E+00 0.  1.
       -3    1    3    3    0  502  0.54388038420E+03 -0.50728265571E+03 -0.17654045454E+04  0.19156708445E+04  0.10100000352E+00 0. -1.
</event>
<event>
 5   0  0.2229552E-05  0.2157823E+04  0.7818609E-02  0.8536191E-01
        2   -1    0    0  501    0  0.00000000000E+00  0.00000000000E+00  0.14556906127E+04  0.14556906127E+04  0.25500000920E-02 0. -1.
       -2   -1    0    0    0  501  0.00000000000E+00  0.00000000000E+00 -0.79965457058E+03  0.79965457058E+03  0.25500000920E-02 0.  1.
    10030    2    1    2    0    0  0.00000000000E+00  0.00000000000E+00  0.65603604216E+03  0.22553451833E+04  0.21578226543E+04 0.  0.
        1    1    3    3  502    0  0.40744157423E+02  0.29795758923E+03  0.14109987192E+04  0.14426906103E+04  0.50400001928E-02 0. -1.
       -1    1    3    3    0  502 -0.40744157423E+02 -0.29795758923E+03 -0.75496267705E+03  0.81265457305E+03  0.50400001928E-02 0.  1.
</event>
<event>
 5   0  0.2298329E-05  0.2191523E+04  0.7818609E-02  0.8521965E-01
       -2   -1    0    0    0  501  0.00000000000E+00  0.00000000000E+00  0.58002033209E+03  0.58002033209E+03  0.25500000920E-02 0. -1.
        2   -1    0    0  501    0  0.00000000000E+00  0.00000000000E+00 -0.20700890706E+04  0.20700890706E+04  0.25500000920E-02 0.  1.
    10030    2    1    2    0    0  0.00000000000E+00  0.00000000000E+00 -0.14900687386E+04  0.26501094027E+04  0.21915234429E+04 0.  0.
        4    1    3    3  502    0  0.75208099817E+02 -0.60303817444E+02 -0.20649505650E+04  0.20671998591E+04  0.12699999809E+01 0.  1.
       -4    1    3    3    0  502 -0.75208099817E+02  0.60303817444E+02  0.57488182649E+03  0.58290954359E+03  0.12699999809E+01 0. -1.
</event>
<event>
 5   0  0.1049198E-05  0.2199477E+04  0.7818609E-02  0.8518646E-01
        1   -1    0    0  501    0  0.00000000000E+00  0.00000000000E+00  0.12747794907E+04  0.12747794907E+04  0.50400001928E-02 0.  1.
       -1   -1    0    0    0  501  0.00000000000E+00  0.00000000000E+00 -0.94873284714E+03  0.94873284716E+03  0.50400001928E-02 0. -1.
    10030    2    1    2    0    0  0.00000000000E+00  0.00000000000E+00  0.32604664360E+03  0.22235123379E+04  0.21994773704E+04 0.  0.
        1    1    3    3  502    0 -0.10316429996E+04  0.37001105398E+03  0.71314207466E+02  0.10983083241E+04  0.50400001928E-02 0.  1.
       -1    1    3    3    0  502  0.10316429996E+04 -0.37001105398E+03  0.25473243613E+03  0.11252040138E+04  0.50400001928E-02 0. -1.
</event>
<event>
 5   0  0.2229552E-05  0.2190423E+04  0.7818609E-02  0.8522425E-01
        2   -1    0    0  501    0  0.00000000000E+00  0.00000000000E+00  0.13560645420E+04  0.13560645420E+04  0.25500000920E-02 0. -1.
       -2   -1    0    0    0  501  0.00000000000E+00  0.00000000000E+00 -0.88453646412E+03  0.88453646412E+03  0.25500000920E-02 0.  1.
    10030    2    1    2    0    0  0.00000000000E+00  0.00000000000E+00  0.47152807791E+03  0.22406010062E+04  0.21904232788E+04 0.  0.
        1    1    3    3  502    0  0.10835283395E+04  0.61115557654E+02  0.38651635851E+03  0.11520258979E+04  0.50400001928E-02 0. -1.
       -1    1    3    3    0  502 -0.10835283395E+04 -0.61115557654E+02  0.85011719400E+02  0.10885751083E+04  0.50400001928E-02 0.  1.
</event>
<event>
 5   0  0.2298329E-05  0.2197693E+04  0.7818609E-02  0.8519389E-01
        2   -1    0    0  501    0  0.00000000000E+00  0.00000000000E+00  0.23613536815E+04  0.23613536815E+04  0.25500000920E-02 0.  1.
       -2   -1    0    0    0  501  0.00000000000E+00  0.00000000000E+00 -0.51134377372E+03  0.51134377373E+03  0.25500000920E-02 0. -1.
    10030    2    1    2    0    0  0.00000000000E+00  0.00000000000E+00  0.18500099078E+04  0.28726974553E+04  0.21976928836E+04 0.  0.
        4    1    3    3  502    0 -0.15267451172E+02 -0.38060001289E+03 -0.42228565488E+03  0.56869697739E+03  0.12699999809E+01 0. -1.
       -4    1    3    3    0  502  0.15267451172E+02  0.38060001289E+03  0.22722955627E+04  0.23040004779E+04  0.12699999809E+01 0.  1.
</event>
<event>
 5   0  0.2289708E-05  0.2198985E+04  0.7818609E-02  0.8518851E-01
       -2   -1    0    0    0  501  0.00000000000E+00  0.00000000000E+00  0.88655730064E+03  0.88655730064E+03  0.25500000920E-02 0. -1.
        2   -1    0    0  501    0  0.00000000000E+00  0.00000000000E+00 -0.13635706284E+04  0.13635706284E+04  0.25500000920E-02 0.  1.
    10030    2    1    2    0    0  0.00000000000E+00  0.00000000000E+00 -0.47701332779E+03  0.22501279291E+04  0.21989847617E+04 0.  0.
        5    1    3    3  502    0 -0.13313145421E+03  0.10860780708E+04 -0.34858105822E+03  0.11483990614E+04  0.46999998093E+01 0.  1.
       -5    1    3    3    0  502  0.13313145421E+03 -0.10860780708E+04 -0.12843226957E+03  0.11017288677E+04  0.46999998093E+01 0. -1.
</event>
<event>
 5   0  0.2229552E-05  0.2208353E+04  0.7818609E-02  0.8514959E-01
        2   -1    0    0  501    0  0.00000000000E+00  0.00000000000E+00  0.73649988890E+03  0.73649988891E+03  0.25500000920E-02 0.  1.
       -2   -1    0    0    0  501  0.00000000000E+00  0.00000000000E+00 -0.16554055955E+04  0.16554055955E+04  0.25500000920E-02 0. -1.
    10030    2    1    2    0    0  0.00000000000E+00  0.00000000000E+00 -0.91890570659E+03  0.23919054844E+04  0.22083532663E+04 0.  0.
        1    1    3    3  502    0 -0.99758841423E+03 -0.27716352691E+03 -0.87501400044E+03  0.13556001497E+04  0.50400001928E-02 0.  1.
       -1    1    3    3    0  502  0.99758841423E+03  0.27716352691E+03 -0.43891706153E+02  0.10363053347E+04  0.50400001928E-02 0. -1.
</event>
<event>
 5   0  0.2289708E-05  0.2208244E+04  0.7818609E-02  0.8515005E-01
        2   -1    0    0  501    0  0.00000000000E+00  0.00000000000E+00  0.30248525175E+04  0.30248525175E+04  0.25500000920E-02 0. -1.
       -2   -1    0    0    0  501  0.00000000000E+00  0.00000000000E+00 -0.40302297181E+03  0.40302297182E+03  0.25500000920E-02 0.  1.
    10030    2    1    2    0    0  0.00000000000E+00  0.00000000000E+00  0.26218295457E+04  0.34278754893E+04  0.22082436921E+04 0.  0.
        5    1    3    3  502    0 -0.11085751304E+03  0.72601554660E+03  0.31154313485E+02  0.73510587220E+03  0.46999998093E+01 0.  1.
       -5    1    3    3    0  502  0.11085751304E+03 -0.72601554660E+03  0.25906752322E+04  0.26927696171E+04  0.46999998093E+01 0. -1.
</event>
<event>
 5   0  0.2229552E-05  0.2192224E+04  0.7818609E-02  0.8521672E-01
        2   -1    0    0  501    0  0.00000000000E+00  0.00000000000E+00  0.16538369068E+04  0.16538369068E+04  0.25500000920E-02 0.  1.
       -2   -1    0    0    0  501  0.00000000000E+00  0.00000000000E+00 -0.72646900655E+03  0.72646900655E+03  0.25500000920E-02 0. -1.
    10030    2    1    2    0    0  0.00000000000E+00  0.00000000000E+00  0.92736790026E+03  0.23803059134E+04  0.21922237611E+04 0.  0.
        1    1    3    3  502    0 -0.10164629952E+04  0.19205771098E+03  0.85724248334E+03  0.13434834797E+04  0.50400001928E-02 0.  1.
       -1    1    3    3    0  502  0.10164629952E+04 -0.19205771098E+03  0.70125416916E+02  0.10368224337E+04  0.50400001928E-02 0. -1.
</event>
<event>
 5   0  0.1071208E-05  0.2208965E+04  0.7818609E-02  0.8514706E-01
        1   -1    0    0  501    0  0.00000000000E+00  0.00000000000E+00  0.10786123386E+04  0.10786123387E+04  0.50400001928E-02 0. -1.
       -1   -1    0    0    0  501  0.00000000000E+00  0.00000000000E+00 -0.11309732354E+04  0.11309732355E+04  0.50400001928E-02 0.  1.
    10030    2    1    2    0    0  0.00000000000E+00  0.00000000000E+00 -0.52360896798E+02  0.22095855741E+04  0.22089650848E+04 0.  0.
        4    1    3    3  502    0  0.54152324127E+03  0.19290369181E+03  0.91717555968E+03  0.10824379314E+04  0.12699999809E+01 0. -1.
       -4    1    3    3    0  502 -0.54152324127E+03 -0.19290369181E+03 -0.96953645648E+03  0.11271476427E+04  0.12699999809E+01 0.  1.
</event>
<event>
 5   0  0.1005538E-05  0.2202081E+04  0.7818609E-02  0.8517562E-01
        1   -1    0    0  501    0  0.00000000000E+00  0.00000000000E+00  0.16409402014E+04  0.16409402015E+04  0.50400001928E-02 0. -1.
       -1   -1    0    0    0  501  0.00000000000E+00  0.00000000000E+00 -0.73877790298E+03  0.73877790299E+03  0.50400001928E-02 0.  1.
    10030    2    1    2    0    0  0.00000000000E+00  0.00000000000E+00  0.90216229847E+03  0.23797181044E+04  0.22020811620E+04 0.  0.
        3    1    3    3  502    0 -0.21483223283E+03 -0.10771255541E+04  0.36780657780E+03  0.11582892715E+04  0.10100000352E+00 0.  1.
       -3    1    3    3    0  502  0.21483223283E+03  0.10771255541E+04  0.53435572067E+03  0.12214288330E+04  0.10100000352E+00 0. -1.
</event>
<event>
 5   0  0.2229552E-05  0.2198153E+04  0.7818609E-02  0.8519197E-01
       -2   -1    0    0    0  501  0.00000000000E+00  0.00000000000E+00  0.15119692584E+04  0.15119692584E+04  0.25500000920E-02 0. -1.
        2   -1    0    0  501    0  0.00000000000E+00  0.00000000000E+00 -0.79893777486E+03  0.79893777487E+03  0.25500000920E-02 0.  1.
    10030    2    1    2    0    0  0.00000000000E+00  0.00000000000E+00  0.71303148353E+03  0.23109070333E+04  0.21981531839E+04 0.  0.
        1    1    3    3  502    0  0.91941639860E+03 -0.39495069055E+03  0.83442931270E+03  0.13029139802E+04  0.50400001928E-02 0. -1.
       -1    1    3    3    0  502 -0.91941639860E+03  0.39495069055E+03 -0.12139782917E+03  0.10079930530E+04  0.50400001928E-02 0.  1.
</event>
<event>
 5   0  0.1007682E-05  0.2200995E+04  0.7818609E-02  0.8518014E-01
        1   -1    0    0  501    0  0.00000000000E+00  0.00000000000E+00  0.92055362570E+03  0.92055362571E+03  0.50400001928E-02 0.  1.
       -1   -1    0    0    0  501  0.00000000000E+00  0.00000000000E+00 -0.13156160455E+04  0.13156160455E+04  0.50400001928E-02 0. -1.
    10030    2    1    2    0    0  0.00000000000E+00  0.00000000000E+00 -0.39506241984E+03  0.22361696713E+04  0.22009953392E+04 0.  0.
        2    1    3    3  502    0  0.90087774505E+03  0.25158305363E+03  0.39158048592E+03  0.10140069139E+04  0.25500000920E-02 0.  1.
       -2    1    3    3    0  502 -0.90087774505E+03 -0.25158305363E+03 -0.78664290576E+03  0.12221627574E+04  0.25500000920E-02 0. -1.
</event>
<event>
 5   0  0.2284329E-05  0.2213092E+04  0.7818609E-02  0.8512999E-01
        2   -1    0    0  501    0  0.00000000000E+00  0.00000000000E+00  0.15100291495E+04  0.15100291495E+04  0.25500000920E-02 0.  1.
       -2   -1    0    0    0  501  0.00000000000E+00  0.00000000000E+00 -0.81087456015E+03  0.81087456015E+03  0.25500000920E-02 0. -1.
    10030    2    1    2    0    0  0.00000000000E+00  0.00000000000E+00  0.69915458932E+03  0.23209037096E+04  0.22130921557E+04 0.  0.
        2    1    3    3  502    0 -0.19779157121E+03  0.56897573461E+03  0.13230141384E+04  0.14536922999E+04  0.25500000920E-02 0.  1.
       -2    1    3    3    0  502  0.19779157121E+03 -0.56897573461E+03 -0.62385954910E+03  0.86721140976E+03  0.25500000920E-02 0. -1.
</event>
<event>
 5   0  0.1071208E-05  0.2189937E+04  0.7818609E-02  0.8522628E-01
       -1   -1    0    0    0  501  0.00000000000E+00  0.00000000000E+00  0.78002235132E+03  0.78002235134E+03  0.50400001928E-02 0.  1.
        1   -1    0    0  501    0  0.00000000000E+00  0.00000000000E+00 -0.15370793520E+04  0.15370793520E+04  0.50400001928E-02 0. -1.
    10030    2    1    2    0    0  0.00000000000E+00  0.00000000000E+00 -0.75705700071E+03  0.23171017034E+04  0.21899372140E+04 0.  0.
        4    1    3    3  502    0  0.73506175689E+03  0.17060000656E+03 -0.12180333255E+04  0.14328387710E+04  0.12699999809E+01 0. -1.
       -4    1    3    3    0  502 -0.73506175689E+03 -0.17060000656E+03  0.46097632480E+03  0.88426293239E+03  0.12699999809E+01 0.  1.
</event>
<event>
 5   0  0.2289708E-05  0.2202560E+04  0.7818609E-02  0.8517363E-01
       -2   -1    0    0    0  501  0.00000000000E+00  0.00000000000E+00  0.67480816389E+03  0.67480816389E+03  0.25500000920E-02 0. -1.
        2   -1    0    0  501    0  0.00000000000E+00  0.00000000000E+00 -0.17972773828E+04  0.17972773828E+04  0.25500000920E-02 0.  1.
    10030    2    1    2    0    0  0.00000000000E+00  0.00000000000E+00 -0.11224692189E+04  0.24720855467E+04  0.22025598295E+04 0.  0.
        5    1    3    3  502    0  0.93530574408E+03 -0.23877766244E+03  0.33709797634E+02  0.96590374647E+03  0.46999998093E+01 0. -1.
       -5    1    3    3    0  502 -0.93530574408E+03  0.23877766244E+03 -0.11561790165E+04  0.15061818002E+04  0.46999998093E+01 0.  1.
</event>
<event>
 5   0  0.1071208E-05  0.2200637E+04  0.7818609E-02  0.8518163E-01
       -1   -1    0    0    0  501  0.00000000000E+00  0.00000000000E+00  0.63157186739E+03  0.63157186741E+03  0.50400001928E-02 0.  1.
        1   -1    0    0  501    0  0.00000000000E+00  0.00000000000E+00 -0.19169637069E+04  0.19169637069E+04  0.50400001928E-02 0. -1.
    10030    2    1    2    0    0  0.00000000000E+00  0.00000000000E+00 -0.12853918395E+04  0.25485355743E+04  0.22006365880E+04 0.  0.
        4    1    3    3  502    0  0.86346390881E+03  0.67969380094E+03 -0.70764351517E+03  0.13070250733E+04  0.12699999809E+01 0.  1.
       -4    1    3    3    0  502 -0.86346390881E+03 -0.67969380094E+03 -0.57774832429E+03  0.12415105009E+04  0.12699999809E+01 0. -1.
</event>
<event>
 5   0  0.2229552E-05  0.2198169E+04  0.7818609E-02  0.8519191E-01
       -2   -1    0    0    0  501  0.00000000000E+00  0.00000000000E+00  0.75652900831E+03  0.75652900832E+03  0.25500000920E-02 0. -1.
        2   -1    0    0  501    0  0.00000000000E+00  0.00000000000E+00 -0.15967485316E+04  0.15967485316E+04  0.25500000920E-02 0.  1.
    10030    2    1    2    0    0  0.00000000000E+00  0.00000000000E+00 -0.84021952327E+03  0.23532775399E+04  0.21981688590E+04 0.  0.
        1    1    3    3  502    0 -0.77751823104E+03  0.75592859147E+03 -0.61168948223E+03  0.12450408257E+04  0.50400001928E-02 0. -1.
       -1    1    3    3    0  502  0.77751823104E+03 -0.75592859147E+03 -0.22853004104E+03  0.11082367142E+04  0.50400001928E-02 0.  1.
</event>
<event>
 5   0  0.1007682E-05  0.2217047E+04  0.7818609E-02  0.8511366E-01
        1   -1    0    0  501    0  0.00000000000E+00  0.00000000000E+00  0.21351031504E+04  0.21351031504E+04  0.50400001928E-02 0. -1.
       -1   -1    0    0    0  501  0.00000000000E+00  0.00000000000E+00 -0.57553386859E+03  0.57553386861E+03  0.50400001928E-02 0.  1.
    10030    2    1    2    0    0  0.00000000000E+00  0.00000000000E+00  0.15595692818E+04  0.27106370190E+04  0.22170468430E+04 0.  0.
        2    1    3    3  502    0  0.77816923543E+03  0.29185246441E+03 -0.11708138052E+03  0.83930523030E+03  0.25500000920E-02 0.  1.
       -2    1    3    3    0  502 -0.77816923543E+03 -0.29185246441E+03  0.16766506623E+04  0.18713317887E+04  0.25500000920E-02 0. -1.
</event>
<event>
 5   0  0.1007682E-05  0.2202727E+04  0.7818609E-02  0.8517294E-01
        1   -1    0    0  501    0  0.00000000000E+00  0.00000000000E+00  0.15854295443E+04  0.15854295443E+04  0.50400001928E-02 0. -1.
       -1   -1    0    0    0  501  0.00000000000E+00  0.00000000000E+00 -0.76509335979E+03  0.76509335980E+03  0.50400001928E-02 0.  1.
    10030    2    1    2    0    0  0.00000000000E+00  0.00000000000E+00  0.82033618454E+03  0.23505229041E+04  0.22027270524E+04 0.  0.
        2    1    3    3  502    0  0.79285671600E+03  0.35657894384E+03  0.11317269775E+04  0.14270866361E+04  0.25500000920E-02 0. -1.
       -2    1    3    3    0  502 -0.79285671600E+03 -0.35657894384E+03 -0.31139079292E+03  0.92343626808E+03  0.25500000920E-02 0.  1.
</event>
<event>
 5   0  0.1005538E-05  0.2186291E+04  0.7818609E-02  0.8524156E-01
       -1   -1    0    0    0  501  0.00000000000E+00  0.00000000000E+00  0.68857245852E+03  0.68857245854E+03  0.50400001928E-02 0. -1.
        1   -1    0    0  501    0  0.00000000000E+00  0.00000000000E+00 -0.17354267828E+04  0.17354267828E+04  0.50400001928E-02 0.  1.
    10030    2    1    2    0    0  0.00000000000E+00  0.00000000000E+00 -0.10468543242E+04  0.24239992413E+04  0.21862910021E+04 0.  0.
        3    1    3    3  502    0  0.10231333075E+04 -0.38267598277E+03 -0.47738624580E+03  0.11921158965E+04  0.10100000352E+00 0. -1.
       -3    1    3    3    0  502 -0.10231333075E+04  0.38267598277E+03 -0.56946807845E+03  0.12318833448E+04  0.10100000352E+00 0.  1.
</event>
<event>
 5   0  0.1033733E-05  0.2199866E+04  0.7818609E-02  0.8518484E-01
       -1   -1    0    0    0  501  0.00000000000E+00  0.00000000000E+00  0.79984768383E+03  0.79984768384E+03  0.50400001928E-02 0.  1.
        1   -1    0    0  501    0  0.00000000000E+00  0.00000000000E+00 -0.15126039345E+04  0.15126039345E+04  0.50400001928E-02 0. -1.
    10030    2    1    2    0    0  0.00000000000E+00  0.00000000000E+00 -0.71275625069E+03  0.23124516184E+04  0.21998661356E+04 0.  0.
        5    1    3    3  502    0  0.10679233745E+04 -0.14230254604E+03 -0.12340438458E+03  0.10844173922E+04  0.46999998093E+01 0.  1.
       -5    1    3    3    0  502 -0.10679233745E+04  0.14230254604E+03 -0.58935186611E+03  0.12280342261E+04  0.46999998093E+01 0. -1.
</event>
<event>
 5   0  0.1071208E-05  0.2205010E+04  0.7818609E-02  0.8516346E-01
        1   -1    0    0  501    0  0.00000000000E+00  0.00000000000E+00  0.26737099704E+04  0.26737099704E+04  0.50400001928E-02 0. -1.
       -1   -1    0    0    0  501  0.00000000000E+00  0.00000000000E+00 -0.45461812342E+03  0.45461812344E+03  0.50400001928E-02 0.  1.
    10030    2    1    2    0    0  0.00000000000E+00  0.00000000000E+00  0.22190918470E+04  0.31283280939E+04  0.22050097590E+04 0.  0.
        4    1    3    3  502    0 -0.80977152827E+02 -0.94445929690E+03  0.19082766654E+04  0.21307468426E+04  0.12699999809E+01 0. -1.
       -4    1    3    3    0  502  0.80977152827E+02  0.94445929690E+03  0.31081518159E+03  0.99758125122E+03  0.12699999809E+01 0.  1.
</event>
<event>
 5   0  0.2298329E-05  0.2193779E+04  0.7818609E-02  0.8521022E-01
       -2   -1    0    0    0  501  0.00000000000E+00  0.00000000000E+00  0.10863423017E+04  0.10863423017E+04  0.25500000920E-02 0.  1.
        2   -1    0    0  501    0  0.00000000000E+00  0.00000000000E+00 -0.11075386055E+04  0.11075386055E+04  0.25500000920E-02 0. -1.
    10030    2    1    2    0    0  0.00000000000E+00  0.00000000000E+00 -0.21196303739E+02  0.21938809072E+04  0.21937785101E+04 0.  0.
        4    1    3    3  502    0 -0.89826451735E+03 -0.26078455192E+03 -0.58357925577E+03  0.11024763427E+04  0.12699999809E+01 0. -1.
       -4    1    3    3    0  502  0.89826451735E+03  0.26078455192E+03  0.56238295203E+03  0.10914045644E+04  0.12699999809E+01 0.  1.
</event>
<event>
 5   0  0.2229552E-05  0.2205739E+04  0.7818609E-02  0.8516043E-01
       -2   -1    0    0    0  501  0.00000000000E+00  0.00000000000E+00  0.80556633223E+03  0.80556633224E+03  0.25500000920E-02 0. -1.
        2   -1    0    0  501    0  0.00000000000E+00  0.00000000000E+00 -0.15098963396E+04  0.15098963396E+04  0.25500000920E-02 0.  1.
    10030    2    1    2    0    0  0.00000000000E+00  0.00000000000E+00 -0.70433000736E+03  0.23154626718E+04  0.22057394736E+04 0.  0.
        1    1    3    3  502    0 -0.22050050011E+03  0.90879147916E+03  0.26155334908E+03  0.97104715518E+03  0.50400001928E-02 0. -1.
       -1    1    3    3    0  502  0.22050050011E+03 -0.90879147916E+03 -0.96588335644E+03  0.13444155166E+04  0.50400001928E-02 0.  1.
</event>
<event>
 5   0  0.2289708E-05  0.2196264E+04  0.7818609E-02  0.8519985E-01
       -2   -1    0    0    0  501  0.00000000000E+00  0.00000000000E+00  0.12560503500E+04  0.12560503500E+04  0.25500000920E-02 0. -1.
        2   -1    0    0  501    0  0.00000000000E+00  0.00000000000E+00 -0.96006841009E+03  0.96006841010E+03  0.25500000920E-02 0.  1.
    10030    2    1    2    0    0  0.00000000000E+00  0.00000000000E+00  0.29598193989E+03  0.22161187601E+04  0.21962643397E+04 0.  0.
        5    1    3    3  502    0  0.24025567987E+03  0.96473351105E+03  0.61850954714E+03  0.11709012294E+04  0.46999998093E+01 0. -1.
       -5    1    3    3    0  502 -0.24025567987E+03 -0.96473351105E+03 -0.32252760725E+03  0.10452175307E+04  0.46999998093E+01 0.  1.
</event>
<event>
 5   0  0.2284329E-05  0.2208999E+04  0.7818609E-02  0.8514692E-01
       -2   -1    0    0    0  501  0.00000000000E+00  0.00000000000E+00  0.45719386442E+03  0.45719386443E+03  0.25500000920E-02 0.  1.
        2   -1    0    0  501    0  0.00000000000E+00  0.00000000000E+00 -0.26682763277E+04  0.26682763277E+04  0.25500000920E-02 0. -1.
    10030    2    1    2    0    0  0.00000000000E+00  0.00000000000E+00 -0.22110824633E+04  0.31254701921E+04  0.22089993804E+04 0.  0.
        2    1    3    3  502    0 -0.35443557448E+03  0.61357688094E+03  0.93204463748E+02  0.71469450631E+03  0.25500000920E-02 0.  1.
       -2    1    3    3    0  502  0.35443557448E+03 -0.61357688094E+03 -0.23042869270E+04  0.24107756858E+04  0.25500000920E-02 0. -1.
</event>
<event>
 5   0  0.1007682E-05  0.2198037E+04  0.7818609E-02  0.8519246E-01
        1   -1    0    0  501    0  0.00000000000E+00  0.00000000000E+00  0.17840087897E+04  0.17840087897E+04  0.50400001928E-02 0.  1.
       -1   -1    0    0    0  501  0.00000000000E+00  0.00000000000E+00 -0.67703793985E+03  0.67703793987E+03  0.50400001928E-02 0. -1.
    10030    2    1    2    0    0  0.00000000000E+00  0.00000000000E+00  0.11069708498E+04  0.24610467295E+04  0.21980369748E+04 0.  0.
        2    1    3    3  502    0  0.30584269789E+03  0.50559595210E+03 -0.48404102668E+03  0.76384732647E+03  0.25500000920E-02 0. -1.
       -2    1    3    3    0  502 -0.30584269789E+03 -0.50559595210E+03  0.15910118765E+04  0.16971994031E+04  0.25500000920E-02 0.  1.
</event>
<event>
 5   0  0.1049198E-05  0.2200625E+04  0.7818609E-02  0.8518168E-01
       -1   -1    0    0    0  501  0.00000000000E+00  0.00000000000E+00  0.13697172026E+04  0.13697172026E+04  0.50400001928E-02 0. -1.
        1   -1    0    0  501    0  0.00000000000E+00  0.00000000000E+00 -0.88389583630E+03  0.88389583631E+03  0.50400001928E-02 0.  1.
    10030    2    1    2    0    0  0.00000000000E+00  0.00000000000E+00  0.48582136633E+03  0.22536130389E+04  0.22006247589E+04 0.  0.
        1    1    3    3  502    0 -0.54401500863E+03  0.71832782408E+03 -0.40375278976E+03  0.98740240415E+03  0.50400001928E-02 0.  1.
       -1    1    3    3    0  502  0.54401500863E+03 -0.71832782408E+03  0.88957415609E+03  0.12662106348E+04  0.50400001928E-02 0. -1.
</event>
<event>
 5   0  0.2289708E-05  0.2200254E+04  0.7818609E-02  0.8518323E-01
       -2   -1    0    0    0  501  0.00000000000E+00  0.00000000000E+00  0.69428292790E+03  0.69428292790E+03  0.25500000920E-02 0.  1.
        2   -1    0    0  501    0  0.00000000000E+00  0.00000000000E+00 -0.17432071301E+04  0.17432071301E+04  0.25500000920E-02 0. -1.
    10030    2    1    2    0    0  0.00000000000E+00  0.00000000000E+00 -0.10489242022E+04  0.24374900580E+04  0.22002535765E+04 0.  0.
        5    1    3    3  502    0  0.82065930202E+03 -0.41192783781E+03 -0.11956695461E+04  0.15075854825E+04  0.46999998093E+01 0. -1.
       -5    1    3    3    0  502 -0.82065930202E+03  0.41192783781E+03  0.14674534392E+03  0.92990457549E+03  0.46999998093E+01 0.  1.
</event>
<event>
 5   0  0.2229552E-05  0.2202168E+04  0.7818609E-02  0.8517526E-01
       -2   -1    0    0    0  501  0.00000000000E+00  0.00000000000E+00  0.74461219560E+03  0.74461219561E+03  0.25500000920E-02 0.  1.
        2   -1    0    0  501    0  0.00000000000E+00  0.00000000000E+00 -0.16282115754E+04  0.16282115754E+04  0.25500000920E-02 0. -1.
    10030    2    1    2    0    0  0.00000000000E+00  0.00000000000E+00 -0.88359937979E+03  0.23728237710E+04  0.22021682007E+04 0.  0.
        1    1    3    3  502    0 -0.19259945093E+03 -0.10755413534E+04 -0.58836444759E+03  0.12409901187E+04  0.50400001928E-02 0.  1.
       -1    1    3    3    0  502  0.19259945093E+03  0.10755413534E+04 -0.29523493220E+03  0.11318336524E+04  0.50400001928E-02 0. -1.
</event>
<event>
 5   0  0.1033733E-05  0.2200726E+04  0.7818609E-02  0.8518126E-01
        1   -1    0    0  501    0  0.00000000000E+00  0.00000000000E+00  0.19995104902E+04  0.19995104902E+04  0.50400001928E-02 0.  1.
       -1   -1    0    0    0  501  0.00000000000E+00  0.00000000000E+00 -0.60554763905E+03  0.60554763907E+03  0.50400001928E-02 0. -1.
    10030    2    1    2    0    0  0.00000000000E+00  0.00000000000E+00  0.13939628512E+04  0.26050581293E+04  0.22007261135E+04 0.  0.
        5    1    3    3  502    0  0.52242014390E+03 -0.79932863328E+03  0.13441754506E+04  0.16488416549E+04  0.46999998093E+01 0.  1.
       -5    1    3    3    0  502 -0.52242014390E+03  0.79932863328E+03  0.49787400536E+02  0.95621647443E+03  0.46999998093E+01 0. -1.
</event>
<event>
 5   0  0.1005538E-05  0.2227301E+04  0.7818609E-02  0.8507150E-01
        1   -1    0    0  501    0  0.00000000000E+00  0.00000000000E+00  0.21767628709E+04  0.21767628709E+04  0.50400001928E-02 0.  1.
       -1   -1    0    0    0  501  0.00000000000E+00  0.00000000000E+00 -0.56975299711E+03  0.56975299713E+03  0.50400001928E-02 0. -1.
    10030    2    1    2    0    0  0.00000000000E+00  0.00000000000E+00  0.16070098738E+04  0.27465158680E+04  0.22273007608E+04 0.  0.
        3    1    3    3  502    0 -0.62589899752E+03 -0.46086927262E+02  0.19379320670E+04  0.20370209293E+04  0.10100000352E+00 0.  1.
       -3    1    3    3    0  502  0.62589899752E+03  0.46086927262E+02 -0.33092219318E+03  0.70949493874E+03  0.10100000352E+00 0. -1.
</event>
<event>
 5   0  0.2289708E-05  0.2174306E+04  0.7818609E-02  0.8529199E-01
       -2   -1    0    0    0  501  0.00000000000E+00  0.00000000000E+00  0.10408147082E+04  0.10408147082E+04  0.25500000920E-02 0.  1.
        2   -1    0    0  501    0  0.00000000000E+00  0.00000000000E+00 -0.11355547950E+04  0.11355547950E+04  0.25500000920E-02 0. -1.
    10030    2    1    2    0    0  0.00000000000E+00  0.00000000000E+00 -0.94740086773E+02  0.21763695031E+04  0.21743064481E+04 0.  0.
        5    1    3    3  502    0 -0.21055187270E+03 -0.42716756734E+03  0.93083703940E+03  0.10456021737E+04  0.46999998093E+01 0. -1.
       -5    1    3    3    0  502  0.21055187270E+03  0.42716756734E+03 -0.10255771262E+04  0.11307673295E+04  0.46999998093E+01 0.  1.
</event>
<event>
 5   0  0.1005538E-05  0.2203982E+04  0.7818609E-02  0.8516773E-01
       -1   -1    0    0    0  501  0.00000000000E+00  0.00000000000E+00  0.55563572477E+03  0.55563572479E+03  0.50400001928E-02 0.  1.
        1   -1    0    0  501    0  0.00000000000E+00  0.00000000000E+00 -0.21855761593E+04  0.21855761593E+04  0.50400001928E-02 0. -1.
    10030    2    1    2    0    0  0.00000000000E+00  0.00000000000E+00 -0.16299404345E+04  0.27412118841E+04  0.22039820266E+04 0.  0.
        3    1    3    3  502    0  0.19396620580E+03  0.24659075442E+03  0.49891601319E+03  0.58936159323E+03  0.10100000352E+00 0.  1.
       -3    1    3    3    0  502 -0.19396620580E+03 -0.24659075442E+03 -0.21288564477E+04  0.21518502909E+04  0.10100000352E+00 0. -1.
</event>
<event>
 5   0  0.2289708E-05  0.2199422E+04  0.7818609E-02  0.8518669E-01
        2   -1    0    0  501    0  0.00000000000E+00  0.00000000000E+00  0.86076362885E+03  0.86076362886E+03  0.25500000920E-02 0. -1.
       -2   -1    0    0    0  501  0.00000000000E+00  0.00000000000E+00 -0.14049905458E+04  0.14049905458E+04  0.25500000920E-02 0.  1.
    10030    2    1    2    0    0  0.00000000000E+00  0.00000000000E+00 -0.54422691697E+03  0.22657541747E+04  0.21994224339E+04 0.  0.
        5    1    3    3  502    0  0.79910158649E+03  0.23750287143E+03  0.46671340230E+03  0.95541323486E+03  0.46999998093E+01 0. -1.
       -5    1    3    3    0  502 -0.79910158649E+03 -0.23750287143E+03 -0.10109403193E+04  0.13103409398E+04  0.46999998093E+01 0.  1.
</event>
<event>
 5   0  0.1007682E-05  0.2151719E+04  0.7818609E-02  0.8538797E-01
        1   -1    0    0  501    0  0.00000000000E+00  0.00000000000E+00  0.61502590413E+03  0.61502590415E+03  0.50400001928E-02 0.  1.
       -1   -1    0    0    0  501  0.00000000000E+00  0.00000000000E+00 -0.18819922974E+04  0.18819922974E+04  0.50400001928E-02 0. -1.
    10030    2    1    2    0    0  0.00000000000E+00  0.00000000000E+00 -0.12669663933E+04  0.24970182015E+04  0.21517193258E+04 0.  0.
        2    1    3    3  502    0  0.11530679672E+03 -0.20444146617E+03  0.58495120597E+03  0.63028555737E+03  0.25500000920E-02 0.  1.
       -2    1    3    3    0  502 -0.11530679672E+03  0.20444146617E+03 -0.18519175992E+04  0.18667326442E+04  0.25500000920E-02 0. -1.
</event>
<event>
 5   0  0.2229552E-05  0.2203496E+04  0.7818609E-02  0.8516974E-01
       -2   -1    0    0    0  501  0.00000000000E+00  0.00000000000E+00  0.60048145005E+03  0.60048145005E+03  0.25500000920E-02 0.  1.
        2   -1    0    0  501    0  0.00000000000E+00  0.00000000000E+00 -0.20214597583E+04  0.20214597583E+04  0.25500000920E-02 0. -1.
    10030    2    1    2    0    0  0.00000000000E+00  0.00000000000E+00 -0.14209783082E+04  0.26219412083E+04  0.22034963915E+04 0.  0.
        1    1    3    3  502    0  0.91609834761E+03  0.31187273341E+03 -0.13371367267E+04  0.16505863838E+04  0.50400001928E-02 0. -1.
       -1    1    3    3    0  502 -0.91609834761E+03 -0.31187273341E+03 -0.83841581496E+02  0.97135482454E+03  0.50400001928E-02 0.  1.
</event>
<event>
 5   0  0.1007682E-05  0.2211418E+04  0.7818609E-02  0.8513691E-01
        1   -1    0    0  501    0  0.00000000000E+00  0.00000000000E+00  0.12294348381E+04  0.12294348381E+04  0.50400001928E-02 0.  1.
       -1   -1    0    0    0  501  0.00000000000E+00  0.00000000000E+00 -0.99443465975E+03  0.99443465977E+03  0.50400001928E-02 0. -1.
    10030    2    1    2    0    0  0.00000000000E+00  0.00000000000E+00  0.23500017831E+03  0.22238694978E+04  0.22114182010E+04 0.  0.
        2    1    3    3  502    0 -0.25813225384E+03 -0.10521351520E+04  0.34004221583E+03  0.11354511646E+04  0.25500000920E-02 0.  1.
       -2    1    3    3    0  502  0.25813225384E+03  0.10521351520E+04 -0.10504203752E+03  0.10884183333E+04  0.25500000920E-02 0. -1.
</event>
<event>
 5   0  0.2298329E-05  0.2196861E+04  0.7818609E-02  0.8519736E-01
        2   -1    0    0  501    0  0.00000000000E+00  0.00000000000E+00  0.19842843710E+04  0.19842843710E+04  0.25500000920E-02 0. -1.
       -2   -1    0    0    0  501  0.00000000000E+00  0.00000000000E+00 -0.60805284998E+03  0.60805284999E+03  0.25500000920E-02 0.  1.
    10030    2    1    2    0    0  0.00000000000E+00  0.00000000000E+00  0.13762315210E+04  0.25923372210E+04  0.21968611854E+04 0.  0.
        4    1    3    3  502    0 -0.71408456741E+03  0.25117464099E+03 -0.25112475888E+03  0.79754042349E+03  0.12699999809E+01 0.  1.
       -4    1    3    3    0  502  0.71408456741E+03 -0.25117464099E+03  0.16273562799E+04  0.17947967975E+04  0.12699999809E+01 0. -1.
</event>
<event>
 5   0  0.1071208E-05  0.2206649E+04  0.7818609E-02  0.8515666E-01
        1   -1    0    0  501    0  0.00000000000E+00  0.00000000000E+00  0.16122200418E+04  0.16122200418E+04  0.50400001928E-02 0.  1.
       -1   -1    0    0    0  501  0.00000000000E+00  0.00000000000E+00 -0.75506151006E+03  0.75506151007E+03  0.50400001928E-02 0. -1.
    10030    2    1    2    0    0  0.00000000000E+00  0.00000000000E+00  0.85715853176E+03  0.23672815519E+04  0.22066493145E+04 0.  0.
        4    1    3    3  502    0  0.10453698259E+04  0.34458202301E+03  0.34695628018E+03  0.11540862692E+04  0.12699999809E+01 0. -1.
       -4    1    3    3    0  502 -0.10453698259E+04 -0.34458202301E+03  0.51020225158E+03  0.12131952827E+04  0.12699999809E+01 0.  1.
</event>
<event>
 5   0  0.1007682E-05  0.2190240E+04  0.7818609E-02  0.8522501E-01
       -1   -1    0    0    0  501  0.00000000000E+00  0.00000000000E+00  0.74286404525E+03  0.74286404527E+03  0.50400001928E-02 0. -1.
        1   -1    0    0  501    0  0.00000000000E+00  0.00000000000E+00 -0.16144108510E+04  0.16144108510E+04  0.50400001928E-02 0.  1.
    10030    2    1    2    0    0  0.00000000000E+00  0.00000000000E+00 -0.87154680576E+03  0.23572748963E+04  0.21902399645E+04 0.  0.
        2    1    3    3  502    0 -0.79219374396E+03 -0.72404565694E+03 -0.67027715885E+03  0.12653396821E+04  0.25500000920E-02 0. -1.
       -2    1    3    3    0  502  0.79219374396E+03  0.72404565694E+03 -0.20126964691E+03  0.10919352142E+04  0.25500000920E-02 0.  1.
</event>
<event>
 5   0  0.1033733E-05  0.2192006E+04  0.7818609E-02  0.8521763E-01
       -1   -1    0    0    0  501  0.00000000000E+00  0.00000000000E+00  0.90730281704E+03  0.90730281706E+03  0.50400001928E-02 0.  1.
        1   -1    0    0  501    0  0.00000000000E+00  0.00000000000E+00 -0.13239491218E+04  0.13239491218E+04  0.50400001928E-02 0. -1.
    10030    2    1    2    0    0  0.00000000000E+00  0.00000000000E+00 -0.41664630478E+03  0.22312519389E+04  0.21920061751E+04 0.  0.
        5    1    3    3  502    0 -0.21534212237E+02  0.10573675363E+04  0.84420897382E+02  0.10609612655E+04  0.46999998093E+01 0.  1.
       -5    1    3    3    0  502  0.21534212237E+02 -0.10573675363E+04 -0.50106720216E+03  0.11702906734E+04  0.46999998093E+01 0. -1.
</event>
<event>
 5   0  0.1007682E-05  0.2201625E+04  0.7818609E-02  0.8517752E-01
       -1   -1    0    0    0  501  0.00000000000E+00  0.00000000000E+00  0.46935598520E+03  0.46935598523E+03  0.50400001928E-02 0. -1.
        1   -1    0    0  501    0  0.00000000000E+00  0.00000000000E+00 -0.25818105359E+04  0.25818105359E+04  0.50400001928E-02 0.  1.
    10030    2    1    2    0    0  0.00000000000E+00  0.00000000000E+00 -0.21124545507E+04  0.30511665212E+04  0.22016250614E+04 0.  0.
        2    1    3    3  502    0 -0.58814727351E+03  0.44142880385E+03  0.79012428834E+02  0.73960771232E+03  0.25500000920E-02 0. -1.
       -2    1    3    3    0  502  0.58814727351E+03 -0.44142880385E+03 -0.21914669796E+04  0.23115588088E+04  0.25500000920E-02 0.  1.
</event>
<event>
 5   0  0.1005538E-05  0.2196457E+04  0.7818609E-02  0.8519904E-01
        1   -1    0    0  501    0  0.00000000000E+00  0.00000000000E+00  0.22637381175E+04  0.22637381175E+04  0.50400001928E-02 0. -1.
       -1   -1    0    0    0  501  0.00000000000E+00  0.00000000000E+00 -0.53279390179E+03  0.53279390181E+03  0.50400001928E-02 0.  1.
    10030    2    1    2    0    0  0.00000000000E+00  0.00000000000E+00  0.17309442157E+04  0.27965320193E+04  0.21964570237E+04 0.  0.
        3    1    3    3  502    0 -0.60308560405E+03 -0.82976402105E+03  0.36601796227E+03  0.10891233793E+04  0.10100000352E+00 0.  1.
       -3    1    3    3    0  502  0.60308560405E+03  0.82976402105E+03  0.13649262534E+04  0.17074086400E+04  0.10100000352E+00 0. -1.
</event>
<event>
 5   0  0.1033733E-05  0.2193662E+04  0.7818609E-02  0.8521071E-01
       -1   -1    0    0    0  501  0.00000000000E+00  0.00000000000E+00  0.11733432360E+04  0.11733432360E+04  0.50400001928E-02 0. -1.
        1   -1    0    0  501    0  0.00000000000E+00  0.00000000000E+00 -0.10253077298E+04  0.10253077298E+04  0.50400001928E-02 0.  1.
    10030    2    1    2    0    0  0.00000000000E+00  0.00000000000E+00  0.14803550619E+03  0.21986509658E+04  0.21936616782E+04 0.  0.
        5    1    3    3  502    0 -0.24344353176E+03  0.94833544576E+03 -0.42148600548E+03  0.10659631390E+04  0.46999998093E+01 0.  1.
       -5    1    3    3    0  502  0.24344353176E+03 -0.94833544576E+03  0.56952151167E+03  0.11326878269E+04  0.46999998093E+01 0. -1.
</event>
<event>
 5   0  0.1033733E-05  0.2196481E+04  0.7818609E-02  0.8519894E-01
        1   -1    0    0  501    0  0.00000000000E+00  0.00000000000E+00  0.21721879403E+04  0.21721879403E+04  0.50400001928E-02 0.  1.
       -1   -1    0    0    0  501  0.00000000000E+00  0.00000000000E+00 -0.55526123272E+03  0.55526123274E+03  0.50400001928E-02 0. -1.
    10030    2    1    2    0    0  0.00000000000E+00  0.00000000000E+00  0.16169267076E+04  0.27274491731E+04  0.21964805972E+04 0.  0.
        5    1    3    3  502    0  0.32592013455E+03 -0.43924074521E+03  0.19910194652E+04  0.20647849688E+04  0.46999998093E+01 0.  1.
       -5    1    3    3    0  502 -0.32592013455E+03  0.43924074521E+03 -0.37409275762E+03  0.66266420430E+03  0.46999998093E+01 0. -1.
</event>
<event>
 5   0  0.1033733E-05  0.2202434E+04  0.7818609E-02  0.8517416E-01
       -1   -1    0    0    0  501  0.00000000000E+00  0.00000000000E+00  0.10228402872E+04  0.10228402872E+04  0.50400001928E-02 0.  1.
        1   -1    0    0  501    0  0.00000000000E+00  0.00000000000E+00 -0.11855997159E+04  0.11855997159E+04  0.50400001928E-02 0. -1.
    10030    2    1    2    0    0  0.00000000000E+00  0.00000000000E+00 -0.16275942869E+03  0.22084400031E+04  0.22024342478E+04 0.  0.
        5    1    3    3  502    0 -0.29914103029E+02 -0.93304372277E+03 -0.66708862695E+03  0.11473860590E+04  0.46999998093E+01 0. -1.
       -5    1    3    3    0  502  0.29914103029E+02  0.93304372277E+03  0.50432919825E+03  0.10610539441E+04  0.46999998093E+01 0.  1.
</event>
<event>
 5   0  0.2298329E-05  0.2198578E+04  0.7818609E-02  0.8519020E-01
        2   -1    0    0  501    0  0.00000000000E+00  0.00000000000E+00  0.25043838266E+04  0.25043838266E+04  0.25500000920E-02 0.  1.
       -2   -1    0    0    0  501  0.00000000000E+00  0.00000000000E+00 -0.48252859249E+03  0.48252859249E+03  0.25500000920E-02 0. -1.
    10030    2    1    2    0    0  0.00000000000E+00  0.00000000000E+00  0.20218552341E+04  0.29869124191E+04  0.21985784525E+04 0.  0.
        4    1    3    3  502    0  0.65289854208E+03 -0.16722680442E+02 -0.19036914272E+03  0.68029271471E+03  0.12699999809E+01 0. -1.
       -4    1    3    3    0  502 -0.65289854208E+03  0.16722680442E+02  0.22122243768E+04  0.23066197044E+04  0.12699999809E+01 0.  1.
</event>
<event>
 5   0  0.1071208E-05  0.2212976E+04  0.7818609E-02  0.8513047E-01
       -1   -1    0    0    0  501  0.00000000000E+00  0.00000000000E+00  0.60904658732E+03  0.60904658734E+03  0.50400001928E-02 0.  1.
        1   -1    0    0  501    0  0.00000000000E+00  0.00000000000E+00 -0.20102162356E+04  0.20102162356E+04  0.50400001928E-02 0. -1.
    10030    2    1    2    0    0  0.00000000000E+00  0.00000000000E+00 -0.14011696483E+04  0.26192628229E+04  0.22129756782E+04 0.  0.
        4    1    3    3  502    0  0.95211583262E+00 -0.10420023294E+04 -0.26003377174E+03  0.10739594668E+04  0.12699999809E+01 0.  1.
       -4    1    3    3    0  502 -0.95211583262E+00  0.10420023294E+04 -0.11411358765E+04  0.15453033562E+04  0.12699999809E+01 0. -1.
</event>
<event>
 5   0  0.2319707E-05  0.2199112E+04  0.7818609E-02  0.8518798E-01
       -2   -1    0    0    0  501  0.00000000000E+00  0.00000000000E+00  0.72655248211E+03  0.72655248211E+03  0.25500000920E-02 0. -1.
        2   -1    0    0  501    0  0.00000000000E+00  0.00000000000E+00 -0.16640557306E+04  0.16640557306E+04  0.25500000920E-02 0.  1.
    10030    2    1    2    0    0  0.00000000000E+00  0.00000000000E+00 -0.93750324845E+03  0.23906082127E+04  0.21991123859E+04 0.  0.
        3    1    3    3  502    0 -0.33852243100E+03  0.52456790583E+03  0.51519265024E+03  0.80943955994E+03  0.10100000352E+00 0. -1.
       -3    1    3    3    0  502  0.33852243100E+03 -0.52456790583E+03 -0.14526958987E+04  0.15811686527E+04  0.10100000352E+00 0.  1.
</event>
<event>
 5   0  0.2229552E-05  0.2199929E+04  0.7818609E-02  0.8518458E-01
       -2   -1    0    0    0  501  0.00000000000E+00  0.00000000000E+00  0.75621572609E+03  0.75621572610E+03  0.25500000920E-02 0. -1.
        2   -1    0    0  501    0  0.00000000000E+00  0.00000000000E+00 -0.15999686524E+04  0.15999686524E+04  0.25500000920E-02 0.  1.
    10030    2    1    2    0    0  0.00000000000E+00  0.00000000000E+00 -0.84375292634E+03  0.23561843785E+04  0.21999285954E+04 0.  0.
        1    1    3    3  502    0  0.60002581559E+03 -0.53783663113E+03 -0.12238053295E+04  0.14652640396E+04  0.50400001928E-02 0.  1.
       -1    1    3    3    0  502 -0.60002581559E+03  0.53783663113E+03  0.38005240317E+03  0.89092033894E+03  0.50400001928E-02 0. -1.
</event>
<event>
 5   0  0.1071208E-05  0.2159591E+04  0.7818609E-02  0.8535438E-01
        1   -1    0    0  501    0  0.00000000000E+00  0.00000000000E+00  0.12377160030E+04  0.12377160030E+04  0.50400001928E-02 0.  1.
       -1   -1    0    0    0  501  0.00000000000E+00  0.00000000000E+00 -0.94202437304E+03  0.94202437305E+03  0.50400001928E-02 0. -1.
    10030    2    1    2    0    0  0.00000000000E+00  0.00000000000E+00  0.29569162993E+03  0.21797403760E+04  0.21595912963E+04 0.  0.
        4    1    3    3  502    0 -0.23799393901E+03 -0.99022579013E+03  0.51003753840E+03  0.11390031317E+04  0.12699999809E+01 0.  1.
       -4    1    3    3    0  502  0.23799393901E+03  0.99022579013E+03 -0.21434590847E+03  0.10407372444E+04  0.12699999809E+01 0. -1.
</event>
<event>
 5   0  0.2229552E-05  0.2111169E+04  0.7818609E-02  0.8556339E-01
        2   -1    0    0  501    0  0.00000000000E+00  0.00000000000E+00  0.14187749393E+04  0.14187749393E+04  0.25500000920E-02 0.  1.
       -2   -1    0    0    0  501  0.00000000000E+00  0.00000000000E+00 -0.78536693529E+03  0.78536693529E+03  0.25500000920E-02 0. -1.
    10030    2    1    2    0    0  0.00000000000E+00  0.00000000000E+00  0.63340800402E+03  0.22041418746E+04  0.21111692741E+04 0.  0.
        1    1    3    3  502    0  0.82629880702E+03  0.51737192106E+03  0.73926945514E+03  0.12235042912E+04  0.50400001928E-02 0. -1.
       -1    1    3    3    0  502 -0.82629880702E+03 -0.51737192106E+03 -0.10586145111E+03  0.98063758343E+03  0.50400001928E-02 0.  1.
</event>
<event>
 5   0  0.2319707E-05  0.2205486E+04  0.7818609E-02  0.8516148E-01
       -2   -1    0    0    0  501  0.00000000000E+00  0.00000000000E+00  0.99364851864E+03  0.99364851864E+03  0.25500000920E-02 0. -1.
        2   -1    0    0  501    0  0.00000000000E+00  0.00000000000E+00 -0.12238154708E+04  0.12238154708E+04  0.25500000920E-02 0.  1.
    10030    2    1    2    0    0  0.00000000000E+00  0.00000000000E+00 -0.23016695220E+03  0.22174639895E+04  0.22054862772E+04 0.  0.
        3    1    3    3  502    0 -0.10799661372E+04 -0.21680441172E+03 -0.16743746106E+03  0.11141662012E+04  0.10100000352E+00 0. -1.
       -3    1    3    3    0  502  0.10799661372E+04  0.21680441172E+03 -0.62729491144E+02  0.11032977883E+04  0.10100000352E+00 0.  1.
</event>
<event>
 5   0  0.1007682E-05  0.2201594E+04  0.7818609E-02  0.8517765E-01
       -1   -1    0    0    0  501  0.00000000000E+00  0.00000000000E+00  0.49022859850E+03  0.49022859853E+03  0.50400001928E-02 0.  1.
        1   -1    0    0  501    0  0.00000000000E+00  0.00000000000E+00 -0.24718152834E+04  0.24718152834E+04  0.50400001928E-02 0. -1.
    10030    2    1    2    0    0  0.00000000000E+00  0.00000000000E+00 -0.19815866849E+04  0.29620438819E+04  0.22015944606E+04 0.  0.
        2    1    3    3  502    0 -0.42831824615E+03 -0.23161237961E+03  0.33745517082E+03  0.59243295544E+03  0.25500000920E-02 0.  1.
       -2    1    3    3    0  502  0.42831824615E+03  0.23161237961E+03 -0.23190418557E+04  0.23696109265E+04  0.25500000920E-02 0. -1.
</event>
<event>
 5   0  0.2319707E-05  0.2193998E+04  0.7818609E-02  0.8520931E-01
        2   -1    0    0  501    0  0.00000000000E+00  0.00000000000E+00  0.86356087385E+03  0.86356087385E+03  0.25500000920E-02 0.  1.
       -2   -1    0    0    0  501  0.00000000000E+00  0.00000000000E+00 -0.13935398597E+04  0.13935398597E+04  0.25500000920E-02 0. -1.
    10030    2    1    2    0    0  0.00000000000E+00  0.00000000000E+00 -0.52997898580E+03  0.22571007335E+04  0.21939977201E+04 0.  0.
        3    1    3    3  502    0  0.66253926898E+03  0.76657640726E+03 -0.69756978537E+03  0.12301224682E+04  0.10100000352E+00 0. -1.
       -3    1    3    3    0  502 -0.66253926898E+03 -0.76657640726E+03  0.16759079957E+03  0.10269782653E+04  0.10100000352E+00 0.  1.
</event>
<event>
 5   0  0.1071208E-05  0.2198856E+04  0.7818609E-02  0.8518905E-01
       -1   -1    0    0    0  501  0.00000000000E+00  0.00000000000E+00  0.11858186840E+04  0.11858186840E+04  0.50400001928E-02 0.  1.
        1   -1    0    0  501    0  0.00000000000E+00  0.00000000000E+00 -0.10193306979E+04  0.10193306979E+04  0.50400001928E-02 0. -1.
    10030    2    1    2    0    0  0.00000000000E+00  0.00000000000E+00  0.16648798609E+03  0.22051493820E+04  0.21988555085E+04 0.  0.
        4    1    3    3  502    0 -0.49092596931E+03 -0.59748362975E+02 -0.90148389673E+03  0.10282280891E+04  0.12699999809E+01 0. -1.
       -4    1    3    3    0  502  0.49092596931E+03  0.59748362975E+02  0.10679718828E+04  0.11769212929E+04  0.12699999809E+01 0.  1.
</event>
<event>
 5   0  0.1007682E-05  0.2195449E+04  0.7818609E-02  0.8520325E-01
        1   -1    0    0  501    0  0.00000000000E+00  0.00000000000E+00  0.12303984462E+04  0.12303984462E+04  0.50400001928E-02 0. -1.
       -1   -1    0    0    0  501  0.00000000000E+00  0.00000000000E+00 -0.97935692526E+03  0.97935692528E+03  0.50400001928E-02 0.  1.
    10030    2    1    2    0    0  0.00000000000E+00  0.00000000000E+00  0.25104152097E+03  0.22097553715E+04  0.21954491469E+04 0.  0.
        2    1    3    3  502    0  0.89767270315E+03  0.62224549095E+03  0.23574926052E+03  0.11174003073E+04  0.25500000920E-02 0.  1.
       -2    1    3    3    0  502 -0.89767270315E+03 -0.62224549095E+03  0.15292260443E+02  0.10923550642E+04  0.25500000920E-02 0. -1.
</event>
<event>
 5   0  0.1049198E-05  0.2197218E+04  0.7818609E-02  0.8519587E-01
       -1   -1    0    0    0  501  0.00000000000E+00  0.00000000000E+00  0.13463775817E+04  0.13463775817E+04  0.50400001928E-02 0.  1.
        1   -1    0    0  501    0  0.00000000000E+00  0.00000000000E+00 -0.89643612872E+03  0.89643612873E+03  0.50400001928E-02 0. -1.
    10030    2    1    2    0    0  0.00000000000E+00  0.00000000000E+00  0.44994145302E+03  0.22428137105E+04  0.21972177927E+04 0.  0.
        1    1    3    3  502    0 -0.76435545398E+03  0.77015522010E+03  0.40047823417E+03  0.11566162454E+04  0.50400001928E-02 0.  1.
       -1    1    3    3    0  502  0.76435545398E+03 -0.77015522010E+03  0.49463218855E+02  0.10861974651E+04  0.50400001928E-02 0. -1.
</event>
<event>
 5   0  0.2229552E-05  0.2202108E+04  0.7818609E-02  0.8517551E-01
        2   -1    0    0  501    0  0.00000000000E+00  0.00000000000E+00  0.20602737679E+04  0.20602737679E+04  0.25500000920E-02 0. -1.
       -2   -1    0    0    0  501  0.00000000000E+00  0.00000000000E+00 -0.58842650325E+03  0.58842650325E+03  0.25500000920E-02 0.  1.
    10030    2    1    2    0    0  0.00000000000E+00  0.00000000000E+00  0.14718472646E+04  0.26487002711E+04  0.22021077984E+04 0.  0.
        1    1    3    3  502    0 -0.12615005362E+03  0.22133248745E+03  0.20243364279E+04  0.20403038694E+04  0.50400001928E-02 0. -1.
       -1    1    3    3    0  502  0.12615005362E+03 -0.22133248745E+03 -0.55248916331E+03  0.60839640172E+03  0.50400001928E-02 0.  1.
</event>
<event>
 5   0  0.1049198E-05  0.2193624E+04  0.7818609E-02  0.8521087E-01
       -1   -1    0    0    0  501  0.00000000000E+00  0.00000000000E+00  0.66759146947E+03  0.66759146949E+03  0.50400001928E-02 0. -1.
        1   -1    0    0  501    0  0.00000000000E+00  0.00000000000E+00 -0.18019943871E+04  0.18019943872E+04  0.50400001928E-02 0.  1.
    10030    2    1    2    0    0  0.00000000000E+00  0.00000000000E+00 -0.11344029177E+04  0.24695858566E+04  0.21936235602E+04 0.  0.
        1    1    3    3  502    0  0.10349363071E+04  0.36153268068E+03 -0.60615228892E+03  0.12526849709E+04  0.50400001928E-02 0.  1.
       -1    1    3    3    0  502 -0.10349363071E+04 -0.36153268068E+03 -0.52825062876E+03  0.12169008857E+04  0.50400001928E-02 0. -1.
</event>
<event>
 5   0  0.1071208E-05  0.2217526E+04  0.7818609E-02  0.8511169E-01
        1   -1    0    0  501    0  0.00000000000E+00  0.00000000000E+00  0.75318825992E+03  0.75318825993E+03  0.50400001928E-02 0.  1.
       -1   -1    0    0    0  501  0.00000000000E+00  0.00000000000E+00 -0.16322023459E+04  0.16322023459E+04  0.50400001928E-02 0. -1.
    10030    2    1    2    0    0  0.00000000000E+00  0.00000000000E+00 -0.87901408596E+03  0.23853906058E+04  0.22175262296E+04 0.  0.
        4    1    3    3  502    0  0.86391365020E+03  0.69371768292E+03 -0.48467376031E+03  0.12093391937E+04  0.12699999809E+01 0. -1.
       -4    1    3    3    0  502 -0.86391365020E+03 -0.69371768292E+03 -0.39434032565E+03  0.11760514121E+04  0.12699999809E+01 0.  1.
</event>
<event>
 5   0  0.2284329E-05  0.2197444E+04  0.7818609E-02  0.8519493E-01
       -2   -1    0    0    0  501  0.00000000000E+00  0.00000000000E+00  0.14646943990E+04  0.14646943990E+04  0.25500000920E-02 0. -1.
        2   -1    0    0  501    0  0.00000000000E+00  0.00000000000E+00 -0.82419227312E+03  0.82419227312E+03  0.25500000920E-02 0.  1.
    10030    2    1    2    0    0  0.00000000000E+00  0.00000000000E+00  0.64050212591E+03  0.22888866722E+04  0.21974437933E+04 0.  0.
        2    1    3    3  502    0  0.48603623770E+03  0.87318797063E+02 -0.70208801438E+03  0.85836086620E+03  0.25500000920E-02 0.  1.
       -2    1    3    3    0  502 -0.48603623770E+03 -0.87318797063E+02  0.13425901403E+04  0.14305258060E+04  0.25500000920E-02 0. -1.
</event>
<event>
 5   0  0.2284329E-05  0.2183889E+04  0.7818609E-02  0.8525164E-01
       -2   -1    0    0    0  501  0.00000000000E+00  0.00000000000E+00  0.13295473631E+04  0.13295473631E+04  0.25500000920E-02 0.  1.
        2   -1    0    0  501    0  0.00000000000E+00  0.00000000000E+00 -0.89680330569E+03  0.89680330569E+03  0.25500000920E-02 0. -1.
    10030    2    1    2    0    0  0.00000000000E+00  0.00000000000E+00  0.43274405741E+03  0.22263506688E+04  0.21838887062E+04 0.  0.
        2    1    3    3  502    0  0.95214786528E+03  0.19428408755E+03 -0.29131748712E+03  0.10144938355E+04  0.25500000920E-02 0. -1.
       -2    1    3    3    0  502 -0.95214786528E+03 -0.19428408755E+03  0.72406154453E+03  0.12118568333E+04  0.25500000920E-02 0.  1.
</event>
<event>
 5   0  0.2289708E-05  0.2201621E+04  0.7818609E-02  0.8517754E-01
       -2   -1    0    0    0  501  0.00000000000E+00  0.00000000000E+00  0.12322653403E+04  0.12322653403E+04  0.25500000920E-02 0. -1.
        2   -1    0    0  501    0  0.00000000000E+00  0.00000000000E+00 -0.98337879817E+03  0.98337879817E+03  0.25500000920E-02 0.  1.
    10030    2    1    2    0    0  0.00000000000E+00  0.00000000000E+00  0.24888654211E+03  0.22156441384E+04  0.22016208660E+04 0.  0.
        5    1    3    3  502    0  0.20348927664E+03  0.39017180687E+03 -0.89100282352E+03  0.99375552632E+03  0.46999998093E+01 0.  1.
       -5    1    3    3    0  502 -0.20348927664E+03 -0.39017180687E+03  0.11398893656E+04  0.12218886121E+04  0.46999998093E+01 0. -1.
</event>
<event>
 5   0  0.2229552E-05  0.2203900E+04  0.7818609E-02  0.8516806E-01
        2   -1    0    0  501    0  0.00000000000E+00  0.00000000000E+00  0.10306950763E+04  0.10306950763E+04  0.25500000920E-02 0. -1.
       -2   -1    0    0    0  501  0.00000000000E+00  0.00000000000E+00 -0.11781313544E+04  0.11781313544E+04  0.25500000920E-02 0.  1.
    10030    2    1    2    0    0  0.00000000000E+00  0.00000000000E+00 -0.14743627807E+03  0.22088264308E+04  0.22039003483E+04 0.  0.
        1    1    3    3  502    0  0.79027105664E+03 -0.41498767490E+03  0.57390810406E+03  0.10611850099E+04  0.50400001928E-02 0. -1.
       -1    1    3    3    0  502 -0.79027105664E+03  0.41498767490E+03 -0.72134438213E+03  0.11476414209E+04  0.50400001928E-02 0.  1.
</event>
<event>
 5   0  0.1005538E-05  0.2196679E+04  0.7818609E-02  0.8519812E-01
        1   -1    0    0  501    0  0.00000000000E+00  0.00000000000E+00  0.27679829015E+04  0.27679829015E+04  0.50400001928E-02 0. -1.
       -1   -1    0    0    0  501  0.00000000000E+00  0.00000000000E+00 -0.43582246983E+03  0.43582246986E+03  0.50400001928E-02 0.  1.
    10030    2    1    2    0    0  0.00000000000E+00  0.00000000000E+00  0.23321604317E+04  0.32038053714E+04  0.21966785333E+04 0.  0.
        3    1    3    3  502    0 -0.21808719921E+03  0.33098703573E+03  0.26600297929E+04  0.26894001104E+04  0.10100000352E+00 0. -1.
       -3    1    3    3    0  502  0.21808719921E+03 -0.33098703573E+03 -0.32786936125E+03  0.51440526098E+03  0.10100000352E+00 0.  1.
</event>
<event>
 5   0  0.2298329E-05  0.2198316E+04  0.7818609E-02  0.8519129E-01
        2   -1    0    0  501    0  0.00000000000E+00  0.00000000000E+00  0.11315918939E+04  0.11315918939E+04  0.25500000920E-02 0. -1.
       -2   -1    0    0    0  501  0.00000000000E+00  0.00000000000E+00 -0.10676539789E+04  0.10676539789E+04  0.25500000920E-02 0.  1.
    10030    2    1    2    0    0  0.00000000000E+00  0.00000000000E+00  0.63937915023E+02  0.21992458728E+04  0.21983162539E+04 0.  0.
        4    1    3    3  502    0 -0.46884618447E+02 -0.10979091421E+04  0.86283539805E+01  0.10989443631E+04  0.12699999809E+01 0. -1.
       -4    1    3    3    0  502  0.46884618447E+02  0.10979091421E+04  0.55309561043E+02  0.11003015097E+04  0.12699999809E+01 0.  1.
</event>
<event>
 5   0  0.2289708E-05  0.2230731E+04  0.7818609E-02  0.8505745E-01
        2   -1    0    0  501    0  0.00000000000E+00  0.00000000000E+00  0.21300919153E+04  0.21300919153E+04  0.25500000920E-02 0.  1.
       -2   -1    0    0    0  501  0.00000000000E+00  0.00000000000E+00 -0.58403117683E+03  0.58403117683E+03  0.25500000920E-02 0. -1.
    10030    2    1    2    0    0  0.00000000000E+00  0.00000000000E+00  0.15460607385E+04  0.27141230921E+04  0.22307309009E+04 0.  0.
        5    1    3    3  502    0  0.49430278450E+03 -0.54573880936E+03  0.17923375858E+04  0.19376950746E+04  0.46999998093E+01 0.  1.
       -5    1    3    3    0  502 -0.49430278450E+03  0.54573880936E+03 -0.24627684733E+03  0.77642801749E+03  0.46999998093E+01 0. -1.
</event>
<event>
 5   0  0.2229552E-05  0.2205727E+04  0.7818609E-02  0.8516048E-01
       -2   -1    0    0    0  501  0.00000000000E+00  0.00000000000E+00  0.67640802920E+03  0.67640802920E+03  0.25500000920E-02 0.  1.
        2   -1    0    0  501    0  0.00000000000E+00  0.00000000000E+00 -0.17981865205E+04  0.17981865205E+04  0.25500000920E-02 0. -1.
    10030    2    1    2    0    0  0.00000000000E+00  0.00000000000E+00 -0.11217784913E+04  0.24745945497E+04  0.22057269101E+04 0.  0.
        1    1    3    3  502    0  0.68148539622E+03  0.73791714678E+03 -0.50009460401E+02  0.10057062230E+04  0.50400001928E-02 0. -1.
       -1    1    3    3    0  502 -0.68148539622E+03 -0.73791714678E+03 -0.10717690309E+04  0.14688883267E+04  0.50400001928E-02 0.  1.
</event>
<event>
 5   0  0.1049198E-05  0.2203018E+04  0.7818609E-02  0.8517173E-01
        1   -1    0    0  501    0  0.00000000000E+00  0.00000000000E+00  0.11783840330E+04  0.11783840330E+04  0.50400001928E-02 0. -1.
       -1   -1    0    0    0  501  0.00000000000E+00  0.00000000000E+00 -0.10296487232E+04  0.10296487232E+04  0.50400001928E-02 0.  1.
    10030    2    1    2    0    0  0.00000000000E+00  0.00000000000E+00  0.14873530979E+03  0.22080327562E+04  0.22030175805E+04 0.  0.
        1    1    3    3  502    0 -0.72781548347E+03 -0.47284189046E+03  0.75416444232E+03  0.11498081742E+04  0.50400001928E-02 0. -1.
       -1    1    3    3    0  502  0.72781548347E+03  0.47284189046E+03 -0.60542913253E+03  0.10582245820E+04  0.50400001928E-02 0.  1.
</event>
<event>
 5   0  0.1007682E-05  0.2217038E+04  0.7818609E-02  0.8511370E-01
       -1   -1    0    0    0  501  0.00000000000E+00  0.00000000000E+00  0.86579985315E+03  0.86579985317E+03  0.50400001928E-02 0. -1.
        1   -1    0    0  501    0  0.00000000000E+00  0.00000000000E+00 -0.14192821773E+04  0.14192821773E+04  0.50400001928E-02 0.  1.
    10030    2    1    2    0    0  0.00000000000E+00  0.00000000000E+00 -0.55348232413E+03  0.22850820305E+04  0.22170379344E+04 0.  0.
        2    1    3    3  502    0 -0.66323813013E+03  0.31567426174E+03  0.57896817617E+03  0.93527493594E+03  0.25500000920E-02 0. -1.
       -2    1    3    3    0  502  0.66323813013E+03 -0.31567426174E+03 -0.11324505003E+04  0.13498070945E+04  0.25500000920E-02 0.  1.
</event>
<event>
 5   0  0.1007682E-05  0.2183065E+04  0.7818609E-02  0.8525510E-01
       -1   -1    0    0    0  501  0.00000000000E+00  0.00000000000E+00  0.53294479337E+03  0.53294479340E+03  0.50400001928E-02 0.  1.
        1   -1    0    0  501    0  0.00000000000E+00  0.00000000000E+00 -0.22355844454E+04  0.22355844454E+04  0.50400001928E-02 0. -1.
    10030    2    1    2    0    0  0.00000000000E+00  0.00000000000E+00 -0.17026396520E+04  0.27685292388E+04  0.21830649009E+04 0.  0.
        2    1    3    3  502    0  0.91838007080E+03  0.32019755795E+03 -0.22296711660E+03  0.99782902627E+03  0.25500000920E-02 0. -1.
       -2    1    3    3    0  502 -0.91838007080E+03 -0.32019755795E+03 -0.14796725354E+04  0.17707002125E+04  0.25500000920E-02 0.  1.
</event>
<event>
 5   0  0.2284329E-05  0.2202572E+04  0.7818609E-02  0.8517359E-01
        2   -1    0    0  501    0  0.00000000000E+00  0.00000000000E+00  0.88922937434E+03  0.88922937434E+03  0.25500000920E-02 0. -1.
       -2   -1    0    0    0  501  0.00000000000E+00  0.00000000000E+00 -0.13639118023E+04  0.13639118023E+04  0.25500000920E-02 0.  1.
    10030    2    1    2    0    0  0.00000000000E+00  0.00000000000E+00 -0.47468242798E+03  0.22531411767E+04  0.22025716230E+04 0.  0.
        2    1    3    3  502    0  0.50029969357E+03  0.43382164530E+03 -0.11375044033E+04  0.13162132316E+04  0.25500000920E-02 0.  1.
       -2    1    3    3    0  502 -0.50029969357E+03 -0.43382164530E+03  0.66282197535E+03  0.93692794511E+03  0.25500000920E-02 0. -1.
</event>
<event>
 5   0  0.2298329E-05  0.2170517E+04  0.7818609E-02  0.8530801E-01
       -2   -1    0    0    0  501  0.00000000000E+00  0.00000000000E+00  0.10307061101E+04  0.10307061101E+04  0.25500000920E-02 0.  1.
        2   -1    0    0  501    0  0.00000000000E+00  0.00000000000E+00 -0.11426982933E+04  0.11426982933E+04  0.25500000920E-02 0. -1.
    10030    2    1    2    0    0  0.00000000000E+00  0.00000000000E+00 -0.11199218317E+03  0.21734044035E+04  0.21705170932E+04 0.  0.
        4    1    3    3  502    0  0.77044937984E+03 -0.22684106870E+02 -0.82100039287E+03  0.11261216957E+04  0.12699999809E+01 0. -1.
       -4    1    3    3    0  502 -0.77044937984E+03  0.22684106870E+02  0.70900820970E+03  0.10472827077E+04  0.12699999809E+01 0.  1.
</event>
<event>
 5   0  0.2289708E-05  0.2199261E+04  0.7818609E-02  0.8518736E-01
       -2   -1    0    0    0  501  0.00000000000E+00  0.00000000000E+00  0.78734105793E+03  0.78734105793E+03  0.25500000920E-02 0.  1.
        2   -1    0    0  501    0  0.00000000000E+00  0.00000000000E+00 -0.15357861587E+04  0.15357861587E+04  0.25500000920E-02 0. -1.
    10030    2    1    2    0    0  0.00000000000E+00  0.00000000000E+00 -0.74844510077E+03  0.23231272166E+04  0.21992612386E+04 0.  0.
        5    1    3    3  502    0  0.10589664562E+04  0.18002265173E+03 -0.62273284654E+03  0.12416265133E+04  0.46999998093E+01 0. -1.
       -5    1    3    3    0  502 -0.10589664562E+04 -0.18002265173E+03 -0.12571225423E+03  0.10815007033E+04  0.46999998093E+01 0.  1.
</event>
<event>
 5   0  0.1049198E-05  0.2201185E+04  0.7818609E-02  0.8517935E-01
       -1   -1    0    0    0  501  0.00000000000E+00  0.00000000000E+00  0.76731272995E+03  0.76731272997E+03  0.50400001928E-02 0.  1.
        1   -1    0    0  501    0  0.00000000000E+00  0.00000000000E+00 -0.15786308513E+04  0.15786308513E+04  0.50400001928E-02 0. -1.
    10030    2    1    2    0    0  0.00000000000E+00  0.00000000000E+00 -0.81131812133E+03  0.23459435813E+04  0.22011847247E+04 0.  0.
        1    1    3    3  502    0  0.25698555859E+03  0.65008987377E+03  0.50033137337E+03  0.85964522014E+03  0.50400001928E-02 0.  1.
       -1    1    3    3    0  502 -0.25698555859E+03 -0.65008987377E+03 -0.13116494947E+04  0.14862983611E+04  0.50400001928E-02 0. -1.
</event>
<event>
 5   0  0.1071208E-05  0.2200909E+04  0.7818609E-02  0.8518050E-01
        1   -1    0    0  501    0  0.00000000000E+00  0.00000000000E+00  0.16598531569E+04  0.16598531569E+04  0.50400001928E-02 0. -1.
       -1   -1    0    0    0  501  0.00000000000E+00  0.00000000000E+00 -0.72958247091E+03  0.72958247093E+03  0.50400001928E-02 0.  1.
    10030    2    1    2    0    0  0.00000000000E+00  0.00000000000E+00  0.93027068596E+03  0.23894356278E+04  0.22009086919E+04 0.  0.
        4    1    3    3  502    0  0.33989968069E+03  0.89244697693E+03 -0.12851723339E+03  0.96359311524E+03  0.12699999809E+01 0.  1.
       -4    1    3    3    0  502 -0.33989968069E+03 -0.89244697693E+03  0.10587879193E+04  0.14258425126E+04  0.12699999809E+01 0. -1.
</event>
<event>
 5   0  0.2284329E-05  0.2183879E+04  0.7818609E-02  0.8525168E-01
       -2   -1    0    0    0  501  0.00000000000E+00  0.00000000000E+00  0.55595061409E+03  0.55595061410E+03  0.25500000920E-02 0. -1.
        2   -1    0    0  501    0  0.00000000000E+00  0.00000000000E+00 -0.21446714440E+04  0.21446714440E+04  0.25500000920E-02 0.  1.
    10030    2    1    2    0    0  0.00000000000E+00  0.00000000000E+00 -0.15887208299E+04  0.27006220581E+04  0.21838785739E+04 0.  0.
        2    1    3    3  502    0 -0.73983807152E+03  0.38961279515E+03  0.74069803265E+02  0.83943125864E+03  0.25500000920E-02 0. -1.
       -2    1    3    3    0  502  0.73983807152E+03 -0.38961279515E+03 -0.16627906332E+04  0.18611907995E+04  0.25500000920E-02 0.  1.
</event>
<event>
 5   0  0.2229552E-05  0.2201568E+04  0.7818609E-02  0.8517776E-01
       -2   -1    0    0    0  501  0.00000000000E+00  0.00000000000E+00  0.74903501595E+03  0.74903501595E+03  0.25500000920E-02 0. -1.
        2   -1    0    0  501    0  0.00000000000E+00  0.00000000000E+00 -0.16177156744E+04  0.16177156744E+04  0.25500000920E-02 0.  1.
    10030    2    1    2    0    0  0.00000000000E+00  0.00000000000E+00 -0.86868065849E+03  0.23667506904E+04  0.22015682465E+04 0.  0.
        1    1    3    3  502    0 -0.10850217993E+04 -0.15791345416E+03 -0.53921341586E+03  0.12218674527E+04  0.50400001928E-02 0.  1.
       -1    1    3    3    0  502  0.10850217993E+04  0.15791345416E+03 -0.32946724264E+03  0.11448832377E+04  0.50400001928E-02 0. -1.
</event>
<event>
 5   0  0.2229552E-05  0.2207433E+04  0.7818609E-02  0.8515341E-01
       -2   -1    0    0    0  501  0.00000000000E+00  0.00000000000E+00  0.12716147397E+04  0.12716147397E+04  0.25500000920E-02 0.  1.
        2   -1    0    0  501    0  0.00000000000E+00  0.00000000000E+00 -0.95798678857E+03  0.95798678857E+03  0.25500000920E-02 0. -1.
    10030    2    1    2    0    0  0.00000000000E+00  0.00000000000E+00  0.31362795110E+03  0.22296015282E+04  0.22074330076E+04 0.  0.
        1    1    3    3  502    0 -0.15254107605E+02 -0.80696197165E+03  0.91721566871E+03  0.12217630271E+04  0.50400001928E-02 0.  1.
       -1    1    3    3    0  502  0.15254107605E+02  0.80696197165E+03 -0.60358771760E+03  0.10078385011E+04  0.50400001928E-02 0. -1.
</event>
<event>
 5   0  0.1007682E-05  0.2202470E+04  0.7818609E-02  0.8517401E-01
       -1   -1    0    0    0  501  0.00000000000E+00  0.00000000000E+00  0.11046447936E+04  0.11046447936E+04  0.50400001928E-02 0. -1.
        1   -1    0    0  501    0  0.00000000000E+00  0.00000000000E+00 -0.10978359191E+04  0.10978359191E+04  0.50400001928E-02 0.  1.
    10030    2    1    2    0    0  0.00000000000E+00  0.00000000000E+00  0.68088745089E+01  0.22024807128E+04  0.22024701881E+04 0.  0.
        2    1    3    3  502    0 -0.10580658347E+04 -0.20452863706E+02  0.30803206096E+03  0.11021820996E+04  0.25500000920E-02 0. -1.
       -2    1    3    3    0  502  0.10580658347E+04  0.20452863706E+02 -0.30122318645E+03  0.11002986132E+04  0.25500000920E-02 0.  1.
</event>
<event>
 5   0  0.2289708E-05  0.2208578E+04  0.7818609E-02  0.8514866E-01
       -2   -1    0    0    0  501  0.00000000000E+00  0.00000000000E+00  0.18094323376E+04  0.18094323376E+04  0.25500000920E-02 0. -1.
        2   -1    0    0  501    0  0.00000000000E+00  0.00000000000E+00 -0.67394304492E+03  0.67394304493E+03  0.25500000920E-02 0.  1.
    10030    2    1    2    0    0  0.00000000000E+00  0.00000000000E+00  0.11354892926E+04  0.24833753825E+04  0.22085781301E+04 0.  0.
        5    1    3    3  502    0  0.92303651171E+03  0.60326800849E+03  0.50118910703E+03  0.12112560848E+04  0.46999998093E+01 0.  1.
       -5    1    3    3    0  502 -0.92303651171E+03 -0.60326800849E+03  0.63430018561E+03  0.12721192977E+04  0.46999998093E+01 0. -1.
</event>
<event>
 5   0  0.1071208E-05  0.2208112E+04  0.7818609E-02  0.8515059E-01
        1   -1    0    0  501    0  0.00000000000E+00  0.00000000000E+00  0.72011766841E+03  0.72011766843E+03  0.50400001928E-02 0.  1.
       -1   -1    0    0    0  501  0.00000000000E+00  0.00000000000E+00 -0.16926945874E+04  0.16926945875E+04  0.50400001928E-02 0. -1.
    10030    2    1    2    0    0  0.00000000000E+00  0.00000000000E+00 -0.97257691903E+03  0.24128122559E+04  0.22081116636E+04 0.  0.
        4    1    3    3  502    0  0.12815834236E+03 -0.48157255583E+03 -0.15628103393E+04  0.16403397382E+04  0.12699999809E+01 0. -1.
       -4    1    3    3    0  502 -0.12815834236E+03  0.48157255583E+03  0.59023342027E+03  0.77247251767E+03  0.12699999809E+01 0.  1.
</event>
<event>
 5   0  0.1049198E-05  0.2193460E+04  0.7818609E-02  0.8521155E-01
       -1   -1    0    0    0  501  0.00000000000E+00  0.00000000000E+00  0.10429027197E+04  0.10429027198E+04  0.50400001928E-02 0. -1.
        1   -1    0    0  501    0  0.00000000000E+00  0.00000000000E+00 -0.11533351885E+04  0.11533351885E+04  0.50400001928E-02 0.  1.
    10030    2    1    2    0    0  0.00000000000E+00  0.00000000000E+00 -0.11043246873E+03  0.21962379082E+04  0.21934597374E+04 0.  0.
        1    1    3    3  502    0  0.32241474743E+03  0.17073585563E+03  0.98036372682E+03  0.10460473405E+04  0.50400001928E-02 0. -1.
       -1    1    3    3    0  502 -0.32241474743E+03 -0.17073585563E+03 -0.10907961955E+04  0.11501905677E+04  0.50400001928E-02 0.  1.
</event>
<event>
 5   0  0.1049198E-05  0.2203814E+04  0.7818609E-02  0.8516842E-01
       -1   -1    0    0    0  501  0.00000000000E+00  0.00000000000E+00  0.10449694635E+04  0.10449694635E+04  0.50400001928E-02 0.  1.
        1   -1    0    0  501    0  0.00000000000E+00  0.00000000000E+00 -0.11619472927E+04  0.11619472927E+04  0.50400001928E-02 0. -1.
    10030    2    1    2    0    0  0.00000000000E+00  0.00000000000E+00 -0.11697782922E+03  0.22069167563E+04  0.22038143653E+04 0.  0.
        1    1    3    3  502    0  0.71741286598E+03  0.18747308691E+03 -0.87472656343E+03  0.11467231311E+04  0.50400001928E-02 0. -1.
       -1    1    3    3    0  502 -0.71741286598E+03 -0.18747308691E+03  0.75774873422E+03  0.10601936252E+04  0.50400001928E-02 0.  1.
</event>
<event>
 5   0  0.1007682E-05  0.2199908E+04  0.7818609E-02  0.8518466E-01
        1   -1    0    0  501    0  0.00000000000E+00  0.00000000000E+00  0.82886722459E+03  0.82886722461E+03  0.50400001928E-02 0.  1.
       -1   -1    0    0    0  501  0.00000000000E+00  0.00000000000E+00 -0.14597013820E+04  0.14597013820E+04  0.50400001928E-02 0. -1.
    10030    2    1    2    0    0  0.00000000000E+00  0.00000000000E+00 -0.63083415741E+03  0.22885686066E+04  0.21999078465E+04 0.  0.
        2    1    3    3  502    0  0.15589106875E+03  0.67932138693E+02 -0.14459443831E+04  0.14559093241E+04  0.25500000920E-02 0. -1.
       -2    1    3    3    0  502 -0.15589106875E+03 -0.67932138693E+02  0.81511022571E+03  0.83265928257E+03  0.25500000920E-02 0.  1.
</event>
<event>
 5   0  0.1005538E-05  0.2205797E+04  0.7818609E-02  0.8516019E-01
       -1   -1    0    0    0  501  0.00000000000E+00  0.00000000000E+00  0.80996616886E+03  0.80996616888E+03  0.50400001928E-02 0.  1.
        1   -1    0    0  501    0  0.00000000000E+00  0.00000000000E+00 -0.15017728618E+04  0.15017728618E+04  0.50400001928E-02 0. -1.
    10030    2    1    2    0    0  0.00000000000E+00  0.00000000000E+00 -0.69180669295E+03  0.23117390307E+04  0.22057970998E+04 0.  0.
        3    1    3    3  502    0 -0.41887083090E+03  0.44812326475E+03 -0.13065051126E+04  0.14433374009E+04  0.10100000352E+00 0.  1.
       -3    1    3    3    0  502  0.41887083090E+03 -0.44812326475E+03  0.61469841962E+03  0.86840162982E+03  0.10100000352E+00 0. -1.
</event>
<event>
 5   0  0.2319707E-05  0.2199423E+04  0.7818609E-02  0.8518669E-01
       -2   -1    0    0    0  501  0.00000000000E+00  0.00000000000E+00  0.51394067427E+03  0.51394067428E+03  0.25500000920E-02 0. -1.
        2   -1    0    0  501    0  0.00000000000E+00  0.00000000000E+00 -0.23531215084E+04  0.23531215084E+04  0.25500000920E-02 0.  1.
    10030    2    1    2    0    0  0.00000000000E+00  0.00000000000E+00 -0.18391808342E+04  0.28670621827E+04  0.21994225194E+04 0.  0.
        3    1    3    3  502    0 -0.44581090682E+03  0.54510080083E+03  0.18149278477E+03  0.72720140871E+03  0.10100000352E+00 0. -1.
       -3    1    3    3    0  502  0.44581090682E+03 -0.54510080083E+03 -0.20206736189E+04  0.21398607740E+04  0.10100000352E+00 0.  1.
</event>
<event>
 5   0  0.1005538E-05  0.2204436E+04  0.7818609E-02  0.8516584E-01
        1   -1    0    0  501    0  0.00000000000E+00  0.00000000000E+00  0.12547902393E+04  0.12547902393E+04  0.50400001928E-02 0.  1.
       -1   -1    0    0    0  501  0.00000000000E+00  0.00000000000E+00 -0.96819746365E+03  0.96819746366E+03  0.50400001928E-02 0. -1.
    10030    2    1    2    0    0  0.00000000000E+00  0.00000000000E+00  0.28659277561E+03  0.22229877029E+04  0.22044361883E+04 0.  0.
        3    1    3    3  502    0 -0.27620363356E+03 -0.29617041498E+03 -0.89045464996E+03  0.97822024909E+03  0.10100000352E+00 0. -1.
       -3    1    3    3    0  502  0.27620363356E+03  0.29617041498E+03  0.11770474256E+04  0.12447674538E+04  0.10100000352E+00 0.  1.
</event>
<event>
 5   0  0.2298329E-05  0.2215690E+04  0.7818609E-02  0.8511926E-01
        2   -1    0    0  501    0  0.00000000000E+00  0.00000000000E+00  0.11219794791E+04  0.11219794791E+04  0.25500000920E-02 0. -1.
       -2   -1    0    0    0  501  0.00000000000E+00  0.00000000000E+00 -0.10938889295E+04  0.10938889295E+04  0.25500000920E-02 0.  1.
    10030    2    1    2    0    0  0.00000000000E+00  0.00000000000E+00  0.28090549588E+02  0.22158684085E+04  0.22156903495E+04 0.  0.
        4    1    3    3  502    0 -0.42870614174E+03 -0.52379479980E+03 -0.86304822091E+03  0.10968152957E+04  0.12699999809E+01 0.  1.
       -4    1    3    3    0  502  0.42870614174E+03  0.52379479980E+03  0.89113877050E+03  0.11190531129E+04  0.12699999809E+01 0. -1.
</event>
<event>
 5   0  0.2319707E-05  0.2146025E+04  0.7818609E-02  0.8541236E-01
       -2   -1    0    0    0  501  0.00000000000E+00  0.00000000000E+00  0.11311876514E+04  0.11311876514E+04  0.25500000920E-02 0.  1.
        2   -1    0    0  501    0  0.00000000000E+00  0.00000000000E+00 -0.10178288616E+04  0.10178288616E+04  0.25500000920E-02 0. -1.
    10030    2    1    2    0    0  0.00000000000E+00  0.00000000000E+00  0.11335878981E+03  0.21490165130E+04  0.21460246406E+04 0.  0.
        3    1    3    3  502    0  0.29439743232E+03 -0.78306820704E+03 -0.61618725418E+03  0.10390151142E+04  0.10100000352E+00 0.  1.
       -3    1    3    3    0  502 -0.29439743232E+03  0.78306820704E+03  0.72954604399E+03  0.11100013989E+04  0.10100000352E+00 0. -1.
</event>
<event>
 5   0  0.2284329E-05  0.2136232E+04  0.7818609E-02  0.8545449E-01
       -2   -1    0    0    0  501  0.00000000000E+00  0.00000000000E+00  0.91563642860E+03  0.91563642860E+03  0.25500000920E-02 0.  1.
        2   -1    0    0  501    0  0.00000000000E+00  0.00000000000E+00 -0.12459875288E+04  0.12459875288E+04  0.25500000920E-02 0. -1.
    10030    2    1    2    0    0  0.00000000000E+00  0.00000000000E+00 -0.33035110022E+03  0.21616239574E+04  0.21362317954E+04 0.  0.
        2    1    3    3  502    0  0.91109991073E+03 -0.19306955130E+03 -0.69435700670E+03  0.11616843598E+04  0.25500000920E-02 0. -1.
       -2    1    3    3    0  502 -0.91109991073E+03  0.19306955130E+03  0.36400590648E+03  0.99993959764E+03  0.25500000920E-02 0.  1.
</event>
<event>
 5   0  0.1033733E-05  0.2211005E+04  0.7818609E-02  0.8513862E-01
        1   -1    0    0  501    0  0.00000000000E+00  0.00000000000E+00  0.91186694528E+03  0.91186694530E+03  0.50400001928E-02 0. -1.
       -1   -1    0    0    0  501  0.00000000000E+00  0.00000000000E+00 -0.13402565219E+04  0.13402565219E+04  0.50400001928E-02 0.  1.
    10030    2    1    2    0    0  0.00000000000E+00  0.00000000000E+00 -0.42838957665E+03  0.22521234672E+04  0.22110048580E+04 0.  0.
        5    1    3    3  502    0  0.56086186798E+02 -0.10128587374E+04  0.23339154959E+03  0.10409237185E+04  0.46999998093E+01 0. -1.
       -5    1    3    3    0  502 -0.56086186798E+02  0.10128587374E+04 -0.66178112624E+03  0.12111997487E+04  0.46999998093E+01 0.  1.
</event>
<event>
 5   0  0.1049198E-05  0.2157699E+04  0.7818609E-02  0.8536244E-01
       -1   -1    0    0    0  501  0.00000000000E+00  0.00000000000E+00  0.10391277083E+04  0.10391277083E+04  0.50400001928E-02 0. -1.
        1   -1    0    0  501    0  0.00000000000E+00  0.00000000000E+00 -0.11200893083E+04  0.11200893083E+04  0.50400001928E-02 0.  1.
    10030    2    1    2    0    0  0.00000000000E+00  0.00000000000E+00 -0.80961600043E+02  0.21592170166E+04  0.21576986222E+04 0.  0.
        1    1    3    3  502    0 -0.10601033902E+04  0.19912349382E+03 -0.61625562119E+02  0.10804013484E+04  0.50400001928E-02 0.  1.
       -1    1    3    3    0  502  0.10601033902E+04 -0.19912349382E+03 -0.19336037924E+02  0.10788156683E+04  0.50400001928E-02 0. -1.
</event>
<event>
 5   0  0.2298329E-05  0.2198198E+04  0.7818609E-02  0.8519178E-01
        2   -1    0    0  501    0  0.00000000000E+00  0.00000000000E+00  0.16988622312E+04  0.16988622312E+04  0.25500000920E-02 0. -1.
       -2   -1    0    0    0  501  0.00000000000E+00  0.00000000000E+00 -0.71107511004E+03  0.71107511005E+03  0.25500000920E-02 0.  1.
    10030    2    1    2    0    0  0.00000000000E+00  0.00000000000E+00  0.98778712118E+03  0.24099373413E+04  0.21981980330E+04 0.  0.
        4    1    3    3  502    0 -0.38949488889E+03 -0.95963681168E+03  0.89731690724E+03  0.13703241674E+04  0.12699999809E+01 0. -1.
       -4    1    3    3    0  502  0.38949488889E+03  0.95963681168E+03  0.90470213943E+02  0.10396131739E+04  0.12699999809E+01 0.  1.
</event>
<event>
 5   0  0.2298329E-05  0.2196200E+04  0.7818609E-02  0.8520011E-01
        2   -1    0    0  501    0  0.00000000000E+00  0.00000000000E+00  0.17682435783E+04  0.17682435784E+04  0.25500000920E-02 0.  1.
       -2   -1    0    0    0  501  0.00000000000E+00  0.00000000000E+00 -0.68193325184E+03  0.68193325184E+03  0.25500000920E-02 0. -1.
    10030    2    1    2    0    0  0.00000000000E+00  0.00000000000E+00  0.10863103265E+04  0.24501768302E+04  0.21962004402E+04 0.  0.
        4    1    3    3  502    0  0.47232920270E+03  0.87426705320E+03  0.21796513728E+02  0.99393885976E+03  0.12699999809E+01 0. -1.
       -4    1    3    3    0  502 -0.47232920270E+03 -0.87426705320E+03  0.10645138128E+04  0.14562379704E+04  0.12699999809E+01 0.  1.
</event>
<event>
 5   0  0.2289708E-05  0.2198403E+04  0.7818609E-02  0.8519093E-01
       -2   -1    0    0    0  501  0.00000000000E+00  0.00000000000E+00  0.77503271995E+03  0.77503271995E+03  0.25500000920E-02 0. -1.
        2   -1    0    0  501    0  0.00000000000E+00  0.00000000000E+00 -0.15589582428E+04  0.15589582428E+04  0.25500000920E-02 0.  1.
    10030    2    1    2    0    0  0.00000000000E+00  0.00000000000E+00 -0.78392552287E+03  0.23339909628E+04  0.21984027358E+04 0.  0.
        5    1    3    3  502    0 -0.43103389344E+03  0.52838911589E+03 -0.13072456968E+04  0.14744146896E+04  0.46999998093E+01 0.  1.
       -5    1    3    3    0  502  0.43103389344E+03 -0.52838911589E+03  0.52332017388E+03  0.85957627322E+03  0.46999998093E+01 0. -1.
</event>
<event>
 5   0  0.2319707E-05  0.2225759E+04  0.7818609E-02  0.8507783E-01
       -2   -1    0    0    0  501  0.00000000000E+00  0.00000000000E+00  0.51475947439E+03  0.51475947439E+03  0.25500000920E-02 0. -1.
        2   -1    0    0  501    0  0.00000000000E+00  0.00000000000E+00 -0.24059788116E+04  0.24059788116E+04  0.25500000920E-02 0.  1.
    10030    2    1    2    0    0  0.00000000000E+00  0.00000000000E+00 -0.18912193372E+04  0.29207382860E+04  0.22257586468E+04 0.  0.
        3    1    3    3  502    0  0.21149759766E+02 -0.10944444959E+04 -0.68236061174E+03  0.12899116565E+04  0.10100000352E+00 0. -1.
       -3    1    3    3    0  502 -0.21149759766E+02  0.10944444959E+04 -0.12088587254E+04  0.16308266294E+04  0.10100000352E+00 0.  1.
</event>
<event>
 5   0  0.2298329E-05  0.2194694E+04  0.7818609E-02  0.8520640E-01
       -2   -1    0    0    0  501  0.00000000000E+00  0.00000000000E+00  0.52510140284E+03  0.52510140285E+03  0.25500000920E-02 0. -1.
        2   -1    0    0  501    0  0.00000000000E+00  0.00000000000E+00 -0.22932145985E+04  0.22932145985E+04  0.25500000920E-02 0.  1.
    10030    2    1    2    0    0  0.00000000000E+00  0.00000000000E+00 -0.17681131956E+04  0.28183160013E+04  0.21946937852E+04 0.  0.
        4    1    3    3  502    0 -0.47316163006E+03 -0.59599552889E+03 -0.18993280196E+04  0.20461038921E+04  0.12699999809E+01 0.  1.
       -4    1    3    3    0  502  0.47316163006E+03  0.59599552889E+03  0.13121482395E+03  0.77221210917E+03  0.12699999809E+01 0. -1.
</event>
<event>
 5   0  0.1033733E-05  0.2181226E+04  0.7818609E-02  0.8526283E-01
        1   -1    0    0  501    0  0.00000000000E+00  0.00000000000E+00  0.15465284734E+04  0.15465284734E+04  0.50400001928E-02 0.  1.
       -1   -1    0    0    0  501  0.00000000000E+00  0.00000000000E+00 -0.76910087147E+03  0.76910087149E+03  0.50400001928E-02 0. -1.
    10030    2    1    2    0    0  0.00000000000E+00  0.00000000000E+00  0.77742760192E+03  0.23156293449E+04  0.21812257074E+04 0.  0.
        5    1    3    3  502    0 -0.34479560030E+03 -0.50884114086E+03  0.13451200337E+04  0.14789094995E+04  0.46999998093E+01 0.  1.
       -5    1    3    3    0  502  0.34479560030E+03  0.50884114086E+03 -0.56769243177E+03  0.83671984541E+03  0.46999998093E+01 0. -1.
</event>
<event>
 5   0  0.1007682E-05  0.2072093E+04  0.7818609E-02  0.8573637E-01
        1   -1    0    0  501    0  0.00000000000E+00  0.00000000000E+00  0.16000341099E+04  0.16000341099E+04  0.50400001928E-02 0.  1.
       -1   -1    0    0    0  501  0.00000000000E+00  0.00000000000E+00 -0.67085595158E+03  0.67085595160E+03  0.50400001928E-02 0. -1.
    10030    2    1    2    0    0  0.00000000000E+00  0.00000000000E+00  0.92917815828E+03  0.22708900615E+04  0.20720930533E+04 0.  0.
        2    1    3    3  502    0 -0.39725205101E+03  0.30426612289E+03 -0.52964393799E+03  0.72863555131E+03  0.25500000920E-02 0. -1.
       -2    1    3    3    0  502  0.39725205101E+03 -0.30426612289E+03  0.14588220963E+04  0.15422545102E+04  0.25500000920E-02 0.  1.
</event>
<event>
 5   0  0.2298329E-05  0.2203257E+04  0.7818609E-02  0.8517074E-01
       -2   -1    0    0    0  501  0.00000000000E+00  0.00000000000E+00  0.95244138615E+03  0.95244138615E+03  0.25500000920E-02 0. -1.
        2   -1    0    0  501    0  0.00000000000E+00  0.00000000000E+00 -0.12741840466E+04  0.12741840466E+04  0.25500000920E-02 0.  1.
    10030    2    1    2    0    0  0.00000000000E+00  0.00000000000E+00 -0.32174266041E+03  0.22266254327E+04  0.22032572428E+04 0.  0.
        4    1    3    3  502    0 -0.62674756337E+02  0.97452871824E+03  0.35438885438E+03  0.10388587107E+04  0.12699999809E+01 0. -1.
       -4    1    3    3    0  502  0.62674756337E+02 -0.97452871824E+03 -0.67613151479E+03  0.11877667220E+04  0.12699999809E+01 0.  1.
</event>
<event>
 5   0  0.2319707E-05  0.2201172E+04  0.7818609E-02  0.8517941E-01
       -2   -1    0    0    0  501  0.00000000000E+00  0.00000000000E+00  0.97205926234E+03  0.97205926234E+03  0.25500000920E-02 0.  1.
        2   -1    0    0  501    0  0.00000000000E+00  0.00000000000E+00 -0.12461063131E+04  0.12461063131E+04  0.25500000920E-02 0. -1.
    10030    2    1    2    0    0  0.00000000000E+00  0.00000000000E+00 -0.27404705075E+03  0.22181655754E+04  0.22011716730E+04 0.  0.
        3    1    3    3  502    0  0.44369747014E+03 -0.50009627371E+03 -0.10180302124E+04  0.12179282621E+04  0.10100000352E+00 0. -1.
       -3    1    3    3    0  502 -0.44369747014E+03  0.50009627371E+03  0.74398316166E+03  0.10002373134E+04  0.10100000352E+00 0.  1.
</event>
<event>
 5   0  0.8003875E-06  0.2295282E+04  0.7818609E-02  0.8479784E-01
       -3   -1    0    0    0  501  0.00000000000E+00  0.00000000000E+00  0.13490064618E+04  0.13490064656E+04  0.10100000352E+00 0.  1.
        3   -1    0    0  501    0  0.00000000000E+00  0.00000000000E+00 -0.97633297784E+03  0.97633298307E+03  0.10100000352E+00 0. -1.
    10030    2    1    2    0    0  0.00000000000E+00  0.00000000000E+00  0.37267348400E+03  0.23253394487E+04  0.22952816877E+04 0.  0.
        1    1    3    3  502    0 -0.78633444610E+03  0.66935876870E+03 -0.32093633362E+03  0.10813709598E+04  0.50400001928E-02 0. -1.
       -1    1    3    3    0  502  0.78633444610E+03 -0.66935876870E+03  0.69360981762E+03  0.12439684889E+04  0.50400001928E-02 0.  1.
</event>
<event>
 5   0  0.2284329E-05  0.2190314E+04  0.7818609E-02  0.8522471E-01
        2   -1    0    0  501    0  0.00000000000E+00  0.00000000000E+00  0.26878369717E+04  0.26878369717E+04  0.25500000920E-02 0. -1.
       -2   -1    0    0    0  501  0.00000000000E+00  0.00000000000E+00 -0.44622075965E+03  0.44622075966E+03  0.25500000920E-02 0.  1.
    10030    2    1    2    0    0  0.00000000000E+00  0.00000000000E+00  0.22416162121E+04  0.31340577314E+04  0.21903138180E+04 0.  0.
        2    1    3    3  502    0  0.94257032542E+03  0.55760670513E+03  0.11177394358E+04  0.15648340175E+04  0.25500000920E-02 0. -1.
       -2    1    3    3    0  502 -0.94257032542E+03 -0.55760670513E+03  0.11238767762E+04  0.15692237139E+04  0.25500000920E-02 0.  1.
</event>
<event>
 5   0  0.2298329E-05  0.2164390E+04  0.7818609E-02  0.8533398E-01
       -2   -1    0    0    0  501  0.00000000000E+00  0.00000000000E+00  0.18480628063E+04  0.18480628063E+04  0.25500000920E-02 0. -1.
        2   -1    0    0  501    0  0.00000000000E+00  0.00000000000E+00 -0.63371559932E+03  0.63371559933E+03  0.25500000920E-02 0.  1.
    10030    2    1    2    0    0  0.00000000000E+00  0.00000000000E+00  0.12143472070E+04  0.24817784056E+04  0.21643901949E+04 0.  0.
        4    1    3    3  502    0  0.20800393194E+03  0.68614465944E+03 -0.32230211861E+03  0.78609185083E+03  0.12699999809E+01 0.  1.
       -4    1    3    3    0  502 -0.20800393194E+03 -0.68614465944E+03  0.15366493256E+04  0.16956865548E+04  0.12699999809E+01 0. -1.
</event>
<event>
 5   0  0.1049198E-05  0.2203620E+04  0.7818609E-02  0.8516923E-01
       -1   -1    0    0    0  501  0.00000000000E+00  0.00000000000E+00  0.76423641930E+03  0.76423641931E+03  0.50400001928E-02 0.  1.
        1   -1    0    0  501    0  0.00000000000E+00  0.00000000000E+00 -0.15884947867E+04  0.15884947867E+04  0.50400001928E-02 0. -1.
    10030    2    1    2    0    0  0.00000000000E+00  0.00000000000E+00 -0.82425836741E+03  0.23527312060E+04  0.22036202648E+04 0.  0.
        1    1    3    3  502    0 -0.31216887386E+03 -0.10372029583E+04 -0.19661342396E+03  0.11008615812E+04  0.50400001928E-02 0. -1.
       -1    1    3    3    0  502  0.31216887386E+03  0.10372029583E+04 -0.62764494344E+03  0.12518696248E+04  0.50400001928E-02 0.  1.
</event>
<event>
 5   0  0.2284329E-05  0.2198812E+04  0.7818609E-02  0.8518923E-01
        2   -1    0    0  501    0  0.00000000000E+00  0.00000000000E+00  0.15395248536E+04  0.15395248536E+04  0.25500000920E-02 0.  1.
       -2   -1    0    0    0  501  0.00000000000E+00  0.00000000000E+00 -0.78510817853E+03  0.78510817853E+03  0.25500000920E-02 0. -1.
    10030    2    1    2    0    0  0.00000000000E+00  0.00000000000E+00  0.75441667506E+03  0.23246330321E+04  0.21988120007E+04 0.  0.
        2    1    3    3  502    0  0.45347596303E+03  0.91421738849E+03 -0.55168006834E+02  0.10219967668E+04  0.25500000920E-02 0. -1.
       -2    1    3    3    0  502 -0.45347596303E+03 -0.91421738849E+03  0.80958468189E+03  0.13026362653E+04  0.25500000920E-02 0.  1.
</event>
<event>
 5   0  0.1033733E-05  0.2204979E+04  0.7818609E-02  0.8516358E-01
       -1   -1    0    0    0  501  0.00000000000E+00  0.00000000000E+00  0.87223866386E+03  0.87223866387E+03  0.50400001928E-02 0.  1.
        1   -1    0    0  501    0  0.00000000000E+00  0.00000000000E+00 -0.13935216462E+04  0.13935216463E+04  0.50400001928E-02 0. -1.
    10030    2    1    2    0    0  0.00000000000E+00  0.00000000000E+00 -0.52128298238E+03  0.22657603101E+04  0.22049793276E+04 0.  0.
        5    1    3    3  502    0  0.28243704673E+03  0.96064068423E+03  0.21344396682E+03  0.10238074167E+04  0.46999998093E+01 0. -1.
       -5    1    3    3    0  502 -0.28243704673E+03 -0.96064068423E+03 -0.73472694920E+03  0.12419528934E+04  0.46999998093E+01 0.  1.
</event>
<event>
 5   0  0.1005538E-05  0.2199047E+04  0.7818609E-02  0.8518825E-01
        1   -1    0    0  501    0  0.00000000000E+00  0.00000000000E+00  0.92973919879E+03  0.92973919881E+03  0.50400001928E-02 0.  1.
       -1   -1    0    0    0  501  0.00000000000E+00  0.00000000000E+00 -0.13003128201E+04  0.13003128201E+04  0.50400001928E-02 0. -1.
    10030    2    1    2    0    0  0.00000000000E+00  0.00000000000E+00 -0.37057362133E+03  0.22300520189E+04  0.21990468841E+04 0.  0.
        3    1    3    3  502    0 -0.84607165692E+02 -0.95726925804E+03  0.35650138832E+03  0.10249956366E+04  0.10100000352E+00 0.  1.
       -3    1    3    3    0  502  0.84607165692E+02  0.95726925804E+03 -0.72707500965E+03  0.12050563824E+04  0.10100000352E+00 0. -1.
</event>
<event>
 5   0  0.2289708E-05  0.2196659E+04  0.7818609E-02  0.8519820E-01
       -2   -1    0    0    0  501  0.00000000000E+00  0.00000000000E+00  0.92906945433E+03  0.92906945434E+03  0.25500000920E-02 0.  1.
        2   -1    0    0  501    0  0.00000000000E+00  0.00000000000E+00 -0.12984257860E+04  0.12984257860E+04  0.25500000920E-02 0. -1.
    10030    2    1    2    0    0  0.00000000000E+00  0.00000000000E+00 -0.36935633169E+03  0.22274952404E+04  0.21966590418E+04 0.  0.
        5    1    3    3  502    0  0.35984694410E+03  0.93437125763E+03  0.27306322011E+03  0.10378463675E+04  0.46999998093E+01 0.  1.
       -5    1    3    3    0  502 -0.35984694410E+03 -0.93437125763E+03 -0.64241955180E+03  0.11896488729E+04  0.46999998093E+01 0. -1.
</event>
<event>
 5   0  0.1033733E-05  0.2199831E+04  0.7818609E-02  0.8518499E-01
       -1   -1    0    0    0  501  0.00000000000E+00  0.00000000000E+00  0.70953566962E+03  0.70953566964E+03  0.50400001928E-02 0.  1.
        1   -1    0    0  501    0  0.00000000000E+00  0.00000000000E+00 -0.17050780751E+04  0.17050780751E+04  0.50400001928E-02 0. -1.
    10030    2    1    2    0    0  0.00000000000E+00  0.00000000000E+00 -0.99554240550E+03  0.24146137448E+04  0.21998306424E+04 0.  0.
        5    1    3    3  502    0 -0.96411555416E+03  0.24072496560E+03 -0.10153207115E+04  0.14206919258E+04  0.46999998093E+01 0. -1.
       -5    1    3    3    0  502  0.96411555416E+03 -0.24072496560E+03  0.19778306013E+02  0.99392181897E+03  0.46999998093E+01 0.  1.
</event>
<event>
 5   0  0.2319707E-05  0.2211017E+04  0.7818609E-02  0.8513856E-01
        2   -1    0    0  501    0  0.00000000000E+00  0.00000000000E+00  0.76869177427E+03  0.76869177427E+03  0.25500000920E-02 0. -1.
       -2   -1    0    0    0  501  0.00000000000E+00  0.00000000000E+00 -0.15899084796E+04  0.15899084796E+04  0.25500000920E-02 0.  1.
    10030    2    1    2    0    0  0.00000000000E+00  0.00000000000E+00 -0.82121670532E+03  0.23586002539E+04  0.22110174763E+04 0.  0.
        3    1    3    3  502    0  0.16188533118E+03  0.96175578163E+03 -0.96590056401E+03  0.13726415970E+04  0.10100000352E+00 0.  1.
       -3    1    3    3    0  502 -0.16188533118E+03 -0.96175578163E+03  0.14468385868E+03  0.98595865690E+03  0.10100000352E+00 0. -1.
</event>
<event>
 5   0  0.1049198E-05  0.2206286E+04  0.7818609E-02  0.8515816E-01
        1   -1    0    0  501    0  0.00000000000E+00  0.00000000000E+00  0.98452393850E+03  0.98452393851E+03  0.50400001928E-02 0.  1.
       -1   -1    0    0    0  501  0.00000000000E+00  0.00000000000E+00 -0.12360538759E+04  0.12360538759E+04  0.50400001928E-02 0. -1.
    10030    2    1    2    0    0  0.00000000000E+00  0.00000000000E+00 -0.25152993737E+03  0.22205778144E+04  0.22062861375E+04 0.  0.
        1    1    3    3  502    0 -0.40445438905E+03  0.10241059485E+04 -0.19364279453E+03  0.11179775841E+04  0.50400001928E-02 0. -1.
       -1    1    3    3    0  502  0.40445438905E+03 -0.10241059485E+04 -0.57887142837E+02  0.11026002303E+04  0.50400001928E-02 0.  1.
</event>
<event>
 5   0  0.1033733E-05  0.2205588E+04  0.7818609E-02  0.8516106E-01
        1   -1    0    0  501    0  0.00000000000E+00  0.00000000000E+00  0.10593543099E+04  0.10593543099E+04  0.50400001928E-02 0. -1.
       -1   -1    0    0    0  501  0.00000000000E+00  0.00000000000E+00 -0.11480152933E+04  0.11480152933E+04  0.50400001928E-02 0.  1.
    10030    2    1    2    0    0  0.00000000000E+00  0.00000000000E+00 -0.88660983385E+02  0.22073696031E+04  0.22055883104E+04 0.  0.
        5    1    3    3  502    0 -0.51618784937E+03  0.31308159541E+03 -0.96793164205E+03  0.11407820716E+04  0.46999998093E+01 0.  1.
       -5    1    3    3    0  502  0.51618784937E+03 -0.31308159541E+03  0.87927065867E+03  0.10665875315E+04  0.46999998093E+01 0. -1.
</event>
<event>
 5   0  0.2319707E-05  0.2202195E+04  0.7818609E-02  0.8517515E-01
       -2   -1    0    0    0  501  0.00000000000E+00  0.00000000000E+00  0.78719241948E+03  0.78719241948E+03  0.25500000920E-02 0.  1.
        2   -1    0    0  501    0  0.00000000000E+00  0.00000000000E+00 -0.15401771155E+04  0.15401771155E+04  0.25500000920E-02 0. -1.
    10030    2    1    2    0    0  0.00000000000E+00  0.00000000000E+00 -0.75298469606E+03  0.23273695350E+04  0.22021950413E+04 0.  0.
        3    1    3    3  502    0 -0.40432909266E+03 -0.75856372943E+03  0.35074527794E+03  0.92839819419E+03  0.10100000352E+00 0.  1.
       -3    1    3    3    0  502  0.40432909266E+03  0.75856372943E+03 -0.11037299740E+04  0.13989713408E+04  0.10100000352E+00 0. -1.
</event>
<event>
 5   0  0.2289708E-05  0.2204853E+04  0.7818609E-02  0.8516411E-01
        2   -1    0    0  501    0  0.00000000000E+00  0.00000000000E+00  0.17066440449E+04  0.17066440449E+04  0.25500000920E-02 0. -1.
       -2   -1    0    0    0  501  0.00000000000E+00  0.00000000000E+00 -0.71212544218E+03  0.71212544218E+03  0.25500000920E-02 0.  1.
    10030    2    1    2    0    0  0.00000000000E+00  0.00000000000E+00  0.99451860277E+03  0.24187694871E+04  0.22048534148E+04 0.  0.
        5    1    3    3  502    0  0.78766263947E+03  0.72490806093E+03  0.20822316923E+03  0.10905425753E+04  0.46999998093E+01 0.  1.
       -5    1    3    3    0  502 -0.78766263947E+03 -0.72490806093E+03  0.78629543353E+03  0.13282269118E+04  0.46999998093E+01 0. -1.
</event>
<event>
 5   0  0.2289708E-05  0.2308687E+04  0.7818609E-02  0.8474504E-01
       -2   -1    0    0    0  501  0.00000000000E+00  0.00000000000E+00  0.10311834194E+04  0.10311834194E+04  0.25500000920E-02 0. -1.
        2   -1    0    0  501    0  0.00000000000E+00  0.00000000000E+00 -0.12922131467E+04  0.12922131468E+04  0.25500000920E-02 0.  1.
    10030    2    1    2    0    0  0.00000000000E+00  0.00000000000E+00 -0.26102972739E+03  0.23233965661E+04  0.23086868746E+04 0.  0.
        5    1    3    3  502    0  0.10713127733E+04  0.48856383752E+02 -0.56030579298E+03  0.12099845768E+04  0.46999998093E+01 0.  1.
       -5    1    3    3    0  502 -0.10713127733E+04 -0.48856383752E+02  0.29927606559E+03  0.11134119893E+04  0.46999998093E+01 0. -1.
</event>
<event>
 5   0  0.1071208E-05  0.2200869E+04  0.7818609E-02  0.8518066E-01
       -1   -1    0    0    0  501  0.00000000000E+00  0.00000000000E+00  0.84688312184E+03  0.84688312185E+03  0.50400001928E-02 0.  1.
        1   -1    0    0  501    0  0.00000000000E+00  0.00000000000E+00 -0.14298978786E+04  0.14298978786E+04  0.50400001928E-02 0. -1.
    10030    2    1    2    0    0  0.00000000000E+00  0.00000000000E+00 -0.58301475679E+03  0.22767810005E+04  0.22008692641E+04 0.  0.
        4    1    3    3  502    0 -0.40961369524E+03  0.68149264346E+03  0.49548123640E+03  0.93686651715E+03  0.12699999809E+01 0.  1.
       -4    1    3    3    0  502  0.40961369524E+03 -0.68149264346E+03 -0.10784959932E+04  0.13399144833E+04  0.12699999809E+01 0. -1.
</event>
<event>
 5   0  0.8003875E-06  0.2207410E+04  0.7818609E-02  0.8515350E-01
       -3   -1    0    0    0  501  0.00000000000E+00  0.00000000000E+00  0.91521090198E+03  0.91521090755E+03  0.10100000352E+00 0. -1.
        3   -1    0    0  501    0  0.00000000000E+00  0.00000000000E+00 -0.13310203568E+04  0.13310203606E+04  0.10100000352E+00 0.  1.
    10030    2    1    2    0    0  0.00000000000E+00  0.00000000000E+00 -0.41580945480E+03  0.22462312682E+04  0.22074096601E+04 0.  0.
        2    1    3    3  502    0  0.43423615092E+03  0.81368919197E+03 -0.82479512513E+03  0.12373108479E+04  0.25500000920E-02 0.  1.
       -2    1    3    3    0  502 -0.43423615092E+03 -0.81368919197E+03  0.40898567033E+03  0.10089204203E+04  0.25500000920E-02 0. -1.
</event>
<event>
 5   0  0.1071208E-05  0.2223587E+04  0.7818609E-02  0.8508675E-01
        1   -1    0    0  501    0  0.00000000000E+00  0.00000000000E+00  0.21892532815E+04  0.21892532815E+04  0.50400001928E-02 0. -1.
       -1   -1    0    0    0  501  0.00000000000E+00  0.00000000000E+00 -0.56461458663E+03  0.56461458666E+03  0.50400001928E-02 0.  1.
    10030    2    1    2    0    0  0.00000000000E+00  0.00000000000E+00  0.16246386949E+04  0.27538678681E+04  0.22235865952E+04 0.  0.
        4    1    3    3  502    0  0.75708276063E+03  0.10586125294E+03  0.18121202303E+04  0.19667644122E+04  0.12699999809E+01 0. -1.
       -4    1    3    3    0  502 -0.75708276063E+03 -0.10586125294E+03 -0.18748153542E+03  0.78710345593E+03  0.12699999809E+01 0.  1.
</event>
<event>
 5   0  0.1005538E-05  0.2195504E+04  0.7818609E-02  0.8520302E-01
       -1   -1    0    0    0  501  0.00000000000E+00  0.00000000000E+00  0.57459254050E+03  0.57459254052E+03  0.50400001928E-02 0.  1.
        1   -1    0    0  501    0  0.00000000000E+00  0.00000000000E+00 -0.20972415373E+04  0.20972415373E+04  0.50400001928E-02 0. -1.
    10030    2    1    2    0    0  0.00000000000E+00  0.00000000000E+00 -0.15226489968E+04  0.26718340778E+04  0.21955038993E+04 0.  0.
        3    1    3    3  502    0  0.31361980602E+03 -0.45997187707E+03  0.39005316521E+03  0.67975951065E+03  0.10100000352E+00 0.  1.
       -3    1    3    3    0  502 -0.31361980602E+03  0.45997187707E+03 -0.19127021620E+04  0.19920745672E+04  0.10100000352E+00 0. -1.
</event>
<event>
 5   0  0.1049198E-05  0.2045664E+04  0.7818609E-02  0.8585564E-01
       -1   -1    0    0    0  501  0.00000000000E+00  0.00000000000E+00  0.61898260998E+03  0.61898261000E+03  0.50400001928E-02 0. -1.
        1   -1    0    0  501    0  0.00000000000E+00  0.00000000000E+00 -0.16901698372E+04  0.16901698372E+04  0.50400001928E-02 0.  1.
    10030    2    1    2    0    0  0.00000000000E+00  0.00000000000E+00 -0.10711872273E+04  0.23091524472E+04  0.20456644272E+04 0.  0.
        1    1    3    3  502    0 -0.90343705270E+03 -0.23207560411E+03 -0.10093254702E+04  0.13743345659E+04  0.50400001928E-02 0.  1.
       -1    1    3    3    0  502  0.90343705270E+03  0.23207560411E+03 -0.61861757022E+02  0.93481788132E+03  0.50400001928E-02 0. -1.
</event>
<event>
 5   0  0.2319707E-05  0.2199420E+04  0.7818609E-02  0.8518669E-01
       -2   -1    0    0    0  501  0.00000000000E+00  0.00000000000E+00  0.62463609411E+03  0.62463609412E+03  0.25500000920E-02 0.  1.
        2   -1    0    0  501    0  0.00000000000E+00  0.00000000000E+00 -0.19361071435E+04  0.19361071435E+04  0.25500000920E-02 0. -1.
    10030    2    1    2    0    0  0.00000000000E+00  0.00000000000E+00 -0.13114710494E+04  0.25607432376E+04  0.21994202908E+04 0.  0.
        3    1    3    3  502    0  0.56874761203E+03 -0.86647209239E+03 -0.22776974453E+03  0.10611912174E+04  0.10100000352E+00 0.  1.
       -3    1    3    3    0  502 -0.56874761203E+03  0.86647209239E+03 -0.10837013048E+04  0.14995520202E+04  0.10100000352E+00 0. -1.
</event>
<event>
 5   0  0.2289708E-05  0.2198253E+04  0.7818609E-02  0.8519156E-01
       -2   -1    0    0    0  501  0.00000000000E+00  0.00000000000E+00  0.91305070901E+03  0.91305070901E+03  0.25500000920E-02 0. -1.
        2   -1    0    0  501    0  0.00000000000E+00  0.00000000000E+00 -0.13231236799E+04  0.13231236799E+04  0.25500000920E-02 0.  1.
    10030    2    1    2    0    0  0.00000000000E+00  0.00000000000E+00 -0.41007297086E+03  0.22361743889E+04  0.21982529554E+04 0.  0.
        5    1    3    3  502    0 -0.39945460303E+03  0.49410221049E+03  0.70729390697E+03  0.95078269606E+03  0.46999998093E+01 0. -1.
       -5    1    3    3    0  502  0.39945460303E+03 -0.49410221049E+03 -0.11173668778E+04  0.12853916928E+04  0.46999998093E+01 0.  1.
</event>
<event>
 5   0  0.2289708E-05  0.2212320E+04  0.7818609E-02  0.8513318E-01
       -2   -1    0    0    0  501  0.00000000000E+00  0.00000000000E+00  0.66054994382E+03  0.66054994382E+03  0.25500000920E-02 0. -1.
        2   -1    0    0  501    0  0.00000000000E+00  0.00000000000E+00 -0.18523811807E+04  0.18523811807E+04  0.25500000920E-02 0.  1.
    10030    2    1    2    0    0  0.00000000000E+00  0.00000000000E+00 -0.11918312369E+04  0.25129311246E+04  0.22123203067E+04 0.  0.
        5    1    3    3  502    0  0.20166410754E+02 -0.36439240631E+03  0.59018479003E+03  0.69392268033E+03  0.46999998093E+01 0. -1.
       -5    1    3    3    0  502 -0.20166410754E+02  0.36439240631E+03 -0.17820160269E+04  0.18190084442E+04  0.46999998093E+01 0.  1.
</event>
<event>
 5   0  0.1049198E-05  0.2200659E+04  0.7818609E-02  0.8518154E-01
        1   -1    0    0  501    0  0.00000000000E+00  0.00000000000E+00  0.96422770167E+03  0.96422770169E+03  0.50400001928E-02 0.  1.
       -1   -1    0    0    0  501  0.00000000000E+00  0.00000000000E+00 -0.12556417543E+04  0.12556417544E+04  0.50400001928E-02 0. -1.
    10030    2    1    2    0    0  0.00000000000E+00  0.00000000000E+00 -0.29141405267E+03  0.22198694560E+04  0.22006585950E+04 0.  0.
        1    1    3    3  502    0 -0.62162026191E+03  0.86628143271E+03 -0.41986869345E+03  0.11459253861E+04  0.50400001928E-02 0. -1.
       -1    1    3    3    0  502  0.62162026191E+03 -0.86628143271E+03  0.12845464078E+03  0.10739440700E+04  0.50400001928E-02 0.  1.
</event>
<event>
 5   0  0.2229552E-05  0.2190599E+04  0.7818609E-02  0.8522351E-01
        2   -1    0    0  501    0  0.00000000000E+00  0.00000000000E+00  0.24641125578E+04  0.24641125578E+04  0.25500000920E-02 0. -1.
       -2   -1    0    0    0  501  0.00000000000E+00  0.00000000000E+00 -0.48686112587E+03  0.48686112588E+03  0.25500000920E-02 0.  1.
    10030    2    1    2    0    0  0.00000000000E+00  0.00000000000E+00  0.19772514319E+04  0.29509736837E+04  0.21905986526E+04 0.  0.
        1    1    3    3  502    0 -0.83256378155E+03  0.93252936649E+02  0.19390982825E+04  0.21123353687E+04  0.50400001928E-02 0. -1.
       -1    1    3    3    0  502  0.83256378155E+03 -0.93252936649E+02  0.38153149427E+02  0.83863831500E+03  0.50400001928E-02 0.  1.
</event>
<event>
 5   0  0.2229552E-05  0.2211108E+04  0.7818609E-02  0.8513819E-01
       -2   -1    0    0    0  501  0.00000000000E+00  0.00000000000E+00  0.55458366426E+03  0.55458366426E+03  0.25500000920E-02 0.  1.
        2   -1    0    0  501    0  0.00000000000E+00  0.00000000000E+00 -0.22039050999E+04  0.22039050999E+04  0.25500000920E-02 0. -1.
    10030    2    1    2    0    0  0.00000000000E+00  0.00000000000E+00 -0.16493214356E+04  0.27584887641E+04  0.22111081077E+04 0.  0.
        1    1    3    3  502    0 -0.21631750156E+02  0.88939803045E+03 -0.58653332060E+01  0.88968038719E+03  0.50400001928E-02 0.  1.
       -1    1    3    3    0  502  0.21631750156E+02 -0.88939803045E+03 -0.16434561024E+04  0.18688083770E+04  0.50400001928E-02 0. -1.
</event>
<event>
 5   0  0.1005538E-05  0.2200716E+04  0.7818609E-02  0.8518130E-01
        1   -1    0    0  501    0  0.00000000000E+00  0.00000000000E+00  0.66859198311E+03  0.66859198313E+03  0.50400001928E-02 0. -1.
       -1   -1    0    0    0  501  0.00000000000E+00  0.00000000000E+00 -0.18109510958E+04  0.18109510958E+04  0.50400001928E-02 0.  1.
    10030    2    1    2    0    0  0.00000000000E+00  0.00000000000E+00 -0.11423591127E+04  0.24795430789E+04  0.22007156877E+04 0.  0.
        3    1    3    3  502    0  0.94467788499E+03 -0.48384410687E+03 -0.89824433256E+03  0.13904547160E+04  0.10100000352E+00 0.  1.
       -3    1    3    3    0  502 -0.94467788499E+03  0.48384410687E+03 -0.24411478012E+03  0.10890883629E+04  0.10100000352E+00 0. -1.
</event>
<event>
 5   0  0.2298329E-05  0.2202873E+04  0.7818609E-02  0.8517233E-01
       -2   -1    0    0    0  501  0.00000000000E+00  0.00000000000E+00  0.14139204737E+04  0.14139204737E+04  0.25500000920E-02 0.  1.
        2   -1    0    0  501    0  0.00000000000E+00  0.00000000000E+00 -0.85801289924E+03  0.85801289925E+03  0.25500000920E-02 0. -1.
    10030    2    1    2    0    0  0.00000000000E+00  0.00000000000E+00  0.55590757445E+03  0.22719333729E+04  0.22028726744E+04 0.  0.
        4    1    3    3  502    0 -0.35186278219E+03  0.16135905218E+03 -0.78554602331E+03  0.87574444266E+03  0.12699999809E+01 0. -1.
       -4    1    3    3    0  502  0.35186278219E+03 -0.16135905218E+03  0.13414535978E+04  0.13961889303E+04  0.12699999809E+01 0.  1.
</event>
<event>
 5   0  0.1007682E-05  0.2199134E+04  0.7818609E-02  0.8518789E-01
       -1   -1    0    0    0  501  0.00000000000E+00  0.00000000000E+00  0.10164281649E+04  0.10164281650E+04  0.50400001928E-02 0.  1.
        1   -1    0    0  501    0  0.00000000000E+00  0.00000000000E+00 -0.11895058024E+04  0.11895058025E+04  0.50400001928E-02 0. -1.
    10030    2    1    2    0    0  0.00000000000E+00  0.00000000000E+00 -0.17307763750E+03  0.22059339674E+04  0.21991336476E+04 0.  0.
        2    1    3    3  502    0  0.22569965623E+03  0.52982615226E+03  0.85304926524E+03  0.10292468778E+04  0.25500000920E-02 0.  1.
       -2    1    3    3    0  502 -0.22569965623E+03 -0.52982615226E+03 -0.10261269027E+04  0.11766870897E+04  0.25500000920E-02 0. -1.
</event>
<event>
 5   0  0.2284329E-05  0.2194230E+04  0.7818609E-02  0.8520834E-01
       -2   -1    0    0    0  501  0.00000000000E+00  0.00000000000E+00  0.47026807609E+03  0.47026807609E+03  0.25500000920E-02 0.  1.
        2   -1    0    0  501    0  0.00000000000E+00  0.00000000000E+00 -0.25595206501E+04  0.25595206501E+04  0.25500000920E-02 0. -1.
    10030    2    1    2    0    0  0.00000000000E+00  0.00000000000E+00 -0.20892525740E+04  0.30297887262E+04  0.21942295703E+04 0.  0.
        2    1    3    3  502    0  0.48890441203E+03  0.13185397552E+01  0.31153399711E+03  0.57972639582E+03  0.25500000920E-02 0.  1.
       -2    1    3    3    0  502 -0.48890441203E+03 -0.13185397552E+01 -0.24007865711E+04  0.24500623304E+04  0.25500000920E-02 0. -1.
</event>
<event>
 5   0  0.1049198E-05  0.2191978E+04  0.7818609E-02  0.8521774E-01
       -1   -1    0    0    0  501  0.00000000000E+00  0.00000000000E+00  0.12431470398E+04  0.12431470398E+04  0.50400001928E-02 0.  1.
        1   -1    0    0  501    0  0.00000000000E+00  0.00000000000E+00 -0.96625080117E+03  0.96625080118E+03  0.50400001928E-02 0. -1.
    10030    2    1    2    0    0  0.00000000000E+00  0.00000000000E+00  0.27689623865E+03  0.22093978410E+04  0.21919779408E+04 0.  0.
        1    1    3    3  502    0  0.23060821846E+03  0.91614369884E+03  0.69846447588E+03  0.11748838459E+04  0.50400001928E-02 0.  1.
       -1    1    3    3    0  502 -0.23060821846E+03 -0.91614369884E+03 -0.42156823723E+03  0.10345139951E+04  0.50400001928E-02 0. -1.
</event>
<event>
 5   0  0.2284329E-05  0.2182033E+04  0.7818609E-02  0.8525944E-01
       -2   -1    0    0    0  501  0.00000000000E+00  0.00000000000E+00  0.72019492959E+03  0.72019492960E+03  0.25500000920E-02 0.  1.
        2   -1    0    0  501    0  0.00000000000E+00  0.00000000000E+00 -0.16527698662E+04  0.16527698662E+04  0.25500000920E-02 0. -1.
    10030    2    1    2    0    0  0.00000000000E+00  0.00000000000E+00 -0.93257493657E+03  0.23729647958E+04  0.21820325180E+04 0.  0.
        2    1    3    3  502    0 -0.50661625867E+03 -0.35862485498E+03 -0.14420408450E+04  0.15699533811E+04  0.25500000920E-02 0. -1.
       -2    1    3    3    0  502  0.50661625867E+03  0.35862485498E+03  0.50946590845E+03  0.80301141464E+03  0.25500000920E-02 0.  1.
</event>
<event>
 5   0  0.2289708E-05  0.2195091E+04  0.7818609E-02  0.8520474E-01
        2   -1    0    0  501    0  0.00000000000E+00  0.00000000000E+00  0.16983610889E+04  0.16983610889E+04  0.25500000920E-02 0. -1.
       -2   -1    0    0    0  501  0.00000000000E+00  0.00000000000E+00 -0.70927561268E+03  0.70927561268E+03  0.25500000920E-02 0.  1.
    10030    2    1    2    0    0  0.00000000000E+00  0.00000000000E+00  0.98908547626E+03  0.24076367016E+04  0.21950909794E+04 0.  0.
        5    1    3    3  502    0 -0.90636104497E+03 -0.24087449145E+03 -0.13081564791E+03  0.94691377020E+03  0.46999998093E+01 0. -1.
       -5    1    3    3    0  502  0.90636104497E+03  0.24087449145E+03  0.11199011242E+04  0.14607229314E+04  0.46999998093E+01 0.  1.
</event>
<event>
 5   0  0.2289708E-05  0.2195391E+04  0.7818609E-02  0.8520349E-01
        2   -1    0    0  501    0  0.00000000000E+00  0.00000000000E+00  0.19808994662E+04  0.19808994662E+04  0.25500000920E-02 0.  1.
       -2   -1    0    0    0  501  0.00000000000E+00  0.00000000000E+00 -0.60827680181E+03  0.60827680181E+03  0.25500000920E-02 0. -1.
    10030    2    1    2    0    0  0.00000000000E+00  0.00000000000E+00  0.13726226644E+04  0.25891762680E+04  0.21953908008E+04 0.  0.
        5    1    3    3  502    0 -0.73621709864E+02  0.64625672697E+03 -0.35651061225E+03  0.74174781427E+03  0.46999998093E+01 0. -1.
       -5    1    3    3    0  502  0.73621709864E+02 -0.64625672697E+03  0.17291332766E+04  0.18474284537E+04  0.46999998093E+01 0.  1.
</event>
<event>
 5   0  0.2289708E-05  0.2185099E+04  0.7818609E-02  0.8524656E-01
        2   -1    0    0  501    0  0.00000000000E+00  0.00000000000E+00  0.80881928906E+03  0.80881928906E+03  0.25500000920E-02 0. -1.
       -2   -1    0    0    0  501  0.00000000000E+00  0.00000000000E+00 -0.14758114064E+04  0.14758114064E+04  0.25500000920E-02 0.  1.
    10030    2    1    2    0    0  0.00000000000E+00  0.00000000000E+00 -0.66699211735E+03  0.22846306955E+04  0.21850992953E+04 0.  0.
        5    1    3    3  502    0 -0.42359804210E+03  0.20230529484E+03 -0.13649829422E+04  0.14434553183E+04  0.46999998093E+01 0.  1.
       -5    1    3    3    0  502  0.42359804210E+03 -0.20230529484E+03  0.69799082482E+03  0.84117537715E+03  0.46999998093E+01 0. -1.
</event>
<event>
 5   0  0.1005538E-05  0.2224690E+04  0.7818609E-02  0.8508221E-01
        1   -1    0    0  501    0  0.00000000000E+00  0.00000000000E+00  0.11541929746E+04  0.11541929746E+04  0.50400001928E-02 0. -1.
       -1   -1    0    0    0  501  0.00000000000E+00  0.00000000000E+00 -0.10720142879E+04  0.10720142879E+04  0.50400001928E-02 0.  1.
    10030    2    1    2    0    0  0.00000000000E+00  0.00000000000E+00  0.82178686780E+02  0.22262072625E+04  0.22246899647E+04 0.  0.
        3    1    3    3  502    0  0.46357336899E+03 -0.99811737510E+03 -0.12080105138E+03  0.11071275749E+04  0.10100000352E+00 0.  1.
       -3    1    3    3    0  502 -0.46357336899E+03  0.99811737510E+03  0.20297973816E+03  0.11190796876E+04  0.10100000352E+00 0. -1.
</event>
<event>
 5   0  0.1005538E-05  0.2202217E+04  0.7818609E-02  0.8517506E-01
        1   -1    0    0  501    0  0.00000000000E+00  0.00000000000E+00  0.14543513363E+04  0.14543513363E+04  0.50400001928E-02 0.  1.
       -1   -1    0    0    0  501  0.00000000000E+00  0.00000000000E+00 -0.83366377983E+03  0.83366377984E+03  0.50400001928E-02 0. -1.
    10030    2    1    2    0    0  0.00000000000E+00  0.00000000000E+00  0.62068755647E+03  0.22880151161E+04  0.22022170940E+04 0.  0.
        3    1    3    3  502    0  0.91280938328E+02  0.67216521832E+03  0.12114890134E+04  0.13884681956E+04  0.10100000352E+00 0.  1.
       -3    1    3    3    0  502 -0.91280938328E+02 -0.67216521832E+03 -0.59080145697E+03  0.89954692050E+03  0.10100000352E+00 0. -1.
</event>
<event>
 5   0  0.1005538E-05  0.2197564E+04  0.7818609E-02  0.8519443E-01
       -1   -1    0    0    0  501  0.00000000000E+00  0.00000000000E+00  0.88004156290E+03  0.88004156292E+03  0.50400001928E-02 0.  1.
        1   -1    0    0  501    0  0.00000000000E+00  0.00000000000E+00 -0.13718913311E+04  0.13718913311E+04  0.50400001928E-02 0. -1.
    10030    2    1    2    0    0  0.00000000000E+00  0.00000000000E+00 -0.49184976819E+03  0.22519328940E+04  0.21975635519E+04 0.  0.
        3    1    3    3  502    0 -0.16357419836E+03  0.47392667003E+03  0.75599614557E+03  0.90713460371E+03  0.10100000352E+00 0.  1.
       -3    1    3    3    0  502  0.16357419836E+03 -0.47392667003E+03 -0.12478459138E+04  0.13447982903E+04  0.10100000352E+00 0. -1.
</event>
<event>
 5   0  0.2229552E-05  0.2230688E+04  0.7818609E-02  0.8505763E-01
        2   -1    0    0  501    0  0.00000000000E+00  0.00000000000E+00  0.24066512831E+04  0.24066512831E+04  0.25500000920E-02 0. -1.
       -2   -1    0    0    0  501  0.00000000000E+00  0.00000000000E+00 -0.51689761154E+03  0.51689761155E+03  0.25500000920E-02 0.  1.
    10030    2    1    2    0    0  0.00000000000E+00  0.00000000000E+00  0.18897536715E+04  0.29235488946E+04  0.22306880553E+04 0.  0.
        1    1    3    3  502    0 -0.86883019427E+03 -0.84907236531E+02  0.18547015146E+04  0.20498763020E+04  0.50400001928E-02 0. -1.
       -1    1    3    3    0  502  0.86883019427E+03  0.84907236531E+02  0.35052156903E+02  0.87367259258E+03  0.50400001928E-02 0.  1.
</event>
<event>
 5   0  0.1033733E-05  0.2197267E+04  0.7818609E-02  0.8519566E-01
       -1   -1    0    0    0  501  0.00000000000E+00  0.00000000000E+00  0.11882345851E+04  0.11882345851E+04  0.50400001928E-02 0.  1.
        1   -1    0    0  501    0  0.00000000000E+00  0.00000000000E+00 -0.10157893812E+04  0.10157893813E+04  0.50400001928E-02 0. -1.
    10030    2    1    2    0    0  0.00000000000E+00  0.00000000000E+00  0.17244520385E+03  0.22040239663E+04  0.21972674612E+04 0.  0.
        5    1    3    3  502    0 -0.17240759214E+03  0.41377252100E+03 -0.91987803556E+03  0.10232935880E+04  0.46999998093E+01 0. -1.
       -5    1    3    3    0  502  0.17240759214E+03 -0.41377252100E+03  0.10923232394E+04  0.11807303783E+04  0.46999998093E+01 0.  1.
</event>
<event>
 5   0  0.2229552E-05  0.2199508E+04  0.7818609E-02  0.8518633E-01
       -2   -1    0    0    0  501  0.00000000000E+00  0.00000000000E+00  0.81407662314E+03  0.81407662314E+03  0.25500000920E-02 0.  1.
        2   -1    0    0  501    0  0.00000000000E+00  0.00000000000E+00 -0.14856822022E+04  0.14856822022E+04  0.25500000920E-02 0. -1.
    10030    2    1    2    0    0  0.00000000000E+00  0.00000000000E+00 -0.67160557905E+03  0.22997588253E+04  0.21995082634E+04 0.  0.
        1    1    3    3  502    0  0.86768700759E+03 -0.32747750719E+03 -0.95378919363E+03  0.13303518658E+04  0.50400001928E-02 0. -1.
       -1    1    3    3    0  502 -0.86768700759E+03  0.32747750719E+03  0.28218361458E+03  0.96940695955E+03  0.50400001928E-02 0.  1.
</event>
<event>
 5   0  0.2319707E-05  0.2204782E+04  0.7818609E-02  0.8516441E-01
        2   -1    0    0  501    0  0.00000000000E+00  0.00000000000E+00  0.28795374202E+04  0.28795374202E+04  0.25500000920E-02 0.  1.
       -2   -1    0    0    0  501  0.00000000000E+00  0.00000000000E+00 -0.42203500135E+03  0.42203500136E+03  0.25500000920E-02 0. -1.
    10030    2    1    2    0    0  0.00000000000E+00  0.00000000000E+00  0.24575024189E+04  0.33015724216E+04  0.22047816936E+04 0.  0.
        3    1    3    3  502    0  0.96747188073E+03 -0.48560519377E+03  0.15408964693E+04  0.18831293592E+04  0.10100000352E+00 0. -1.
       -3    1    3    3    0  502 -0.96747188073E+03  0.48560519377E+03  0.91660594958E+03  0.14184430624E+04  0.10100000352E+00 0.  1.
</event>
<event>
 5   0  0.2284329E-05  0.2193209E+04  0.7818609E-02  0.8521260E-01
       -2   -1    0    0    0  501  0.00000000000E+00  0.00000000000E+00  0.90988564810E+03  0.90988564811E+03  0.25500000920E-02 0.  1.
        2   -1    0    0  501    0  0.00000000000E+00  0.00000000000E+00 -0.13216401357E+04  0.13216401357E+04  0.25500000920E-02 0. -1.
    10030    2    1    2    0    0  0.00000000000E+00  0.00000000000E+00 -0.41175448760E+03  0.22315257838E+04  0.21932089654E+04 0.  0.
        2    1    3    3  502    0  0.65747732277E+03 -0.50959962302E+03 -0.93290484356E+03  0.12499118580E+04  0.25500000920E-02 0. -1.
       -2    1    3    3    0  502 -0.65747732277E+03  0.50959962302E+03  0.52115035596E+03  0.98161392577E+03  0.25500000920E-02 0.  1.
</event>
<event>
 5   0  0.1007682E-05  0.2201497E+04  0.7818609E-02  0.8517805E-01
        1   -1    0    0  501    0  0.00000000000E+00  0.00000000000E+00  0.19686061744E+04  0.19686061744E+04  0.50400001928E-02 0.  1.
       -1   -1    0    0    0  501  0.00000000000E+00  0.00000000000E+00 -0.61548487973E+03  0.61548487975E+03  0.50400001928E-02 0. -1.
    10030    2    1    2    0    0  0.00000000000E+00  0.00000000000E+00  0.13531212947E+04  0.25840910541E+04  0.22014970675E+04 0.  0.
        2    1    3    3  502    0  0.95024399057E+03 -0.88769017844E+02  0.32789768287E+02  0.95494436962E+03  0.25500000920E-02 0. -1.
       -2    1    3    3    0  502 -0.95024399057E+03  0.88769017844E+02  0.13203315264E+04  0.16291466845E+04  0.25500000920E-02 0.  1.
</event>
<event>
 5   0  0.2289708E-05  0.2193723E+04  0.7818609E-02  0.8521045E-01
       -2   -1    0    0    0  501  0.00000000000E+00  0.00000000000E+00  0.12481993185E+04  0.12481993185E+04  0.25500000920E-02 0.  1.
        2   -1    0    0  501    0  0.00000000000E+00  0.00000000000E+00 -0.96387291089E+03  0.96387291090E+03  0.25500000920E-02 0. -1.
    10030    2    1    2    0    0  0.00000000000E+00  0.00000000000E+00  0.28432640763E+03  0.22120722294E+04  0.21937233285E+04 0.  0.
        5    1    3    3  502    0 -0.18228782822E+03 -0.96233660658E+03 -0.35568986224E+03  0.10420450877E+04  0.46999998093E+01 0.  1.
       -5    1    3    3    0  502  0.18228782822E+03  0.96233660658E+03  0.64001626987E+03  0.11700271417E+04  0.46999998093E+01 0. -1.
</event>
<event>
 5   0  0.8003875E-06  0.2193791E+04  0.7818609E-02  0.8521017E-01
       -3   -1    0    0    0  501  0.00000000000E+00  0.00000000000E+00  0.28450502504E+04  0.28450502522E+04  0.10100000352E+00 0. -1.
        3   -1    0    0  501    0  0.00000000000E+00  0.00000000000E+00 -0.42290279596E+03  0.42290280802E+03  0.10100000352E+00 0.  1.
    10030    2    1    2    0    0  0.00000000000E+00  0.00000000000E+00  0.24221474544E+04  0.32679530602E+04  0.21937909911E+04 0.  0.
        5    1    3    3  502    0  0.29290255256E+02 -0.15355756034E+03 -0.40620863258E+03  0.43527621871E+03  0.46999998093E+01 0.  1.
       -5    1    3    3    0  502 -0.29290255256E+02  0.15355756034E+03  0.28283560870E+04  0.28326768415E+04  0.46999998093E+01 0. -1.
</event>
<event>
 5   0  0.2289708E-05  0.2209641E+04  0.7818609E-02  0.8514426E-01
       -2   -1    0    0    0  501  0.00000000000E+00  0.00000000000E+00  0.73381194422E+03  0.73381194422E+03  0.25500000920E-02 0.  1.
        2   -1    0    0  501    0  0.00000000000E+00  0.00000000000E+00 -0.16634075193E+04  0.16634075193E+04  0.25500000920E-02 0. -1.
    10030    2    1    2    0    0  0.00000000000E+00  0.00000000000E+00 -0.92959557506E+03  0.23972194635E+04  0.22096409715E+04 0.  0.
        5    1    3    3  502    0  0.33912254872E+03 -0.23208985345E+03  0.64780344352E+03  0.76716438561E+03  0.46999998093E+01 0.  1.
       -5    1    3    3    0  502 -0.33912254872E+03  0.23208985345E+03 -0.15773990186E+04  0.16300550779E+04  0.46999998093E+01 0. -1.
</event>
<event>
 5   0  0.2229552E-05  0.2198063E+04  0.7818609E-02  0.8519235E-01
        2   -1    0    0  501    0  0.00000000000E+00  0.00000000000E+00  0.11308510163E+04  0.11308510163E+04  0.25500000920E-02 0.  1.
       -2   -1    0    0    0  501  0.00000000000E+00  0.00000000000E+00 -0.10681071057E+04  0.10681071057E+04  0.25500000920E-02 0. -1.
    10030    2    1    2    0    0  0.00000000000E+00  0.00000000000E+00  0.62743910565E+02  0.21989581221E+04  0.21980627890E+04 0.  0.
        1    1    3    3  502    0 -0.43073461336E+03 -0.41061870511E+03  0.95572341238E+03  0.11258540177E+04  0.50400001928E-02 0.  1.
       -1    1    3    3    0  502  0.43073461336E+03  0.41061870511E+03 -0.89297950182E+03  0.10731041044E+04  0.50400001928E-02 0. -1.
</event>
<event>
 5   0  0.2298329E-05  0.2181669E+04  0.7818609E-02  0.8526097E-01
       -2   -1    0    0    0  501  0.00000000000E+00  0.00000000000E+00  0.12442634211E+04  0.12442634211E+04  0.25500000920E-02 0. -1.
        2   -1    0    0  501    0  0.00000000000E+00  0.00000000000E+00 -0.95632465519E+03  0.95632465519E+03  0.25500000920E-02 0.  1.
    10030    2    1    2    0    0  0.00000000000E+00  0.00000000000E+00  0.28793876594E+03  0.22005880763E+04  0.21816688907E+04 0.  0.
        4    1    3    3  502    0 -0.63769141502E+03  0.21194692062E+03  0.10106916988E+04  0.12137014299E+04  0.12699999809E+01 0. -1.
       -4    1    3    3    0  502  0.63769141502E+03 -0.21194692062E+03 -0.72275293291E+03  0.98688664641E+03  0.12699999809E+01 0.  1.
</event>
<event>
 5   0  0.1007682E-05  0.2198285E+04  0.7818609E-02  0.8519142E-01
       -1   -1    0    0    0  501  0.00000000000E+00  0.00000000000E+00  0.19554162765E+04  0.19554162765E+04  0.50400001928E-02 0.  1.
        1   -1    0    0  501    0  0.00000000000E+00  0.00000000000E+00 -0.61782957950E+03  0.61782957952E+03  0.50400001928E-02 0. -1.
    10030    2    1    2    0    0  0.00000000000E+00  0.00000000000E+00  0.13375866970E+04  0.25732458560E+04  0.21982848004E+04 0.  0.
        2    1    3    3  502    0  0.56632244712E+03  0.93301473127E+03  0.82086119548E+03  0.13656685927E+04  0.25500000920E-02 0.  1.
       -2    1    3    3    0  502 -0.56632244712E+03 -0.93301473127E+03  0.51672550150E+03  0.12075772633E+04  0.25500000920E-02 0. -1.
</event>
<event>
 5   0  0.1007682E-05  0.2205374E+04  0.7818609E-02  0.8516195E-01
       -1   -1    0    0    0  501  0.00000000000E+00  0.00000000000E+00  0.82449842385E+03  0.82449842387E+03  0.50400001928E-02 0. -1.
        1   -1    0    0  501    0  0.00000000000E+00  0.00000000000E+00 -0.14747371379E+04  0.14747371379E+04  0.50400001928E-02 0.  1.
    10030    2    1    2    0    0  0.00000000000E+00  0.00000000000E+00 -0.65023871406E+03  0.22992355618E+04  0.22053738421E+04 0.  0.
        2    1    3    3  502    0 -0.18734833211E+03 -0.33395811631E+03 -0.14031949393E+04  0.14545045406E+04  0.25500000920E-02 0.  1.
       -2    1    3    3    0  502  0.18734833211E+03  0.33395811631E+03  0.75295622524E+03  0.84473102117E+03  0.25500000920E-02 0. -1.
</event>
<event>
 5   0  0.2289708E-05  0.2206984E+04  0.7818609E-02  0.8515527E-01
       -2   -1    0    0    0  501  0.00000000000E+00  0.00000000000E+00  0.64903639176E+03  0.64903639177E+03  0.25500000920E-02 0.  1.
        2   -1    0    0  501    0  0.00000000000E+00  0.00000000000E+00 -0.18761569149E+04  0.18761569149E+04  0.25500000920E-02 0. -1.
    10030    2    1    2    0    0  0.00000000000E+00  0.00000000000E+00 -0.12271205231E+04  0.25251933066E+04  0.22069835653E+04 0.  0.
        5    1    3    3  502    0  0.57078772352E+03  0.78388646060E+03 -0.12161825223E+04  0.15554416177E+04  0.46999998093E+01 0. -1.
       -5    1    3    3    0  502 -0.57078772352E+03 -0.78388646060E+03 -0.10938000819E+02  0.96975168898E+03  0.46999998093E+01 0.  1.
</event>
<event>
 5   0  0.2319707E-05  0.2205768E+04  0.7818609E-02  0.8516031E-01
       -2   -1    0    0    0  501  0.00000000000E+00  0.00000000000E+00  0.85656136102E+03  0.85656136103E+03  0.25500000920E-02 0.  1.
        2   -1    0    0  501    0  0.00000000000E+00  0.00000000000E+00 -0.14200420103E+04  0.14200420103E+04  0.25500000920E-02 0. -1.
    10030    2    1    2    0    0  0.00000000000E+00  0.00000000000E+00 -0.56348064924E+03  0.22766033713E+04  0.22057679996E+04 0.  0.
        3    1    3    3  502    0 -0.10865390926E+04 -0.12788942966E+03 -0.42560898070E+03  0.11739105250E+04  0.10100000352E+00 0. -1.
       -3    1    3    3    0  502  0.10865390926E+04  0.12788942966E+03 -0.13787166854E+03  0.11026928463E+04  0.10100000352E+00 0.  1.
</event>
<event>
 5   0  0.1007682E-05  0.2198269E+04  0.7818609E-02  0.8519149E-01
        1   -1    0    0  501    0  0.00000000000E+00  0.00000000000E+00  0.20812773064E+04  0.20812773064E+04  0.50400001928E-02 0. -1.
       -1   -1    0    0    0  501  0.00000000000E+00  0.00000000000E+00 -0.58045946026E+03  0.58045946028E+03  0.50400001928E-02 0.  1.
    10030    2    1    2    0    0  0.00000000000E+00  0.00000000000E+00  0.15008178462E+04  0.26617367667E+04  0.21982694120E+04 0.  0.
        2    1    3    3  502    0  0.79029209257E+03 -0.47466593176E+03  0.14751181780E+04  0.17394950352E+04  0.25500000920E-02 0.  1.
       -2    1    3    3    0  502 -0.79029209257E+03  0.47466593176E+03  0.25699668119E+02  0.92224173149E+03  0.25500000920E-02 0. -1.
</event>
<event>
 5   0  0.2298329E-05  0.2200317E+04  0.7818609E-02  0.8518296E-01
        2   -1    0    0  501    0  0.00000000000E+00  0.00000000000E+00  0.16286002687E+04  0.16286002687E+04  0.25500000920E-02 0.  1.
       -2   -1    0    0    0  501  0.00000000000E+00  0.00000000000E+00 -0.74318370611E+03  0.74318370612E+03  0.25500000920E-02 0. -1.
    10030    2    1    2    0    0  0.00000000000E+00  0.00000000000E+00  0.88541656258E+03  0.23717839748E+04  0.22003174166E+04 0.  0.
        4    1    3    3  502    0  0.25933271496E+03 -0.28089348983E+03 -0.66927942257E+03  0.77077309764E+03  0.12699999809E+01 0. -1.
       -4    1    3    3    0  502 -0.25933271496E+03  0.28089348983E+03  0.15546959852E+04  0.16010108772E+04  0.12699999809E+01 0.  1.
</event>
<event>
 5   0  0.1071208E-05  0.2187623E+04  0.7818609E-02  0.8523597E-01
        1   -1    0    0  501    0  0.00000000000E+00  0.00000000000E+00  0.11865050114E+04  0.11865050114E+04  0.50400001928E-02 0.  1.
       -1   -1    0    0    0  501  0.00000000000E+00  0.00000000000E+00 -0.10083598951E+04  0.10083598952E+04  0.50400001928E-02 0. -1.
    10030    2    1    2    0    0  0.00000000000E+00  0.00000000000E+00  0.17814511629E+03  0.21948649066E+04  0.21876234310E+04 0.  0.
        4    1    3    3  502    0 -0.49361299888E+03 -0.56151067285E+03 -0.71199033021E+03  0.10324145832E+04  0.12699999809E+01 0. -1.
       -4    1    3    3    0  502  0.49361299888E+03  0.56151067285E+03  0.89013544650E+03  0.11624503234E+04  0.12699999809E+01 0.  1.
</event>
<event>
 5   0  0.1005538E-05  0.2190817E+04  0.7818609E-02  0.8522260E-01
       -1   -1    0    0    0  501  0.00000000000E+00  0.00000000000E+00  0.82212511236E+03  0.82212511237E+03  0.50400001928E-02 0.  1.
        1   -1    0    0  501    0  0.00000000000E+00  0.00000000000E+00 -0.14595346382E+04  0.14595346382E+04  0.50400001928E-02 0. -1.
    10030    2    1    2    0    0  0.00000000000E+00  0.00000000000E+00 -0.63740952583E+03  0.22816597506E+04  0.21908172707E+04 0.  0.
        3    1    3    3  502    0  0.50790214288E+03  0.80439950772E+03 -0.88426626459E+03  0.12988263901E+04  0.10100000352E+00 0. -1.
       -3    1    3    3    0  502 -0.50790214288E+03 -0.80439950772E+03  0.24685673876E+03  0.98283336046E+03  0.10100000352E+00 0.  1.
</event>
<event>
 5   0  0.2229552E-05  0.2203102E+04  0.7818609E-02  0.8517138E-01
        2   -1    0    0  501    0  0.00000000000E+00  0.00000000000E+00  0.24170578337E+04  0.24170578337E+04  0.25500000920E-02 0.  1.
       -2   -1    0    0    0  501  0.00000000000E+00  0.00000000000E+00 -0.50202114492E+03  0.50202114492E+03  0.25500000920E-02 0. -1.
    10030    2    1    2    0    0  0.00000000000E+00  0.00000000000E+00  0.19150366888E+04  0.29190789787E+04  0.22031015783E+04 0.  0.
        1    1    3    3  502    0 -0.71163904770E+03  0.69064483273E+03  0.32208600417E+03  0.10426695609E+04  0.50400001928E-02 0. -1.
       -1    1    3    3    0  502  0.71163904770E+03 -0.69064483273E+03  0.15929506847E+04  0.18764094177E+04  0.50400001928E-02 0.  1.
</event>
<event>
 5   0  0.1007682E-05  0.2195791E+04  0.7818609E-02  0.8520182E-01
       -1   -1    0    0    0  501  0.00000000000E+00  0.00000000000E+00  0.92281848239E+03  0.92281848240E+03  0.50400001928E-02 0.  1.
        1   -1    0    0  501    0  0.00000000000E+00  0.00000000000E+00 -0.13061885067E+04  0.13061885067E+04  0.50400001928E-02 0. -1.
    10030    2    1    2    0    0  0.00000000000E+00  0.00000000000E+00 -0.38337002434E+03  0.22290069891E+04  0.21957913339E+04 0.  0.
        2    1    3    3  502    0 -0.38308983639E+03 -0.65113416826E+02 -0.12340465799E+04  0.12937807160E+04  0.25500000920E-02 0. -1.
       -2    1    3    3    0  502  0.38308983639E+03  0.65113416826E+02  0.85067655554E+03  0.93522627313E+03  0.25500000920E-02 0.  1.
</event>
<event>
 5   0  0.2229552E-05  0.2215855E+04  0.7818609E-02  0.8511858E-01
       -2   -1    0    0    0  501  0.00000000000E+00  0.00000000000E+00  0.12333692378E+04  0.12333692378E+04  0.25500000920E-02 0.  1.
        2   -1    0    0  501    0  0.00000000000E+00  0.00000000000E+00 -0.99524367890E+03  0.99524367890E+03  0.25500000920E-02 0. -1.
    10030    2    1    2    0    0  0.00000000000E+00  0.00000000000E+00  0.23812555893E+03  0.22286129167E+04  0.22158546322E+04 0.  0.
        1    1    3    3  502    0 -0.54797248081E+03  0.79903220409E+03 -0.42141071833E+03  0.10565572850E+04  0.50400001928E-02 0. -1.
       -1    1    3    3    0  502  0.54797248081E+03 -0.79903220409E+03  0.65953627725E+03  0.11720556318E+04  0.50400001928E-02 0.  1.
</event>
<event>
 5   0  0.2319707E-05  0.2188701E+04  0.7818609E-02  0.8523146E-01
       -2   -1    0    0    0  501  0.00000000000E+00  0.00000000000E+00  0.13369370825E+04  0.13369370825E+04  0.25500000920E-02 0. -1.
        2   -1    0    0  501    0  0.00000000000E+00  0.00000000000E+00 -0.89578095255E+03  0.89578095255E+03  0.25500000920E-02 0.  1.
    10030    2    1    2    0    0  0.00000000000E+00  0.00000000000E+00  0.44115612994E+03  0.22327180350E+04  0.21887007774E+04 0.  0.
        3    1    3    3  502    0 -0.59360653136E+03 -0.15028689829E+03 -0.70466211464E+03  0.93354355650E+03  0.10100000352E+00 0.  1.
       -3    1    3    3    0  502  0.59360653136E+03  0.15028689829E+03  0.11458182446E+04  0.12991744785E+04  0.10100000352E+00 0. -1.
</event>
<event>
 5   0  0.1049198E-05  0.2201504E+04  0.7818609E-02  0.8517803E-01
       -1   -1    0    0    0  501  0.00000000000E+00  0.00000000000E+00  0.14467639739E+04  0.14467639739E+04  0.50400001928E-02 0. -1.
        1   -1    0    0  501    0  0.00000000000E+00  0.00000000000E+00 -0.83749284476E+03  0.83749284478E+03  0.50400001928E-02 0.  1.
    10030    2    1    2    0    0  0.00000000000E+00  0.00000000000E+00  0.60927112911E+03  0.22842568186E+04  0.22015035555E+04 0.  0.
        1    1    3    3  502    0 -0.47441463258E+03  0.40194749323E+03  0.12470863571E+04  0.13935047230E+04  0.50400001928E-02 0. -1.
       -1    1    3    3    0  502  0.47441463258E+03 -0.40194749323E+03 -0.63781522797E+03  0.89075209568E+03  0.50400001928E-02 0.  1.
</event>
<event>
 5   0  0.1049198E-05  0.2196883E+04  0.7818609E-02  0.8519727E-01
       -1   -1    0    0    0  501  0.00000000000E+00  0.00000000000E+00  0.86527692282E+03  0.86527692284E+03  0.50400001928E-02 0.  1.
        1   -1    0    0  501    0  0.00000000000E+00  0.00000000000E+00 -0.13944361061E+04  0.13944361061E+04  0.50400001928E-02 0. -1.
    10030    2    1    2    0    0  0.00000000000E+00  0.00000000000E+00 -0.52915918323E+03  0.22597130289E+04  0.21968826850E+04 0.  0.
        1    1    3    3  502    0 -0.55496382428E+03 -0.59811666530E+03 -0.10210341248E+04  0.13069962033E+04  0.50400001928E-02 0. -1.
       -1    1    3    3    0  502  0.55496382428E+03  0.59811666530E+03  0.49187494154E+03  0.95271682556E+03  0.50400001928E-02 0.  1.
</event>
<event>
 5   0  0.2229552E-05  0.2201885E+04  0.7818609E-02  0.8517644E-01
       -2   -1    0    0    0  501  0.00000000000E+00  0.00000000000E+00  0.10113036989E+04  0.10113036989E+04  0.25500000920E-02 0. -1.
        2   -1    0    0  501    0  0.00000000000E+00  0.00000000000E+00 -0.11985263288E+04  0.11985263288E+04  0.25500000920E-02 0.  1.
    10030    2    1    2    0    0  0.00000000000E+00  0.00000000000E+00 -0.18722262989E+03  0.22098300277E+04  0.22018847468E+04 0.  0.
        1    1    3    3  502    0  0.43065002205E+03  0.58215567489E+02  0.92158489924E+03  0.10189049123E+04  0.50400001928E-02 0. -1.
       -1    1    3    3    0  502 -0.43065002205E+03 -0.58215567489E+02 -0.11088075291E+04  0.11909251154E+04  0.50400001928E-02 0.  1.
</event>
<event>
 5   0  0.1007682E-05  0.2197229E+04  0.7818609E-02  0.8519582E-01
        1   -1    0    0  501    0  0.00000000000E+00  0.00000000000E+00  0.10758344826E+04  0.10758344827E+04  0.50400001928E-02 0. -1.
       -1   -1    0    0    0  501  0.00000000000E+00  0.00000000000E+00 -0.11218773084E+04  0.11218773084E+04  0.50400001928E-02 0.  1.
    10030    2    1    2    0    0  0.00000000000E+00  0.00000000000E+00 -0.46042825722E+02  0.21977117910E+04  0.21972294315E+04 0.  0.
        2    1    3    3  502    0 -0.27590533159E+03 -0.95221279005E+03  0.45049707462E+03  0.10889355187E+04  0.25500000920E-02 0.  1.
       -2    1    3    3    0  502  0.27590533159E+03  0.95221279005E+03 -0.49653990034E+03  0.11087762724E+04  0.25500000920E-02 0. -1.
</event>
<event>
 5   0  0.1049198E-05  0.2204772E+04  0.7818609E-02  0.8516445E-01
       -1   -1    0    0    0  501  0.00000000000E+00  0.00000000000E+00  0.81658206568E+03  0.81658206570E+03  0.50400001928E-02 0.  1.
        1   -1    0    0  501    0  0.00000000000E+00  0.00000000000E+00 -0.14882212891E+04  0.14882212892E+04  0.50400001928E-02 0. -1.
    10030    2    1    2    0    0  0.00000000000E+00  0.00000000000E+00 -0.67163922346E+03  0.23048033549E+04  0.22047719288E+04 0.  0.
        1    1    3    3  502    0  0.89484489554E+03  0.44040962628E+03  0.15511152285E+03  0.10093401857E+04  0.50400001928E-02 0.  1.
       -1    1    3    3    0  502 -0.89484489554E+03 -0.44040962628E+03 -0.82675074631E+03  0.12954631691E+04  0.50400001928E-02 0. -1.
</event>
<event>
 5   0  0.2319707E-05  0.2201081E+04  0.7818609E-02  0.8517978E-01
        2   -1    0    0  501    0  0.00000000000E+00  0.00000000000E+00  0.10333101999E+04  0.10333101999E+04  0.25500000920E-02 0. -1.
       -2   -1    0    0    0  501  0.00000000000E+00  0.00000000000E+00 -0.11721447232E+04  0.11721447232E+04  0.25500000920E-02 0.  1.
    10030    2    1    2    0    0  0.00000000000E+00  0.00000000000E+00 -0.13883452338E+03  0.22054549231E+04  0.22010807329E+04 0.  0.
        3    1    3    3  502    0 -0.40348309840E+03 -0.32317804127E+03  0.90408258595E+03  0.10414451447E+04  0.10100000352E+00 0. -1.
       -3    1    3    3    0  502  0.40348309840E+03  0.32317804127E+03 -0.10429171093E+04  0.11640097784E+04  0.10100000352E+00 0.  1.
</event>
<event>
 5   0  0.1071208E-05  0.2199961E+04  0.7818609E-02  0.8518444E-01
       -1   -1    0    0    0  501  0.00000000000E+00  0.00000000000E+00  0.75750615789E+03  0.75750615790E+03  0.50400001928E-02 0.  1.
        1   -1    0    0  501    0  0.00000000000E+00  0.00000000000E+00 -0.15972896739E+04  0.15972896739E+04  0.50400001928E-02 0. -1.
    10030    2    1    2    0    0  0.00000000000E+00  0.00000000000E+00 -0.83978351603E+03  0.23547958318E+04  0.21999606941E+04 0.  0.
        4    1    3    3  502    0  0.10352047511E+04 -0.31866120780E+03 -0.21466507728E+03  0.11042085628E+04  0.12699999809E+01 0.  1.
       -4    1    3    3    0  502 -0.10352047511E+04  0.31866120780E+03 -0.62511843875E+03  0.12505872690E+04  0.12699999809E+01 0. -1.
</event>
<event>
 5   0  0.1049198E-05  0.2194222E+04  0.7818609E-02  0.8520837E-01
        1   -1    0    0  501    0  0.00000000000E+00  0.00000000000E+00  0.15453414886E+04  0.15453414886E+04  0.50400001928E-02 0. -1.
       -1   -1    0    0    0  501  0.00000000000E+00  0.00000000000E+00 -0.77889094683E+03  0.77889094685E+03  0.50400001928E-02 0.  1.
    10030    2    1    2    0    0  0.00000000000E+00  0.00000000000E+00  0.76645054173E+03  0.23242324354E+04  0.21942219534E+04 0.  0.
        1    1    3    3  502    0  0.92776963267E+03  0.53584626236E+03  0.63336289793E+03  0.12446028558E+04  0.50400001928E-02 0.  1.
       -1    1    3    3    0  502 -0.92776963267E+03 -0.53584626236E+03  0.13308764380E+03  0.10796295796E+04  0.50400001928E-02 0. -1.
</event>
<event>
 5   0  0.1049198E-05  0.2243761E+04  0.7818609E-02  0.8500431E-01
       -1   -1    0    0    0  501  0.00000000000E+00  0.00000000000E+00  0.10047509871E+04  0.10047509872E+04  0.50400001928E-02 0. -1.
        1   -1    0    0  501    0  0.00000000000E+00  0.00000000000E+00 -0.12526643825E+04  0.12526643825E+04  0.50400001928E-02 0.  1.
    10030    2    1    2    0    0  0.00000000000E+00  0.00000000000E+00 -0.24791339533E+03  0.22574153696E+04  0.22437609274E+04 0.  0.
        1    1    3    3  502    0 -0.36996499812E+03  0.44221482013E+02  0.94068246995E+03  0.10117871064E+04  0.50400001928E-02 0. -1.
       -1    1    3    3    0  502  0.36996499812E+03 -0.44221482013E+02 -0.11885958653E+04  0.12456282633E+04  0.50400001928E-02 0.  1.
</event>
<event>
 5   0  0.2284329E-05  0.2201246E+04  0.7818609E-02  0.8517910E-01
        2   -1    0    0  501    0  0.00000000000E+00  0.00000000000E+00  0.71584915344E+03  0.71584915344E+03  0.25500000920E-02 0. -1.
       -2   -1    0    0    0  501  0.00000000000E+00  0.00000000000E+00 -0.16922157710E+04  0.16922157710E+04  0.25500000920E-02 0.  1.
    10030    2    1    2    0    0  0.00000000000E+00  0.00000000000E+00 -0.97636661752E+03  0.24080649244E+04  0.22012462171E+04 0.  0.
        2    1    3    3  502    0 -0.85291983410E+03  0.57278898364E+03 -0.56366353105E+02  0.10289492840E+04  0.25500000920E-02 0.  1.
       -2    1    3    3    0  502  0.85291983410E+03 -0.57278898364E+03 -0.92000026442E+03  0.13791156404E+04  0.25500000920E-02 0. -1.
</event>
<event>
 5   0  0.2298329E-05  0.2275043E+04  0.7818609E-02  0.8487827E-01
        2   -1    0    0  501    0  0.00000000000E+00  0.00000000000E+00  0.19813778569E+04  0.19813778569E+04  0.25500000920E-02 0.  1.
       -2   -1    0    0    0  501  0.00000000000E+00  0.00000000000E+00 -0.65305814963E+03  0.65305814963E+03  0.25500000920E-02 0. -1.
    10030    2    1    2    0    0  0.00000000000E+00  0.00000000000E+00  0.13283197072E+04  0.26344360065E+04  0.22750428189E+04 0.  0.
        4    1    3    3  502    0  0.51916298601E+02  0.38977197056E+03  0.19001754778E+04  0.19404344746E+04  0.12699999809E+01 0.  1.
       -4    1    3    3    0  502 -0.51916298601E+02 -0.38977197056E+03 -0.57185577051E+03  0.69400153189E+03  0.12699999809E+01 0. -1.
</event>
<event>
 5   0  0.2319707E-05  0.2201437E+04  0.7818609E-02  0.8517830E-01
       -2   -1    0    0    0  501  0.00000000000E+00  0.00000000000E+00  0.72213355562E+03  0.72213355562E+03  0.25500000920E-02 0. -1.
        2   -1    0    0  501    0  0.00000000000E+00  0.00000000000E+00 -0.16777797456E+04  0.16777797456E+04  0.25500000920E-02 0.  1.
    10030    2    1    2    0    0  0.00000000000E+00  0.00000000000E+00 -0.95564618993E+03  0.23999133012E+04  0.22014368519E+04 0.  0.
        3    1    3    3  502    0 -0.67361419084E+03  0.86878196055E+03 -0.53795860717E+03  0.12239026294E+04  0.10100000352E+00 0. -1.
       -3    1    3    3    0  502  0.67361419084E+03 -0.86878196055E+03 -0.41768758276E+03  0.11760106718E+04  0.10100000352E+00 0.  1.
</event>
<event>
 5   0  0.1005538E-05  0.2196483E+04  0.7818609E-02  0.8519893E-01
       -1   -1    0    0    0  501  0.00000000000E+00  0.00000000000E+00  0.47205025622E+03  0.47205025625E+03  0.50400001928E-02 0. -1.
        1   -1    0    0  501    0  0.00000000000E+00  0.00000000000E+00 -0.25550976969E+04  0.25550976969E+04  0.50400001928E-02 0.  1.
    10030    2    1    2    0    0  0.00000000000E+00  0.00000000000E+00 -0.20830474407E+04  0.30271479531E+04  0.21964831186E+04 0.  0.
        3    1    3    3  502    0  0.35008398804E+03  0.64615672118E+03  0.83240631570E+02  0.73959875605E+03  0.10100000352E+00 0. -1.
       -3    1    3    3    0  502 -0.35008398804E+03 -0.64615672118E+03 -0.21662880722E+04  0.22875491971E+04  0.10100000352E+00 0.  1.
</event>
<event>
 5   0  0.2289708E-05  0.2204813E+04  0.7818609E-02  0.8516427E-01
       -2   -1    0    0    0  501  0.00000000000E+00  0.00000000000E+00  0.55778033687E+03  0.55778033688E+03  0.25500000920E-02 0.  1.
        2   -1    0    0  501    0  0.00000000000E+00  0.00000000000E+00 -0.21788156770E+04  0.21788156770E+04  0.25500000920E-02 0. -1.
    10030    2    1    2    0    0  0.00000000000E+00  0.00000000000E+00 -0.16210353402E+04  0.27365960139E+04  0.22048134092E+04 0.  0.
        5    1    3    3  502    0 -0.13896719589E+03  0.47031404842E+03 -0.20359524665E+04  0.20941899917E+04  0.46999998093E+01 0. -1.
       -5    1    3    3    0  502  0.13896719589E+03 -0.47031404842E+03  0.41491712630E+03  0.64240602221E+03  0.46999998093E+01 0.  1.
</event>
<event>
 5   0  0.2284329E-05  0.2196885E+04  0.7818609E-02  0.8519726E-01
       -2   -1    0    0    0  501  0.00000000000E+00  0.00000000000E+00  0.10755414114E+04  0.10755414114E+04  0.25500000920E-02 0. -1.
        2   -1    0    0  501    0  0.00000000000E+00  0.00000000000E+00 -0.11218314508E+04  0.11218314509E+04  0.25500000920E-02 0.  1.
    10030    2    1    2    0    0  0.00000000000E+00  0.00000000000E+00 -0.46290039451E+02  0.21973728623E+04  0.21968852332E+04 0.  0.
        2    1    3    3  502    0  0.97575112510E+03  0.39525649998E+03  0.29038623465E+03  0.10920815556E+04  0.25500000920E-02 0. -1.
       -2    1    3    3    0  502 -0.97575112510E+03 -0.39525649998E+03 -0.33667627410E+03  0.11052913066E+04  0.25500000920E-02 0.  1.
</event>
<event>
 5   0  0.1005538E-05  0.2196127E+04  0.7818609E-02  0.8520042E-01
        1   -1    0    0  501    0  0.00000000000E+00  0.00000000000E+00  0.81061776106E+03  0.81061776108E+03  0.50400001928E-02 0. -1.
       -1   -1    0    0    0  501  0.00000000000E+00  0.00000000000E+00 -0.14874379261E+04  0.14874379261E+04  0.50400001928E-02 0.  1.
    10030    2    1    2    0    0  0.00000000000E+00  0.00000000000E+00 -0.67682016508E+03  0.22980556872E+04  0.21961271379E+04 0.  0.
        3    1    3    3  502    0  0.95390507798E+03 -0.32378350767E+03  0.11887704842E+03  0.10143482738E+04  0.10100000352E+00 0. -1.
       -3    1    3    3    0  502 -0.95390507798E+03  0.32378350767E+03 -0.79569721350E+03  0.12837074135E+04  0.10100000352E+00 0.  1.
</event>
<event>
 5   0  0.2289708E-05  0.2202534E+04  0.7818609E-02  0.8517374E-01
        2   -1    0    0  501    0  0.00000000000E+00  0.00000000000E+00  0.15512919834E+04  0.15512919834E+04  0.25500000920E-02 0.  1.
       -2   -1    0    0    0  501  0.00000000000E+00  0.00000000000E+00 -0.78179311428E+03  0.78179311428E+03  0.25500000920E-02 0. -1.
    10030    2    1    2    0    0  0.00000000000E+00  0.00000000000E+00  0.76949886916E+03  0.23330850977E+04  0.22025343501E+04 0.  0.
        5    1    3    3  502    0 -0.64624296250E+03  0.79066020687E+03 -0.51991997837E+02  0.10224963507E+04  0.46999998093E+01 0. -1.
       -5    1    3    3    0  502  0.64624296250E+03 -0.79066020687E+03  0.82149086699E+03  0.13105887470E+04  0.46999998093E+01 0.  1.
</event>
<event>
 5   0  0.8003875E-06  0.2281191E+04  0.7818609E-02  0.8485374E-01
       -3   -1    0    0    0  501  0.00000000000E+00  0.00000000000E+00  0.69790188393E+03  0.69790189124E+03  0.10100000352E+00 0.  1.
        3   -1    0    0  501    0  0.00000000000E+00  0.00000000000E+00 -0.18640984715E+04  0.18640984743E+04  0.10100000352E+00 0. -1.
    10030    2    1    2    0    0  0.00000000000E+00  0.00000000000E+00 -0.11661965876E+04  0.25620003655E+04  0.22811907838E+04 0.  0.
        4    1    3    3  502    0 -0.70877975500E+03  0.89105115239E+03 -0.50679920952E+03  0.12462696133E+04  0.12699999809E+01 0. -1.
       -4    1    3    3    0  502  0.70877975500E+03 -0.89105115239E+03 -0.65939737810E+03  0.13157307523E+04  0.12699999809E+01 0.  1.
</event>
<event>
 5   0  0.2289708E-05  0.2201939E+04  0.7818609E-02  0.8517622E-01
       -2   -1    0    0    0  501  0.00000000000E+00  0.00000000000E+00  0.75137543639E+03  0.75137543639E+03  0.25500000920E-02 0.  1.
        2   -1    0    0  501    0  0.00000000000E+00  0.00000000000E+00 -0.16132193184E+04  0.16132193184E+04  0.25500000920E-02 0. -1.
    10030    2    1    2    0    0  0.00000000000E+00  0.00000000000E+00 -0.86184388202E+03  0.23645947548E+04  0.22019385726E+04 0.  0.
        5    1    3    3  502    0 -0.24126706155E+03 -0.64460920058E+02 -0.15823916773E+04  0.16019833069E+04  0.46999998093E+01 0. -1.
       -5    1    3    3    0  502  0.24126706155E+03  0.64460920058E+02  0.72054779528E+03  0.76261144791E+03  0.46999998093E+01 0.  1.
</event>
<event>
 5   0  0.2229552E-05  0.2205878E+04  0.7818609E-02  0.8515986E-01
        2   -1    0    0  501    0  0.00000000000E+00  0.00000000000E+00  0.12554841847E+04  0.12554841847E+04  0.25500000920E-02 0.  1.
       -2   -1    0    0    0  501  0.00000000000E+00  0.00000000000E+00 -0.96892838060E+03  0.96892838060E+03  0.25500000920E-02 0. -1.
    10030    2    1    2    0    0  0.00000000000E+00  0.00000000000E+00  0.28655580414E+03  0.22244125654E+04  0.22058778371E+04 0.  0.
        1    1    3    3  502    0  0.81640420664E+03 -0.45911351012E+03 -0.44400134723E+03  0.10365511276E+04  0.50400001928E-02 0. -1.
       -1    1    3    3    0  502 -0.81640420664E+03  0.45911351012E+03  0.73055715137E+03  0.11878614377E+04  0.50400001928E-02 0.  1.
</event>
<event>
 5   0  0.2298329E-05  0.2206055E+04  0.7818609E-02  0.8515912E-01
        2   -1    0    0  501    0  0.00000000000E+00  0.00000000000E+00  0.12110523174E+04  0.12110523174E+04  0.25500000920E-02 0.  1.
       -2   -1    0    0    0  501  0.00000000000E+00  0.00000000000E+00 -0.10046384416E+04  0.10046384416E+04  0.25500000920E-02 0. -1.
    10030    2    1    2    0    0  0.00000000000E+00  0.00000000000E+00  0.20641387582E+03  0.22156907590E+04  0.22060550427E+04 0.  0.
        4    1    3    3  502    0  0.52187041820E+03  0.87637594565E+03  0.52490339337E+03  0.11471306450E+04  0.12699999809E+01 0.  1.
       -4    1    3    3    0  502 -0.52187041820E+03 -0.87637594565E+03 -0.31848951756E+03  0.10685601140E+04  0.12699999809E+01 0. -1.
</event>
<event>
 5   0  0.1005538E-05  0.2200952E+04  0.7818609E-02  0.8518032E-01
        1   -1    0    0  501    0  0.00000000000E+00  0.00000000000E+00  0.18146731402E+04  0.18146731402E+04  0.50400001928E-02 0.  1.
       -1   -1    0    0    0  501  0.00000000000E+00  0.00000000000E+00 -0.66736381740E+03  0.66736381741E+03  0.50400001928E-02 0. -1.
    10030    2    1    2    0    0  0.00000000000E+00  0.00000000000E+00  0.11473093228E+04  0.24820369576E+04  0.22009517888E+04 0.  0.
        3    1    3    3  502    0 -0.43656876441E+02 -0.62090334980E+03 -0.44978261976E+03  0.76793965121E+03  0.10100000352E+00 0. -1.
       -3    1    3    3    0  502  0.43656876441E+02  0.62090334980E+03  0.15970919425E+04  0.17140973064E+04  0.10100000352E+00 0.  1.
</event>
<event>
 5   0  0.1071208E-05  0.2109799E+04  0.7818609E-02  0.8556939E-01
        1   -1    0    0  501    0  0.00000000000E+00  0.00000000000E+00  0.16498894929E+04  0.16498894929E+04  0.50400001928E-02 0. -1.
       -1   -1    0    0    0  501  0.00000000000E+00  0.00000000000E+00 -0.67447748972E+03  0.67447748974E+03  0.50400001928E-02 0.  1.
    10030    2    1    2    0    0  0.00000000000E+00  0.00000000000E+00  0.97541200320E+03  0.23243669827E+04  0.21097993492E+04 0.  0.
        4    1    3    3  502    0 -0.21090552430E+03  0.36889733340E+03  0.15514292506E+04  0.16085710166E+04  0.12699999809E+01 0. -1.
       -4    1    3    3    0  502  0.21090552430E+03 -0.36889733340E+03 -0.57601724745E+03  0.71579596606E+03  0.12699999809E+01 0.  1.
</event>
<event>
 5   0  0.2229552E-05  0.2206641E+04  0.7818609E-02  0.8515669E-01
       -2   -1    0    0    0  501  0.00000000000E+00  0.00000000000E+00  0.11270582853E+04  0.11270582853E+04  0.25500000920E-02 0. -1.
        2   -1    0    0  501    0  0.00000000000E+00  0.00000000000E+00 -0.10800829993E+04  0.10800829993E+04  0.25500000920E-02 0.  1.
    10030    2    1    2    0    0  0.00000000000E+00  0.00000000000E+00  0.46975286004E+02  0.22071412846E+04  0.22066413331E+04 0.  0.
        1    1    3    3  502    0 -0.91239256619E+03 -0.53387292545E+03 -0.29255229428E+03  0.10968442644E+04  0.50400001928E-02 0. -1.
       -1    1    3    3    0  502  0.91239256619E+03  0.53387292545E+03  0.33952758028E+03  0.11102970202E+04  0.50400001928E-02 0.  1.
</event>
<event>
 5   0  0.1049198E-05  0.2153852E+04  0.7818609E-02  0.8537885E-01
        1   -1    0    0  501    0  0.00000000000E+00  0.00000000000E+00  0.25731491864E+04  0.25731491864E+04  0.50400001928E-02 0. -1.
       -1   -1    0    0    0  501  0.00000000000E+00  0.00000000000E+00 -0.45072009421E+03  0.45072009424E+03  0.50400001928E-02 0.  1.
    10030    2    1    2    0    0  0.00000000000E+00  0.00000000000E+00  0.21224290922E+04  0.30238692807E+04  0.21538524033E+04 0.  0.
        1    1    3    3  502    0  0.40580038646E+03 -0.11671119048E+02 -0.33917821548E+03  0.52901042575E+03  0.50400001928E-02 0.  1.
       -1    1    3    3    0  502 -0.40580038646E+03  0.11671119048E+02  0.24616073077E+04  0.24948588549E+04  0.50400001928E-02 0. -1.
</event>
<event>
 5   0  0.2298329E-05  0.2201503E+04  0.7818609E-02  0.8517803E-01
       -2   -1    0    0    0  501  0.00000000000E+00  0.00000000000E+00  0.13804206703E+04  0.13804206703E+04  0.25500000920E-02 0. -1.
        2   -1    0    0  501    0  0.00000000000E+00  0.00000000000E+00 -0.87774236971E+03  0.87774236972E+03  0.25500000920E-02 0.  1.
    10030    2    1    2    0    0  0.00000000000E+00  0.00000000000E+00  0.50267830060E+03  0.22581630400E+04  0.22015028598E+04 0.  0.
        4    1    3    3  502    0  0.44328415744E+03  0.80940011354E+03 -0.36412248856E+03  0.99207670450E+03  0.12699999809E+01 0.  1.
       -4    1    3    3    0  502 -0.44328415744E+03 -0.80940011354E+03  0.86680078916E+03  0.12660863355E+04  0.12699999809E+01 0. -1.
</event>
<event>
 5   0  0.2289708E-05  0.2211176E+04  0.7818609E-02  0.8513791E-01
        2   -1    0    0  501    0  0.00000000000E+00  0.00000000000E+00  0.18877554692E+04  0.18877554692E+04  0.25500000920E-02 0. -1.
       -2   -1    0    0    0  501  0.00000000000E+00  0.00000000000E+00 -0.64750157238E+03  0.64750157239E+03  0.25500000920E-02 0.  1.
    10030    2    1    2    0    0  0.00000000000E+00  0.00000000000E+00  0.12402538968E+04  0.25352570416E+04  0.22111758271E+04 0.  0.
        5    1    3    3  502    0 -0.17485117368E+03 -0.10887424428E+04  0.71163336719E+03  0.13123936829E+04  0.46999998093E+01 0. -1.
       -5    1    3    3    0  502  0.17485117368E+03  0.10887424428E+04  0.52862052966E+03  0.12228633587E+04  0.46999998093E+01 0.  1.
</event>
<event>
 5   0  0.2289708E-05  0.2208714E+04  0.7818609E-02  0.8514810E-01
        2   -1    0    0  501    0  0.00000000000E+00  0.00000000000E+00  0.12734557054E+04  0.12734557054E+04  0.25500000920E-02 0.  1.
       -2   -1    0    0    0  501  0.00000000000E+00  0.00000000000E+00 -0.95771271343E+03  0.95771271344E+03  0.25500000920E-02 0. -1.
    10030    2    1    2    0    0  0.00000000000E+00  0.00000000000E+00  0.31574299196E+03  0.22311684188E+04  0.22087143039E+04 0.  0.
        5    1    3    3  502    0  0.10256981072E+04  0.26771049076E+03 -0.15488402684E+03  0.10713247247E+04  0.46999998093E+01 0. -1.
       -5    1    3    3    0  502 -0.10256981072E+04 -0.26771049076E+03  0.47062701881E+03  0.11598436941E+04  0.46999998093E+01 0.  1.
</event>
<event>
 5   0  0.1071208E-05  0.2150718E+04  0.7818609E-02  0.8539225E-01
        1   -1    0    0  501    0  0.00000000000E+00  0.00000000000E+00  0.18852338589E+04  0.18852338589E+04  0.50400001928E-02 0.  1.
       -1   -1    0    0    0  501  0.00000000000E+00  0.00000000000E+00 -0.61339713900E+03  0.61339713903E+03  0.50400001928E-02 0. -1.
    10030    2    1    2    0    0  0.00000000000E+00  0.00000000000E+00  0.12718367199E+04  0.24986309980E+04  0.21507180712E+04 0.  0.
        4    1    3    3  502    0  0.65688048548E+03 -0.71254248330E+03  0.11773395292E+04  0.15249061422E+04  0.12699999809E+01 0.  1.
       -4    1    3    3    0  502 -0.65688048548E+03  0.71254248330E+03  0.94497190747E+02  0.97372485574E+03  0.12699999809E+01 0. -1.
</event>
<event>
 5   0  0.1071208E-05  0.2200640E+04  0.7818609E-02  0.8518162E-01
       -1   -1    0    0    0  501  0.00000000000E+00  0.00000000000E+00  0.11268031174E+04  0.11268031175E+04  0.50400001928E-02 0. -1.
        1   -1    0    0  501    0  0.00000000000E+00  0.00000000000E+00 -0.10744596395E+04  0.10744596395E+04  0.50400001928E-02 0.  1.
    10030    2    1    2    0    0  0.00000000000E+00  0.00000000000E+00  0.52343477956E+02  0.22012627570E+04  0.22006403353E+04 0.  0.
        4    1    3    3  502    0 -0.95678130752E+03  0.54332493399E+03  0.17778647908E+02  0.11004318005E+04  0.12699999809E+01 0. -1.
       -4    1    3    3    0  502  0.95678130752E+03 -0.54332493399E+03  0.34564830048E+02  0.11008309565E+04  0.12699999809E+01 0.  1.
</event>
<event>
 5   0  0.1049198E-05  0.2190865E+04  0.7818609E-02  0.8522240E-01
        1   -1    0    0  501    0  0.00000000000E+00  0.00000000000E+00  0.16813505171E+04  0.16813505171E+04  0.50400001928E-02 0.  1.
       -1   -1    0    0    0  501  0.00000000000E+00  0.00000000000E+00 -0.71369524285E+03  0.71369524286E+03  0.50400001928E-02 0. -1.
    10030    2    1    2    0    0  0.00000000000E+00  0.00000000000E+00  0.96765527424E+03  0.23950457600E+04  0.21908645468E+04 0.  0.
        1    1    3    3  502    0  0.29305418797E+03 -0.59235372105E+03  0.14388637535E+04  0.15833801152E+04  0.50400001928E-02 0.  1.
       -1    1    3    3    0  502 -0.29305418797E+03  0.59235372105E+03 -0.47120847928E+03  0.81166564477E+03  0.50400001928E-02 0. -1.
</event>
<event>
 5   0  0.2289708E-05  0.2221962E+04  0.7818609E-02  0.8509342E-01
       -2   -1    0    0    0  501  0.00000000000E+00  0.00000000000E+00  0.65192590322E+03  0.65192590322E+03  0.25500000920E-02 0.  1.
        2   -1    0    0  501    0  0.00000000000E+00  0.00000000000E+00 -0.18932808989E+04  0.18932808989E+04  0.25500000920E-02 0. -1.
    10030    2    1    2    0    0  0.00000000000E+00  0.00000000000E+00 -0.12413549957E+04  0.25452068021E+04  0.22219620700E+04 0.  0.
        5    1    3    3  502    0  0.33124550722E+03  0.86612304684E+03 -0.13215410956E+04  0.16144304493E+04  0.46999998093E+01 0. -1.
       -5    1    3    3    0  502 -0.33124550722E+03 -0.86612304684E+03  0.80186099937E+02  0.93077635280E+03  0.46999998093E+01 0.  1.
</event>
<event>
 5   0  0.2298329E-05  0.2208091E+04  0.7818609E-02  0.8515068E-01
       -2   -1    0    0    0  501  0.00000000000E+00  0.00000000000E+00  0.83367762959E+03  0.83367762960E+03  0.25500000920E-02 0.  1.
        2   -1    0    0  501    0  0.00000000000E+00  0.00000000000E+00 -0.14620952337E+04  0.14620952337E+04  0.25500000920E-02 0. -1.
    10030    2    1    2    0    0  0.00000000000E+00  0.00000000000E+00 -0.62841760412E+03  0.22957728633E+04  0.22080906582E+04 0.  0.
        4    1    3    3  502    0 -0.79654581614E+03 -0.86109093622E+02  0.47556980745E+03  0.93170181274E+03  0.12699999809E+01 0.  1.
       -4    1    3    3    0  502  0.79654581614E+03  0.86109093622E+02 -0.11039874116E+04  0.13640710506E+04  0.12699999809E+01 0. -1.
</event>
<event>
 5   0  0.2229552E-05  0.2199413E+04  0.7818609E-02  0.8518672E-01
       -2   -1    0    0    0  501  0.00000000000E+00  0.00000000000E+00  0.77034146940E+03  0.77034146941E+03  0.25500000920E-02 0. -1.
        2   -1    0    0  501    0  0.00000000000E+00  0.00000000000E+00 -0.15698946000E+04  0.15698946000E+04  0.25500000920E-02 0.  1.
    10030    2    1    2    0    0  0.00000000000E+00  0.00000000000E+00 -0.79955313061E+03  0.23402360694E+04  0.21994134791E+04 0.  0.
        1    1    3    3  502    0 -0.27371390304E+02  0.36230890847E+03 -0.15041825990E+04  0.15474437726E+04  0.50400001928E-02 0.  1.
       -1    1    3    3    0  502  0.27371390304E+02 -0.36230890847E+03  0.70462946839E+03  0.79279229683E+03  0.50400001928E-02 0. -1.
</event>
<event>
 5   0  0.2229552E-05  0.2193881E+04  0.7818609E-02  0.8520979E-01
       -2   -1    0    0    0  501  0.00000000000E+00  0.00000000000E+00  0.67514775048E+03  0.67514775048E+03  0.25500000920E-02 0. -1.
        2   -1    0    0  501    0  0.00000000000E+00  0.00000000000E+00 -0.17822451504E+04  0.17822451504E+04  0.25500000920E-02 0.  1.
    10030    2    1    2    0    0  0.00000000000E+00  0.00000000000E+00 -0.11070973999E+04  0.24573929008E+04  0.21938813132E+04 0.  0.
        1    1    3    3  502    0 -0.95276768999E+03 -0.23123528146E+03 -0.11046196713E+04  0.14769633187E+04  0.50400001928E-02 0.  1.
       -1    1    3    3    0  502  0.95276768999E+03  0.23123528146E+03 -0.24777286187E+01  0.98042958219E+03  0.50400001928E-02 0. -1.
</event>
<event>
 5   0  0.1007682E-05  0.2202925E+04  0.7818609E-02  0.8517212E-01
       -1   -1    0    0    0  501  0.00000000000E+00  0.00000000000E+00  0.80839102209E+03  0.80839102211E+03  0.50400001928E-02 0. -1.
        1   -1    0    0  501    0  0.00000000000E+00  0.00000000000E+00 -0.15007833458E+04  0.15007833458E+04  0.50400001928E-02 0.  1.
    10030    2    1    2    0    0  0.00000000000E+00  0.00000000000E+00 -0.69239232371E+03  0.23091743679E+04  0.22029251307E+04 0.  0.
        2    1    3    3  502    0 -0.49839970316E+03  0.60980293358E+03  0.46098110295E+03  0.91255983869E+03  0.25500000920E-02 0. -1.
       -2    1    3    3    0  502  0.49839970316E+03 -0.60980293358E+03 -0.11533734267E+04  0.13966145292E+04  0.25500000920E-02 0.  1.
</event>
<event>
 5   0  0.1033733E-05  0.2199733E+04  0.7818609E-02  0.8518539E-01
       -1   -1    0    0    0  501  0.00000000000E+00  0.00000000000E+00  0.55430157986E+03  0.55430157989E+03  0.50400001928E-02 0. -1.
        1   -1    0    0  501    0  0.00000000000E+00  0.00000000000E+00 -0.21823977706E+04  0.21823977706E+04  0.50400001928E-02 0.  1.
    10030    2    1    2    0    0  0.00000000000E+00  0.00000000000E+00 -0.16280961907E+04  0.27366993505E+04  0.21997331949E+04 0.  0.
        5    1    3    3  502    0  0.10686527546E+04 -0.10250247751E+03 -0.11114880418E+04  0.15453003672E+04  0.46999998093E+01 0.  1.
       -5    1    3    3    0  502 -0.10686527546E+04  0.10250247751E+03 -0.51660814894E+03  0.11913989833E+04  0.46999998093E+01 0. -1.
</event>
<event>
 5   0  0.2289708E-05  0.2197897E+04  0.7818609E-02  0.8519304E-01
        2   -1    0    0  501    0  0.00000000000E+00  0.00000000000E+00  0.13070312025E+04  0.13070312025E+04  0.25500000920E-02 0. -1.
       -2   -1    0    0    0  501  0.00000000000E+00  0.00000000000E+00 -0.92399345201E+03  0.92399345201E+03  0.25500000920E-02 0.  1.
    10030    2    1    2    0    0  0.00000000000E+00  0.00000000000E+00  0.38303775045E+03  0.22310246545E+04  0.21978974249E+04 0.  0.
        5    1    3    3  502    0 -0.94127768692E+03 -0.14594916795E+03 -0.36479381302E+03  0.10200007155E+04  0.46999998093E+01 0.  1.
       -5    1    3    3    0  502  0.94127768692E+03  0.14594916795E+03  0.74783156348E+03  0.12110239390E+04  0.46999998093E+01 0. -1.
</event>
<event>
 5   0  0.1071208E-05  0.2223048E+04  0.7818609E-02  0.8508896E-01
       -1   -1    0    0    0  501  0.00000000000E+00  0.00000000000E+00  0.82948477239E+03  0.82948477240E+03  0.50400001928E-02 0. -1.
        1   -1    0    0  501    0  0.00000000000E+00  0.00000000000E+00 -0.14894618769E+04  0.14894618769E+04  0.50400001928E-02 0.  1.
    10030    2    1    2    0    0  0.00000000000E+00  0.00000000000E+00 -0.65997710455E+03  0.23189466493E+04  0.22230483090E+04 0.  0.
        4    1    3    3  502    0 -0.55180229060E+03  0.80517107302E+03 -0.88461848978E+03  0.13173221740E+04  0.12699999809E+01 0.  1.
       -4    1    3    3    0  502  0.55180229060E+03 -0.80517107302E+03  0.22464138523E+03  0.10016244753E+04  0.12699999809E+01 0. -1.
</event>
<event>
 5   0  0.2284329E-05  0.2179375E+04  0.7818609E-02  0.8527062E-01
        2   -1    0    0  501    0  0.00000000000E+00  0.00000000000E+00  0.12627181673E+04  0.12627181673E+04  0.25500000920E-02 0. -1.
       -2   -1    0    0    0  501  0.00000000000E+00  0.00000000000E+00 -0.94036749621E+03  0.94036749621E+03  0.25500000920E-02 0.  1.
    10030    2    1    2    0    0  0.00000000000E+00  0.00000000000E+00  0.32235067113E+03  0.22030856636E+04  0.21793752513E+04 0.  0.
        2    1    3    3  502    0  0.75945360112E+03 -0.45137762707E+03  0.80600834816E+03  0.11958933865E+04  0.25500000920E-02 0.  1.
       -2    1    3    3    0  502 -0.75945360112E+03  0.45137762707E+03 -0.48365767703E+03  0.10071922771E+04  0.25500000920E-02 0. -1.
</event>
<event>
 5   0  0.1049198E-05  0.2210026E+04  0.7818609E-02  0.8514267E-01
        1   -1    0    0  501    0  0.00000000000E+00  0.00000000000E+00  0.95516060107E+03  0.95516060108E+03  0.50400001928E-02 0. -1.
       -1   -1    0    0    0  501  0.00000000000E+00  0.00000000000E+00 -0.12783751816E+04  0.12783751816E+04  0.50400001928E-02 0.  1.
    10030    2    1    2    0    0  0.00000000000E+00  0.00000000000E+00 -0.32321458054E+03  0.22335357827E+04  0.22100258884E+04 0.  0.
        1    1    3    3  502    0  0.70691329212E+03 -0.36385608505E+03  0.61397804264E+03  0.10045330707E+04  0.50400001928E-02 0. -1.
       -1    1    3    3    0  502 -0.70691329212E+03  0.36385608505E+03 -0.93719262318E+03  0.12290027120E+04  0.50400001928E-02 0.  1.
</event>
<event>
 5   0  0.2319707E-05  0.2195354E+04  0.7818609E-02  0.8520364E-01
       -2   -1    0    0    0  501  0.00000000000E+00  0.00000000000E+00  0.13163519843E+04  0.13163519843E+04  0.25500000920E-02 0.  1.
        2   -1    0    0  501    0  0.00000000000E+00  0.00000000000E+00 -0.91532907237E+03  0.91532907238E+03  0.25500000920E-02 0. -1.
    10030    2    1    2    0    0  0.00000000000E+00  0.00000000000E+00  0.40102291194E+03  0.22316810567E+04  0.21953544048E+04 0.  0.
        3    1    3    3  502    0  0.51481042910E+03 -0.67632573703E+03 -0.50556734019E+03  0.98896138760E+03  0.10100000352E+00 0. -1.
       -3    1    3    3    0  502 -0.51481042910E+03  0.67632573703E+03  0.90659025213E+03  0.12427196691E+04  0.10100000352E+00 0.  1.
</event>
<event>
 5   0  0.2289708E-05  0.2201212E+04  0.7818609E-02  0.8517924E-01
       -2   -1    0    0    0  501  0.00000000000E+00  0.00000000000E+00  0.73102120356E+03  0.73102120356E+03  0.25500000920E-02 0. -1.
        2   -1    0    0  501    0  0.00000000000E+00  0.00000000000E+00 -0.16570436947E+04  0.16570436947E+04  0.25500000920E-02 0.  1.
    10030    2    1    2    0    0  0.00000000000E+00  0.00000000000E+00 -0.92602249114E+03  0.23880648983E+04  0.22012124623E+04 0.  0.
        5    1    3    3  502    0 -0.67325332913E+03 -0.19962719463E+03 -0.13824104389E+04  0.15505488621E+04  0.46999998093E+01 0.  1.
       -5    1    3    3    0  502  0.67325332913E+03  0.19962719463E+03  0.45638794778E+03  0.83751603620E+03  0.46999998093E+01 0. -1.
</event>
<event>
 5   0  0.1049198E-05  0.2198245E+04  0.7818609E-02  0.8519159E-01
       -1   -1    0    0    0  501  0.00000000000E+00  0.00000000000E+00  0.13288166197E+04  0.13288166197E+04  0.50400001928E-02 0.  1.
        1   -1    0    0  501    0  0.00000000000E+00  0.00000000000E+00 -0.90913248954E+03  0.90913248956E+03  0.50400001928E-02 0. -1.
    10030    2    1    2    0    0  0.00000000000E+00  0.00000000000E+00  0.41968413013E+03  0.22379491092E+04  0.21982450834E+04 0.  0.
        1    1    3    3  502    0 -0.10580502372E+04 -0.15633447700E+03  0.46771447628E+03  0.11673335446E+04  0.50400001928E-02 0.  1.
       -1    1    3    3    0  502  0.10580502372E+04  0.15633447700E+03 -0.48030346146E+02  0.10706155646E+04  0.50400001928E-02 0. -1.
</event>
<event>
 5   0  0.1071208E-05  0.2190622E+04  0.7818609E-02  0.8522342E-01
       -1   -1    0    0    0  501  0.00000000000E+00  0.00000000000E+00  0.10405999312E+04  0.10405999312E+04  0.50400001928E-02 0.  1.
        1   -1    0    0  501    0  0.00000000000E+00  0.00000000000E+00 -0.11528986639E+04  0.11528986639E+04  0.50400001928E-02 0. -1.
    10030    2    1    2    0    0  0.00000000000E+00  0.00000000000E+00 -0.11229873269E+03  0.21934985952E+04  0.21906220764E+04 0.  0.
        4    1    3    3  502    0  0.16289155342E+03 -0.93816678791E+03  0.48586917544E+03  0.10690000228E+04  0.12699999809E+01 0.  1.
       -4    1    3    3    0  502 -0.16289155342E+03  0.93816678791E+03 -0.59816790814E+03  0.11244985724E+04  0.12699999809E+01 0. -1.
</event>
<event>
 5   0  0.8003875E-06  0.2191431E+04  0.7818609E-02  0.8522003E-01
       -3   -1    0    0    0  501  0.00000000000E+00  0.00000000000E+00  0.11372636918E+04  0.11372636963E+04  0.10100000352E+00 0.  1.
        3   -1    0    0  501    0  0.00000000000E+00  0.00000000000E+00 -0.10556853548E+04  0.10556853596E+04  0.10100000352E+00 0. -1.
    10030    2    1    2    0    0  0.00000000000E+00  0.00000000000E+00  0.81578337015E+02  0.21929490560E+04  0.21914311618E+04 0.  0.
        2    1    3    3  502    0 -0.36978915253E+03  0.99182504199E+03 -0.24248234051E+03  0.10859367462E+04  0.25500000920E-02 0.  1.
       -2    1    3    3    0  502  0.36978915253E+03 -0.99182504199E+03  0.32406067753E+03  0.11070123098E+04  0.25500000920E-02 0. -1.
</event>
<event>
 5   0  0.1033733E-05  0.2301321E+04  0.7818609E-02  0.8477400E-01
        1   -1    0    0  501    0  0.00000000000E+00  0.00000000000E+00  0.76506516233E+03  0.76506516234E+03  0.50400001928E-02 0.  1.
       -1   -1    0    0    0  501  0.00000000000E+00  0.00000000000E+00 -0.17305978393E+04  0.17305978393E+04  0.50400001928E-02 0. -1.
    10030    2    1    2    0    0  0.00000000000E+00  0.00000000000E+00 -0.96553267701E+03  0.24956630017E+04  0.23013214612E+04 0.  0.
        5    1    3    3  502    0  0.79822066417E+02  0.78589628172E+03  0.42454357562E+03  0.89680759670E+03  0.46999998093E+01 0.  1.
       -5    1    3    3    0  502 -0.79822066417E+02 -0.78589628172E+03 -0.13900762526E+04  0.15988554050E+04  0.46999998093E+01 0. -1.
</event>
<event>
 5   0  0.2289708E-05  0.2205846E+04  0.7818609E-02  0.8515999E-01
        2   -1    0    0  501    0  0.00000000000E+00  0.00000000000E+00  0.11902260283E+04  0.11902260283E+04  0.25500000920E-02 0.  1.
       -2   -1    0    0    0  501  0.00000000000E+00  0.00000000000E+00 -0.10220238766E+04  0.10220238766E+04  0.25500000920E-02 0. -1.
    10030    2    1    2    0    0  0.00000000000E+00  0.00000000000E+00  0.16820215162E+03  0.22122499049E+04  0.22058462498E+04 0.  0.
        5    1    3    3  502    0 -0.10281575503E+04 -0.34438945802E+03  0.28644228110E+03  0.11215093925E+04  0.46999998093E+01 0. -1.
       -5    1    3    3    0  502  0.10281575503E+04  0.34438945802E+03 -0.11824012948E+03  0.10907405124E+04  0.46999998093E+01 0.  1.
</event>
<event>
 5   0  0.2289708E-05  0.2193996E+04  0.7818609E-02  0.8520931E-01
        2   -1    0    0  501    0  0.00000000000E+00  0.00000000000E+00  0.10155091288E+04  0.10155091288E+04  0.25500000920E-02 0.  1.
       -2   -1    0    0    0  501  0.00000000000E+00  0.00000000000E+00 -0.11850260731E+04  0.11850260731E+04  0.25500000920E-02 0. -1.
    10030    2    1    2    0    0  0.00000000000E+00  0.00000000000E+00 -0.16951694426E+03  0.22005352019E+04  0.21939961669E+04 0.  0.
        5    1    3    3  502    0  0.10856744552E+04  0.12533667532E+03  0.10310105943E+02  0.10929440485E+04  0.46999998093E+01 0.  1.
       -5    1    3    3    0  502 -0.10856744552E+04 -0.12533667532E+03 -0.17982705020E+03  0.11075911533E+04  0.46999998093E+01 0. -1.
</event>
<event>
 5   0  0.2319707E-05  0.2194556E+04  0.7818609E-02  0.8520698E-01
       -2   -1    0    0    0  501  0.00000000000E+00  0.00000000000E+00  0.65256250206E+03  0.65256250206E+03  0.25500000920E-02 0.  1.
        2   -1    0    0  501    0  0.00000000000E+00  0.00000000000E+00 -0.18450626902E+04  0.18450626902E+04  0.25500000920E-02 0. -1.
    10030    2    1    2    0    0  0.00000000000E+00  0.00000000000E+00 -0.11925001882E+04  0.24976251923E+04  0.21945557415E+04 0.  0.
        3    1    3    3  502    0  0.93418120091E+02  0.93453365991E+03 -0.12420042076E+04  0.15571302349E+04  0.10100000352E+00 0. -1.
       -3    1    3    3    0  502 -0.93418120091E+02 -0.93453365991E+03  0.49504019435E+02  0.94049495735E+03  0.10100000352E+00 0.  1.
</event>
<event>
 5   0  0.2289708E-05  0.2203500E+04  0.7818609E-02  0.8516973E-01
        2   -1    0    0  501    0  0.00000000000E+00  0.00000000000E+00  0.22664893428E+04  0.22664893428E+04  0.25500000920E-02 0. -1.
       -2   -1    0    0    0  501  0.00000000000E+00  0.00000000000E+00 -0.53556537978E+03  0.53556537979E+03  0.25500000920E-02 0.  1.
    10030    2    1    2    0    0  0.00000000000E+00  0.00000000000E+00  0.17309239630E+04  0.28020547226E+04  0.22035001481E+04 0.  0.
        5    1    3    3  502    0 -0.53037781740E+03 -0.62659881852E+03 -0.68914659710E+02  0.82383131094E+03  0.46999998093E+01 0.  1.
       -5    1    3    3    0  502  0.53037781740E+03  0.62659881852E+03  0.17998386227E+04  0.19782234117E+04  0.46999998093E+01 0. -1.
</event>
<event>
 5   0  0.1007682E-05  0.2200256E+04  0.7818609E-02  0.8518322E-01
        1   -1    0    0  501    0  0.00000000000E+00  0.00000000000E+00  0.11423275526E+04  0.11423275526E+04  0.50400001928E-02 0.  1.
       -1   -1    0    0    0  501  0.00000000000E+00  0.00000000000E+00 -0.10594870814E+04  0.10594870814E+04  0.50400001928E-02 0. -1.
    10030    2    1    2    0    0  0.00000000000E+00  0.00000000000E+00  0.82840471230E+02  0.22018146340E+04  0.22002556985E+04 0.  0.
        2    1    3    3  502    0  0.66323608870E+03  0.82987858543E+02 -0.83299071380E+03  0.10680087187E+04  0.25500000920E-02 0. -1.
       -2    1    3    3    0  502 -0.66323608870E+03 -0.82987858543E+02  0.91583118503E+03  0.11338059153E+04  0.25500000920E-02 0.  1.
</event>
<event>
 5   0  0.2319707E-05  0.2199367E+04  0.7818609E-02  0.8518692E-01
       -2   -1    0    0    0  501  0.00000000000E+00  0.00000000000E+00  0.45351360195E+03  0.45351360196E+03  0.25500000920E-02 0.  1.
        2   -1    0    0  501    0  0.00000000000E+00  0.00000000000E+00 -0.26665203685E+04  0.26665203685E+04  0.25500000920E-02 0. -1.
    10030    2    1    2    0    0  0.00000000000E+00  0.00000000000E+00 -0.22130067665E+04  0.31200339704E+04  0.21993665060E+04 0.  0.
        3    1    3    3  502    0 -0.40436708044E+03  0.43762489687E+03  0.20467129727E+03  0.63001479049E+03  0.10100000352E+00 0.  1.
       -3    1    3    3    0  502  0.40436708044E+03 -0.43762489687E+03 -0.24176780638E+04  0.24900191799E+04  0.10100000352E+00 0. -1.
</event>
<event>
 5   0  0.2298329E-05  0.2219859E+04  0.7818609E-02  0.8510208E-01
        2   -1    0    0  501    0  0.00000000000E+00  0.00000000000E+00  0.17474359351E+04  0.17474359351E+04  0.25500000920E-02 0. -1.
       -2   -1    0    0    0  501  0.00000000000E+00  0.00000000000E+00 -0.70500042024E+03  0.70500042024E+03  0.25500000920E-02 0.  1.
    10030    2    1    2    0    0  0.00000000000E+00  0.00000000000E+00  0.10424355149E+04  0.24524363554E+04  0.22198586159E+04 0.  0.
        4    1    3    3  502    0 -0.20811426771E+03 -0.10563681642E+04  0.81912979027E+03  0.13528490208E+04  0.12699999809E+01 0.  1.
       -4    1    3    3    0  502  0.20811426771E+03  0.10563681642E+04  0.22330572464E+03  0.10995873346E+04  0.12699999809E+01 0. -1.
</event>
<event>
 5   0  0.2319707E-05  0.2200580E+04  0.7818609E-02  0.8518187E-01
       -2   -1    0    0    0  501  0.00000000000E+00  0.00000000000E+00  0.78631204779E+03  0.78631204779E+03  0.25500000920E-02 0.  1.
        2   -1    0    0  501    0  0.00000000000E+00  0.00000000000E+00 -0.15396407058E+04  0.15396407058E+04  0.25500000920E-02 0. -1.
    10030    2    1    2    0    0  0.00000000000E+00  0.00000000000E+00 -0.75332865800E+03  0.23259527536E+04  0.22005799565E+04 0.  0.
        3    1    3    3  502    0 -0.97433696638E+03 -0.26875063674E+03  0.82940858232E+02  0.10141196305E+04  0.10100000352E+00 0.  1.
       -3    1    3    3    0  502  0.97433696638E+03  0.26875063674E+03 -0.83626951624E+03  0.13118331231E+04  0.10100000352E+00 0. -1.
</event>
<event>
 5   0  0.1007682E-05  0.2193602E+04  0.7818609E-02  0.8521096E-01
        1   -1    0    0  501    0  0.00000000000E+00  0.00000000000E+00  0.69735298330E+03  0.69735298331E+03  0.50400001928E-02 0. -1.
       -1   -1    0    0    0  501  0.00000000000E+00  0.00000000000E+00 -0.17250550924E+04  0.17250550925E+04  0.50400001928E-02 0.  1.
    10030    2    1    2    0    0  0.00000000000E+00  0.00000000000E+00 -0.10277021092E+04  0.24224080758E+04  0.21936018920E+04 0.  0.
        2    1    3    3  502    0 -0.48002490276E+03  0.82760534382E+03  0.78388453571E+02  0.95994753088E+03  0.25500000920E-02 0. -1.
       -2    1    3    3    0  502  0.48002490276E+03 -0.82760534382E+03 -0.11060905627E+04  0.14624605449E+04  0.25500000920E-02 0.  1.
</event>
<event>
 5   0  0.2284329E-05  0.2260536E+04  0.7818609E-02  0.8493646E-01
        2   -1    0    0  501    0  0.00000000000E+00  0.00000000000E+00  0.24994995412E+04  0.24994995412E+04  0.25500000920E-02 0.  1.
       -2   -1    0    0    0  501  0.00000000000E+00  0.00000000000E+00 -0.51110455665E+03  0.51110455666E+03  0.25500000920E-02 0. -1.
    10030    2    1    2    0    0  0.00000000000E+00  0.00000000000E+00  0.19883949845E+04  0.30106040978E+04  0.22605358700E+04 0.  0.
        2    1    3    3  502    0 -0.90478080524E+03  0.45415760038E+03  0.16635802800E+04  0.19474051401E+04  0.25500000920E-02 0.  1.
       -2    1    3    3    0  502  0.90478080524E+03 -0.45415760038E+03  0.32481470449E+03  0.10631989577E+04  0.25500000920E-02 0. -1.
</event>
<event>
 5   0  0.1071208E-05  0.2199601E+04  0.7818609E-02  0.8518594E-01
        1   -1    0    0  501    0  0.00000000000E+00  0.00000000000E+00  0.11397305474E+04  0.11397305474E+04  0.50400001928E-02 0. -1.
       -1   -1    0    0    0  501  0.00000000000E+00  0.00000000000E+00 -0.10612696046E+04  0.10612696046E+04  0.50400001928E-02 0.  1.
    10030    2    1    2    0    0  0.00000000000E+00  0.00000000000E+00  0.78460942806E+02  0.22010001521E+04  0.21996012252E+04 0.  0.
        4    1    3    3  502    0  0.14034316283E+03  0.97136358161E+03  0.53584880896E+03  0.11182034564E+04  0.12699999809E+01 0. -1.
       -4    1    3    3    0  502 -0.14034316283E+03 -0.97136358161E+03 -0.45738786615E+03  0.10827966956E+04  0.12699999809E+01 0.  1.
</event>
<event>
 5   0  0.1071208E-05  0.2211222E+04  0.7818609E-02  0.8513772E-01
        1   -1    0    0  501    0  0.00000000000E+00  0.00000000000E+00  0.13037594670E+04  0.13037594670E+04  0.50400001928E-02 0.  1.
       -1   -1    0    0    0  501  0.00000000000E+00  0.00000000000E+00 -0.93757797700E+03  0.93757797701E+03  0.50400001928E-02 0. -1.
    10030    2    1    2    0    0  0.00000000000E+00  0.00000000000E+00  0.36618149003E+03  0.22413374440E+04  0.22112224344E+04 0.  0.
        4    1    3    3  502    0  0.19330087349E+03 -0.12860858137E+03  0.12787700050E+04  0.12996767804E+04  0.12699999809E+01 0.  1.
       -4    1    3    3    0  502 -0.19330087349E+03  0.12860858137E+03 -0.91258851498E+03  0.94166066365E+03  0.12699999809E+01 0. -1.
</event>
<event>
 5   0  0.2298329E-05  0.2195642E+04  0.7818609E-02  0.8520244E-01
        2   -1    0    0  501    0  0.00000000000E+00  0.00000000000E+00  0.20110862467E+04  0.20110862467E+04  0.25500000920E-02 0. -1.
       -2   -1    0    0    0  501  0.00000000000E+00  0.00000000000E+00 -0.59928335375E+03  0.59928335376E+03  0.25500000920E-02 0.  1.
    10030    2    1    2    0    0  0.00000000000E+00  0.00000000000E+00  0.14118028929E+04  0.26103696004E+04  0.21956416015E+04 0.  0.
        4    1    3    3  502    0 -0.49655479470E+03  0.74207916281E+03  0.14652649894E+04  0.17158820618E+04  0.12699999809E+01 0. -1.
       -4    1    3    3    0  502  0.49655479470E+03 -0.74207916281E+03 -0.53462096504E+02  0.89448753859E+03  0.12699999809E+01 0.  1.
</event>
<event>
 5   0  0.1005538E-05  0.2197236E+04  0.7818609E-02  0.8519579E-01
       -1   -1    0    0    0  501  0.00000000000E+00  0.00000000000E+00  0.11643604416E+04  0.11643604416E+04  0.50400001928E-02 0.  1.
        1   -1    0    0  501    0  0.00000000000E+00  0.00000000000E+00 -0.10365878336E+04  0.10365878336E+04  0.50400001928E-02 0. -1.
    10030    2    1    2    0    0  0.00000000000E+00  0.00000000000E+00  0.12777260807E+03  0.22009482752E+04  0.21972363256E+04 0.  0.
        3    1    3    3  502    0 -0.16611275817E+03  0.26666105723E+03 -0.99063158599E+03  0.10392557516E+04  0.10100000352E+00 0. -1.
       -3    1    3    3    0  502  0.16611275817E+03 -0.26666105723E+03  0.11184041941E+04  0.11616925236E+04  0.10100000352E+00 0.  1.
</event>
<event>
 5   0  0.1007682E-05  0.2194298E+04  0.7818609E-02  0.8520805E-01
        1   -1    0    0  501    0  0.00000000000E+00  0.00000000000E+00  0.10105044439E+04  0.10105044439E+04  0.50400001928E-02 0.  1.
       -1   -1    0    0    0  501  0.00000000000E+00  0.00000000000E+00 -0.11912226381E+04  0.11912226381E+04  0.50400001928E-02 0. -1.
    10030    2    1    2    0    0  0.00000000000E+00  0.00000000000E+00 -0.18071819421E+03  0.22017270820E+04  0.21942978553E+04 0.  0.
        2    1    3    3  502    0  0.72959680909E+03 -0.56935226939E+03  0.50092568107E+03  0.10523307695E+04  0.25500000920E-02 0.  1.
       -2    1    3    3    0  502 -0.72959680909E+03  0.56935226939E+03 -0.68164387528E+03  0.11493963125E+04  0.25500000920E-02 0. -1.
</event>
<event>
 5   0  0.2229552E-05  0.2193861E+04  0.7818609E-02  0.8520988E-01
       -2   -1    0    0    0  501  0.00000000000E+00  0.00000000000E+00  0.15635709185E+04  0.15635709185E+04  0.25500000920E-02 0.  1.
        2   -1    0    0  501    0  0.00000000000E+00  0.00000000000E+00 -0.76955692958E+03  0.76955692958E+03  0.25500000920E-02 0. -1.
    10030    2    1    2    0    0  0.00000000000E+00  0.00000000000E+00  0.79401398895E+03  0.23331278481E+04  0.21938612857E+04 0.  0.
        1    1    3    3  502    0 -0.76555030630E+03  0.21671172171E+03 -0.40606175466E+03  0.89326221818E+03  0.50400001928E-02 0. -1.
       -1    1    3    3    0  502  0.76555030630E+03 -0.21671172171E+03  0.12000757436E+04  0.14398656299E+04  0.50400001928E-02 0.  1.
</event>
<event>
 5   0  0.2319707E-05  0.2181466E+04  0.7818609E-02  0.8526182E-01
        2   -1    0    0  501    0  0.00000000000E+00  0.00000000000E+00  0.15041656945E+04  0.15041656945E+04  0.25500000920E-02 0.  1.
       -2   -1    0    0    0  501  0.00000000000E+00  0.00000000000E+00 -0.79093568655E+03  0.79093568656E+03  0.25500000920E-02 0. -1.
    10030    2    1    2    0    0  0.00000000000E+00  0.00000000000E+00  0.71323000796E+03  0.22951013811E+04  0.21814658616E+04 0.  0.
        3    1    3    3  502    0 -0.31121120115E+03 -0.89535250075E+02 -0.73919223542E+03  0.80701557844E+03  0.10100000352E+00 0. -1.
       -3    1    3    3    0  502  0.31121120115E+03  0.89535250075E+02  0.14524222434E+04  0.14880858026E+04  0.10100000352E+00 0.  1.
</event>
<event>
 5   0  0.2298329E-05  0.2209645E+04  0.7818609E-02  0.8514424E-01
       -2   -1    0    0    0  501  0.00000000000E+00  0.00000000000E+00  0.12043562487E+04  0.12043562487E+04  0.25500000920E-02 0.  1.
        2   -1    0    0  501    0  0.00000000000E+00  0.00000000000E+00 -0.10135150506E+04  0.10135150506E+04  0.25500000920E-02 0. -1.
    10030    2    1    2    0    0  0.00000000000E+00  0.00000000000E+00  0.19084119812E+03  0.22178712993E+04  0.22096453873E+04 0.  0.
        4    1    3    3  502    0  0.51808450259E+03 -0.37825700259E+03 -0.80745109966E+03  0.10312462378E+04  0.12699999809E+01 0. -1.
       -4    1    3    3    0  502 -0.51808450259E+03  0.37825700259E+03  0.99829229778E+03  0.11866250615E+04  0.12699999809E+01 0.  1.
</event>
<event>
 5   0  0.1049198E-05  0.2187318E+04  0.7818609E-02  0.8523725E-01
       -1   -1    0    0    0  501  0.00000000000E+00  0.00000000000E+00  0.98815402497E+03  0.98815402498E+03  0.50400001928E-02 0. -1.
        1   -1    0    0  501    0  0.00000000000E+00  0.00000000000E+00 -0.12104282256E+04  0.12104282256E+04  0.50400001928E-02 0.  1.
    10030    2    1    2    0    0  0.00000000000E+00  0.00000000000E+00 -0.22227420059E+03  0.21985822505E+04  0.21873175563E+04 0.  0.
        1    1    3    3  502    0  0.44944559675E+03  0.17973515136E+03 -0.10968933279E+04  0.11989499747E+04  0.50400001928E-02 0.  1.
       -1    1    3    3    0  502 -0.44944559675E+03 -0.17973515136E+03  0.87461912728E+03  0.99963227584E+03  0.50400001928E-02 0. -1.
</event>
<event>
 5   0  0.2298329E-05  0.2203120E+04  0.7818609E-02  0.8517130E-01
       -2   -1    0    0    0  501  0.00000000000E+00  0.00000000000E+00  0.11101475200E+04  0.11101475200E+04  0.25500000920E-02 0.  1.
        2   -1    0    0  501    0  0.00000000000E+00  0.00000000000E+00 -0.10930392150E+04  0.10930392150E+04  0.25500000920E-02 0. -1.
    10030    2    1    2    0    0  0.00000000000E+00  0.00000000000E+00  0.17108305014E+02  0.22031867349E+04  0.22031203088E+04 0.  0.
        4    1    3    3  502    0 -0.20408344266E+03  0.47861994957E+03 -0.96240563088E+03  0.10940536180E+04  0.12699999809E+01 0. -1.
       -4    1    3    3    0  502  0.20408344266E+03 -0.47861994957E+03  0.97951393590E+03  0.11091331170E+04  0.12699999809E+01 0.  1.
</event>
<event>
 5   0  0.1005538E-05  0.2211074E+04  0.7818609E-02  0.8513833E-01
       -1   -1    0    0    0  501  0.00000000000E+00  0.00000000000E+00  0.10734191744E+04  0.10734191744E+04  0.50400001928E-02 0.  1.
        1   -1    0    0  501    0  0.00000000000E+00  0.00000000000E+00 -0.11386156827E+04  0.11386156827E+04  0.50400001928E-02 0. -1.
    10030    2    1    2    0    0  0.00000000000E+00  0.00000000000E+00 -0.65196508282E+02  0.22120348570E+04  0.22110738622E+04 0.  0.
        3    1    3    3  502    0 -0.21848892820E+03  0.38523356344E+03  0.98079293235E+03  0.10761491981E+04  0.10100000352E+00 0.  1.
       -3    1    3    3    0  502  0.21848892820E+03 -0.38523356344E+03 -0.10459894406E+04  0.11358856590E+04  0.10100000352E+00 0. -1.
</event>
<event>
 5   0  0.2319707E-05  0.2199528E+04  0.7818609E-02  0.8518624E-01
        2   -1    0    0  501    0  0.00000000000E+00  0.00000000000E+00  0.44803872235E+03  0.44803872235E+03  0.25500000920E-02 0.  1.
       -2   -1    0    0    0  501  0.00000000000E+00  0.00000000000E+00 -0.26995016375E+04  0.26995016375E+04  0.25500000920E-02 0. -1.
    10030    2    1    2    0    0  0.00000000000E+00  0.00000000000E+00 -0.22514629151E+04  0.31475403598E+04  0.21995283718E+04 0.  0.
        3    1    3    3  502    0 -0.28915088720E+03  0.64732682061E+03 -0.23288338973E+04  0.24343597885E+04  0.10100000352E+00 0. -1.
       -3    1    3    3    0  502  0.28915088720E+03 -0.64732682061E+03  0.77370982202E+02  0.71318057134E+03  0.10100000352E+00 0.  1.
</event>
<event>
 5   0  0.2319707E-05  0.2202453E+04  0.7818609E-02  0.8517408E-01
       -2   -1    0    0    0  501  0.00000000000E+00  0.00000000000E+00  0.18064223136E+04  0.18064223136E+04  0.25500000920E-02 0.  1.
        2   -1    0    0  501    0  0.00000000000E+00  0.00000000000E+00 -0.67132698290E+03  0.67132698291E+03  0.25500000920E-02 0. -1.
    10030    2    1    2    0    0  0.00000000000E+00  0.00000000000E+00  0.11350953307E+04  0.24777492965E+04  0.22024532155E+04 0.  0.
        3    1    3    3  502    0  0.20642457709E+03  0.80280660863E+02  0.17811061915E+04  0.17948246060E+04  0.10100000352E+00 0.  1.
       -3    1    3    3    0  502 -0.20642457709E+03 -0.80280660863E+02 -0.64601086079E+03  0.68292469057E+03  0.10100000352E+00 0. -1.
</event>
<event>
 5   0  0.1049198E-05  0.2202137E+04  0.7818609E-02  0.8517539E-01
       -1   -1    0    0    0  501  0.00000000000E+00  0.00000000000E+00  0.89316312047E+03  0.89316312049E+03  0.50400001928E-02 0. -1.
        1   -1    0    0  501    0  0.00000000000E+00  0.00000000000E+00 -0.13573694796E+04  0.13573694796E+04  0.50400001928E-02 0.  1.
    10030    2    1    2    0    0  0.00000000000E+00  0.00000000000E+00 -0.46420635908E+03  0.22505326001E+04  0.22021374708E+04 0.  0.
        1    1    3    3  502    0 -0.31293242037E+03 -0.92636572411E+03 -0.74946173429E+03  0.12319793203E+04  0.50400001928E-02 0.  1.
       -1    1    3    3    0  502  0.31293242037E+03  0.92636572411E+03  0.28525537521E+03  0.10185532797E+04  0.50400001928E-02 0. -1.
</event>
<event>
 5   0  0.1049198E-05  0.2218809E+04  0.7818609E-02  0.8510640E-01
       -1   -1    0    0    0  501  0.00000000000E+00  0.00000000000E+00  0.79698300805E+03  0.79698300807E+03  0.50400001928E-02 0. -1.
        1   -1    0    0  501    0  0.00000000000E+00  0.00000000000E+00 -0.15442974300E+04  0.15442974300E+04  0.50400001928E-02 0.  1.
    10030    2    1    2    0    0  0.00000000000E+00  0.00000000000E+00 -0.74731442191E+03  0.23412804380E+04  0.22188094205E+04 0.  0.
        1    1    3    3  502    0  0.25047245044E+03  0.85434271863E+03  0.32480083459E+03  0.94769906167E+03  0.50400001928E-02 0. -1.
       -1    1    3    3    0  502 -0.25047245044E+03 -0.85434271863E+03 -0.10721152565E+04  0.13935813764E+04  0.50400001928E-02 0.  1.
</event>
<event>
 5   0  0.2229552E-05  0.2191725E+04  0.7818609E-02  0.8521880E-01
       -2   -1    0    0    0  501  0.00000000000E+00  0.00000000000E+00  0.11395317227E+04  0.11395317227E+04  0.25500000920E-02 0. -1.
        2   -1    0    0  501    0  0.00000000000E+00  0.00000000000E+00 -0.10538665070E+04  0.10538665070E+04  0.25500000920E-02 0.  1.
    10030    2    1    2    0    0  0.00000000000E+00  0.00000000000E+00  0.85665215698E+02  0.21933982298E+04  0.21917247239E+04 0.  0.
        1    1    3    3  502    0 -0.82578918033E+02  0.61374830931E+03  0.94762916101E+03  0.11320367890E+04  0.50400001928E-02 0. -1.
       -1    1    3    3    0  502  0.82578918033E+02 -0.61374830931E+03 -0.86196394531E+03  0.10613614408E+04  0.50400001928E-02 0.  1.
</event>
<event>
 5   0  0.1071208E-05  0.2199504E+04  0.7818609E-02  0.8518635E-01
       -1   -1    0    0    0  501  0.00000000000E+00  0.00000000000E+00  0.72906671804E+03  0.72906671806E+03  0.50400001928E-02 0. -1.
        1   -1    0    0  501    0  0.00000000000E+00  0.00000000000E+00 -0.16589071045E+04  0.16589071045E+04  0.50400001928E-02 0.  1.
    10030    2    1    2    0    0  0.00000000000E+00  0.00000000000E+00 -0.92984038648E+03  0.23879738226E+04  0.21995035424E+04 0.  0.
        4    1    3    3  502    0  0.88717231691E+03 -0.15159620267E+02  0.24048258679E+03  0.91931388624E+03  0.12699999809E+01 0. -1.
       -4    1    3    3    0  502 -0.88717231691E+03  0.15159620267E+02 -0.11703229733E+04  0.14686599364E+04  0.12699999809E+01 0.  1.
</event>
<event>
 5   0  0.2289708E-05  0.2200208E+04  0.7818609E-02  0.8518342E-01
       -2   -1    0    0    0  501  0.00000000000E+00  0.00000000000E+00  0.69653826513E+03  0.69653826514E+03  0.25500000920E-02 0.  1.
        2   -1    0    0  501    0  0.00000000000E+00  0.00000000000E+00 -0.17374908822E+04  0.17374908822E+04  0.25500000920E-02 0. -1.
    10030    2    1    2    0    0  0.00000000000E+00  0.00000000000E+00 -0.10409526171E+04  0.24340291473E+04  0.22002080672E+04 0.  0.
        5    1    3    3  502    0  0.20200272151E+03 -0.10232736779E+04 -0.13357717709E+03  0.10515507936E+04  0.46999998093E+01 0. -1.
       -5    1    3    3    0  502 -0.20200272151E+03  0.10232736779E+04 -0.90737543998E+03  0.13824783537E+04  0.46999998093E+01 0.  1.
</event>
<event>
 5   0  0.1007682E-05  0.2214411E+04  0.7818609E-02  0.8512454E-01
        1   -1    0    0  501    0  0.00000000000E+00  0.00000000000E+00  0.12424225136E+04  0.12424225136E+04  0.50400001928E-02 0.  1.
       -1   -1    0    0    0  501  0.00000000000E+00  0.00000000000E+00 -0.98670502377E+03  0.98670502379E+03  0.50400001928E-02 0. -1.
    10030    2    1    2    0    0  0.00000000000E+00  0.00000000000E+00  0.25571748986E+03  0.22291275374E+04  0.22144114666E+04 0.  0.
        2    1    3    3  502    0 -0.10363063196E+04 -0.34808590154E+03 -0.48835381609E+02  0.10942940543E+04  0.25500000920E-02 0.  1.
       -2    1    3    3    0  502  0.10363063196E+04  0.34808590154E+03  0.30455287147E+03  0.11348334831E+04  0.25500000920E-02 0. -1.
</event>
<event>
 5   0  0.1033733E-05  0.2199940E+04  0.7818609E-02  0.8518453E-01
       -1   -1    0    0    0  501  0.00000000000E+00  0.00000000000E+00  0.82577471871E+03  0.82577471872E+03  0.50400001928E-02 0. -1.
        1   -1    0    0  501    0  0.00000000000E+00  0.00000000000E+00 -0.14652107624E+04  0.14652107624E+04  0.50400001928E-02 0.  1.
    10030    2    1    2    0    0  0.00000000000E+00  0.00000000000E+00 -0.63943604368E+03  0.22909854811E+04  0.21999400039E+04 0.  0.
        5    1    3    3  502    0  0.47699416524E+01  0.20918509414E+03  0.80484843490E+03  0.83161544545E+03  0.46999998093E+01 0. -1.
       -5    1    3    3    0  502 -0.47699416524E+01 -0.20918509414E+03 -0.14442844786E+04  0.14593700357E+04  0.46999998093E+01 0.  1.
</event>
<event>
 5   0  0.1049198E-05  0.2214503E+04  0.7818609E-02  0.8512416E-01
        1   -1    0    0  501    0  0.00000000000E+00  0.00000000000E+00  0.17023322425E+04  0.17023322425E+04  0.50400001928E-02 0.  1.
       -1   -1    0    0    0  501  0.00000000000E+00  0.00000000000E+00 -0.72019173538E+03  0.72019173540E+03  0.50400001928E-02 0. -1.
    10030    2    1    2    0    0  0.00000000000E+00  0.00000000000E+00  0.98214050711E+03  0.24225239779E+04  0.22145027541E+04 0.  0.
        1    1    3    3  502    0 -0.45894235768E+02  0.21821915270E+03  0.16775140412E+04  0.16922704388E+04  0.50400001928E-02 0.  1.
       -1    1    3    3    0  502  0.45894235768E+02 -0.21821915270E+03 -0.69537353409E+03  0.73025353913E+03  0.50400001928E-02 0. -1.
</event>
<event>
 5   0  0.2289708E-05  0.2195672E+04  0.7818609E-02  0.8520232E-01
        2   -1    0    0  501    0  0.00000000000E+00  0.00000000000E+00  0.21907509915E+04  0.21907509915E+04  0.25500000920E-02 0.  1.
       -2   -1    0    0    0  501  0.00000000000E+00  0.00000000000E+00 -0.55015115266E+03  0.55015115267E+03  0.25500000920E-02 0. -1.
    10030    2    1    2    0    0  0.00000000000E+00  0.00000000000E+00  0.16405998388E+04  0.27409021441E+04  0.21956722735E+04 0.  0.
        5    1    3    3  502    0 -0.24301088796E+03  0.44832178808E+03 -0.39331864804E+03  0.64402512857E+03  0.46999998093E+01 0. -1.
       -5    1    3    3    0  502  0.24301088796E+03 -0.44832178808E+03  0.20339184868E+04  0.20968770156E+04  0.46999998093E+01 0.  1.
</event>
<event>
 5   0  0.1007682E-05  0.2207573E+04  0.7818609E-02  0.8515283E-01
        1   -1    0    0  501    0  0.00000000000E+00  0.00000000000E+00  0.92025176730E+03  0.92025176731E+03  0.50400001928E-02 0. -1.
       -1   -1    0    0    0  501  0.00000000000E+00  0.00000000000E+00 -0.13239251767E+04  0.13239251767E+04  0.50400001928E-02 0.  1.
    10030    2    1    2    0    0  0.00000000000E+00  0.00000000000E+00 -0.40367340942E+03  0.22441769440E+04  0.22075728606E+04 0.  0.
        2    1    3    3  502    0 -0.10917494822E+04  0.13201826930E+03 -0.10540216307E+03  0.11047422194E+04  0.25500000920E-02 0. -1.
       -2    1    3    3    0  502  0.10917494822E+04 -0.13201826930E+03 -0.29827124635E+03  0.11394347246E+04  0.25500000920E-02 0.  1.
</event>
<event>
 5   0  0.1005538E-05  0.2200348E+04  0.7818609E-02  0.8518283E-01
        1   -1    0    0  501    0  0.00000000000E+00  0.00000000000E+00  0.18665214832E+04  0.18665214832E+04  0.50400001928E-02 0.  1.
       -1   -1    0    0    0  501  0.00000000000E+00  0.00000000000E+00 -0.64847010245E+03  0.64847010247E+03  0.50400001928E-02 0. -1.
    10030    2    1    2    0    0  0.00000000000E+00  0.00000000000E+00  0.12180513807E+04  0.25149915857E+04  0.22003484974E+04 0.  0.
        3    1    3    3  502    0  0.94861094531E+03  0.28724123830E+02  0.12451068898E+04  0.15655602761E+04  0.10100000352E+00 0.  1.
       -3    1    3    3    0  502 -0.94861094531E+03 -0.28724123830E+02 -0.27055509045E+02  0.94943130958E+03  0.10100000352E+00 0. -1.
</event>
<event>
 5   0  0.2319707E-05  0.2199561E+04  0.7818609E-02  0.8518611E-01
       -2   -1    0    0    0  501  0.00000000000E+00  0.00000000000E+00  0.96553856176E+03  0.96553856176E+03  0.25500000920E-02 0. -1.
        2   -1    0    0  501    0  0.00000000000E+00  0.00000000000E+00 -0.12526863977E+04  0.12526863977E+04  0.25500000920E-02 0.  1.
    10030    2    1    2    0    0  0.00000000000E+00  0.00000000000E+00 -0.28714783594E+03  0.22182249595E+04  0.21995608860E+04 0.  0.
        3    1    3    3  502    0 -0.85870868084E+03 -0.59592722221E+03 -0.48853954102E+03  0.11537680642E+04  0.10100000352E+00 0.  1.
       -3    1    3    3    0  502  0.85870868084E+03  0.59592722221E+03  0.20139170508E+03  0.10644568952E+04  0.10100000352E+00 0. -1.
</event>
<event>
 5   0  0.2289708E-05  0.2088987E+04  0.7818609E-02  0.8566110E-01
       -2   -1    0    0    0  501  0.00000000000E+00  0.00000000000E+00  0.14212437020E+04  0.14212437020E+04  0.25500000920E-02 0.  1.
        2   -1    0    0  501    0  0.00000000000E+00  0.00000000000E+00 -0.76761424728E+03  0.76761424729E+03  0.25500000920E-02 0. -1.
    10030    2    1    2    0    0  0.00000000000E+00  0.00000000000E+00  0.65362945473E+03  0.21888579493E+04  0.20889872326E+04 0.  0.
        5    1    3    3  502    0  0.19574025686E+03 -0.18677668786E+03  0.13838787473E+04  0.14100859040E+04  0.46999998093E+01 0.  1.
       -5    1    3    3    0  502 -0.19574025686E+03  0.18677668786E+03 -0.73024929259E+03  0.77877204534E+03  0.46999998093E+01 0. -1.
</event>
<event>
 5   0  0.2229552E-05  0.2178293E+04  0.7818609E-02  0.8527518E-01
       -2   -1    0    0    0  501  0.00000000000E+00  0.00000000000E+00  0.89409256071E+03  0.89409256072E+03  0.25500000920E-02 0. -1.
        2   -1    0    0  501    0  0.00000000000E+00  0.00000000000E+00 -0.13267526923E+04  0.13267526923E+04  0.25500000920E-02 0.  1.
    10030    2    1    2    0    0  0.00000000000E+00  0.00000000000E+00 -0.43266013160E+03  0.22208452530E+04  0.21782926453E+04 0.  0.
        1    1    3    3  502    0 -0.50590740545E+02 -0.16453817291E+02 -0.13254272686E+04  0.13264944762E+04  0.50400001928E-02 0.  1.
       -1    1    3    3    0  502  0.50590740545E+02  0.16453817291E+02  0.89276713697E+03  0.89435077682E+03  0.50400001928E-02 0. -1.
</event>
<event>
 5   0  0.1071208E-05  0.2198703E+04  0.7818609E-02  0.8518968E-01
        1   -1    0    0  501    0  0.00000000000E+00  0.00000000000E+00  0.10035790501E+04  0.10035790501E+04  0.50400001928E-02 0.  1.
       -1   -1    0    0    0  501  0.00000000000E+00  0.00000000000E+00 -0.12042635624E+04  0.12042635624E+04  0.50400001928E-02 0. -1.
    10030    2    1    2    0    0  0.00000000000E+00  0.00000000000E+00 -0.20068451231E+03  0.22078426126E+04  0.21987029650E+04 0.  0.
        4    1    3    3  502    0  0.34827752285E+03  0.27698546932E+03  0.90909955058E+03  0.10121668780E+04  0.12699999809E+01 0.  1.
       -4    1    3    3    0  502 -0.34827752285E+03 -0.27698546932E+03 -0.11097840629E+04  0.11956757346E+04  0.12699999809E+01 0. -1.
</event>
<event>
 5   0  0.1033733E-05  0.2217033E+04  0.7818609E-02  0.8511372E-01
        1   -1    0    0  501    0  0.00000000000E+00  0.00000000000E+00  0.20857990654E+04  0.20857990654E+04  0.50400001928E-02 0.  1.
       -1   -1    0    0    0  501  0.00000000000E+00  0.00000000000E+00 -0.58913084999E+03  0.58913085002E+03  0.50400001928E-02 0. -1.
    10030    2    1    2    0    0  0.00000000000E+00  0.00000000000E+00  0.14966682154E+04  0.26749299154E+04  0.22170327705E+04 0.  0.
        5    1    3    3  502    0  0.10800050563E+04 -0.22812823399E+03  0.62568763663E+03  0.12688421972E+04  0.46999998093E+01 0. -1.
       -5    1    3    3    0  502 -0.10800050563E+04  0.22812823399E+03  0.87098057877E+03  0.14060877182E+04  0.46999998093E+01 0.  1.
</event>
<event>
 5   0  0.1005538E-05  0.2199734E+04  0.7818609E-02  0.8518539E-01
       -1   -1    0    0    0  501  0.00000000000E+00  0.00000000000E+00  0.95271206403E+03  0.95271206404E+03  0.50400001928E-02 0. -1.
        1   -1    0    0  501    0  0.00000000000E+00  0.00000000000E+00 -0.12697508953E+04  0.12697508953E+04  0.50400001928E-02 0.  1.
    10030    2    1    2    0    0  0.00000000000E+00  0.00000000000E+00 -0.31703883128E+03  0.22224629594E+04  0.21997336169E+04 0.  0.
        3    1    3    3  502    0 -0.27835554609E+03  0.82426227835E+03  0.52135036869E+03  0.10142466814E+04  0.10100000352E+00 0. -1.
       -3    1    3    3    0  502  0.27835554609E+03 -0.82426227835E+03 -0.83838919997E+03  0.12082162780E+04  0.10100000352E+00 0.  1.
</event>
<event>
 5   0  0.2284329E-05  0.2205386E+04  0.7818609E-02  0.8516190E-01
       -2   -1    0    0    0  501  0.00000000000E+00  0.00000000000E+00  0.12733806062E+04  0.12733806062E+04  0.25500000920E-02 0. -1.
        2   -1    0    0  501    0  0.00000000000E+00  0.00000000000E+00 -0.95488482989E+03  0.95488482989E+03  0.25500000920E-02 0.  1.
    10030    2    1    2    0    0  0.00000000000E+00  0.00000000000E+00  0.31849577635E+03  0.22282654361E+04  0.22053859740E+04 0.  0.
        2    1    3    3  502    0 -0.31258557804E+03  0.40744509483E+03 -0.82668831869E+03  0.97320852091E+03  0.25500000920E-02 0.  1.
       -2    1    3    3    0  502  0.31258557804E+03 -0.40744509483E+03  0.11451840950E+04  0.12550569152E+04  0.25500000920E-02 0. -1.
</event>
<event>
 5   0  0.1005538E-05  0.2200539E+04  0.7818609E-02  0.8518204E-01
       -1   -1    0    0    0  501  0.00000000000E+00  0.00000000000E+00  0.13378047129E+04  0.13378047129E+04  0.50400001928E-02 0. -1.
        1   -1    0    0  501    0  0.00000000000E+00  0.00000000000E+00 -0.90491012319E+03  0.90491012320E+03  0.50400001928E-02 0.  1.
    10030    2    1    2    0    0  0.00000000000E+00  0.00000000000E+00  0.43289458968E+03  0.22427148361E+04  0.22005390499E+04 0.  0.
        3    1    3    3  502    0 -0.49809887438E+03  0.97700973622E+03  0.30727612030E+03  0.11388894317E+04  0.10100000352E+00 0. -1.
       -3    1    3    3    0  502  0.49809887438E+03 -0.97700973622E+03  0.12561846938E+03  0.11038254044E+04  0.10100000352E+00 0.  1.
</event>
<event>
 5   0  0.1007682E-05  0.2203487E+04  0.7818609E-02  0.8516978E-01
        1   -1    0    0  501    0  0.00000000000E+00  0.00000000000E+00  0.77912241887E+03  0.77912241889E+03  0.50400001928E-02 0.  1.
       -1   -1    0    0    0  501  0.00000000000E+00  0.00000000000E+00 -0.15579563025E+04  0.15579563025E+04  0.50400001928E-02 0. -1.
    10030    2    1    2    0    0  0.00000000000E+00  0.00000000000E+00 -0.77883388361E+03  0.23370787214E+04  0.22034869484E+04 0.  0.
        2    1    3    3  502    0  0.90921306051E+03 -0.29118768489E+03 -0.97264634234E+03  0.13629011573E+04  0.25500000920E-02 0.  1.
       -2    1    3    3    0  502 -0.90921306051E+03  0.29118768489E+03  0.19381245873E+03  0.97417756410E+03  0.25500000920E-02 0. -1.
</event>
<event>
 5   0  0.1071208E-05  0.2206793E+04  0.7818609E-02  0.8515606E-01
       -1   -1    0    0    0  501  0.00000000000E+00  0.00000000000E+00  0.84896694472E+03  0.84896694473E+03  0.50400001928E-02 0. -1.
        1   -1    0    0  501    0  0.00000000000E+00  0.00000000000E+00 -0.14340768679E+04  0.14340768680E+04  0.50400001928E-02 0.  1.
    10030    2    1    2    0    0  0.00000000000E+00  0.00000000000E+00 -0.58510992322E+03  0.22830438127E+04  0.22067930189E+04 0.  0.
        4    1    3    3  502    0  0.49820352837E+03  0.56278036944E+03  0.54316502271E+03  0.92733939563E+03  0.12699999809E+01 0. -1.
       -4    1    3    3    0  502 -0.49820352837E+03 -0.56278036944E+03 -0.11282749459E+04  0.13557044171E+04  0.12699999809E+01 0.  1.
</event>
<event>
 5   0  0.2229552E-05  0.2212118E+04  0.7818609E-02  0.8513401E-01
       -2   -1    0    0    0  501  0.00000000000E+00  0.00000000000E+00  0.19528899417E+04  0.19528899417E+04  0.25500000920E-02 0.  1.
        2   -1    0    0  501    0  0.00000000000E+00  0.00000000000E+00 -0.62643909965E+03  0.62643909966E+03  0.25500000920E-02 0. -1.
    10030    2    1    2    0    0  0.00000000000E+00  0.00000000000E+00  0.13264508420E+04  0.25793290413E+04  0.22121180952E+04 0.  0.
        1    1    3    3  502    0 -0.18056073638E+03  0.16829766746E+03 -0.59391495403E+03  0.64316503095E+03  0.50400001928E-02 0. -1.
       -1    1    3    3    0  502  0.18056073638E+03 -0.16829766746E+03  0.19203657960E+04  0.19361640104E+04  0.50400001928E-02 0.  1.
</event>
<event>
 5   0  0.2319707E-05  0.2196495E+04  0.7818609E-02  0.8519888E-01
       -2   -1    0    0    0  501  0.00000000000E+00  0.00000000000E+00  0.74908364672E+03  0.74908364672E+03  0.25500000920E-02 0. -1.
        2   -1    0    0  501    0  0.00000000000E+00  0.00000000000E+00 -0.16101642544E+04  0.16101642544E+04  0.25500000920E-02 0.  1.
    10030    2    1    2    0    0  0.00000000000E+00  0.00000000000E+00 -0.86108060772E+03  0.23592479012E+04  0.21964951277E+04 0.  0.
        3    1    3    3  502    0  0.74559419039E+03 -0.29642456805E+03  0.37493866383E+03  0.88563944871E+03  0.10100000352E+00 0. -1.
       -3    1    3    3    0  502 -0.74559419039E+03  0.29642456805E+03 -0.12360192716E+04  0.14736084525E+04  0.10100000352E+00 0.  1.
</event>
<event>
 5   0  0.1007682E-05  0.2186214E+04  0.7818609E-02  0.8524188E-01
       -1   -1    0    0    0  501  0.00000000000E+00  0.00000000000E+00  0.98075877950E+03  0.98075877951E+03  0.50400001928E-02 0.  1.
        1   -1    0    0  501    0  0.00000000000E+00  0.00000000000E+00 -0.12183248111E+04  0.12183248111E+04  0.50400001928E-02 0. -1.
    10030    2    1    2    0    0  0.00000000000E+00  0.00000000000E+00 -0.23756603158E+03  0.21990835906E+04  0.21862138548E+04 0.  0.
        2    1    3    3  502    0 -0.81108577933E+03  0.70827982399E+03  0.70372658548E+02  0.10791073911E+04  0.25500000920E-02 0.  1.
       -2    1    3    3    0  502  0.81108577933E+03 -0.70827982399E+03 -0.30793869013E+03  0.11199761995E+04  0.25500000920E-02 0. -1.
</event>
<event>
 5   0  0.1033733E-05  0.2181838E+04  0.7818609E-02  0.8526026E-01
       -1   -1    0    0    0  501  0.00000000000E+00  0.00000000000E+00  0.62281101217E+03  0.62281101219E+03  0.50400001928E-02 0.  1.
        1   -1    0    0  501    0  0.00000000000E+00  0.00000000000E+00 -0.19108585188E+04  0.19108585188E+04  0.50400001928E-02 0. -1.
    10030    2    1    2    0    0  0.00000000000E+00  0.00000000000E+00 -0.12880475067E+04  0.25336695310E+04  0.21818375084E+04 0.  0.
        5    1    3    3  502    0 -0.67300224590E+03 -0.16798018716E+03  0.33373100608E+03  0.76977129115E+03  0.46999998093E+01 0.  1.
       -5    1    3    3    0  502  0.67300224590E+03  0.16798018716E+03 -0.16217785127E+04  0.17638982399E+04  0.46999998093E+01 0. -1.
</event>
<event>
 5   0  0.2289708E-05  0.2175027E+04  0.7818609E-02  0.8528895E-01
        2   -1    0    0  501    0  0.00000000000E+00  0.00000000000E+00  0.89208479557E+03  0.89208479557E+03  0.25500000920E-02 0. -1.
       -2   -1    0    0    0  501  0.00000000000E+00  0.00000000000E+00 -0.13257543133E+04  0.13257543133E+04  0.25500000920E-02 0.  1.
    10030    2    1    2    0    0  0.00000000000E+00  0.00000000000E+00 -0.43366951778E+03  0.22178391089E+04  0.21750266809E+04 0.  0.
        5    1    3    3  502    0  0.64867154333E+03 -0.86458242047E+03 -0.94533737737E+02  0.10850051845E+04  0.46999998093E+01 0. -1.
       -5    1    3    3    0  502 -0.64867154333E+03  0.86458242047E+03 -0.33913578004E+03  0.11328339244E+04  0.46999998093E+01 0.  1.
</event>
<event>
 5   0  0.2229552E-05  0.2189359E+04  0.7818609E-02  0.8522870E-01
        2   -1    0    0  501    0  0.00000000000E+00  0.00000000000E+00  0.12493717228E+04  0.12493717228E+04  0.25500000920E-02 0. -1.
       -2   -1    0    0    0  501  0.00000000000E+00  0.00000000000E+00 -0.95914079671E+03  0.95914079672E+03  0.25500000920E-02 0.  1.
    10030    2    1    2    0    0  0.00000000000E+00  0.00000000000E+00  0.29023092604E+03  0.22085125195E+04  0.21893591661E+04 0.  0.
        1    1    3    3  502    0  0.50335970598E+02 -0.14848681243E+03 -0.94775591829E+03  0.96063693666E+03  0.50400001928E-02 0.  1.
       -1    1    3    3    0  502 -0.50335970598E+02  0.14848681243E+03  0.12379868443E+04  0.12478755828E+04  0.50400001928E-02 0. -1.
</event>
<event>
 5   0  0.8003875E-06  0.2208304E+04  0.7818609E-02  0.8514980E-01
       -3   -1    0    0    0  501  0.00000000000E+00  0.00000000000E+00  0.12958643306E+04  0.12958643345E+04  0.10100000352E+00 0.  1.
        3   -1    0    0  501    0  0.00000000000E+00  0.00000000000E+00 -0.94080163010E+03  0.94080163552E+03  0.10100000352E+00 0. -1.
    10030    2    1    2    0    0  0.00000000000E+00  0.00000000000E+00  0.35506270051E+03  0.22366659701E+04  0.22083036794E+04 0.  0.
        4    1    3    3  502    0  0.46601433874E+02 -0.10275707434E+04 -0.22896646756E+03  0.10538029144E+04  0.12699999809E+01 0. -1.
       -4    1    3    3    0  502 -0.46601433874E+02  0.10275707434E+04  0.58402916807E+03  0.11828630556E+04  0.12699999809E+01 0.  1.
</event>
<event>
 5   0  0.1071208E-05  0.2197299E+04  0.7818609E-02  0.8519553E-01
       -1   -1    0    0    0  501  0.00000000000E+00  0.00000000000E+00  0.22138794302E+04  0.22138794302E+04  0.50400001928E-02 0. -1.
        1   -1    0    0  501    0  0.00000000000E+00  0.00000000000E+00 -0.54521088552E+03  0.54521088554E+03  0.50400001928E-02 0.  1.
    10030    2    1    2    0    0  0.00000000000E+00  0.00000000000E+00  0.16686685446E+04  0.27590903157E+04  0.21972994012E+04 0.  0.
        4    1    3    3  502    0 -0.14338385466E+03  0.12549034778E+03  0.21929721453E+04  0.22012349261E+04  0.12699999809E+01 0. -1.
       -4    1    3    3    0  502  0.14338385466E+03 -0.12549034778E+03 -0.52430360062E+03  0.55785538958E+03  0.12699999809E+01 0.  1.
</event>
<event>
 5   0  0.2298329E-05  0.2313352E+04  0.7818609E-02  0.8472675E-01
        2   -1    0    0  501    0  0.00000000000E+00  0.00000000000E+00  0.21708029773E+04  0.21708029773E+04  0.25500000920E-02 0.  1.
       -2   -1    0    0    0  501  0.00000000000E+00  0.00000000000E+00 -0.61631569308E+03  0.61631569309E+03  0.25500000920E-02 0. -1.
    10030    2    1    2    0    0  0.00000000000E+00  0.00000000000E+00  0.15544872842E+04  0.27871186704E+04  0.23133524950E+04 0.  0.
        4    1    3    3  502    0  0.58804819023E+03 -0.10611893499E+03 -0.41595277514E+03  0.72806608659E+03  0.12699999809E+01 0. -1.
       -4    1    3    3    0  502 -0.58804819023E+03  0.10611893499E+03  0.19704400594E+04  0.20590525838E+04  0.12699999809E+01 0.  1.
</event>
<event>
 5   0  0.2229552E-05  0.2190145E+04  0.7818609E-02  0.8522541E-01
       -2   -1    0    0    0  501  0.00000000000E+00  0.00000000000E+00  0.76445147764E+03  0.76445147764E+03  0.25500000920E-02 0.  1.
        2   -1    0    0  501    0  0.00000000000E+00  0.00000000000E+00 -0.15686855732E+04  0.15686855732E+04  0.25500000920E-02 0. -1.
    10030    2    1    2    0    0  0.00000000000E+00  0.00000000000E+00 -0.80423409557E+03  0.23331370509E+04  0.21901452047E+04 0.  0.
        1    1    3    3  502    0 -0.52561961464E+03  0.95848764293E+03 -0.33300071111E+03  0.11427440722E+04  0.50400001928E-02 0. -1.
       -1    1    3    3    0  502  0.52561961464E+03 -0.95848764293E+03 -0.47123338446E+03  0.11903929786E+04  0.50400001928E-02 0.  1.
</event>
<event>
 5   0  0.2289708E-05  0.2189675E+04  0.7818609E-02  0.8522738E-01
       -2   -1    0    0    0  501  0.00000000000E+00  0.00000000000E+00  0.81557513343E+03  0.81557513344E+03  0.25500000920E-02 0. -1.
        2   -1    0    0  501    0  0.00000000000E+00  0.00000000000E+00 -0.14697230910E+04  0.14697230910E+04  0.25500000920E-02 0.  1.
    10030    2    1    2    0    0  0.00000000000E+00  0.00000000000E+00 -0.65414795758E+03  0.22852982244E+04  0.21896754153E+04 0.  0.
        5    1    3    3  502    0 -0.35817867675E+03  0.79224209126E+03  0.36734540471E+03  0.94387723354E+03  0.46999998093E+01 0. -1.
       -5    1    3    3    0  502  0.35817867675E+03 -0.79224209126E+03 -0.10214933623E+04  0.13414209909E+04  0.46999998093E+01 0.  1.
</event>
<event>
 5   0  0.2289708E-05  0.2198196E+04  0.7818609E-02  0.8519179E-01
        2   -1    0    0  501    0  0.00000000000E+00  0.00000000000E+00  0.12034677253E+04  0.12034677253E+04  0.25500000920E-02 0.  1.
       -2   -1    0    0    0  501  0.00000000000E+00  0.00000000000E+00 -0.10037798385E+04  0.10037798385E+04  0.25500000920E-02 0. -1.
    10030    2    1    2    0    0  0.00000000000E+00  0.00000000000E+00  0.19968788684E+03  0.22072475638E+04  0.21981962050E+04 0.  0.
        5    1    3    3  502    0  0.48768501034E+03  0.92249356105E+03  0.44646603208E+03  0.11349823995E+04  0.46999998093E+01 0.  1.
       -5    1    3    3    0  502 -0.48768501034E+03 -0.92249356105E+03 -0.24677814523E+03  0.10722651642E+04  0.46999998093E+01 0. -1.
</event>
<event>
 5   0  0.2289708E-05  0.2215272E+04  0.7818609E-02  0.8512098E-01
       -2   -1    0    0    0  501  0.00000000000E+00  0.00000000000E+00  0.13079783275E+04  0.13079783275E+04  0.25500000920E-02 0.  1.
        2   -1    0    0  501    0  0.00000000000E+00  0.00000000000E+00 -0.93797994085E+03  0.93797994086E+03  0.25500000920E-02 0. -1.
    10030    2    1    2    0    0  0.00000000000E+00  0.00000000000E+00  0.36999838664E+03  0.22459582684E+04  0.22152719330E+04 0.  0.
        5    1    3    3  502    0  0.89874482509E+03 -0.24551981828E+03 -0.42230850182E+03  0.10229314750E+04  0.46999998093E+01 0. -1.
       -5    1    3    3    0  502 -0.89874482509E+03  0.24551981828E+03  0.79230688847E+03  0.12230267934E+04  0.46999998093E+01 0.  1.
</event>
<event>
 5   0  0.1033733E-05  0.2135739E+04  0.7818609E-02  0.8545662E-01
        1   -1    0    0  501    0  0.00000000000E+00  0.00000000000E+00  0.12172078901E+04  0.12172078901E+04  0.50400001928E-02 0. -1.
       -1   -1    0    0    0  501  0.00000000000E+00  0.00000000000E+00 -0.93685298564E+03  0.93685298565E+03  0.50400001928E-02 0.  1.
    10030    2    1    2    0    0  0.00000000000E+00  0.00000000000E+00  0.28035490445E+03  0.21540608757E+04  0.21357386038E+04 0.  0.
        5    1    3    3  502    0 -0.28114122220E+03  0.73993508025E+03 -0.58275515810E+03  0.98293945596E+03  0.46999998093E+01 0.  1.
       -5    1    3    3    0  502  0.28114122220E+03 -0.73993508025E+03  0.86311006254E+03  0.11711214198E+04  0.46999998093E+01 0. -1.
</event>
<event>
 5   0  0.2229552E-05  0.2199492E+04  0.7818609E-02  0.8518640E-01
       -2   -1    0    0    0  501  0.00000000000E+00  0.00000000000E+00  0.90919822965E+03  0.90919822966E+03  0.25500000920E-02 0.  1.
        2   -1    0    0  501    0  0.00000000000E+00  0.00000000000E+00 -0.13302278693E+04  0.13302278693E+04  0.25500000920E-02 0. -1.
    10030    2    1    2    0    0  0.00000000000E+00  0.00000000000E+00 -0.42102963968E+03  0.22394260990E+04  0.21994915993E+04 0.  0.
        1    1    3    3  502    0  0.54455319527E+03  0.27841231311E+03  0.72007621109E+03  0.94475464983E+03  0.50400001928E-02 0.  1.
       -1    1    3    3    0  502 -0.54455319527E+03 -0.27841231311E+03 -0.11411058508E+04  0.12946714492E+04  0.50400001928E-02 0. -1.
</event>
<event>
 5   0  0.1007682E-05  0.2228229E+04  0.7818609E-02  0.8506770E-01
        1   -1    0    0  501    0  0.00000000000E+00  0.00000000000E+00  0.55326331856E+03  0.55326331858E+03  0.50400001928E-02 0.  1.
       -1   -1    0    0    0  501  0.00000000000E+00  0.00000000000E+00 -0.22435092254E+04  0.22435092254E+04  0.50400001928E-02 0. -1.
    10030    2    1    2    0    0  0.00000000000E+00  0.00000000000E+00 -0.16902459069E+04  0.27967725440E+04  0.22282292156E+04 0.  0.
        2    1    3    3  502    0  0.15914459828E+03  0.29274561081E+03 -0.21795032351E+04  0.22048268294E+04  0.25500000920E-02 0. -1.
       -2    1    3    3    0  502 -0.15914459828E+03 -0.29274561081E+03  0.48925732823E+03  0.59194571461E+03  0.25500000920E-02 0.  1.
</event>
<event>
 5   0  0.1007682E-05  0.2205287E+04  0.7818609E-02  0.8516231E-01
       -1   -1    0    0    0  501  0.00000000000E+00  0.00000000000E+00  0.10166406740E+04  0.10166406740E+04  0.50400001928E-02 0.  1.
        1   -1    0    0  501    0  0.00000000000E+00  0.00000000000E+00 -0.11959218504E+04  0.11959218504E+04  0.50400001928E-02 0. -1.
    10030    2    1    2    0    0  0.00000000000E+00  0.00000000000E+00 -0.17928117643E+03  0.22125625244E+04  0.22052870979E+04 0.  0.
        2    1    3    3  502    0  0.81436957134E+02 -0.51122886890E+03  0.88713991800E+03  0.10271339584E+04  0.25500000920E-02 0.  1.
       -2    1    3    3    0  502 -0.81436957134E+02  0.51122886890E+03 -0.10664210944E+04  0.11854285660E+04  0.25500000920E-02 0. -1.
</event>
<event>
 5   0  0.1005538E-05  0.2191487E+04  0.7818609E-02  0.8521980E-01
        1   -1    0    0  501    0  0.00000000000E+00  0.00000000000E+00  0.11269907810E+04  0.11269907810E+04  0.50400001928E-02 0.  1.
       -1   -1    0    0    0  501  0.00000000000E+00  0.00000000000E+00 -0.10653624251E+04  0.10653624251E+04  0.50400001928E-02 0. -1.
    10030    2    1    2    0    0  0.00000000000E+00  0.00000000000E+00  0.61628355966E+02  0.21923532061E+04  0.21914868300E+04 0.  0.
        3    1    3    3  502    0 -0.44667589761E+03  0.79485629106E+03 -0.57715771607E+03  0.10790861506E+04  0.10100000352E+00 0. -1.
       -3    1    3    3    0  502  0.44667589761E+03 -0.79485629106E+03  0.63878607204E+03  0.11132670555E+04  0.10100000352E+00 0.  1.
</event>
<event>
 5   0  0.2229552E-05  0.2202551E+04  0.7818609E-02  0.8517367E-01
        2   -1    0    0  501    0  0.00000000000E+00  0.00000000000E+00  0.11290026308E+04  0.11290026308E+04  0.25500000920E-02 0.  1.
       -2   -1    0    0    0  501  0.00000000000E+00  0.00000000000E+00 -0.10742294859E+04  0.10742294859E+04  0.25500000920E-02 0. -1.
    10030    2    1    2    0    0  0.00000000000E+00  0.00000000000E+00  0.54773144855E+02  0.22032321167E+04  0.22025511714E+04 0.  0.
        1    1    3    3  502    0 -0.26308777470E+02  0.69298132007E+03 -0.82838516743E+03  0.10803412643E+04  0.50400001928E-02 0. -1.
       -1    1    3    3    0  502  0.26308777470E+02 -0.69298132007E+03  0.88315831228E+03  0.11228908524E+04  0.50400001928E-02 0.  1.
</event>
<event>
 5   0  0.1071208E-05  0.2206969E+04  0.7818609E-02  0.8515533E-01
        1   -1    0    0  501    0  0.00000000000E+00  0.00000000000E+00  0.91686892131E+03  0.91686892132E+03  0.50400001928E-02 0. -1.
       -1   -1    0    0    0  501  0.00000000000E+00  0.00000000000E+00 -0.13280835751E+04  0.13280835751E+04  0.50400001928E-02 0.  1.
    10030    2    1    2    0    0  0.00000000000E+00  0.00000000000E+00 -0.41121465380E+03  0.22449524964E+04  0.22069694651E+04 0.  0.
        4    1    3    3  502    0  0.94331900828E+03  0.26707651284E+03 -0.72077832536E+03  0.12168416587E+04  0.12699999809E+01 0.  1.
       -4    1    3    3    0  502 -0.94331900828E+03 -0.26707651284E+03  0.30956367155E+03  0.10281108378E+04  0.12699999809E+01 0. -1.
</event>
<event>
 5   0  0.1071208E-05  0.2204460E+04  0.7818609E-02  0.8516574E-01
        1   -1    0    0  501    0  0.00000000000E+00  0.00000000000E+00  0.85130900168E+03  0.85130900170E+03  0.50400001928E-02 0.  1.
       -1   -1    0    0    0  501  0.00000000000E+00  0.00000000000E+00 -0.14271097511E+04  0.14271097511E+04  0.50400001928E-02 0. -1.
    10030    2    1    2    0    0  0.00000000000E+00  0.00000000000E+00 -0.57580074937E+03  0.22784187528E+04  0.22044603671E+04 0.  0.
        4    1    3    3  502    0 -0.32948558158E+03  0.10517967043E+04 -0.27908734196E+03  0.11369821515E+04  0.12699999809E+01 0.  1.
       -4    1    3    3    0  502  0.32948558158E+03 -0.10517967043E+04 -0.29671340741E+03  0.11414366012E+04  0.12699999809E+01 0. -1.
</event>
<event>
 5   0  0.1033733E-05  0.2223333E+04  0.7818609E-02  0.8508779E-01
        1   -1    0    0  501    0  0.00000000000E+00  0.00000000000E+00  0.91995168067E+03  0.91995168069E+03  0.50400001928E-02 0. -1.
       -1   -1    0    0    0  501  0.00000000000E+00  0.00000000000E+00 -0.13433338686E+04  0.13433338686E+04  0.50400001928E-02 0.  1.
    10030    2    1    2    0    0  0.00000000000E+00  0.00000000000E+00 -0.42338218788E+03  0.22632855493E+04  0.22233328587E+04 0.  0.
        5    1    3    3  502    0 -0.10886919231E+04  0.28174948042E+02  0.15332655166E+02  0.10891745091E+04  0.46999998093E+01 0. -1.
       -5    1    3    3    0  502  0.10886919231E+04 -0.28174948042E+02 -0.43871484305E+03  0.11741110401E+04  0.46999998093E+01 0.  1.
</event>
<event>
 5   0  0.2284329E-05  0.2195175E+04  0.7818609E-02  0.8520439E-01
        2   -1    0    0  501    0  0.00000000000E+00  0.00000000000E+00  0.11118263268E+04  0.11118263268E+04  0.25500000920E-02 0.  1.
       -2   -1    0    0    0  501  0.00000000000E+00  0.00000000000E+00 -0.10835310218E+04  0.10835310218E+04  0.25500000920E-02 0. -1.
    10030    2    1    2    0    0  0.00000000000E+00  0.00000000000E+00  0.28295304996E+02  0.21953573486E+04  0.21951749961E+04 0.  0.
        2    1    3    3  502    0 -0.33356255627E+02  0.19107328223E+03  0.10945506247E+04  0.11116036654E+04  0.25500000920E-02 0.  1.
       -2    1    3    3    0  502  0.33356255627E+02 -0.19107328223E+03 -0.10662553197E+04  0.10837536832E+04  0.25500000920E-02 0. -1.
</event>
<event>
 5   0  0.2298329E-05  0.2193080E+04  0.7818609E-02  0.8521314E-01
       -2   -1    0    0    0  501  0.00000000000E+00  0.00000000000E+00  0.66335251516E+03  0.66335251517E+03  0.25500000920E-02 0.  1.
        2   -1    0    0  501    0  0.00000000000E+00  0.00000000000E+00 -0.18126104628E+04  0.18126104628E+04  0.25500000920E-02 0. -1.
    10030    2    1    2    0    0  0.00000000000E+00  0.00000000000E+00 -0.11492579477E+04  0.24759629780E+04  0.21930797610E+04 0.  0.
        4    1    3    3  502    0  0.38383128840E+03 -0.93281669520E+03 -0.10601266153E+04  0.14633330100E+04  0.12699999809E+01 0. -1.
       -4    1    3    3    0  502 -0.38383128840E+03  0.93281669520E+03 -0.89131332399E+02  0.10126299680E+04  0.12699999809E+01 0.  1.
</event>
<event>
 5   0  0.2289708E-05  0.2194215E+04  0.7818609E-02  0.8520840E-01
        2   -1    0    0  501    0  0.00000000000E+00  0.00000000000E+00  0.17241411195E+04  0.17241411195E+04  0.25500000920E-02 0. -1.
       -2   -1    0    0    0  501  0.00000000000E+00  0.00000000000E+00 -0.69811285167E+03  0.69811285168E+03  0.25500000920E-02 0.  1.
    10030    2    1    2    0    0  0.00000000000E+00  0.00000000000E+00  0.10260282678E+04  0.24222539712E+04  0.21942151887E+04 0.  0.
        5    1    3    3  502    0 -0.80465303195E+03 -0.72638654194E+03  0.69944085688E+03  0.12900943812E+04  0.46999998093E+01 0. -1.
       -5    1    3    3    0  502  0.80465303195E+03  0.72638654194E+03  0.32658741092E+03  0.11321595899E+04  0.46999998093E+01 0.  1.
</event>
<event>
 5   0  0.2319707E-05  0.2200518E+04  0.7818609E-02  0.8518213E-01
       -2   -1    0    0    0  501  0.00000000000E+00  0.00000000000E+00  0.89688166004E+03  0.89688166004E+03  0.25500000920E-02 0. -1.
        2   -1    0    0  501    0  0.00000000000E+00  0.00000000000E+00 -0.13497537002E+04  0.13497537002E+04  0.25500000920E-02 0.  1.
    10030    2    1    2    0    0  0.00000000000E+00  0.00000000000E+00 -0.45287204014E+03  0.22466353602E+04  0.22005175203E+04 0.  0.
        3    1    3    3  502    0  0.77213540661E+03  0.76030509198E+03 -0.31884200863E+02  0.10841003328E+04  0.10100000352E+00 0.  1.
       -3    1    3    3    0  502 -0.77213540661E+03 -0.76030509198E+03 -0.42098783927E+03  0.11625350275E+04  0.10100000352E+00 0. -1.
</event>
<event>
 5   0  0.2289708E-05  0.2202015E+04  0.7818609E-02  0.8517590E-01
       -2   -1    0    0    0  501  0.00000000000E+00  0.00000000000E+00  0.26655345661E+04  0.26655345661E+04  0.25500000920E-02 0. -1.
        2   -1    0    0  501    0  0.00000000000E+00  0.00000000000E+00 -0.45477465758E+03  0.45477465759E+03  0.25500000920E-02 0.  1.
    10030    2    1    2    0    0  0.00000000000E+00  0.00000000000E+00  0.22107599085E+04  0.31203092236E+04  0.22020150495E+04 0.  0.
        5    1    3    3  502    0  0.75179039875E+03  0.72848292106E+03  0.62209501637E+03  0.12177440081E+04  0.46999998093E+01 0.  1.
       -5    1    3    3    0  502 -0.75179039875E+03 -0.72848292106E+03  0.15886648921E+04  0.19025652155E+04  0.46999998093E+01 0. -1.
</event>
<event>
 5   0  0.2284329E-05  0.2201160E+04  0.7818609E-02  0.8517945E-01
        2   -1    0    0  501    0  0.00000000000E+00  0.00000000000E+00  0.12562527295E+04  0.12562527295E+04  0.25500000920E-02 0. -1.
       -2   -1    0    0    0  501  0.00000000000E+00  0.00000000000E+00 -0.96419806369E+03  0.96419806369E+03  0.25500000920E-02 0.  1.
    10030    2    1    2    0    0  0.00000000000E+00  0.00000000000E+00  0.29205466585E+03  0.22204507932E+04  0.22011601026E+04 0.  0.
        2    1    3    3  502    0  0.79072031501E+03 -0.12131857640E+03 -0.61645379032E+03  0.10099366758E+04  0.25500000920E-02 0.  1.
       -2    1    3    3    0  502 -0.79072031501E+03  0.12131857640E+03  0.90850845616E+03  0.12105141174E+04  0.25500000920E-02 0. -1.
</event>
<event>
 5   0  0.1049198E-05  0.2186413E+04  0.7818609E-02  0.8524104E-01
        1   -1    0    0  501    0  0.00000000000E+00  0.00000000000E+00  0.16168535296E+04  0.16168535296E+04  0.50400001928E-02 0. -1.
       -1   -1    0    0    0  501  0.00000000000E+00  0.00000000000E+00 -0.73915224905E+03  0.73915224907E+03  0.50400001928E-02 0.  1.
    10030    2    1    2    0    0  0.00000000000E+00  0.00000000000E+00  0.87770128056E+03  0.23560057787E+04  0.21864134310E+04 0.  0.
        1    1    3    3  502    0 -0.12034103282E+03  0.10153033442E+04  0.85588149800E+03  0.13333626602E+04  0.50400001928E-02 0. -1.
       -1    1    3    3    0  502  0.12034103282E+03 -0.10153033442E+04  0.21819782566E+02  0.10226431185E+04  0.50400001928E-02 0.  1.
</event>
<event>
 5   0  0.1071208E-05  0.2204398E+04  0.7818609E-02  0.8516600E-01
        1   -1    0    0  501    0  0.00000000000E+00  0.00000000000E+00  0.23687251908E+04  0.23687251908E+04  0.50400001928E-02 0. -1.
       -1   -1    0    0    0  501  0.00000000000E+00  0.00000000000E+00 -0.51286782568E+03  0.51286782571E+03  0.50400001928E-02 0.  1.
    10030    2    1    2    0    0  0.00000000000E+00  0.00000000000E+00  0.18558573651E+04  0.28815930165E+04  0.22043982746E+04 0.  0.
        4    1    3    3  502    0  0.71059858138E+03  0.74705999361E+03  0.14372214623E+04  0.17688007583E+04  0.12699999809E+01 0. -1.
       -4    1    3    3    0  502 -0.71059858138E+03 -0.74705999361E+03  0.41863590278E+03  0.11127922582E+04  0.12699999809E+01 0.  1.
</event>
<event>
 5   0  0.2298329E-05  0.2202522E+04  0.7818609E-02  0.8517379E-01
       -2   -1    0    0    0  501  0.00000000000E+00  0.00000000000E+00  0.81266323943E+03  0.81266323943E+03  0.25500000920E-02 0.  1.
        2   -1    0    0  501    0  0.00000000000E+00  0.00000000000E+00 -0.14923474041E+04  0.14923474041E+04  0.25500000920E-02 0. -1.
    10030    2    1    2    0    0  0.00000000000E+00  0.00000000000E+00 -0.67968416472E+03  0.23050106436E+04  0.22025220778E+04 0.  0.
        4    1    3    3  502    0 -0.14145549135E+03 -0.29890240919E+03  0.75947626298E+03  0.82834661415E+03  0.12699999809E+01 0.  1.
       -4    1    3    3    0  502  0.14145549135E+03  0.29890240919E+03 -0.14391604277E+04  0.14766640294E+04  0.12699999809E+01 0. -1.
</event>
<event>
 5   0  0.2298329E-05  0.2196198E+04  0.7818609E-02  0.8520012E-01
       -2   -1    0    0    0  501  0.00000000000E+00  0.00000000000E+00  0.13112971437E+04  0.13112971437E+04  0.25500000920E-02 0.  1.
        2   -1    0    0  501    0  0.00000000000E+00  0.00000000000E+00 -0.91956380078E+03  0.91956380078E+03  0.25500000920E-02 0. -1.
    10030    2    1    2    0    0  0.00000000000E+00  0.00000000000E+00  0.39173334291E+03  0.22308609445E+04  0.21961979741E+04 0.  0.
        4    1    3    3  502    0 -0.35715373129E+03  0.97201367469E+03  0.56694103845E+03  0.11805901598E+04  0.12699999809E+01 0.  1.
       -4    1    3    3    0  502  0.35715373129E+03 -0.97201367469E+03 -0.17520769554E+03  0.10502707846E+04  0.12699999809E+01 0. -1.
</event>
<event>
 5   0  0.1007682E-05  0.2193334E+04  0.7818609E-02  0.8521208E-01
       -1   -1    0    0    0  501  0.00000000000E+00  0.00000000000E+00  0.10276371154E+04  0.10276371154E+04  0.50400001928E-02 0. -1.
        1   -1    0    0  501    0  0.00000000000E+00  0.00000000000E+00 -0.11703333924E+04  0.11703333924E+04  0.50400001928E-02 0.  1.
    10030    2    1    2    0    0  0.00000000000E+00  0.00000000000E+00 -0.14269627704E+03  0.21979705078E+04  0.21933335646E+04 0.  0.
        2    1    3    3  502    0 -0.73474830035E+03  0.34048674858E+03 -0.81243285759E+03  0.11470978332E+04  0.25500000920E-02 0.  1.
       -2    1    3    3    0  502  0.73474830035E+03 -0.34048674858E+03  0.66973658055E+03  0.10508726746E+04  0.25500000920E-02 0. -1.
</event>
<event>
 5   0  0.1007682E-05  0.2196554E+04  0.7818609E-02  0.8519864E-01
       -1   -1    0    0    0  501  0.00000000000E+00  0.00000000000E+00  0.11120992976E+04  0.11120992976E+04  0.50400001928E-02 0.  1.
        1   -1    0    0  501    0  0.00000000000E+00  0.00000000000E+00 -0.10846262905E+04  0.10846262905E+04  0.50400001928E-02 0. -1.
    10030    2    1    2    0    0  0.00000000000E+00  0.00000000000E+00  0.27473007081E+02  0.21967255881E+04  0.21965537879E+04 0.  0.
        2    1    3    3  502    0  0.16411859028E+03  0.35423908308E+03 -0.10128874510E+04  0.10855234811E+04  0.25500000920E-02 0. -1.
       -2    1    3    3    0  502 -0.16411859028E+03 -0.35423908308E+03  0.10403604581E+04  0.11112021069E+04  0.25500000920E-02 0.  1.
</event>
<event>
 5   0  0.2284329E-05  0.2185743E+04  0.7818609E-02  0.8524386E-01
        2   -1    0    0  501    0  0.00000000000E+00  0.00000000000E+00  0.67419899169E+03  0.67419899169E+03  0.25500000920E-02 0. -1.
       -2   -1    0    0    0  501  0.00000000000E+00  0.00000000000E+00 -0.17715365720E+04  0.17715365720E+04  0.25500000920E-02 0.  1.
    10030    2    1    2    0    0  0.00000000000E+00  0.00000000000E+00 -0.10973375803E+04  0.24457355637E+04  0.21857430504E+04 0.  0.
        2    1    3    3  502    0 -0.41253123406E+03  0.98157757037E+03 -0.82432943947E+03  0.13465495054E+04  0.25500000920E-02 0.  1.
       -2    1    3    3    0  502  0.41253123406E+03 -0.98157757037E+03 -0.27300814083E+03  0.10991860583E+04  0.25500000920E-02 0. -1.
</event>
<event>
 5   0  0.2319707E-05  0.2192729E+04  0.7818609E-02  0.8521461E-01
        2   -1    0    0  501    0  0.00000000000E+00  0.00000000000E+00  0.14340447435E+04  0.14340447435E+04  0.25500000920E-02 0.  1.
       -2   -1    0    0    0  501  0.00000000000E+00  0.00000000000E+00 -0.83819904840E+03  0.83819904841E+03  0.25500000920E-02 0. -1.
    10030    2    1    2    0    0  0.00000000000E+00  0.00000000000E+00  0.59584569514E+03  0.22722437920E+04  0.21927288381E+04 0.  0.
        3    1    3    3  502    0  0.10293705684E+04 -0.12074770130E+03  0.66842296779E+03  0.12332773607E+04  0.10100000352E+00 0.  1.
       -3    1    3    3    0  502 -0.10293705684E+04  0.12074770130E+03 -0.72577272653E+02  0.10389664312E+04  0.10100000352E+00 0. -1.
</event>
<event>
 5   0  0.2284329E-05  0.2192970E+04  0.7818609E-02  0.8521360E-01
       -2   -1    0    0    0  501  0.00000000000E+00  0.00000000000E+00  0.78095424309E+03  0.78095424310E+03  0.25500000920E-02 0.  1.
        2   -1    0    0  501    0  0.00000000000E+00  0.00000000000E+00 -0.15395003123E+04  0.15395003123E+04  0.25500000920E-02 0. -1.
    10030    2    1    2    0    0  0.00000000000E+00  0.00000000000E+00 -0.75854606923E+03  0.23204545554E+04  0.21929699507E+04 0.  0.
        2    1    3    3  502    0 -0.15451394065E+03  0.67611560550E+03  0.51937587787E+03  0.86646302424E+03  0.25500000920E-02 0.  1.
       -2    1    3    3    0  502  0.15451394065E+03 -0.67611560550E+03 -0.12779219471E+04  0.14539915312E+04  0.25500000920E-02 0. -1.
</event>
<event>
 5   0  0.2229552E-05  0.2197452E+04  0.7818609E-02  0.8519489E-01
       -2   -1    0    0    0  501  0.00000000000E+00  0.00000000000E+00  0.96003919354E+03  0.96003919355E+03  0.25500000920E-02 0.  1.
        2   -1    0    0  501    0  0.00000000000E+00  0.00000000000E+00 -0.12574478837E+04  0.12574478837E+04  0.25500000920E-02 0. -1.
    10030    2    1    2    0    0  0.00000000000E+00  0.00000000000E+00 -0.29740869018E+03  0.22174870773E+04  0.21974523906E+04 0.  0.
        1    1    3    3  502    0  0.74222790963E+03 -0.79967104945E+03 -0.17817541207E+02  0.10911890404E+04  0.50400001928E-02 0.  1.
       -1    1    3    3    0  502 -0.74222790963E+03  0.79967104945E+03 -0.27959114897E+03  0.11262980368E+04  0.50400001928E-02 0. -1.
</event>
<event>
 5   0  0.1033733E-05  0.2194849E+04  0.7818609E-02  0.8520575E-01
        1   -1    0    0  501    0  0.00000000000E+00  0.00000000000E+00  0.12009630613E+04  0.12009630613E+04  0.50400001928E-02 0. -1.
       -1   -1    0    0    0  501  0.00000000000E+00  0.00000000000E+00 -0.10028126698E+04  0.10028126698E+04  0.50400001928E-02 0.  1.
    10030    2    1    2    0    0  0.00000000000E+00  0.00000000000E+00  0.19815039146E+03  0.22037757311E+04  0.21948494015E+04 0.  0.
        5    1    3    3  502    0 -0.30311462578E+02 -0.84564627572E+03 -0.60253879116E+03  0.10388029136E+04  0.46999998093E+01 0.  1.
       -5    1    3    3    0  502  0.30311462578E+02  0.84564627572E+03  0.80068918262E+03  0.11649728175E+04  0.46999998093E+01 0. -1.
</event>
<event>
 5   0  0.2289708E-05  0.2202869E+04  0.7818609E-02  0.8517235E-01
       -2   -1    0    0    0  501  0.00000000000E+00  0.00000000000E+00  0.75227808729E+03  0.75227808729E+03  0.25500000920E-02 0.  1.
        2   -1    0    0  501    0  0.00000000000E+00  0.00000000000E+00 -0.16126458653E+04  0.16126458653E+04  0.25500000920E-02 0. -1.
    10030    2    1    2    0    0  0.00000000000E+00  0.00000000000E+00 -0.86036777799E+03  0.23649239526E+04  0.22028691718E+04 0.  0.
        5    1    3    3  502    0 -0.10167065452E+04  0.41840215674E+03 -0.35910532519E+03  0.11566033410E+04  0.46999998093E+01 0. -1.
       -5    1    3    3    0  502  0.10167065452E+04 -0.41840215674E+03 -0.50126245280E+03  0.12083206116E+04  0.46999998093E+01 0.  1.
</event>
<event>
 5   0  0.2298329E-05  0.2180414E+04  0.7818609E-02  0.8526625E-01
       -2   -1    0    0    0  501  0.00000000000E+00  0.00000000000E+00  0.15002819309E+04  0.15002819309E+04  0.25500000920E-02 0. -1.
        2   -1    0    0  501    0  0.00000000000E+00  0.00000000000E+00 -0.79221898546E+03  0.79221898546E+03  0.25500000920E-02 0.  1.
    10030    2    1    2    0    0  0.00000000000E+00  0.00000000000E+00  0.70806294547E+03  0.22925009164E+04  0.21804144828E+04 0.  0.
        4    1    3    3  502    0 -0.31754733487E+03 -0.92050618367E+03 -0.16146022836E+03  0.98703544125E+03  0.12699999809E+01 0.  1.
       -4    1    3    3    0  502  0.31754733487E+03  0.92050618367E+03  0.86952317383E+03  0.13054654751E+04  0.12699999809E+01 0. -1.
</event>
<event>
 5   0  0.2284329E-05  0.2183967E+04  0.7818609E-02  0.8525131E-01
        2   -1    0    0  501    0  0.00000000000E+00  0.00000000000E+00  0.14182517071E+04  0.14182517072E+04  0.25500000920E-02 0. -1.
       -2   -1    0    0    0  501  0.00000000000E+00  0.00000000000E+00 -0.84077326955E+03  0.84077326956E+03  0.25500000920E-02 0.  1.
    10030    2    1    2    0    0  0.00000000000E+00  0.00000000000E+00  0.57747843759E+03  0.22590249767E+04  0.21839671471E+04 0.  0.
        2    1    3    3  502    0  0.33450656933E+03 -0.38107299574E+02 -0.78574988954E+03  0.85483899076E+03  0.25500000920E-02 0.  1.
       -2    1    3    3    0  502 -0.33450656933E+03  0.38107299574E+02  0.13632283271E+04  0.14041859859E+04  0.25500000920E-02 0. -1.
</event>
<event>
 5   0  0.1033733E-05  0.2201762E+04  0.7818609E-02  0.8517695E-01
        1   -1    0    0  501    0  0.00000000000E+00  0.00000000000E+00  0.19377648817E+04  0.19377648817E+04  0.50400001928E-02 0.  1.
       -1   -1    0    0    0  501  0.00000000000E+00  0.00000000000E+00 -0.62543140945E+03  0.62543140947E+03  0.50400001928E-02 0. -1.
    10030    2    1    2    0    0  0.00000000000E+00  0.00000000000E+00  0.13123334722E+04  0.25631962912E+04  0.22017620409E+04 0.  0.
        5    1    3    3  502    0 -0.27211415054E+02  0.82041995492E+03  0.15101275941E+04  0.17188184325E+04  0.46999998093E+01 0.  1.
       -5    1    3    3    0  502  0.27211415054E+02 -0.82041995492E+03 -0.19779412185E+03  0.84437785865E+03  0.46999998093E+01 0. -1.
</event>
<event>
 5   0  0.1033733E-05  0.2200179E+04  0.7818609E-02  0.8518354E-01
       -1   -1    0    0    0  501  0.00000000000E+00  0.00000000000E+00  0.13083689065E+04  0.13083689065E+04  0.50400001928E-02 0.  1.
        1   -1    0    0  501    0  0.00000000000E+00  0.00000000000E+00 -0.92496592846E+03  0.92496592847E+03  0.50400001928E-02 0. -1.
    10030    2    1    2    0    0  0.00000000000E+00  0.00000000000E+00  0.38340297804E+03  0.22333348350E+04  0.22001787749E+04 0.  0.
        5    1    3    3  502    0 -0.13701032757E+03 -0.64017448971E+03  0.10890939386E+04  0.12707253457E+04  0.46999998093E+01 0.  1.
       -5    1    3    3    0  502  0.13701032757E+03  0.64017448971E+03 -0.70569096052E+03  0.96260948930E+03  0.46999998093E+01 0. -1.
</event>
<event>
 5   0  0.2229552E-05  0.2204086E+04  0.7818609E-02  0.8516729E-01
        2   -1    0    0  501    0  0.00000000000E+00  0.00000000000E+00  0.18919338012E+04  0.18919338012E+04  0.25500000920E-02 0.  1.
       -2   -1    0    0    0  501  0.00000000000E+00  0.00000000000E+00 -0.64193521087E+03  0.64193521087E+03  0.25500000920E-02 0. -1.
    10030    2    1    2    0    0  0.00000000000E+00  0.00000000000E+00  0.12499985904E+04  0.25338690121E+04  0.22040861359E+04 0.  0.
        1    1    3    3  502    0 -0.19372418589E+03  0.95202169553E+03  0.26946950920E+02  0.97190560609E+03  0.50400001928E-02 0. -1.
       -1    1    3    3    0  502  0.19372418589E+03 -0.95202169553E+03  0.12230516394E+04  0.15619634060E+04  0.50400001928E-02 0.  1.
</event>
<event>
 5   0  0.2289708E-05  0.2180677E+04  0.7818609E-02  0.8526514E-01
       -2   -1    0    0    0  501  0.00000000000E+00  0.00000000000E+00  0.99621820764E+03  0.99621820764E+03  0.25500000920E-02 0.  1.
        2   -1    0    0  501    0  0.00000000000E+00  0.00000000000E+00 -0.11933515572E+04  0.11933515572E+04  0.25500000920E-02 0. -1.
    10030    2    1    2    0    0  0.00000000000E+00  0.00000000000E+00 -0.19713334953E+03  0.21895697648E+04  0.21806774630E+04 0.  0.
        5    1    3    3  502    0 -0.80230121087E+03  0.57981428999E+03  0.36040189302E+03  0.10534626041E+04  0.46999998093E+01 0. -1.
       -5    1    3    3    0  502  0.80230121087E+03 -0.57981428999E+03 -0.55753524255E+03  0.11361071607E+04  0.46999998093E+01 0.  1.
</event>
<event>
 5   0  0.2289708E-05  0.2196314E+04  0.7818609E-02  0.8519964E-01
        2   -1    0    0  501    0  0.00000000000E+00  0.00000000000E+00  0.15192098345E+04  0.15192098345E+04  0.25500000920E-02 0.  1.
       -2   -1    0    0    0  501  0.00000000000E+00  0.00000000000E+00 -0.79379972239E+03  0.79379972240E+03  0.25500000920E-02 0. -1.
    10030    2    1    2    0    0  0.00000000000E+00  0.00000000000E+00  0.72541011206E+03  0.23130095568E+04  0.21963135886E+04 0.  0.
        5    1    3    3  502    0 -0.10460402716E+04  0.32702857764E+03  0.43550322274E+03  0.11793358671E+04  0.46999998093E+01 0.  1.
       -5    1    3    3    0  502  0.10460402716E+04 -0.32702857764E+03  0.28990688932E+03  0.11336736898E+04  0.46999998093E+01 0. -1.
</event>
<event>
 5   0  0.1071208E-05  0.2205459E+04  0.7818609E-02  0.8516159E-01
        1   -1    0    0  501    0  0.00000000000E+00  0.00000000000E+00  0.32216555757E+04  0.32216555757E+04  0.50400001928E-02 0. -1.
       -1   -1    0    0    0  501  0.00000000000E+00  0.00000000000E+00 -0.37744948663E+03  0.37744948667E+03  0.50400001928E-02 0.  1.
    10030    2    1    2    0    0  0.00000000000E+00  0.00000000000E+00  0.28442060891E+04  0.35991050624E+04  0.22054589030E+04 0.  0.
        4    1    3    3  502    0 -0.23052845016E+03 -0.10768865954E+04  0.13300408233E+04  0.17268000203E+04  0.12699999809E+01 0. -1.
       -4    1    3    3    0  502  0.23052845016E+03  0.10768865954E+04  0.15141652658E+04  0.18723050421E+04  0.12699999809E+01 0.  1.
</event>
<event>
 5   0  0.1071208E-05  0.2196199E+04  0.7818609E-02  0.8520012E-01
       -1   -1    0    0    0  501  0.00000000000E+00  0.00000000000E+00  0.11541184747E+04  0.11541184747E+04  0.50400001928E-02 0.  1.
        1   -1    0    0  501    0  0.00000000000E+00  0.00000000000E+00 -0.10447997397E+04  0.10447997397E+04  0.50400001928E-02 0. -1.
    10030    2    1    2    0    0  0.00000000000E+00  0.00000000000E+00  0.10931873508E+03  0.21989182144E+04  0.21961991549E+04 0.  0.
        4    1    3    3  502    0  0.28009378707E+03 -0.10617638549E+04  0.59770194122E+02  0.10997131908E+04  0.12699999809E+01 0.  1.
       -4    1    3    3    0  502 -0.28009378707E+03  0.10617638549E+04  0.49548540954E+02  0.10992050236E+04  0.12699999809E+01 0. -1.
</event>
<event>
 5   0  0.1007682E-05  0.2201709E+04  0.7818609E-02  0.8517717E-01
       -1   -1    0    0    0  501  0.00000000000E+00  0.00000000000E+00  0.57708319673E+03  0.57708319675E+03  0.50400001928E-02 0. -1.
        1   -1    0    0  501    0  0.00000000000E+00  0.00000000000E+00 -0.21000106305E+04  0.21000106305E+04  0.50400001928E-02 0.  1.
    10030    2    1    2    0    0  0.00000000000E+00  0.00000000000E+00 -0.15229274337E+04  0.26770938272E+04  0.22017091977E+04 0.  0.
        2    1    3    3  502    0  0.97133706761E+03  0.42309565333E+03 -0.39795720877E+03  0.11317577350E+04  0.25500000920E-02 0.  1.
       -2    1    3    3    0  502 -0.97133706761E+03 -0.42309565333E+03 -0.11249702250E+04  0.15453360922E+04  0.25500000920E-02 0. -1.
</event>
<event>
 5   0  0.2229552E-05  0.2209191E+04  0.7818609E-02  0.8514612E-01
       -2   -1    0    0    0  501  0.00000000000E+00  0.00000000000E+00  0.95255526754E+03  0.95255526755E+03  0.25500000920E-02 0.  1.
        2   -1    0    0  501    0  0.00000000000E+00  0.00000000000E+00 -0.12809034621E+04  0.12809034621E+04  0.25500000920E-02 0. -1.
    10030    2    1    2    0    0  0.00000000000E+00  0.00000000000E+00 -0.32834819457E+03  0.22334587297E+04  0.22091911099E+04 0.  0.
        1    1    3    3  502    0 -0.66530087897E+03  0.65804979321E+03  0.42919438801E+03  0.10294962907E+04  0.50400001928E-02 0.  1.
       -1    1    3    3    0  502  0.66530087897E+03 -0.65804979321E+03 -0.75754258259E+03  0.12039624389E+04  0.50400001928E-02 0. -1.
</event>
<event>
 5   0  0.2289708E-05  0.2201264E+04  0.7818609E-02  0.8517902E-01
       -2   -1    0    0    0  501  0.00000000000E+00  0.00000000000E+00  0.85423861846E+03  0.85423861846E+03  0.25500000920E-02 0. -1.
        2   -1    0    0  501    0  0.00000000000E+00  0.00000000000E+00 -0.14180935324E+04  0.14180935324E+04  0.25500000920E-02 0.  1.
    10030    2    1    2    0    0  0.00000000000E+00  0.00000000000E+00 -0.56385491393E+03  0.22723321508E+04  0.22012635099E+04 0.  0.
        5    1    3    3  502    0 -0.47113437673E+03 -0.68170041951E+03 -0.10296649326E+04  0.13217091307E+04  0.46999998093E+01 0.  1.
       -5    1    3    3    0  502  0.47113437673E+03  0.68170041951E+03  0.46581001865E+03  0.95062302011E+03  0.46999998093E+01 0. -1.
</event>
<event>
 5   0  0.2319707E-05  0.2194786E+04  0.7818609E-02  0.8520601E-01
       -2   -1    0    0    0  501  0.00000000000E+00  0.00000000000E+00  0.81358084531E+03  0.81358084531E+03  0.25500000920E-02 0.  1.
        2   -1    0    0  501    0  0.00000000000E+00  0.00000000000E+00 -0.14802114627E+04  0.14802114627E+04  0.25500000920E-02 0. -1.
    10030    2    1    2    0    0  0.00000000000E+00  0.00000000000E+00 -0.66663061742E+03  0.22937923080E+04  0.21947862703E+04 0.  0.
        3    1    3    3  502    0  0.40904515116E+03 -0.45884566865E+03 -0.12833966634E+04  0.14230123995E+04  0.10100000352E+00 0. -1.
       -3    1    3    3    0  502 -0.40904515116E+03  0.45884566865E+03  0.61676604602E+03  0.87077990850E+03  0.10100000352E+00 0.  1.
</event>
<event>
 5   0  0.1071208E-05  0.2205102E+04  0.7818609E-02  0.8516307E-01
        1   -1    0    0  501    0  0.00000000000E+00  0.00000000000E+00  0.14366399256E+04  0.14366399256E+04  0.50400001928E-02 0. -1.
       -1   -1    0    0    0  501  0.00000000000E+00  0.00000000000E+00 -0.84615426169E+03  0.84615426170E+03  0.50400001928E-02 0.  1.
    10030    2    1    2    0    0  0.00000000000E+00  0.00000000000E+00  0.59048566393E+03  0.22827941873E+04  0.22051022612E+04 0.  0.
        4    1    3    3  502    0 -0.17796224932E+03 -0.10852194672E+04  0.37705588968E+03  0.11625595086E+04  0.12699999809E+01 0. -1.
       -4    1    3    3    0  502  0.17796224932E+03  0.10852194672E+04  0.21342977425E+03  0.11202346788E+04  0.12699999809E+01 0.  1.
</event>
<event>
 5   0  0.2229552E-05  0.2196115E+04  0.7818609E-02  0.8520047E-01
       -2   -1    0    0    0  501  0.00000000000E+00  0.00000000000E+00  0.12818899613E+04  0.12818899613E+04  0.25500000920E-02 0. -1.
        2   -1    0    0  501    0  0.00000000000E+00  0.00000000000E+00 -0.94058764972E+03  0.94058764972E+03  0.25500000920E-02 0.  1.
    10030    2    1    2    0    0  0.00000000000E+00  0.00000000000E+00  0.34130231157E+03  0.22224776110E+04  0.21961146290E+04 0.  0.
        1    1    3    3  502    0 -0.37623149070E+03  0.13296170620E+03 -0.86461542796E+03  0.95225458161E+03  0.50400001928E-02 0.  1.
       -1    1    3    3    0  502  0.37623149070E+03 -0.13296170620E+03  0.12059177395E+04  0.12702230294E+04  0.50400001928E-02 0. -1.
</event>
<event>
 5   0  0.1071208E-05  0.2159797E+04  0.7818609E-02  0.8535350E-01
       -1   -1    0    0    0  501  0.00000000000E+00  0.00000000000E+00  0.10483907948E+04  0.10483907948E+04  0.50400001928E-02 0. -1.
        1   -1    0    0  501    0  0.00000000000E+00  0.00000000000E+00 -0.11123530417E+04  0.11123530417E+04  0.50400001928E-02 0.  1.
    10030    2    1    2    0    0  0.00000000000E+00  0.00000000000E+00 -0.63962246970E+02  0.21607438365E+04  0.21597969252E+04 0.  0.
        4    1    3    3  502    0 -0.14633617813E+03  0.86515573916E+03  0.59779494246E+03  0.10617293140E+04  0.12699999809E+01 0. -1.
       -4    1    3    3    0  502  0.14633617813E+03 -0.86515573916E+03 -0.66175718943E+03  0.10990145225E+04  0.12699999809E+01 0.  1.
</event>
<event>
 5   0  0.2319707E-05  0.2207173E+04  0.7818609E-02  0.8515448E-01
        2   -1    0    0  501    0  0.00000000000E+00  0.00000000000E+00  0.63312219537E+03  0.63312219537E+03  0.25500000920E-02 0. -1.
       -2   -1    0    0    0  501  0.00000000000E+00  0.00000000000E+00 -0.19236470846E+04  0.19236470846E+04  0.25500000920E-02 0.  1.
    10030    2    1    2    0    0  0.00000000000E+00  0.00000000000E+00 -0.12905248892E+04  0.25567692799E+04  0.22071734552E+04 0.  0.
        3    1    3    3  502    0  0.25753050556E+03 -0.10452967581E+04 -0.92648283588E+03  0.14203301480E+04  0.10100000352E+00 0. -1.
       -3    1    3    3    0  502 -0.25753050556E+03  0.10452967581E+04 -0.36404205332E+03  0.11364391320E+04  0.10100000352E+00 0.  1.
</event>
<event>
 5   0  0.2298329E-05  0.2192583E+04  0.7818609E-02  0.8521522E-01
       -2   -1    0    0    0  501  0.00000000000E+00  0.00000000000E+00  0.61289984827E+03  0.61289984827E+03  0.25500000920E-02 0. -1.
        2   -1    0    0  501    0  0.00000000000E+00  0.00000000000E+00 -0.19609323991E+04  0.19609323991E+04  0.25500000920E-02 0.  1.
    10030    2    1    2    0    0  0.00000000000E+00  0.00000000000E+00 -0.13480325509E+04  0.25738322474E+04  0.21925831066E+04 0.  0.
        4    1    3    3  502    0  0.36182976865E+03 -0.68570999145E+03 -0.15838572499E+04  0.17634410607E+04  0.12699999809E+01 0.  1.
       -4    1    3    3    0  502 -0.36182976865E+03  0.68570999145E+03  0.23582469900E+03  0.81039118666E+03  0.12699999809E+01 0. -1.
</event>
<event>
 5   0  0.1049198E-05  0.2201952E+04  0.7818609E-02  0.8517616E-01
        1   -1    0    0  501    0  0.00000000000E+00  0.00000000000E+00  0.20904046861E+04  0.20904046861E+04  0.50400001928E-02 0.  1.
       -1   -1    0    0    0  501  0.00000000000E+00  0.00000000000E+00 -0.57986279934E+03  0.57986279937E+03  0.50400001928E-02 0. -1.
    10030    2    1    2    0    0  0.00000000000E+00  0.00000000000E+00  0.15105418867E+04  0.26702674854E+04  0.22019517824E+04 0.  0.
        1    1    3    3  502    0 -0.68075008775E+03 -0.85766543238E+03  0.61627600574E+03  0.12565057864E+04  0.50400001928E-02 0.  1.
       -1    1    3    3    0  502  0.68075008775E+03  0.85766543238E+03  0.89426588097E+03  0.14137616991E+04  0.50400001928E-02 0. -1.
</event>
<event>
 5   0  0.2229552E-05  0.2208865E+04  0.7818609E-02  0.8514747E-01
        2   -1    0    0  501    0  0.00000000000E+00  0.00000000000E+00  0.16999054805E+04  0.16999054805E+04  0.25500000920E-02 0.  1.
       -2   -1    0    0    0  501  0.00000000000E+00  0.00000000000E+00 -0.71755256057E+03  0.71755256057E+03  0.25500000920E-02 0. -1.
    10030    2    1    2    0    0  0.00000000000E+00  0.00000000000E+00  0.98235291997E+03  0.24174580411E+04  0.22088653470E+04 0.  0.
        1    1    3    3  502    0 -0.96429854847E+03 -0.44773595755E+03  0.16388322465E+03  0.10757308630E+04  0.50400001928E-02 0.  1.
       -1    1    3    3    0  502  0.96429854847E+03  0.44773595755E+03  0.81846969532E+03  0.13417271781E+04  0.50400001928E-02 0. -1.
</event>
<event>
 5   0  0.1033733E-05  0.2204641E+04  0.7818609E-02  0.8516499E-01
        1   -1    0    0  501    0  0.00000000000E+00  0.00000000000E+00  0.18621276870E+04  0.18621276870E+04  0.50400001928E-02 0. -1.
       -1   -1    0    0    0  501  0.00000000000E+00  0.00000000000E+00 -0.65253865163E+03  0.65253865165E+03  0.50400001928E-02 0.  1.
    10030    2    1    2    0    0  0.00000000000E+00  0.00000000000E+00  0.12095890354E+04  0.25146663387E+04  0.22046408234E+04 0.  0.
        5    1    3    3  502    0  0.92608274569E+03  0.41393480255E+03  0.11271480491E+03  0.10206360712E+04  0.46999998093E+01 0.  1.
       -5    1    3    3    0  502 -0.92608274569E+03 -0.41393480255E+03  0.10968742305E+04  0.14940302675E+04  0.46999998093E+01 0. -1.
</event>
<event>
 5   0  0.1033733E-05  0.2256601E+04  0.7818609E-02  0.8495232E-01
        1   -1    0    0  501    0  0.00000000000E+00  0.00000000000E+00  0.10766348867E+04  0.10766348868E+04  0.50400001928E-02 0. -1.
       -1   -1    0    0    0  501  0.00000000000E+00  0.00000000000E+00 -0.11824457439E+04  0.11824457439E+04  0.50400001928E-02 0.  1.
    10030    2    1    2    0    0  0.00000000000E+00  0.00000000000E+00 -0.10581085719E+03  0.22590806307E+04  0.22566012848E+04 0.  0.
        5    1    3    3  502    0  0.27526108098E+03 -0.36417577905E+03  0.98004585183E+03  0.10811589256E+04  0.46999998093E+01 0. -1.
       -5    1    3    3    0  502 -0.27526108098E+03  0.36417577905E+03 -0.10858567090E+04  0.11779217051E+04  0.46999998093E+01 0.  1.
</event>
<event>
 5   0  0.1049198E-05  0.2205277E+04  0.7818609E-02  0.8516235E-01
        1   -1    0    0  501    0  0.00000000000E+00  0.00000000000E+00  0.13380217392E+04  0.13380217392E+04  0.50400001928E-02 0. -1.
       -1   -1    0    0    0  501  0.00000000000E+00  0.00000000000E+00 -0.90866359775E+03  0.90866359776E+03  0.50400001928E-02 0.  1.
    10030    2    1    2    0    0  0.00000000000E+00  0.00000000000E+00  0.42935814144E+03  0.22466853370E+04  0.22052769871E+04 0.  0.
        1    1    3    3  502    0  0.29444732857E+03 -0.10615910608E+04  0.26177299564E+03  0.11323426649E+04  0.50400001928E-02 0. -1.
       -1    1    3    3    0  502 -0.29444732857E+03  0.10615910608E+04  0.16758514580E+03  0.11143426720E+04  0.50400001928E-02 0.  1.
</event>
<event>
 5   0  0.1005538E-05  0.2204166E+04  0.7818609E-02  0.8516696E-01
       -1   -1    0    0    0  501  0.00000000000E+00  0.00000000000E+00  0.62496306638E+03  0.62496306640E+03  0.50400001928E-02 0. -1.
        1   -1    0    0  501    0  0.00000000000E+00  0.00000000000E+00 -0.19434537475E+04  0.19434537475E+04  0.50400001928E-02 0.  1.
    10030    2    1    2    0    0  0.00000000000E+00  0.00000000000E+00 -0.13184906811E+04  0.25684168139E+04  0.22041658862E+04 0.  0.
        3    1    3    3  502    0  0.11723297492E+03 -0.10776961302E+04 -0.89058391081E+03  0.14029655134E+04  0.10100000352E+00 0. -1.
       -3    1    3    3    0  502 -0.11723297492E+03  0.10776961302E+04 -0.42790677033E+03  0.11654513005E+04  0.10100000352E+00 0.  1.
</event>
<event>
 5   0  0.1005538E-05  0.2196662E+04  0.7818609E-02  0.8519819E-01
       -1   -1    0    0    0  501  0.00000000000E+00  0.00000000000E+00  0.71262825443E+03  0.71262825445E+03  0.50400001928E-02 0.  1.
        1   -1    0    0  501    0  0.00000000000E+00  0.00000000000E+00 -0.16927920747E+04  0.16927920747E+04  0.50400001928E-02 0. -1.
    10030    2    1    2    0    0  0.00000000000E+00  0.00000000000E+00 -0.98016382024E+03  0.24054203291E+04  0.21966624332E+04 0.  0.
        3    1    3    3  502    0 -0.77971008187E+03 -0.27880466623E+03  0.30005301152E+03  0.88074495378E+03  0.10100000352E+00 0.  1.
       -3    1    3    3    0  502  0.77971008187E+03  0.27880466623E+03 -0.12802168318E+04  0.15246753754E+04  0.10100000352E+00 0. -1.
</event>
<event>
 5   0  0.1071208E-05  0.2290868E+04  0.7818609E-02  0.8481530E-01
       -1   -1    0    0    0  501  0.00000000000E+00  0.00000000000E+00  0.10322066485E+04  0.10322066486E+04  0.50400001928E-02 0. -1.
        1   -1    0    0  501    0  0.00000000000E+00  0.00000000000E+00 -0.12710816048E+04  0.12710816048E+04  0.50400001928E-02 0.  1.
    10030    2    1    2    0    0  0.00000000000E+00  0.00000000000E+00 -0.23887495620E+03  0.23032882533E+04  0.22908678559E+04 0.  0.
        4    1    3    3  502    0 -0.49738868277E+03 -0.63830418155E+03  0.69563002035E+03  0.10671131468E+04  0.12699999809E+01 0. -1.
       -4    1    3    3    0  502  0.49738868277E+03  0.63830418155E+03 -0.93450497655E+03  0.12361751065E+04  0.12699999809E+01 0.  1.
</event>
<event>
 5   0  0.1005538E-05  0.2202341E+04  0.7818609E-02  0.8517455E-01
       -1   -1    0    0    0  501  0.00000000000E+00  0.00000000000E+00  0.53690212697E+03  0.53690212699E+03  0.50400001928E-02 0. -1.
        1   -1    0    0  501    0  0.00000000000E+00  0.00000000000E+00 -0.22584675659E+04  0.22584675659E+04  0.50400001928E-02 0.  1.
    10030    2    1    2    0    0  0.00000000000E+00  0.00000000000E+00 -0.17215654389E+04  0.27953696929E+04  0.22023406093E+04 0.  0.
        3    1    3    3  502    0 -0.16597327005E+02  0.42857452350E+03  0.42652740240E+03  0.60487786259E+03  0.10100000352E+00 0. -1.
       -3    1    3    3    0  502  0.16597327005E+02 -0.42857452350E+03 -0.21480928413E+04  0.21904918303E+04  0.10100000352E+00 0.  1.
</event>
<event>
 5   0  0.1049198E-05  0.2199749E+04  0.7818609E-02  0.8518533E-01
       -1   -1    0    0    0  501  0.00000000000E+00  0.00000000000E+00  0.71828872557E+03  0.71828872558E+03  0.50400001928E-02 0. -1.
        1   -1    0    0  501    0  0.00000000000E+00  0.00000000000E+00 -0.16841746403E+04  0.16841746403E+04  0.50400001928E-02 0.  1.
    10030    2    1    2    0    0  0.00000000000E+00  0.00000000000E+00 -0.96588591470E+03  0.24024633659E+04  0.21997487639E+04 0.  0.
        1    1    3    3  502    0  0.34380409633E+03  0.28524777936E+03  0.61474256915E+03  0.75991840262E+03  0.50400001928E-02 0. -1.
       -1    1    3    3    0  502 -0.34380409633E+03 -0.28524777936E+03 -0.15806284839E+04  0.16425449632E+04  0.50400001928E-02 0.  1.
</event>
<event>
 5   0  0.1033733E-05  0.2200183E+04  0.7818609E-02  0.8518352E-01
       -1   -1    0    0    0  501  0.00000000000E+00  0.00000000000E+00  0.58397269577E+03  0.58397269579E+03  0.50400001928E-02 0. -1.
        1   -1    0    0  501    0  0.00000000000E+00  0.00000000000E+00 -0.20723602861E+04  0.20723602861E+04  0.50400001928E-02 0.  1.
    10030    2    1    2    0    0  0.00000000000E+00  0.00000000000E+00 -0.14883875904E+04  0.26563329819E+04  0.22001834677E+04 0.  0.
        5    1    3    3  502    0  0.70708387388E+03  0.59471154333E+03 -0.23299074528E+02  0.92423717808E+03  0.46999998093E+01 0. -1.
       -5    1    3    3    0  502 -0.70708387388E+03 -0.59471154333E+03 -0.14650885158E+04  0.17320958038E+04  0.46999998093E+01 0.  1.
</event>
<event>
 5   0  0.2319707E-05  0.2199831E+04  0.7818609E-02  0.8518498E-01
        2   -1    0    0  501    0  0.00000000000E+00  0.00000000000E+00  0.77660114694E+03  0.77660114694E+03  0.25500000920E-02 0. -1.
       -2   -1    0    0    0  501  0.00000000000E+00  0.00000000000E+00 -0.15578322966E+04  0.15578322966E+04  0.25500000920E-02 0.  1.
    10030    2    1    2    0    0  0.00000000000E+00  0.00000000000E+00 -0.78123114971E+03  0.23344334436E+04  0.21998312193E+04 0.  0.
        3    1    3    3  502    0 -0.32475647372E+03 -0.35034607430E+03 -0.14419976300E+04  0.15190675805E+04  0.10100000352E+00 0.  1.
       -3    1    3    3    0  502  0.32475647372E+03  0.35034607430E+03  0.66076648029E+03  0.81536586309E+03  0.10100000352E+00 0. -1.
</event>
<event>
 5   0  0.2284329E-05  0.2199817E+04  0.7818609E-02  0.8518504E-01
        2   -1    0    0  501    0  0.00000000000E+00  0.00000000000E+00  0.70241286116E+03  0.70241286116E+03  0.25500000920E-02 0.  1.
       -2   -1    0    0    0  501  0.00000000000E+00  0.00000000000E+00 -0.17223470677E+04  0.17223470677E+04  0.25500000920E-02 0. -1.
    10030    2    1    2    0    0  0.00000000000E+00  0.00000000000E+00 -0.10199342065E+04  0.24247599289E+04  0.21998170212E+04 0.  0.
        2    1    3    3  502    0  0.57133305400E+02  0.68254779512E+03  0.43865342888E+03  0.81335880021E+03  0.25500000920E-02 0.  1.
       -2    1    3    3    0  502 -0.57133305400E+02 -0.68254779512E+03 -0.14585876354E+04  0.16114011286E+04  0.25500000920E-02 0. -1.
</event>
<event>
 5   0  0.1033733E-05  0.2203335E+04  0.7818609E-02  0.8517041E-01
       -1   -1    0    0    0  501  0.00000000000E+00  0.00000000000E+00  0.56902295622E+03  0.56902295624E+03  0.50400001928E-02 0. -1.
        1   -1    0    0  501    0  0.00000000000E+00  0.00000000000E+00 -0.21329039192E+04  0.21329039192E+04  0.50400001928E-02 0.  1.
    10030    2    1    2    0    0  0.00000000000E+00  0.00000000000E+00 -0.15638809630E+04  0.27019268754E+04  0.22033350117E+04 0.  0.
        5    1    3    3  502    0 -0.73561756319E+03  0.81270899325E+03 -0.91638621730E+03  0.14287809126E+04  0.46999998093E+01 0. -1.
       -5    1    3    3    0  502  0.73561756319E+03 -0.81270899325E+03 -0.64749474567E+03  0.12731459628E+04  0.46999998093E+01 0.  1.
</event>
<event>
 5   0  0.2319707E-05  0.2200764E+04  0.7818609E-02  0.8518110E-01
       -2   -1    0    0    0  501  0.00000000000E+00  0.00000000000E+00  0.74359655586E+03  0.74359655586E+03  0.25500000920E-02 0.  1.
        2   -1    0    0  501    0  0.00000000000E+00  0.00000000000E+00 -0.16283561854E+04  0.16283561854E+04  0.25500000920E-02 0. -1.
    10030    2    1    2    0    0  0.00000000000E+00  0.00000000000E+00 -0.88475962954E+03  0.23719527413E+04  0.22007635504E+04 0.  0.
        3    1    3    3  502    0  0.88119648720E+03 -0.65067214712E+03 -0.55520580980E+03  0.12280614779E+04  0.10100000352E+00 0.  1.
       -3    1    3    3    0  502 -0.88119648720E+03  0.65067214712E+03 -0.32955381975E+03  0.11438912634E+04  0.10100000352E+00 0. -1.
</event>
<event>
 5   0  0.2229552E-05  0.2194540E+04  0.7818609E-02  0.8520704E-01
       -2   -1    0    0    0  501  0.00000000000E+00  0.00000000000E+00  0.88104378716E+03  0.88104378717E+03  0.25500000920E-02 0.  1.
        2   -1    0    0  501    0  0.00000000000E+00  0.00000000000E+00 -0.13665627868E+04  0.13665627868E+04  0.25500000920E-02 0. -1.
    10030    2    1    2    0    0  0.00000000000E+00  0.00000000000E+00 -0.48551899964E+03  0.22476065740E+04  0.21945401824E+04 0.  0.
        1    1    3    3  502    0  0.50761345862E+03 -0.83181852611E+03  0.27382608465E+03  0.10122125312E+04  0.50400001928E-02 0.  1.
       -1    1    3    3    0  502 -0.50761345862E+03  0.83181852611E+03 -0.75934508429E+03  0.12353940427E+04  0.50400001928E-02 0. -1.
</event>
<event>
 5   0  0.2298329E-05  0.2198876E+04  0.7818609E-02  0.8518896E-01
        2   -1    0    0  501    0  0.00000000000E+00  0.00000000000E+00  0.15796048284E+04  0.15796048284E+04  0.25500000920E-02 0.  1.
       -2   -1    0    0    0  501  0.00000000000E+00  0.00000000000E+00 -0.76523153461E+03  0.76523153462E+03  0.25500000920E-02 0. -1.
    10030    2    1    2    0    0  0.00000000000E+00  0.00000000000E+00  0.81437329375E+03  0.23448363630E+04  0.21988755553E+04 0.  0.
        4    1    3    3  502    0  0.49728549480E+02 -0.45119237077E+03 -0.66063937473E+03  0.80155691028E+03  0.12699999809E+01 0. -1.
       -4    1    3    3    0  502 -0.49728549480E+02  0.45119237077E+03  0.14750126685E+04  0.15432794527E+04  0.12699999809E+01 0.  1.
</event>
<event>
 5   0  0.2284329E-05  0.2200058E+04  0.7818609E-02  0.8518404E-01
       -2   -1    0    0    0  501  0.00000000000E+00  0.00000000000E+00  0.44860142771E+03  0.44860142772E+03  0.25500000920E-02 0. -1.
        2   -1    0    0  501    0  0.00000000000E+00  0.00000000000E+00 -0.26974140544E+04  0.26974140544E+04  0.25500000920E-02 0.  1.
    10030    2    1    2    0    0  0.00000000000E+00  0.00000000000E+00 -0.22488126267E+04  0.31460154821E+04  0.22000579955E+04 0.  0.
        2    1    3    3  502    0 -0.60131778811E+03 -0.87834472388E+03 -0.72762844603E+03  0.12893857808E+04  0.25500000920E-02 0. -1.
       -2    1    3    3    0  502  0.60131778811E+03  0.87834472388E+03 -0.15211841806E+04  0.18566297013E+04  0.25500000920E-02 0.  1.
</event>
<event>
 5   0  0.1033733E-05  0.2196256E+04  0.7818609E-02  0.8519988E-01
       -1   -1    0    0    0  501  0.00000000000E+00  0.00000000000E+00  0.98135671389E+03  0.98135671391E+03  0.50400001928E-02 0. -1.
        1   -1    0    0  501    0  0.00000000000E+00  0.00000000000E+00 -0.12287939321E+04  0.12287939321E+04  0.50400001928E-02 0.  1.
    10030    2    1    2    0    0  0.00000000000E+00  0.00000000000E+00 -0.24743721819E+03  0.22101506460E+04  0.21962560645E+04 0.  0.
        5    1    3    3  502    0 -0.59691788860E+03  0.73273653446E+02 -0.10483257164E+04  0.12085896291E+04  0.46999998093E+01 0.  1.
       -5    1    3    3    0  502  0.59691788860E+03 -0.73273653446E+02  0.80088849818E+03  0.10015610169E+04  0.46999998093E+01 0. -1.
</event>
<event>
 5   0  0.2284329E-05  0.2200389E+04  0.7818609E-02  0.8518266E-01
        2   -1    0    0  501    0  0.00000000000E+00  0.00000000000E+00  0.99073919327E+03  0.99073919327E+03  0.25500000920E-02 0.  1.
       -2   -1    0    0    0  501  0.00000000000E+00  0.00000000000E+00 -0.12217420669E+04  0.12217420669E+04  0.25500000920E-02 0. -1.
    10030    2    1    2    0    0  0.00000000000E+00  0.00000000000E+00 -0.23100287367E+03  0.22124812602E+04  0.22003888291E+04 0.  0.
        2    1    3    3  502    0  0.62999713031E+03 -0.79839867333E+03  0.30643657837E+03  0.10621865196E+04  0.25500000920E-02 0. -1.
       -2    1    3    3    0  502 -0.62999713031E+03  0.79839867333E+03 -0.53743945204E+03  0.11502947407E+04  0.25500000920E-02 0.  1.
</event>
<event>
 5   0  0.1033733E-05  0.2171143E+04  0.7818609E-02  0.8530536E-01
       -1   -1    0    0    0  501  0.00000000000E+00  0.00000000000E+00  0.56969946930E+03  0.56969946932E+03  0.50400001928E-02 0. -1.
        1   -1    0    0  501    0  0.00000000000E+00  0.00000000000E+00 -0.20685737203E+04  0.20685737204E+04  0.50400001928E-02 0.  1.
    10030    2    1    2    0    0  0.00000000000E+00  0.00000000000E+00 -0.14988742510E+04  0.26382731897E+04  0.21711428794E+04 0.  0.
        5    1    3    3  502    0 -0.73737568241E+03 -0.73712166385E+03 -0.38212271747E+03  0.11104553595E+04  0.46999998093E+01 0. -1.
       -5    1    3    3    0  502  0.73737568241E+03  0.73712166385E+03 -0.11167515336E+04  0.15278178301E+04  0.46999998093E+01 0.  1.
</event>
<event>
 5   0  0.1071208E-05  0.2195693E+04  0.7818609E-02  0.8520223E-01
        1   -1    0    0  501    0  0.00000000000E+00  0.00000000000E+00  0.29536542485E+04  0.29536542485E+04  0.50400001928E-02 0. -1.
       -1   -1    0    0    0  501  0.00000000000E+00  0.00000000000E+00 -0.40805951823E+03  0.40805951826E+03  0.50400001928E-02 0.  1.
    10030    2    1    2    0    0  0.00000000000E+00  0.00000000000E+00  0.25455947303E+04  0.33617137668E+04  0.21956928107E+04 0.  0.
        4    1    3    3  502    0 -0.23252823179E+03  0.65070144844E+03  0.25789388233E+04  0.26699080173E+04  0.12699999809E+01 0. -1.
       -4    1    3    3    0  502  0.23252823179E+03 -0.65070144844E+03 -0.33344093015E+02  0.69180574949E+03  0.12699999809E+01 0.  1.
</event>
<event>
 5   0  0.1007682E-05  0.2218940E+04  0.7818609E-02  0.8510586E-01
        1   -1    0    0  501    0  0.00000000000E+00  0.00000000000E+00  0.26466927197E+04  0.26466927197E+04  0.50400001928E-02 0. -1.
       -1   -1    0    0    0  501  0.00000000000E+00  0.00000000000E+00 -0.46508011736E+03  0.46508011738E+03  0.50400001928E-02 0.  1.
    10030    2    1    2    0    0  0.00000000000E+00  0.00000000000E+00  0.21816126023E+04  0.31117728371E+04  0.22189404325E+04 0.  0.
        2    1    3    3  502    0 -0.97514061874E+02  0.97241375616E+03  0.35429340046E+03  0.10395293738E+04  0.25500000920E-02 0.  1.
       -2    1    3    3    0  502  0.97514061874E+02 -0.97241375616E+03  0.18273192019E+04  0.20722434633E+04  0.25500000920E-02 0. -1.
</event>
<event>
 5   0  0.1071208E-05  0.2206849E+04  0.7818609E-02  0.8515583E-01
       -1   -1    0    0    0  501  0.00000000000E+00  0.00000000000E+00  0.13754021115E+04  0.13754021115E+04  0.50400001928E-02 0.  1.
        1   -1    0    0  501    0  0.00000000000E+00  0.00000000000E+00 -0.88522890560E+03  0.88522890561E+03  0.50400001928E-02 0. -1.
    10030    2    1    2    0    0  0.00000000000E+00  0.00000000000E+00  0.49017320586E+03  0.22606310171E+04  0.22068490713E+04 0.  0.
        4    1    3    3  502    0  0.72470332484E+03 -0.57634609175E+03 -0.36968450673E+03  0.99701453044E+03  0.12699999809E+01 0. -1.
       -4    1    3    3    0  502 -0.72470332484E+03  0.57634609175E+03  0.85985771258E+03  0.12636164866E+04  0.12699999809E+01 0.  1.
</event>
<event>
 5   0  0.2229552E-05  0.2203880E+04  0.7818609E-02  0.8516815E-01
       -2   -1    0    0    0  501  0.00000000000E+00  0.00000000000E+00  0.72609301212E+03  0.72609301213E+03  0.25500000920E-02 0. -1.
        2   -1    0    0  501    0  0.00000000000E+00  0.00000000000E+00 -0.16723358071E+04  0.16723358071E+04  0.25500000920E-02 0.  1.
    10030    2    1    2    0    0  0.00000000000E+00  0.00000000000E+00 -0.94624279496E+03  0.23984288192E+04  0.22038796187E+04 0.  0.
        1    1    3    3  502    0 -0.55298150716E+03  0.50319365668E+03  0.40783024695E+03  0.85165598320E+03  0.50400001928E-02 0. -1.
       -1    1    3    3    0  502  0.55298150716E+03 -0.50319365668E+03 -0.13540730419E+04  0.15467728360E+04  0.50400001928E-02 0.  1.
</event>
<event>
 5   0  0.2298329E-05  0.2148574E+04  0.7818609E-02  0.8540143E-01
        2   -1    0    0  501    0  0.00000000000E+00  0.00000000000E+00  0.21274088875E+04  0.21274088875E+04  0.25500000920E-02 0. -1.
       -2   -1    0    0    0  501  0.00000000000E+00  0.00000000000E+00 -0.54248761443E+03  0.54248761444E+03  0.25500000920E-02 0.  1.
    10030    2    1    2    0    0  0.00000000000E+00  0.00000000000E+00  0.15849212731E+04  0.26698965020E+04  0.21485743853E+04 0.  0.
        4    1    3    3  502    0  0.98867107757E+03  0.62406767327E+02  0.27601666634E+03  0.10283734328E+04  0.12699999809E+01 0.  1.
       -4    1    3    3    0  502 -0.98867107757E+03 -0.62406767327E+02  0.13089046068E+04  0.16415230692E+04  0.12699999809E+01 0. -1.
</event>
<event>
 5   0  0.1005538E-05  0.2204091E+04  0.7818609E-02  0.8516727E-01
       -1   -1    0    0    0  501  0.00000000000E+00  0.00000000000E+00  0.69582165759E+03  0.69582165761E+03  0.50400001928E-02 0. -1.
        1   -1    0    0  501    0  0.00000000000E+00  0.00000000000E+00 -0.17454245734E+04  0.17454245734E+04  0.50400001928E-02 0.  1.
    10030    2    1    2    0    0  0.00000000000E+00  0.00000000000E+00 -0.10496029158E+04  0.24412462310E+04  0.22040909418E+04 0.  0.
        3    1    3    3  502    0 -0.83267907872E+03 -0.71968334290E+03 -0.46209100208E+03  0.11936610351E+04  0.10100000352E+00 0. -1.
       -3    1    3    3    0  502  0.83267907872E+03  0.71968334290E+03 -0.58751191370E+03  0.12475851959E+04  0.10100000352E+00 0.  1.
</event>
<event>
 5   0  0.2319707E-05  0.2184708E+04  0.7818609E-02  0.8524820E-01
        2   -1    0    0  501    0  0.00000000000E+00  0.00000000000E+00  0.11567909093E+04  0.11567909093E+04  0.25500000920E-02 0.  1.
       -2   -1    0    0    0  501  0.00000000000E+00  0.00000000000E+00 -0.10315060358E+04  0.10315060358E+04  0.25500000920E-02 0. -1.
    10030    2    1    2    0    0  0.00000000000E+00  0.00000000000E+00  0.12528487354E+03  0.21882969451E+04  0.21847075823E+04 0.  0.
        3    1    3    3  502    0 -0.15595209354E+03 -0.90228746152E+03 -0.53398127008E+03  0.10599904366E+04  0.10100000352E+00 0.  1.
       -3    1    3    3    0  502  0.15595209354E+03  0.90228746152E+03  0.65926614362E+03  0.11283065085E+04  0.10100000352E+00 0. -1.
</event>
<event>
 5   0  0.1005538E-05  0.2199375E+04  0.7818609E-02  0.8518688E-01
        1   -1    0    0  501    0  0.00000000000E+00  0.00000000000E+00  0.11115655888E+04  0.11115655888E+04  0.50400001928E-02 0. -1.
       -1   -1    0    0    0  501  0.00000000000E+00  0.00000000000E+00 -0.10879362357E+04  0.10879362357E+04  0.50400001928E-02 0.  1.
    10030    2    1    2    0    0  0.00000000000E+00  0.00000000000E+00  0.23629353065E+02  0.21995018245E+04  0.21993748952E+04 0.  0.
        3    1    3    3  502    0 -0.38159497575E+03  0.35883961572E+03 -0.95515987988E+03  0.10893626585E+04  0.10100000352E+00 0.  1.
       -3    1    3    3    0  502  0.38159497575E+03 -0.35883961572E+03  0.97878923295E+03  0.11101391661E+04  0.10100000352E+00 0. -1.
</event>
<event>
 5   0  0.1007682E-05  0.2199614E+04  0.7818609E-02  0.8518589E-01
        1   -1    0    0  501    0  0.00000000000E+00  0.00000000000E+00  0.11674415787E+04  0.11674415787E+04  0.50400001928E-02 0.  1.
       -1   -1    0    0    0  501  0.00000000000E+00  0.00000000000E+00 -0.10360903715E+04  0.10360903715E+04  0.50400001928E-02 0. -1.
    10030    2    1    2    0    0  0.00000000000E+00  0.00000000000E+00  0.13135120724E+03  0.22035319502E+04  0.21996135833E+04 0.  0.
        2    1    3    3  502    0  0.38174133978E+03  0.40489049811E+01 -0.96758414490E+03  0.10401739862E+04  0.25500000920E-02 0. -1.
       -2    1    3    3    0  502 -0.38174133978E+03 -0.40489049811E+01  0.10989353521E+04  0.11633579640E+04  0.25500000920E-02 0.  1.
</event>
<event>
 5   0  0.2284329E-05  0.2202004E+04  0.7818609E-02  0.8517594E-01
       -2   -1    0    0    0  501  0.00000000000E+00  0.00000000000E+00  0.88448403571E+03  0.88448403572E+03  0.25500000920E-02 0.  1.
        2   -1    0    0  501    0  0.00000000000E+00  0.00000000000E+00 -0.13705232600E+04  0.13705232600E+04  0.25500000920E-02 0. -1.
    10030    2    1    2    0    0  0.00000000000E+00  0.00000000000E+00 -0.48603922431E+03  0.22550072957E+04  0.22020044905E+04 0.  0.
        2    1    3    3  502    0  0.38281473667E+03 -0.74728883450E+03  0.48631558626E+03  0.97030437195E+03  0.25500000920E-02 0.  1.
       -2    1    3    3    0  502 -0.38281473667E+03  0.74728883450E+03 -0.97235481057E+03  0.12847029238E+04  0.25500000920E-02 0. -1.
</event>
<event>
 5   0  0.1033733E-05  0.2222285E+04  0.7818609E-02  0.8509209E-01
       -1   -1    0    0    0  501  0.00000000000E+00  0.00000000000E+00  0.14121532866E+04  0.14121532866E+04  0.50400001928E-02 0. -1.
        1   -1    0    0  501    0  0.00000000000E+00  0.00000000000E+00 -0.87429434176E+03  0.87429434177E+03  0.50400001928E-02 0.  1.
    10030    2    1    2    0    0  0.00000000000E+00  0.00000000000E+00  0.53785894486E+03  0.22864476284E+04  0.22222849756E+04 0.  0.
        5    1    3    3  502    0 -0.35730809996E+03  0.51978662479E+03 -0.67223196433E+03  0.92182705399E+03  0.46999998093E+01 0.  1.
       -5    1    3    3    0  502  0.35730809996E+03 -0.51978662479E+03  0.12100909092E+04  0.13646205744E+04  0.46999998093E+01 0. -1.
</event>
<event>
 5   0  0.1049198E-05  0.2183716E+04  0.7818609E-02  0.8525237E-01
        1   -1    0    0  501    0  0.00000000000E+00  0.00000000000E+00  0.15359205515E+04  0.15359205515E+04  0.50400001928E-02 0.  1.
       -1   -1    0    0    0  501  0.00000000000E+00  0.00000000000E+00 -0.77618166986E+03  0.77618166987E+03  0.50400001928E-02 0. -1.
    10030    2    1    2    0    0  0.00000000000E+00  0.00000000000E+00  0.75973888162E+03  0.23121022214E+04  0.21837155295E+04 0.  0.
        1    1    3    3  502    0 -0.43872468967E+03 -0.58474640322E+03  0.12385664829E+04  0.14382123077E+04  0.50400001928E-02 0.  1.
       -1    1    3    3    0  502  0.43872468967E+03  0.58474640322E+03 -0.47882760130E+03  0.87388991366E+03  0.50400001928E-02 0. -1.
</event>
<event>
 5   0  0.2298329E-05  0.2197242E+04  0.7818609E-02  0.8519577E-01
        2   -1    0    0  501    0  0.00000000000E+00  0.00000000000E+00  0.92286977144E+03  0.92286977145E+03  0.25500000920E-02 0. -1.
       -2   -1    0    0    0  501  0.00000000000E+00  0.00000000000E+00 -0.13078419903E+04  0.13078419903E+04  0.25500000920E-02 0.  1.
    10030    2    1    2    0    0  0.00000000000E+00  0.00000000000E+00 -0.38497221882E+03  0.22307117617E+04  0.21972417606E+04 0.  0.
        4    1    3    3  502    0 -0.83475688717E+03 -0.67903712150E+03 -0.41734526966E+03  0.11541616698E+04  0.12699999809E+01 0.  1.
       -4    1    3    3    0  502  0.83475688717E+03  0.67903712150E+03  0.32373050837E+02  0.10765500919E+04  0.12699999809E+01 0. -1.
</event>
<event>
 5   0  0.1049198E-05  0.2239268E+04  0.7818609E-02  0.8502259E-01
       -1   -1    0    0    0  501  0.00000000000E+00  0.00000000000E+00  0.10537646555E+04  0.10537646555E+04  0.50400001928E-02 0. -1.
        1   -1    0    0  501    0  0.00000000000E+00  0.00000000000E+00 -0.11896205350E+04  0.11896205350E+04  0.50400001928E-02 0.  1.
    10030    2    1    2    0    0  0.00000000000E+00  0.00000000000E+00 -0.13585587948E+03  0.22433851905E+04  0.22392678028E+04 0.  0.
        1    1    3    3  502    0  0.10762557604E+04  0.30821599167E+03 -0.83973436154E+02  0.11226642853E+04  0.50400001928E-02 0.  1.
       -1    1    3    3    0  502 -0.10762557604E+04 -0.30821599167E+03 -0.51882443321E+02  0.11207209052E+04  0.50400001928E-02 0. -1.
</event>
<event>
 5   0  0.2298329E-05  0.2192866E+04  0.7818609E-02  0.8521403E-01
        2   -1    0    0  501    0  0.00000000000E+00  0.00000000000E+00  0.16291210479E+04  0.16291210479E+04  0.25500000920E-02 0.  1.
       -2   -1    0    0    0  501  0.00000000000E+00  0.00000000000E+00 -0.73792296376E+03  0.73792296377E+03  0.25500000920E-02 0. -1.
    10030    2    1    2    0    0  0.00000000000E+00  0.00000000000E+00  0.89119808411E+03  0.23670440116E+04  0.21928664638E+04 0.  0.
        4    1    3    3  502    0 -0.28932030189E+03 -0.10557978433E+04  0.51169057787E+03  0.12084056370E+04  0.12699999809E+01 0.  1.
       -4    1    3    3    0  502  0.28932030189E+03  0.10557978433E+04  0.37950750624E+03  0.11586383747E+04  0.12699999809E+01 0. -1.
</event>
<event>
 5   0  0.2289708E-05  0.2176075E+04  0.7818609E-02  0.8528453E-01
       -2   -1    0    0    0  501  0.00000000000E+00  0.00000000000E+00  0.42565626106E+03  0.42565626107E+03  0.25500000920E-02 0. -1.
        2   -1    0    0  501    0  0.00000000000E+00  0.00000000000E+00 -0.27811764730E+04  0.27811764730E+04  0.25500000920E-02 0.  1.
    10030    2    1    2    0    0  0.00000000000E+00  0.00000000000E+00 -0.23555202119E+04  0.32068327340E+04  0.21760746116E+04 0.  0.
        5    1    3    3  502    0  0.67791701284E+03 -0.79741822028E+03 -0.16158064341E+04  0.19251752691E+04  0.46999998093E+01 0.  1.
       -5    1    3    3    0  502 -0.67791701284E+03  0.79741822028E+03 -0.73971377780E+03  0.12816574649E+04  0.46999998093E+01 0. -1.
</event>
<event>
 5   0  0.1071208E-05  0.2165826E+04  0.7818609E-02  0.8532788E-01
        1   -1    0    0  501    0  0.00000000000E+00  0.00000000000E+00  0.12662482309E+04  0.12662482309E+04  0.50400001928E-02 0. -1.
       -1   -1    0    0    0  501  0.00000000000E+00  0.00000000000E+00 -0.92612190338E+03  0.92612190339E+03  0.50400001928E-02 0.  1.
    10030    2    1    2    0    0  0.00000000000E+00  0.00000000000E+00  0.34012632756E+03  0.21923701343E+04  0.21658256826E+04 0.  0.
        4    1    3    3  502    0 -0.10212727675E+04 -0.36008810329E+03  0.16389744578E+03  0.10952285120E+04  0.12699999809E+01 0. -1.
       -4    1    3    3    0  502  0.10212727675E+04  0.36008810329E+03  0.17622888178E+03  0.10971416224E+04  0.12699999809E+01 0.  1.
</event>
<event>
 5   0  0.2289708E-05  0.2167890E+04  0.7818609E-02  0.8531913E-01
        2   -1    0    0  501    0  0.00000000000E+00  0.00000000000E+00  0.12906469183E+04  0.12906469183E+04  0.25500000920E-02 0.  1.
       -2   -1    0    0    0  501  0.00000000000E+00  0.00000000000E+00 -0.91034674894E+03  0.91034674895E+03  0.25500000920E-02 0. -1.
    10030    2    1    2    0    0  0.00000000000E+00  0.00000000000E+00  0.38030016938E+03  0.22009936673E+04  0.21678895047E+04 0.  0.
        5    1    3    3  502    0  0.24128396028E+03  0.50202403120E+02 -0.88151364258E+03  0.91532869660E+03  0.46999998093E+01 0. -1.
       -5    1    3    3    0  502 -0.24128396028E+03 -0.50202403120E+02  0.12618138120E+04  0.12856649707E+04  0.46999998093E+01 0.  1.
</event>
<event>
 5   0  0.1007682E-05  0.2206315E+04  0.7818609E-02  0.8515804E-01
        1   -1    0    0  501    0  0.00000000000E+00  0.00000000000E+00  0.22219848725E+04  0.22219848725E+04  0.50400001928E-02 0. -1.
       -1   -1    0    0    0  501  0.00000000000E+00  0.00000000000E+00 -0.54768875859E+03  0.54768875861E+03  0.50400001928E-02 0.  1.
    10030    2    1    2    0    0  0.00000000000E+00  0.00000000000E+00  0.16742961139E+04  0.27696736311E+04  0.22063146978E+04 0.  0.
        2    1    3    3  502    0  0.21568702289E+03  0.48779982089E+03  0.20493708151E+04  0.21176379046E+04  0.25500000920E-02 0. -1.
       -2    1    3    3    0  502 -0.21568702289E+03 -0.48779982089E+03 -0.37507470124E+03  0.65203572649E+03  0.25500000920E-02 0.  1.
</event>
<event>
 5   0  0.2284329E-05  0.2204266E+04  0.7818609E-02  0.8516655E-01
       -2   -1    0    0    0  501  0.00000000000E+00  0.00000000000E+00  0.12893308294E+04  0.12893308294E+04  0.25500000920E-02 0.  1.
        2   -1    0    0  501    0  0.00000000000E+00  0.00000000000E+00 -0.94211446530E+03  0.94211446531E+03  0.25500000920E-02 0. -1.
    10030    2    1    2    0    0  0.00000000000E+00  0.00000000000E+00  0.34721636406E+03  0.22314452947E+04  0.22042660683E+04 0.  0.
        2    1    3    3  502    0  0.42266009098E+03  0.87659642366E+03  0.69732097384E+03  0.11972131736E+04  0.25500000920E-02 0.  1.
       -2    1    3    3    0  502 -0.42266009098E+03 -0.87659642366E+03 -0.35010460978E+03  0.10342321211E+04  0.25500000920E-02 0. -1.
</event>
<event>
 5   0  0.1033733E-05  0.2085585E+04  0.7818609E-02  0.8567620E-01
       -1   -1    0    0    0  501  0.00000000000E+00  0.00000000000E+00  0.74370660050E+03  0.74370660052E+03  0.50400001928E-02 0. -1.
        1   -1    0    0  501    0  0.00000000000E+00  0.00000000000E+00 -0.14621573471E+04  0.14621573471E+04  0.50400001928E-02 0.  1.
    10030    2    1    2    0    0  0.00000000000E+00  0.00000000000E+00 -0.71845074660E+03  0.22058639476E+04  0.20855848772E+04 0.  0.
        5    1    3    3  502    0 -0.24005716223E+03 -0.80698090177E+03  0.29152067561E+03  0.89098373232E+03  0.46999998093E+01 0. -1.
       -5    1    3    3    0  502  0.24005716223E+03  0.80698090177E+03 -0.10099714222E+04  0.13148802153E+04  0.46999998093E+01 0.  1.
</event>
</LesHouchesEvents>
