<LesHouchesEvents version="3.0">
<header>
<!--
#*********************************************************************
#                                                                    *
#                        MadGraph5_aMC@NLO                           *
#                                                                    *
#                           Going Beyond                             *
#                                                                    *
#                   http://madgraph.hep.uiuc.edu                     *
#                   http://madgraph.phys.ucl.ac.be                   *
#                   http://amcatnlo.cern.ch                          *
#                                                                    *
#                     The MadGraph5_aMC@NLO team                     *
#                                                                    *
#....................................................................*
#                                                                    *
# This file contains all the information necessary to reproduce      *
# the events generated:                                              *
#                                                                    *
# 1. software version                                                *
# 2. proc_card          : code generation info including model       *
# 3. param_card         : model primary parameters in the LH format  *
# 4. run_card           : running parameters (collider and cuts)     *
# 5. pythia_card        : present only if pythia has been run        *
# 6. pgs_card           : present only if pgs has been run           *
# 7. delphes_cards      : present only if delphes has been run       *
#                                                                    *
#                                                                    *
#*********************************************************************
-->
<MGVersion>
#5.2.2.3
</MGVersion>
<MG5ProcCard>
#************************************************************
#*                     MadGraph5_aMC@NLO                    *
#*                                                          *
#*                *                       *                 *
#*                  *        * *        *                   *
#*                    * * * * 5 * * * *                     *
#*                  *        * *        *                   *
#*                *                       *                 *
#*                                                          *
#*                                                          *
#*         VERSION 2.2.3                 2015-02-10         *
#*                                                          *
#*    The MadGraph5_aMC@NLO Development Team - Find us at   *
#*    https://server06.fynu.ucl.ac.be/projects/madgraph     *
#*                                                          *
#************************************************************
#*                                                          *
#*               Command File for MadGraph5_aMC@NLO         *
#*                                                          *
#*     run as ./bin/mg5_aMC  filename                       *
#*                                                          *
#************************************************************
set group_subprocesses Auto
set ignore_six_quark_processes False
set loop_optimized_output True
set gauge unitary
set complex_mass_scheme False
import model sm
define p = g u c d s u~ c~ d~ s~
define j = g u c d s u~ c~ d~ s~
define l+ = e+ mu+
define l- = e- mu-
define vl = ve vm vt
define vl~ = ve~ vm~ vt~
import model Zprime_UFO
generate p p > zph, zph > j j
add process p p > zph, zph > b b~
output Dijet_signal
</MG5ProcCard>
<MGProcCard>
#*********************************************************************
#                        MadGraph/MadEvent                           *
#                   http://madgraph.hep.uiuc.edu                     *
#                                                                    *
#                          proc_card.dat                             *
#*********************************************************************
#                                                                    *
#            This Files is generated by MADGRAPH 5                   *
#                                                                    *
# WARNING: This Files is generated for MADEVENT (compatibility issue)*
#          This files is NOT a valid MG4 proc_card.dat               *
#          Running this in MG4 will NEVER reproduce the result of MG5*
#                                                                    *
#*********************************************************************
#*********************************************************************
# Process(es) requested : mg2 input                                  *
#*********************************************************************
# Begin PROCESS # This is TAG. Do not modify this line
p p > zph , zph > j j           #Process
# Be carefull the coupling are here in MG5 convention
          
end_coup           # End the couplings input

done               # this tells MG there are no more procs
# End PROCESS  # This is TAG. Do not modify this line
#*********************************************************************
# Model information                                                  *
#*********************************************************************
# Begin MODEL  # This is TAG. Do not modify this line
Zprime_UFO
# End   MODEL  # This is TAG. Do not modify this line
#*********************************************************************
# Start multiparticle definitions                                    *
#*********************************************************************
# Begin MULTIPARTICLES # This is TAG. Do not modify this line

# End  MULTIPARTICLES # This is TAG. Do not modify this line
</MGProcCard>
<MGRunCard>
#*********************************************************************
#                       MadGraph5_aMC@NLO                            *
#                                                                    *
#                     run_card.dat MadEvent                          *
#                                                                    *
#  This file is used to set the parameters of the run.               *
#                                                                    *
#  Some notation/conventions:                                        *
#                                                                    *
#   Lines starting with a '# ' are info or comments                  *
#                                                                    *
#   mind the format:   value    = variable     ! comment             *
#*********************************************************************
#
#*******************                                                 
# Running parameters
#*******************                                                 
#                                                                    
#*********************************************************************
# Tag name for the run (one word)                                    *
#*********************************************************************
  tag_1     = run_tag ! name of the run 
#*********************************************************************
# Run to generate the grid pack                                      *
#*********************************************************************
  .false.     = gridpack  !True = setting up the grid pack
#*********************************************************************
# Number of events and rnd seed                                      *
# Warning: Do not generate more than 1M events in a single run       *
# If you want to run Pythia, avoid more than 50k events in a run.    *
#*********************************************************************
  2000 = nevents ! Number of unweighted events requested 
 1443 = iseed   ! rnd seed (0=assigned automatically=default))
#*********************************************************************
# Collider type and energy                                           *
# lpp: 0=No PDF, 1=proton, -1=antiproton, 2=photon from proton,      *
#                                         3=photon from electron     *
#*********************************************************************
        1     = lpp1    ! beam 1 type 
        1     = lpp2    ! beam 2 type
     4000     = ebeam1  ! beam 1 total energy in GeV
     4000     = ebeam2  ! beam 2 total energy in GeV
#*********************************************************************
# Beam polarization from -100 (left-handed) to 100 (right-handed)    *
#*********************************************************************
        0     = polbeam1 ! beam polarization for beam 1
        0     = polbeam2 ! beam polarization for beam 2
#*********************************************************************
# PDF CHOICE: this automatically fixes also alpha_s and its evol.    *
#*********************************************************************
 'nn23lo1'    = pdlabel     ! PDF set                                     
 230000    = lhaid     ! if pdlabel=lhapdf, this is the lhapdf number
#*********************************************************************
# Renormalization and factorization scales                           *
#*********************************************************************
 F        = fixed_ren_scale  ! if .true. use fixed ren scale
 F        = fixed_fac_scale  ! if .true. use fixed fac scale
 91.1880  = scale            ! fixed ren scale
 91.1880  = dsqrt_q2fact1    ! fixed fact scale for pdf1
 91.1880  = dsqrt_q2fact2    ! fixed fact scale for pdf2
 1        = scalefact        ! scale factor for event-by-event scales
#*********************************************************************
# Matching - Warning! ickkw > 1 is still beta
#*********************************************************************
 0        = ickkw            ! 0 no matching, 1 MLM, 2 CKKW matching
 1        = highestmult      ! for ickkw=2, highest mult group
 1        = ktscheme         ! for ickkw=1, 1 Durham kT, 2 Pythia pTE
 1        = alpsfact         ! scale factor for QCD emission vx
 F        = chcluster        ! cluster only according to channel diag
 T        = pdfwgt           ! for ickkw=1, perform pdf reweighting
 5        = asrwgtflavor     ! highest quark flavor for a_s reweight
 T        = clusinfo         ! include clustering tag in output
 3.0      = lhe_version       ! Change the way clustering information pass to shower.        
#*********************************************************************
#**********************************************************
#
#**********************************************************
# Automatic ptj and mjj cuts if xqcut > 0
# (turn off for VBF and single top processes)
#**********************************************************
   T  = auto_ptj_mjj  ! Automatic setting of ptj and mjj
#**********************************************************
#                                                                    
#**********************************
# BW cutoff (M+/-bwcutoff*Gamma)
#**********************************
  15  = bwcutoff      ! (M+/-bwcutoff*Gamma)
#**********************************************************
# Apply pt/E/eta/dr/mij cuts on decay products or not
# (note that etmiss/ptll/ptheavy/ht/sorted cuts always apply)
#**********************************************************
   T  = cut_decays    ! Cut decay products 
#*************************************************************
# Number of helicities to sum per event (0 = all helicities)
# 0 gives more stable result, but longer run time (needed for
# long decay chains e.g.).
# Use >=2 if most helicities contribute, e.g. pure QCD.
#*************************************************************
   0  = nhel          ! Number of helicities used per event
#*******************                                                 
# Standard Cuts
#*******************                                                 
#                                                                    
#*********************************************************************
# Minimum and maximum pt's (for max, -1 means no cut)                *
#*********************************************************************
 20  = ptj       ! minimum pt for the jets 
  0  = ptb       ! minimum pt for the b 
 10  = pta       ! minimum pt for the photons 
 10  = ptl       ! minimum pt for the charged leptons 
  0  = misset    ! minimum missing Et (sum of neutrino's momenta)
  0  = ptheavy   ! minimum pt for one heavy final state
 1.0 = ptonium   ! minimum pt for the quarkonium states
 -1  = ptjmax    ! maximum pt for the jets
 -1  = ptbmax    ! maximum pt for the b
 -1  = ptamax    ! maximum pt for the photons
 -1  = ptlmax    ! maximum pt for the charged leptons
 -1  = missetmax ! maximum missing Et (sum of neutrino's momenta)
#*********************************************************************
# Minimum and maximum E's (in the center of mass frame)              *
#*********************************************************************
  0  = ej     ! minimum E for the jets 
  0  = eb     ! minimum E for the b 
  0  = ea     ! minimum E for the photons 
  0  = el     ! minimum E for the charged leptons 
 -1   = ejmax ! maximum E for the jets
 -1   = ebmax ! maximum E for the b
 -1   = eamax ! maximum E for the photons
 -1   = elmax ! maximum E for the charged leptons
#*********************************************************************
# Maximum and minimum absolute rapidity (for max, -1 means no cut)   *
#*********************************************************************
   5  = etaj    ! max rap for the jets 
  -1  = etab    ! max rap for the b
 2.5  = etaa    ! max rap for the photons 
 2.5  = etal    ! max rap for the charged leptons 
 0.6  = etaonium ! max rap for the quarkonium states
   0  = etajmin ! min rap for the jets
   0  = etabmin ! min rap for the b
   0  = etaamin ! min rap for the photons
   0  = etalmin ! main rap for the charged leptons
#*********************************************************************
# Minimum and maximum DeltaR distance                                *
#*********************************************************************
 0.4 = drjj    ! min distance between jets 
 0   = drbb    ! min distance between b's 
 0.4 = drll    ! min distance between leptons 
 0.4 = draa    ! min distance between gammas 
 0   = drbj    ! min distance between b and jet 
 0.4 = draj    ! min distance between gamma and jet 
 0.4 = drjl    ! min distance between jet and lepton 
 0   = drab    ! min distance between gamma and b 
 0   = drbl    ! min distance between b and lepton 
 0.4 = dral    ! min distance between gamma and lepton 
 -1  = drjjmax ! max distance between jets
 -1  = drbbmax ! max distance between b's
 -1  = drllmax ! max distance between leptons
 -1  = draamax ! max distance between gammas
 -1  = drbjmax ! max distance between b and jet
 -1  = drajmax ! max distance between gamma and jet
 -1  = drjlmax ! max distance between jet and lepton
 -1  = drabmax ! max distance between gamma and b
 -1  = drblmax ! max distance between b and lepton
 -1  = dralmax ! maxdistance between gamma and lepton
#*********************************************************************
# Minimum and maximum invariant mass for pairs                       *
# WARNING: for four lepton final state mmll cut require to have      *
#          different lepton masses for each flavor!                  *           
#*********************************************************************
 0   = mmjj    ! min invariant mass of a jet pair 
 0   = mmbb    ! min invariant mass of a b pair 
 0   = mmaa    ! min invariant mass of gamma gamma pair
 0   = mmll    ! min invariant mass of l+l- (same flavour) lepton pair
 -1  = mmjjmax ! max invariant mass of a jet pair
 -1  = mmbbmax ! max invariant mass of a b pair
 -1  = mmaamax ! max invariant mass of gamma gamma pair
 -1  = mmllmax ! max invariant mass of l+l- (same flavour) lepton pair
#*********************************************************************
# Minimum and maximum invariant mass for all letpons                 *
#*********************************************************************
 0   = mmnl    ! min invariant mass for all letpons (l+- and vl) 
 -1  = mmnlmax ! max invariant mass for all letpons (l+- and vl) 
#*********************************************************************
# Minimum and maximum pt for 4-momenta sum of leptons                *
#*********************************************************************
 0   = ptllmin  ! Minimum pt for 4-momenta sum of leptons(l and vl)
 -1  = ptllmax  ! Maximum pt for 4-momenta sum of leptons(l and vl)
#*********************************************************************
# Inclusive cuts                                                     *
#*********************************************************************
 0  = xptj ! minimum pt for at least one jet  
 0  = xptb ! minimum pt for at least one b 
 0  = xpta ! minimum pt for at least one photon 
 0  = xptl ! minimum pt for at least one charged lepton 
#*********************************************************************
# Control the pt's of the jets sorted by pt                          *
#*********************************************************************
 0   = ptj1min ! minimum pt for the leading jet in pt
 0   = ptj2min ! minimum pt for the second jet in pt
 0   = ptj3min ! minimum pt for the third jet in pt
 0   = ptj4min ! minimum pt for the fourth jet in pt
 -1  = ptj1max ! maximum pt for the leading jet in pt 
 -1  = ptj2max ! maximum pt for the second jet in pt
 -1  = ptj3max ! maximum pt for the third jet in pt
 -1  = ptj4max ! maximum pt for the fourth jet in pt
 0   = cutuse  ! reject event if fails any (0) / all (1) jet pt cuts
#*********************************************************************
# Control the pt's of leptons sorted by pt                           *
#*********************************************************************
 0   = ptl1min ! minimum pt for the leading lepton in pt
 0   = ptl2min ! minimum pt for the second lepton in pt
 0   = ptl3min ! minimum pt for the third lepton in pt
 0   = ptl4min ! minimum pt for the fourth lepton in pt
 -1  = ptl1max ! maximum pt for the leading lepton in pt 
 -1  = ptl2max ! maximum pt for the second lepton in pt
 -1  = ptl3max ! maximum pt for the third lepton in pt
 -1  = ptl4max ! maximum pt for the fourth lepton in pt
#*********************************************************************
# Control the Ht(k)=Sum of k leading jets                            *
#*********************************************************************
 0   = htjmin ! minimum jet HT=Sum(jet pt)
 -1  = htjmax ! maximum jet HT=Sum(jet pt)
 0   = ihtmin  !inclusive Ht for all partons (including b)
 -1  = ihtmax  !inclusive Ht for all partons (including b)
 0   = ht2min ! minimum Ht for the two leading jets
 0   = ht3min ! minimum Ht for the three leading jets
 0   = ht4min ! minimum Ht for the four leading jets
 -1  = ht2max ! maximum Ht for the two leading jets
 -1  = ht3max ! maximum Ht for the three leading jets
 -1  = ht4max ! maximum Ht for the four leading jets
#***********************************************************************
# Photon-isolation cuts, according to hep-ph/9801442                   *
# When ptgmin=0, all the other parameters are ignored                  *
# When ptgmin>0, pta and draj are not going to be used                 *
#***********************************************************************
   0 = ptgmin ! Min photon transverse momentum
 0.4 = R0gamma ! Radius of isolation code
 1.0 = xn ! n parameter of eq.(3.4) in hep-ph/9801442
 1.0 = epsgamma ! epsilon_gamma parameter of eq.(3.4) in hep-ph/9801442
 .true. = isoEM ! isolate photons from EM energy (photons and leptons)
#*********************************************************************
# WBF cuts                                                           *
#*********************************************************************
 0   = xetamin ! minimum rapidity for two jets in the WBF case  
 0   = deltaeta ! minimum rapidity for two jets in the WBF case 
#*********************************************************************
# KT DURHAM CUT                                                      *
#*********************************************************************
 -1    =  ktdurham        
 0.4  =  dparameter 
#*********************************************************************
# maximal pdg code for quark to be considered as a light jet         *
# (otherwise b cuts are applied)                                     *
#*********************************************************************
 4 = maxjetflavor    ! Maximum jet pdg code
#*********************************************************************
# Jet measure cuts                                                   *
#*********************************************************************
 0   = xqcut   ! minimum kt jet measure between partons
#*********************************************************************
#
#*********************************************************************
# Store info for systematics studies                                 *
# WARNING: If use_syst is T, matched Pythia output is                *
#          meaningful ONLY if plotted taking matchscale              *
#          reweighting into account!                                 *
#*********************************************************************
   F  = use_syst      ! Enable systematics studies
#
#**************************************
# Parameter of the systematics study
#  will be used by SysCalc (if installed)
#**************************************                                  
#
0.5 1 2 = sys_scalefact  # factorization/renormalization scale factor
0.5 1 2 = sys_alpsfact  # \alpha_s emission scale factors
30 50 = sys_matchscale # variation of merging scale
# PDF sets and number of members (0 or none for all members).
CT10nlo.LHgrid = sys_pdf # matching scales
# MSTW2008nlo68cl.LHgrid 1  = sys_pdf
</MGRunCard>
<slha>
######################################################################
## PARAM_CARD AUTOMATICALY GENERATED BY MG5 FOLLOWING UFO MODEL   ####
######################################################################
##                                                                  ##
##  Width set on Auto will be computed following the information    ##
##        present in the decay.py files of the model.               ##
##        See  arXiv:1402.1178 for more details.                    ##
##                                                                  ##
######################################################################

###################################
## INFORMATION FOR CKMBLOCK
###################################
Block ckmblock 
    1 2.277360e-01 # cabi 

###################################
## INFORMATION FOR FRBLOCK
###################################
Block frblock 
    1 6.000000e-01 # gz 

###################################
## INFORMATION FOR MASS
###################################
Block mass 
    1 5.040000e-03 # MD 
    2 2.550000e-03 # MU 
    3 1.010000e-01 # MS 
    4 1.270000e+00 # MC 
    5 4.700000e+00 # MB 
    6 1.720000e+02 # MT 
   11 5.110000e-04 # Me 
   13 1.056600e-01 # MM 
   15 1.777000e+00 # MTA 
   23 9.118760e+01 # MZ 
   25 1.200000e+02 # MH 
  10030 3.800000e+03 # MZph 
  10031 3.000000e+02 # MZpl 
## Dependent parameters, given by model restrictions.
## Those values should be edited following the 
## analytical expression. MG5 ignores those values 
## but they are important for interfacing the output of MG5
## to external program such as Pythia.
  12 0.000000 # ve : 0.0 
  14 0.000000 # vm : 0.0 
  16 0.000000 # vt : 0.0 
  21 0.000000 # g : 0.0 
  22 0.000000 # a : 0.0 
  24 79.824360 # w+ : cmath.sqrt(MZ__exp__2/2. + cmath.sqrt(MZ__exp__4/4. - (aEW*cmath.pi*MZ__exp__2)/(Gf*sqrt__2))) 

###################################
## INFORMATION FOR SMINPUTS
###################################
Block sminputs 
    1 1.279000e+02 # aEWM1 
    2 1.166370e-05 # Gf 
    3 1.184000e-01 # aS 

###################################
## INFORMATION FOR YUKAWA
###################################
Block yukawa 
    1 5.040000e-03 # ymdo 
    2 2.550000e-03 # ymup 
    3 1.010000e-01 # yms 
    4 1.270000e+00 # ymc 
    5 4.700000e+00 # ymb 
    6 1.720000e+02 # ymt 
   11 5.110000e-04 # yme 
   13 1.056600e-01 # ymm 
   15 1.777000e+00 # ymtau 

###################################
## INFORMATION FOR DECAY
###################################
DECAY   6 1.508336e+00 # WT 
DECAY  23 2.495200e+00 # WZ 
DECAY  24 2.085000e+00 # WW 
DECAY  25 5.753088e-03 # WH 
## Dependent parameters, given by model restrictions.
## Those values should be edited following the 
## analytical expression. MG5 ignores those values 
## but they are important for interfacing the output of MG5
## to external program such as Pythia.
DECAY  1 0.000000 # d : 0.0 
DECAY  2 0.000000 # u : 0.0 
DECAY  3 0.000000 # s : 0.0 
DECAY  4 0.000000 # c : 0.0 
DECAY  5 0.000000 # b : 0.0 
DECAY  11 0.000000 # e- : 0.0 
DECAY  12 0.000000 # ve : 0.0 
DECAY  13 0.000000 # mu- : 0.0 
DECAY  14 0.000000 # vm : 0.0 
DECAY  15 0.000000 # ta- : 0.0 
DECAY  16 0.000000 # vt : 0.0 
DECAY  21 0.000000 # g : 0.0 
DECAY  22 0.000000 # a : 0.0 
DECAY  10030 0.308725 # zph : (gz__exp__2*MZph*(5 + cmath.sqrt(1 - (4*MT__exp__2)/MZph__exp__2)))/(144.*cmath.pi) 
DECAY  10031 0.132629 # zpl : (5*gz__exp__2*MZpl)/(144.*cmath.pi) 
#===========================================================
# QUANTUM NUMBERS OF NEW STATE(S) (NON SM PDG CODE)
#===========================================================

Block QNUMBERS 10030  # zph 
        1 0  # 3 times electric charge
        2 3  # number of spin states (2S+1)
        3 1  # colour rep (1: singlet, 3: triplet, 8: octet)
        4 0  # Particle/Antiparticle distinction (0=own anti)
Block QNUMBERS 10031  # zpl 
        1 0  # 3 times electric charge
        2 3  # number of spin states (2S+1)
        3 1  # colour rep (1: singlet, 3: triplet, 8: octet)
        4 0  # Particle/Antiparticle distinction (0=own anti)
</slha>
## END BANNER##
<MGGenerationInfo>
#  Number of Events        :         4025
#  Integrated weight (pb)  :  0.29610E-04
#  Max wgt                 :  0.11939E-07
#  Average wgt             :  0.73565E-08
</MGGenerationInfo>
</header>
<init>
     2212     2212  0.40000000000E+04  0.40000000000E+04 0 0  247000  247000 2   1
  0.29607443072E-04  0.61261709378E-07  0.11938610000E-07   0
</init>
<event>
 5   0  0.1143283E-07  0.3793892E+04  0.7818609E-02  0.8047467E-01
       -2   -1    0    0    0  501  0.00000000000E+00  0.00000000000E+00  0.13263856753E+04  0.13263856753E+04  0.25500000920E-02 0. -1.
        2   -1    0    0  501    0  0.00000000000E+00  0.00000000000E+00 -0.27129397681E+04  0.27129397681E+04  0.25500000920E-02 0.  1.
    10030    2    1    2    0    0  0.00000000000E+00  0.00000000000E+00 -0.13865540927E+04  0.40393254434E+04  0.37938921685E+04 0.  0.
        1    1    3    3  502    0  0.58296809194E+03 -0.14753414300E+04 -0.18007203460E+04  0.23998078873E+04  0.50400001928E-02 0.  1.
       -1    1    3    3    0  502 -0.58296809194E+03  0.14753414300E+04  0.41416625330E+03  0.16395175561E+04  0.50400001928E-02 0. -1.
</event>
<event>
 5   0  0.1150235E-07  0.3817702E+04  0.7818609E-02  0.8042367E-01
       -2   -1    0    0    0  501  0.00000000000E+00  0.00000000000E+00  0.14635335832E+04  0.14635335832E+04  0.25500000920E-02 0. -1.
        2   -1    0    0  501    0  0.00000000000E+00  0.00000000000E+00 -0.24896676878E+04  0.24896676878E+04  0.25500000920E-02 0.  1.
    10030    2    1    2    0    0  0.00000000000E+00  0.00000000000E+00 -0.10261341046E+04  0.39532012711E+04  0.38177020692E+04 0.  0.
        4    1    3    3  502    0 -0.13297250446E+04 -0.13079926275E+04 -0.93329997019E+03  0.20856806695E+04  0.12699999809E+01 0.  1.
       -4    1    3    3    0  502  0.13297250446E+04  0.13079926275E+04 -0.92834134390E+02  0.18675206016E+04  0.12699999809E+01 0. -1.
</event>
<event>
 5   0  0.1193861E-07  0.3801925E+04  0.7818609E-02  0.8045742E-01
       -2   -1    0    0    0  501  0.00000000000E+00  0.00000000000E+00  0.19525306201E+04  0.19525306201E+04  0.25500000920E-02 0.  1.
        2   -1    0    0  501    0  0.00000000000E+00  0.00000000000E+00 -0.18507565409E+04  0.18507565409E+04  0.25500000920E-02 0. -1.
    10030    2    1    2    0    0  0.00000000000E+00  0.00000000000E+00  0.10177407921E+03  0.38032871610E+04  0.38019252052E+04 0.  0.
        3    1    3    3  502    0 -0.52407008701E+02 -0.11173091628E+03  0.19485190089E+04  0.19524232714E+04  0.10100000352E+00 0.  1.
       -3    1    3    3    0  502  0.52407008701E+02  0.11173091628E+03 -0.18467449297E+04  0.18508638896E+04  0.10100000352E+00 0. -1.
</event>
<event>
 5   0  0.1143283E-07  0.3800191E+04  0.7818609E-02  0.8046114E-01
        2   -1    0    0  501    0  0.00000000000E+00  0.00000000000E+00  0.16683527997E+04  0.16683527997E+04  0.25500000920E-02 0. -1.
       -2   -1    0    0    0  501  0.00000000000E+00  0.00000000000E+00 -0.21640279708E+04  0.21640279708E+04  0.25500000920E-02 0.  1.
    10030    2    1    2    0    0  0.00000000000E+00  0.00000000000E+00 -0.49567517113E+03  0.38323807705E+04  0.38001905866E+04 0.  0.
        1    1    3    3  502    0 -0.74184684504E+03 -0.53579058214E+02  0.15154452502E+04  0.16881296643E+04  0.50400001928E-02 0. -1.
       -1    1    3    3    0  502  0.74184684504E+03  0.53579058214E+02 -0.20111204214E+04  0.21442511062E+04  0.50400001928E-02 0.  1.
</event>
<event>
 5   0  0.1143283E-07  0.3813323E+04  0.7818609E-02  0.8043302E-01
       -2   -1    0    0    0  501  0.00000000000E+00  0.00000000000E+00  0.20458625497E+04  0.20458625497E+04  0.25500000920E-02 0.  1.
        2   -1    0    0  501    0  0.00000000000E+00  0.00000000000E+00 -0.17769313670E+04  0.17769313670E+04  0.25500000920E-02 0. -1.
    10030    2    1    2    0    0  0.00000000000E+00  0.00000000000E+00  0.26893118261E+03  0.38227939167E+04  0.38133226127E+04 0.  0.
        1    1    3    3  502    0  0.32908566980E+03  0.62656888396E+03 -0.16403755724E+04  0.17865379826E+04  0.50400001928E-02 0. -1.
       -1    1    3    3    0  502 -0.32908566980E+03 -0.62656888396E+03  0.19093067551E+04  0.20362559341E+04  0.50400001928E-02 0.  1.
</event>
<event>
 5   0  0.3701250E-08  0.3786790E+04  0.7818609E-02  0.8048996E-01
       -1   -1    0    0    0  501  0.00000000000E+00  0.00000000000E+00  0.26467397612E+04  0.26467397612E+04  0.50400001928E-02 0.  1.
        1   -1    0    0  501    0  0.00000000000E+00  0.00000000000E+00 -0.13544758902E+04  0.13544758902E+04  0.50400001928E-02 0. -1.
    10030    2    1    2    0    0  0.00000000000E+00  0.00000000000E+00  0.12922638711E+04  0.40012156514E+04  0.37867903000E+04 0.  0.
        1    1    3    3  502    0  0.17191283190E+04 -0.26955106058E+03 -0.14237144145E+03  0.17459466139E+04  0.50400001928E-02 0. -1.
       -1    1    3    3    0  502 -0.17191283190E+04  0.26955106058E+03  0.14346353125E+04  0.22552690375E+04  0.50400001928E-02 0.  1.
</event>
<event>
 5   0  0.3701250E-08  0.3703222E+04  0.7818609E-02  0.8067248E-01
        1   -1    0    0  501    0  0.00000000000E+00  0.00000000000E+00  0.27232446686E+04  0.27232446686E+04  0.50400001928E-02 0.  1.
       -1   -1    0    0    0  501  0.00000000000E+00  0.00000000000E+00 -0.12589629772E+04  0.12589629772E+04  0.50400001928E-02 0. -1.
    10030    2    1    2    0    0  0.00000000000E+00  0.00000000000E+00  0.14642816915E+04  0.39822076458E+04  0.37032224970E+04 0.  0.
        3    1    3    3  502    0  0.87648273669E+03 -0.13781547045E+04 -0.20588967824E+03  0.16461843600E+04  0.10100000352E+00 0. -1.
       -3    1    3    3    0  502 -0.87648273669E+03  0.13781547045E+04  0.16701713697E+04  0.23360232858E+04  0.10100000352E+00 0.  1.
</event>
<event>
 5   0  0.1150235E-07  0.3822425E+04  0.7818609E-02  0.8041360E-01
        2   -1    0    0  501    0  0.00000000000E+00  0.00000000000E+00  0.11520285320E+04  0.11520285320E+04  0.25500000920E-02 0. -1.
       -2   -1    0    0    0  501  0.00000000000E+00  0.00000000000E+00 -0.31706962640E+04  0.31706962640E+04  0.25500000920E-02 0.  1.
    10030    2    1    2    0    0  0.00000000000E+00  0.00000000000E+00 -0.20186677320E+04  0.43227247961E+04  0.38224246559E+04 0.  0.
        4    1    3    3  502    0 -0.61864308774E+03  0.87161312884E+03 -0.28011013862E+04  0.29980992820E+04  0.12699999809E+01 0.  1.
       -4    1    3    3    0  502  0.61864308774E+03 -0.87161312884E+03  0.78243365414E+03  0.13246255140E+04  0.12699999809E+01 0. -1.
</event>
<event>
 5   0  0.1174870E-07  0.3791400E+04  0.7818609E-02  0.8048003E-01
        2   -1    0    0  501    0  0.00000000000E+00  0.00000000000E+00  0.21952859610E+04  0.21952859610E+04  0.25500000920E-02 0. -1.
       -2   -1    0    0    0  501  0.00000000000E+00  0.00000000000E+00 -0.16369982354E+04  0.16369982354E+04  0.25500000920E-02 0.  1.
    10030    2    1    2    0    0  0.00000000000E+00  0.00000000000E+00  0.55828772559E+03  0.38322841964E+04  0.37914003980E+04 0.  0.
        5    1    3    3  502    0 -0.13270516827E+04 -0.13452594596E+04  0.12629159626E+03  0.18938745575E+04  0.46999998093E+01 0.  1.
       -5    1    3    3    0  502  0.13270516827E+04  0.13452594596E+04  0.43199612933E+03  0.19384096389E+04  0.46999998093E+01 0. -1.
</event>
<event>
 5   0  0.1143283E-07  0.3796931E+04  0.7818609E-02  0.8046814E-01
        2   -1    0    0  501    0  0.00000000000E+00  0.00000000000E+00  0.26061653195E+04  0.26061653195E+04  0.25500000920E-02 0. -1.
       -2   -1    0    0    0  501  0.00000000000E+00  0.00000000000E+00 -0.13829405485E+04  0.13829405485E+04  0.25500000920E-02 0.  1.
    10030    2    1    2    0    0  0.00000000000E+00  0.00000000000E+00  0.12232247711E+04  0.39891058680E+04  0.37969312326E+04 0.  0.
        1    1    3    3  502    0 -0.24767094346E+03  0.72957224163E+03 -0.12113013782E+04  0.14355722137E+04  0.50400001928E-02 0.  1.
       -1    1    3    3    0  502  0.24767094346E+03 -0.72957224163E+03  0.24345261493E+04  0.25535336543E+04  0.50400001928E-02 0. -1.
</event>
<event>
 5   0  0.1174870E-07  0.3817255E+04  0.7818609E-02  0.8042462E-01
       -2   -1    0    0    0  501  0.00000000000E+00  0.00000000000E+00  0.23571847855E+04  0.23571847855E+04  0.25500000920E-02 0.  1.
        2   -1    0    0  501    0  0.00000000000E+00  0.00000000000E+00 -0.15454279084E+04  0.15454279084E+04  0.25500000920E-02 0. -1.
    10030    2    1    2    0    0  0.00000000000E+00  0.00000000000E+00  0.81175687711E+03  0.39026126938E+04  0.38172551147E+04 0.  0.
        5    1    3    3  502    0  0.61701144109E+03 -0.16189128213E+03  0.22449706338E+04  0.23338438556E+04  0.46999998093E+01 0.  1.
       -5    1    3    3    0  502 -0.61701144109E+03  0.16189128213E+03 -0.14332137567E+04  0.15687688383E+04  0.46999998093E+01 0. -1.
</event>
<event>
 5   0  0.1174870E-07  0.3880689E+04  0.7818609E-02  0.8029058E-01
        2   -1    0    0  501    0  0.00000000000E+00  0.00000000000E+00  0.14523468091E+04  0.14523468091E+04  0.25500000920E-02 0. -1.
       -2   -1    0    0    0  501  0.00000000000E+00  0.00000000000E+00 -0.25923126697E+04  0.25923126697E+04  0.25500000920E-02 0.  1.
    10030    2    1    2    0    0  0.00000000000E+00  0.00000000000E+00 -0.11399658606E+04  0.40446594787E+04  0.38806891315E+04 0.  0.
        5    1    3    3  502    0 -0.73510519971E+03  0.95582431565E+03  0.10144249382E+04  0.15757727699E+04  0.46999998093E+01 0. -1.
       -5    1    3    3    0  502  0.73510519971E+03 -0.95582431565E+03 -0.21543907988E+04  0.24688867089E+04  0.46999998093E+01 0.  1.
</event>
<event>
 5   0  0.3889225E-08  0.3812339E+04  0.7818609E-02  0.8043512E-01
       -1   -1    0    0    0  501  0.00000000000E+00  0.00000000000E+00  0.17209718909E+04  0.17209718910E+04  0.50400001928E-02 0.  1.
        1   -1    0    0  501    0  0.00000000000E+00  0.00000000000E+00 -0.21112967904E+04  0.21112967904E+04  0.50400001928E-02 0. -1.
    10030    2    1    2    0    0  0.00000000000E+00  0.00000000000E+00 -0.39032489950E+03  0.38322686814E+04  0.38123391401E+04 0.  0.
        5    1    3    3  502    0  0.47012703171E+03  0.40438570102E+03  0.16167344044E+04  0.17315887056E+04  0.46999998093E+01 0.  1.
       -5    1    3    3    0  502 -0.47012703171E+03 -0.40438570102E+03 -0.20070593039E+04  0.21006799758E+04  0.46999998093E+01 0. -1.
</event>
<event>
 5   0  0.3701250E-08  0.3801228E+04  0.7818609E-02  0.8045891E-01
       -3   -1    0    0    0  501  0.00000000000E+00  0.00000000000E+00  0.18982526655E+04  0.18982526682E+04  0.10100000352E+00 0.  1.
        3   -1    0    0  501    0  0.00000000000E+00  0.00000000000E+00 -0.19029780509E+04  0.19029780536E+04  0.10100000352E+00 0. -1.
    10030    2    1    2    0    0  0.00000000000E+00  0.00000000000E+00 -0.47253854498E+01  0.38012307217E+04  0.38012277846E+04 0.  0.
        4    1    3    3  502    0  0.15537075151E+04  0.10722761981E+04 -0.22269957593E+03  0.19008892660E+04  0.12699999809E+01 0. -1.
       -4    1    3    3    0  502 -0.15537075151E+04 -0.10722761981E+04  0.21797419048E+03  0.19003414557E+04  0.12699999809E+01 0.  1.
</event>
<event>
 5   0  0.3701250E-08  0.3792990E+04  0.7818609E-02  0.8047661E-01
        1   -1    0    0  501    0  0.00000000000E+00  0.00000000000E+00  0.20438624706E+04  0.20438624706E+04  0.50400001928E-02 0.  1.
       -1   -1    0    0    0  501  0.00000000000E+00  0.00000000000E+00 -0.17597528964E+04  0.17597528964E+04  0.50400001928E-02 0. -1.
    10030    2    1    2    0    0  0.00000000000E+00  0.00000000000E+00  0.28410957421E+03  0.38036153669E+04  0.37929897982E+04 0.  0.
        1    1    3    3  502    0  0.16841841434E+04 -0.23115040883E+03  0.98511566749E+03  0.19647797889E+04  0.50400001928E-02 0.  1.
       -1    1    3    3    0  502 -0.16841841434E+04  0.23115040883E+03 -0.70100609328E+03  0.18388355781E+04  0.50400001928E-02 0. -1.
</event>
<event>
 5   0  0.3701250E-08  0.3794781E+04  0.7818609E-02  0.8047276E-01
       -1   -1    0    0    0  501  0.00000000000E+00  0.00000000000E+00  0.20718148267E+04  0.20718148267E+04  0.50400001928E-02 0.  1.
        1   -1    0    0  501    0  0.00000000000E+00  0.00000000000E+00 -0.17376507356E+04  0.17376507356E+04  0.50400001928E-02 0. -1.
    10030    2    1    2    0    0  0.00000000000E+00  0.00000000000E+00  0.33416409107E+03  0.38094655623E+04  0.37947809200E+04 0.  0.
        3    1    3    3  502    0 -0.10042059216E+04  0.13109110612E+04  0.11051354056E+04  0.19870182732E+04  0.10100000352E+00 0.  1.
       -3    1    3    3    0  502  0.10042059216E+04 -0.13109110612E+04 -0.77097131453E+03  0.18224472890E+04  0.10100000352E+00 0. -1.
</event>
<event>
 5   0  0.3701250E-08  0.3815209E+04  0.7818609E-02  0.8042899E-01
        1   -1    0    0  501    0  0.00000000000E+00  0.00000000000E+00  0.21327963713E+04  0.21327963713E+04  0.50400001928E-02 0.  1.
       -1   -1    0    0    0  501  0.00000000000E+00  0.00000000000E+00 -0.17061896126E+04  0.17061896126E+04  0.50400001928E-02 0. -1.
    10030    2    1    2    0    0  0.00000000000E+00  0.00000000000E+00  0.42660675867E+03  0.38389859839E+04  0.38152090451E+04 0.  0.
        3    1    3    3  502    0 -0.78461643030E+03 -0.60792715377E+03 -0.14258845002E+04  0.17373384774E+04  0.10100000352E+00 0. -1.
       -3    1    3    3    0  502  0.78461643030E+03  0.60792715377E+03  0.18524912589E+04  0.21016475065E+04  0.10100000352E+00 0.  1.
</event>
<event>
 5   0  0.1150235E-07  0.3803006E+04  0.7818609E-02  0.8045510E-01
        2   -1    0    0  501    0  0.00000000000E+00  0.00000000000E+00  0.17427477279E+04  0.17427477279E+04  0.25500000920E-02 0. -1.
       -2   -1    0    0    0  501  0.00000000000E+00  0.00000000000E+00 -0.20747201702E+04  0.20747201702E+04  0.25500000920E-02 0.  1.
    10030    2    1    2    0    0  0.00000000000E+00  0.00000000000E+00 -0.33197244222E+03  0.38174678981E+04  0.38030061071E+04 0.  0.
        4    1    3    3  502    0  0.30293606413E+03  0.11579791592E+04 -0.16491115456E+04  0.20377086383E+04  0.12699999809E+01 0.  1.
       -4    1    3    3    0  502 -0.30293606413E+03 -0.11579791592E+04  0.13171391034E+04  0.17797592597E+04  0.12699999809E+01 0. -1.
</event>
<event>
 5   0  0.3701250E-08  0.3820788E+04  0.7818609E-02  0.8041708E-01
       -1   -1    0    0    0  501  0.00000000000E+00  0.00000000000E+00  0.32218675415E+04  0.32218675415E+04  0.50400001928E-02 0.  1.
        1   -1    0    0  501    0  0.00000000000E+00  0.00000000000E+00 -0.11327610528E+04  0.11327610528E+04  0.50400001928E-02 0. -1.
    10030    2    1    2    0    0  0.00000000000E+00  0.00000000000E+00  0.20891064887E+04  0.43546285943E+04  0.38207884360E+04 0.  0.
        4    1    3    3  502    0 -0.11847197903E+04 -0.13856383713E+04  0.39376442428E+03  0.18651023329E+04  0.12699999809E+01 0. -1.
       -4    1    3    3    0  502  0.11847197903E+04  0.13856383713E+04  0.16953420644E+04  0.24895262613E+04  0.12699999809E+01 0.  1.
</event>
<event>
 5   0  0.3701250E-08  0.3812363E+04  0.7818609E-02  0.8043507E-01
       -1   -1    0    0    0  501  0.00000000000E+00  0.00000000000E+00  0.27621848164E+04  0.27621848164E+04  0.50400001928E-02 0.  1.
        1   -1    0    0  501    0  0.00000000000E+00  0.00000000000E+00 -0.13154546124E+04  0.13154546124E+04  0.50400001928E-02 0. -1.
    10030    2    1    2    0    0  0.00000000000E+00  0.00000000000E+00  0.14467302040E+04  0.40776394289E+04  0.38123634439E+04 0.  0.
        1    1    3    3  502    0  0.16144320142E+04  0.58523397935E+03  0.16083694616E+04  0.23528157310E+04  0.50400001928E-02 0.  1.
       -1    1    3    3    0  502 -0.16144320142E+04 -0.58523397935E+03 -0.16163925762E+03  0.17248236978E+04  0.50400001928E-02 0. -1.
</event>
<event>
 5   0  0.7858367E-08  0.3841053E+04  0.7818609E-02  0.8037402E-01
        2   -1    0    0  501    0  0.00000000000E+00  0.00000000000E+00  0.21874970952E+04  0.21874970953E+04  0.25500000920E-02 0. -1.
       -2   -1    0    0    0  501  0.00000000000E+00  0.00000000000E+00 -0.16861377698E+04  0.16861377698E+04  0.25500000920E-02 0.  1.
    10030    2    1    2    0    0  0.00000000000E+00  0.00000000000E+00  0.50135932545E+03  0.38736348651E+04  0.38410527066E+04 0.  0.
        2    1    3    3  502    0 -0.13082215172E+04 -0.62928109593E+03  0.15187170166E+04  0.21009377935E+04  0.25500000920E-02 0. -1.
       -2    1    3    3    0  502  0.13082215172E+04  0.62928109593E+03 -0.10173576912E+04  0.17726970715E+04  0.25500000920E-02 0.  1.
</event>
<event>
 5   0  0.3701250E-08  0.3789666E+04  0.7818609E-02  0.8048376E-01
        1   -1    0    0  501    0  0.00000000000E+00  0.00000000000E+00  0.10929971057E+04  0.10929971057E+04  0.50400001928E-02 0. -1.
       -1   -1    0    0    0  501  0.00000000000E+00  0.00000000000E+00 -0.32849052983E+04  0.32849052984E+04  0.50400001928E-02 0.  1.
    10030    2    1    2    0    0  0.00000000000E+00  0.00000000000E+00 -0.21919081927E+04  0.43779024041E+04  0.37896659397E+04 0.  0.
        3    1    3    3  502    0  0.66997464193E+03 -0.53771862343E+03 -0.30470076547E+04  0.31657957920E+04  0.10100000352E+00 0.  1.
       -3    1    3    3    0  502 -0.66997464193E+03  0.53771862343E+03  0.85509946203E+03  0.12121066120E+04  0.10100000352E+00 0. -1.
</event>
<event>
 5   0  0.3701250E-08  0.3845224E+04  0.7818609E-02  0.8036519E-01
       -3   -1    0    0    0  501  0.00000000000E+00  0.00000000000E+00  0.15015576435E+04  0.15015576469E+04  0.10100000352E+00 0.  1.
        3   -1    0    0  501    0  0.00000000000E+00  0.00000000000E+00 -0.24617347434E+04  0.24617347455E+04  0.10100000352E+00 0. -1.
    10030    2    1    2    0    0  0.00000000000E+00  0.00000000000E+00 -0.96017709993E+03  0.39632923924E+04  0.38452238588E+04 0.  0.
        1    1    3    3  502    0  0.85280746590E+03 -0.12983059645E+04 -0.16478178570E+04  0.22645491033E+04  0.50400001928E-02 0. -1.
       -1    1    3    3    0  502 -0.85280746590E+03  0.12983059645E+04  0.68764075705E+03  0.16987432891E+04  0.50400001928E-02 0.  1.
</event>
<event>
 5   0  0.1143283E-07  0.3798504E+04  0.7818609E-02  0.8046476E-01
        2   -1    0    0  501    0  0.00000000000E+00  0.00000000000E+00  0.24614154446E+04  0.24614154446E+04  0.25500000920E-02 0. -1.
       -2   -1    0    0    0  501  0.00000000000E+00  0.00000000000E+00 -0.14654810884E+04  0.14654810884E+04  0.25500000920E-02 0.  1.
    10030    2    1    2    0    0  0.00000000000E+00  0.00000000000E+00  0.99593435620E+03  0.39268965330E+04  0.37985038027E+04 0.  0.
        1    1    3    3  502    0  0.53322961318E+03  0.11354220306E+04  0.19722269451E+04  0.23373480980E+04  0.50400001928E-02 0. -1.
       -1    1    3    3    0  502 -0.53322961318E+03 -0.11354220306E+04 -0.97629258894E+03  0.15895484350E+04  0.50400001928E-02 0.  1.
</event>
<event>
 5   0  0.3701250E-08  0.3796013E+04  0.7818609E-02  0.8047011E-01
        1   -1    0    0  501    0  0.00000000000E+00  0.00000000000E+00  0.20117170055E+04  0.20117170055E+04  0.50400001928E-02 0.  1.
       -1   -1    0    0    0  501  0.00000000000E+00  0.00000000000E+00 -0.17907237861E+04  0.17907237861E+04  0.50400001928E-02 0. -1.
    10030    2    1    2    0    0  0.00000000000E+00  0.00000000000E+00  0.22099321942E+03  0.38024407916E+04  0.37960134313E+04 0.  0.
        4    1    3    3  502    0 -0.15192689044E+04  0.29916831799E+03  0.12099652882E+04  0.19651201739E+04  0.12699999809E+01 0.  1.
       -4    1    3    3    0  502  0.15192689044E+04 -0.29916831799E+03 -0.98897206879E+03  0.18373206177E+04  0.12699999809E+01 0. -1.
</event>
<event>
 5   0  0.7858367E-08  0.3802065E+04  0.7818609E-02  0.8045712E-01
       -2   -1    0    0    0  501  0.00000000000E+00  0.00000000000E+00  0.15669447317E+04  0.15669447317E+04  0.25500000920E-02 0.  1.
        2   -1    0    0  501    0  0.00000000000E+00  0.00000000000E+00 -0.23063506737E+04  0.23063506737E+04  0.25500000920E-02 0. -1.
    10030    2    1    2    0    0  0.00000000000E+00  0.00000000000E+00 -0.73940594208E+03  0.38732954054E+04  0.38020647220E+04 0.  0.
        2    1    3    3  502    0 -0.10858707384E+04  0.14946749643E+04 -0.82615471597E+03  0.20237836160E+04  0.25500000920E-02 0. -1.
       -2    1    3    3    0  502  0.10858707384E+04 -0.14946749643E+04  0.86748773891E+02  0.18495117894E+04  0.25500000920E-02 0.  1.
</event>
<event>
 5   0  0.3701250E-08  0.3776574E+04  0.7818609E-02  0.8051201E-01
       -1   -1    0    0    0  501  0.00000000000E+00  0.00000000000E+00  0.10940821210E+04  0.10940821210E+04  0.50400001928E-02 0. -1.
        1   -1    0    0  501    0  0.00000000000E+00  0.00000000000E+00 -0.32590126911E+04  0.32590126911E+04  0.50400001928E-02 0.  1.
    10030    2    1    2    0    0  0.00000000000E+00  0.00000000000E+00 -0.21649305701E+04  0.43530948121E+04  0.37765738534E+04 0.  0.
        2    1    3    3  502    0 -0.24446785295E+03  0.27676251431E+03 -0.32169875994E+04  0.32381122950E+04  0.25500000920E-02 0.  1.
       -2    1    3    3    0  502  0.24446785295E+03 -0.27676251431E+03  0.10520570293E+04  0.11149825171E+04  0.25500000920E-02 0. -1.
</event>
<event>
 5   0  0.1143283E-07  0.3799013E+04  0.7818609E-02  0.8046367E-01
        2   -1    0    0  501    0  0.00000000000E+00  0.00000000000E+00  0.11732158539E+04  0.11732158539E+04  0.25500000920E-02 0. -1.
       -2   -1    0    0    0  501  0.00000000000E+00  0.00000000000E+00 -0.30754144081E+04  0.30754144081E+04  0.25500000920E-02 0.  1.
    10030    2    1    2    0    0  0.00000000000E+00  0.00000000000E+00 -0.19021985542E+04  0.42486302619E+04  0.37990129985E+04 0.  0.
        1    1    3    3  502    0 -0.23747076892E+03  0.14714033489E+04  0.36585337645E+03  0.15346885268E+04  0.50400001928E-02 0. -1.
       -1    1    3    3    0  502  0.23747076892E+03 -0.14714033489E+04 -0.22680519307E+04  0.27139417351E+04  0.50400001928E-02 0.  1.
</event>
<event>
 5   0  0.1193861E-07  0.3791699E+04  0.7818609E-02  0.8047939E-01
        2   -1    0    0  501    0  0.00000000000E+00  0.00000000000E+00  0.17428641492E+04  0.17428641492E+04  0.25500000920E-02 0. -1.
       -2   -1    0    0    0  501  0.00000000000E+00  0.00000000000E+00 -0.20622638797E+04  0.20622638797E+04  0.25500000920E-02 0.  1.
    10030    2    1    2    0    0  0.00000000000E+00  0.00000000000E+00 -0.31939973049E+03  0.38051280289E+04  0.37916992402E+04 0.  0.
        3    1    3    3  502    0 -0.14945879628E+04  0.96713658975E+03 -0.81400547449E+03  0.19574859602E+04  0.10100000352E+00 0.  1.
       -3    1    3    3    0  502  0.14945879628E+04 -0.96713658975E+03  0.49460574400E+03  0.18476420687E+04  0.10100000352E+00 0. -1.
</event>
<event>
 5   0  0.3701250E-08  0.3777415E+04  0.7818609E-02  0.8051019E-01
        1   -1    0    0  501    0  0.00000000000E+00  0.00000000000E+00  0.16798805793E+04  0.16798805793E+04  0.50400001928E-02 0.  1.
       -1   -1    0    0    0  501  0.00000000000E+00  0.00000000000E+00 -0.21234935126E+04  0.21234935126E+04  0.50400001928E-02 0. -1.
    10030    2    1    2    0    0  0.00000000000E+00  0.00000000000E+00 -0.44361293326E+03  0.38033740919E+04  0.37774147308E+04 0.  0.
        2    1    3    3  502    0 -0.76839301104E+03 -0.32758788296E+03  0.14837869518E+04  0.17027522893E+04  0.25500000920E-02 0.  1.
       -2    1    3    3    0  502  0.76839301104E+03  0.32758788296E+03 -0.19273998851E+04  0.21006218026E+04  0.25500000920E-02 0. -1.
</event>
<event>
 5   0  0.1143283E-07  0.3825957E+04  0.7818609E-02  0.8040607E-01
        2   -1    0    0  501    0  0.00000000000E+00  0.00000000000E+00  0.22030440942E+04  0.22030440942E+04  0.25500000920E-02 0. -1.
       -2   -1    0    0    0  501  0.00000000000E+00  0.00000000000E+00 -0.16611045214E+04  0.16611045214E+04  0.25500000920E-02 0.  1.
    10030    2    1    2    0    0  0.00000000000E+00  0.00000000000E+00  0.54193957284E+03  0.38641486156E+04  0.38259568767E+04 0.  0.
        1    1    3    3  502    0  0.92728246266E+03  0.62290484007E+03  0.18394118681E+04  0.21520453587E+04  0.50400001928E-02 0. -1.
       -1    1    3    3    0  502 -0.92728246266E+03 -0.62290484007E+03 -0.12974722952E+04  0.17121032569E+04  0.50400001928E-02 0.  1.
</event>
<event>
 5   0  0.1143283E-07  0.3782247E+04  0.7818609E-02  0.8049975E-01
       -2   -1    0    0    0  501  0.00000000000E+00  0.00000000000E+00  0.13831730854E+04  0.13831730854E+04  0.25500000920E-02 0.  1.
        2   -1    0    0  501    0  0.00000000000E+00  0.00000000000E+00 -0.25856113640E+04  0.25856113640E+04  0.25500000920E-02 0. -1.
    10030    2    1    2    0    0  0.00000000000E+00  0.00000000000E+00 -0.12024382786E+04  0.39687844494E+04  0.37822469766E+04 0.  0.
        1    1    3    3  502    0 -0.11047452900E+04  0.14101916213E+04 -0.12371147972E+04  0.21770520403E+04  0.50400001928E-02 0. -1.
       -1    1    3    3    0  502  0.11047452900E+04 -0.14101916213E+04  0.34676518629E+02  0.17917324091E+04  0.50400001928E-02 0.  1.
</event>
<event>
 5   0  0.3701250E-08  0.3796365E+04  0.7818609E-02  0.8046935E-01
       -1   -1    0    0    0  501  0.00000000000E+00  0.00000000000E+00  0.25510665869E+04  0.25510665869E+04  0.50400001928E-02 0. -1.
        1   -1    0    0  501    0  0.00000000000E+00  0.00000000000E+00 -0.14123883340E+04  0.14123883340E+04  0.50400001928E-02 0.  1.
    10030    2    1    2    0    0  0.00000000000E+00  0.00000000000E+00  0.11386782528E+04  0.39634549209E+04  0.37963649385E+04 0.  0.
        3    1    3    3  502    0  0.88988320616E+03  0.13299448688E+04  0.16352817692E+04  0.22879667720E+04  0.10100000352E+00 0. -1.
       -3    1    3    3    0  502 -0.88988320616E+03 -0.13299448688E+04 -0.49660351640E+03  0.16754881489E+04  0.10100000352E+00 0.  1.
</event>
<event>
 5   0  0.1193861E-07  0.3812722E+04  0.7818609E-02  0.8043430E-01
       -2   -1    0    0    0  501  0.00000000000E+00  0.00000000000E+00  0.19695251519E+04  0.19695251519E+04  0.25500000920E-02 0.  1.
        2   -1    0    0  501    0  0.00000000000E+00  0.00000000000E+00 -0.18452226774E+04  0.18452226774E+04  0.25500000920E-02 0. -1.
    10030    2    1    2    0    0  0.00000000000E+00  0.00000000000E+00  0.12430247451E+03  0.38147478293E+04  0.38127221111E+04 0.  0.
        3    1    3    3  502    0 -0.55464324613E+03  0.17399747799E+04 -0.48501325278E+03  0.18895447152E+04  0.10100000352E+00 0. -1.
       -3    1    3    3    0  502  0.55464324613E+03 -0.17399747799E+04  0.60931572729E+03  0.19252031142E+04  0.10100000352E+00 0.  1.
</event>
<event>
 5   0  0.3701250E-08  0.3648735E+04  0.7818609E-02  0.8079419E-01
        1   -1    0    0  501    0  0.00000000000E+00  0.00000000000E+00  0.19541474723E+04  0.19541474723E+04  0.50400001928E-02 0.  1.
       -1   -1    0    0    0  501  0.00000000000E+00  0.00000000000E+00 -0.17032065293E+04  0.17032065293E+04  0.50400001928E-02 0. -1.
    10030    2    1    2    0    0  0.00000000000E+00  0.00000000000E+00  0.25094094304E+03  0.36573540016E+04  0.36487349775E+04 0.  0.
        4    1    3    3  502    0  0.15336684988E+04 -0.96652728621E+03 -0.79955246813E+02  0.18145821870E+04  0.12699999809E+01 0.  1.
       -4    1    3    3    0  502 -0.15336684988E+04  0.96652728621E+03  0.33089618985E+03  0.18427718145E+04  0.12699999809E+01 0. -1.
</event>
<event>
 5   0  0.3701250E-08  0.3783709E+04  0.7818609E-02  0.8049660E-01
        1   -1    0    0  501    0  0.00000000000E+00  0.00000000000E+00  0.17962821907E+04  0.17962821907E+04  0.50400001928E-02 0. -1.
       -1   -1    0    0    0  501  0.00000000000E+00  0.00000000000E+00 -0.19925120083E+04  0.19925120083E+04  0.50400001928E-02 0.  1.
    10030    2    1    2    0    0  0.00000000000E+00  0.00000000000E+00 -0.19622981761E+03  0.37887941990E+04  0.37837092040E+04 0.  0.
        4    1    3    3  502    0 -0.14646830453E+04 -0.10279350218E+04  0.51684836660E+03  0.18625468260E+04  0.12699999809E+01 0. -1.
       -4    1    3    3    0  502  0.14646830453E+04  0.10279350218E+04 -0.71307818420E+03  0.19262473730E+04  0.12699999809E+01 0.  1.
</event>
<event>
 5   0  0.3701250E-08  0.3789679E+04  0.7818609E-02  0.8048373E-01
       -1   -1    0    0    0  501  0.00000000000E+00  0.00000000000E+00  0.22435411136E+04  0.22435411136E+04  0.50400001928E-02 0.  1.
        1   -1    0    0  501    0  0.00000000000E+00  0.00000000000E+00 -0.16003344732E+04  0.16003344732E+04  0.50400001928E-02 0. -1.
    10030    2    1    2    0    0  0.00000000000E+00  0.00000000000E+00  0.64320664046E+03  0.38438755868E+04  0.37896787126E+04 0.  0.
        3    1    3    3  502    0  0.60208600170E+03 -0.15147374093E+04 -0.65838128608E+03  0.17579541805E+04  0.10100000352E+00 0. -1.
       -3    1    3    3    0  502 -0.60208600170E+03  0.15147374093E+04  0.13015879265E+04  0.20859214063E+04  0.10100000352E+00 0.  1.
</event>
<event>
 5   0  0.7858367E-08  0.3797254E+04  0.7818609E-02  0.8046744E-01
        2   -1    0    0  501    0  0.00000000000E+00  0.00000000000E+00  0.33796682735E+04  0.33796682735E+04  0.25500000920E-02 0.  1.
       -2   -1    0    0    0  501  0.00000000000E+00  0.00000000000E+00 -0.10666088471E+04  0.10666088471E+04  0.25500000920E-02 0. -1.
    10030    2    1    2    0    0  0.00000000000E+00  0.00000000000E+00  0.23130594264E+04  0.44462771206E+04  0.37972537870E+04 0.  0.
        2    1    3    3  502    0  0.75374045751E+03  0.20529118104E+03 -0.86970683663E+03  0.11690419702E+04  0.25500000920E-02 0. -1.
       -2    1    3    3    0  502 -0.75374045751E+03 -0.20529118104E+03  0.31827662630E+04  0.32772351505E+04  0.25500000920E-02 0.  1.
</event>
<event>
 5   0  0.7858367E-08  0.3790921E+04  0.7818609E-02  0.8048106E-01
       -2   -1    0    0    0  501  0.00000000000E+00  0.00000000000E+00  0.13061818775E+04  0.13061818775E+04  0.25500000920E-02 0.  1.
        2   -1    0    0  501    0  0.00000000000E+00  0.00000000000E+00 -0.27505894405E+04  0.27505894405E+04  0.25500000920E-02 0. -1.
    10030    2    1    2    0    0  0.00000000000E+00  0.00000000000E+00 -0.14444075630E+04  0.40567713181E+04  0.37909207745E+04 0.  0.
        2    1    3    3  502    0 -0.14543689779E+04 -0.34801131769E+03  0.52414837027E+03  0.15846237772E+04  0.25500000920E-02 0.  1.
       -2    1    3    3    0  502  0.14543689779E+04  0.34801131769E+03 -0.19685559333E+04  0.24721475408E+04  0.25500000920E-02 0. -1.
</event>
<event>
 5   0  0.1174870E-07  0.3810668E+04  0.7818609E-02  0.8043869E-01
       -2   -1    0    0    0  501  0.00000000000E+00  0.00000000000E+00  0.16664397519E+04  0.16664397519E+04  0.25500000920E-02 0. -1.
        2   -1    0    0  501    0  0.00000000000E+00  0.00000000000E+00 -0.21784750628E+04  0.21784750628E+04  0.25500000920E-02 0.  1.
    10030    2    1    2    0    0  0.00000000000E+00  0.00000000000E+00 -0.51203531089E+03  0.38449148146E+04  0.38106678906E+04 0.  0.
        5    1    3    3  502    0 -0.72261645487E+03 -0.51373783914E+03 -0.19576421223E+04  0.21490662803E+04  0.46999998093E+01 0.  1.
       -5    1    3    3    0  502  0.72261645487E+03  0.51373783914E+03  0.14456068114E+04  0.16958485343E+04  0.46999998093E+01 0. -1.
</event>
<event>
 5   0  0.3701250E-08  0.3803154E+04  0.7818609E-02  0.8045478E-01
        1   -1    0    0  501    0  0.00000000000E+00  0.00000000000E+00  0.18150756968E+04  0.18150756968E+04  0.50400001928E-02 0.  1.
       -1   -1    0    0    0  501  0.00000000000E+00  0.00000000000E+00 -0.19922005560E+04  0.19922005560E+04  0.50400001928E-02 0. -1.
    10030    2    1    2    0    0  0.00000000000E+00  0.00000000000E+00 -0.17712485919E+03  0.38072762528E+04  0.38031538556E+04 0.  0.
        3    1    3    3  502    0 -0.11847434770E+04  0.93830474944E+01 -0.15775514287E+04  0.19729099494E+04  0.10100000352E+00 0. -1.
       -3    1    3    3    0  502  0.11847434770E+04 -0.93830474944E+01  0.14004265696E+04  0.18343663033E+04  0.10100000352E+00 0.  1.
</event>
<event>
 5   0  0.3701250E-08  0.3822692E+04  0.7818609E-02  0.8041303E-01
        1   -1    0    0  501    0  0.00000000000E+00  0.00000000000E+00  0.17810223791E+04  0.17810223791E+04  0.50400001928E-02 0.  1.
       -1   -1    0    0    0  501  0.00000000000E+00  0.00000000000E+00 -0.20512058788E+04  0.20512058788E+04  0.50400001928E-02 0. -1.
    10030    2    1    2    0    0  0.00000000000E+00  0.00000000000E+00 -0.27018349972E+03  0.38322282579E+04  0.38226920223E+04 0.  0.
        3    1    3    3  502    0  0.10074626048E+04  0.84323733383E+03  0.12566125503E+04  0.18179948331E+04  0.10100000352E+00 0.  1.
       -3    1    3    3    0  502 -0.10074626048E+04 -0.84323733383E+03 -0.15267960500E+04  0.20142334249E+04  0.10100000352E+00 0. -1.
</event>
<event>
 5   0  0.7858367E-08  0.3799128E+04  0.7818609E-02  0.8046342E-01
       -2   -1    0    0    0  501  0.00000000000E+00  0.00000000000E+00  0.16523559117E+04  0.16523559117E+04  0.25500000920E-02 0. -1.
        2   -1    0    0  501    0  0.00000000000E+00  0.00000000000E+00 -0.21837570551E+04  0.21837570551E+04  0.25500000920E-02 0.  1.
    10030    2    1    2    0    0  0.00000000000E+00  0.00000000000E+00 -0.53140114342E+03  0.38361129667E+04  0.37991282577E+04 0.  0.
        2    1    3    3  502    0  0.60666550179E+03 -0.19065110677E+03 -0.20730848533E+04  0.21684260846E+04  0.25500000920E-02 0.  1.
       -2    1    3    3    0  502 -0.60666550179E+03  0.19065110677E+03  0.15416837099E+04  0.16676868821E+04  0.25500000920E-02 0. -1.
</event>
<event>
 5   0  0.1193861E-07  0.3801134E+04  0.7818609E-02  0.8045911E-01
        2   -1    0    0  501    0  0.00000000000E+00  0.00000000000E+00  0.27174010208E+04  0.27174010208E+04  0.25500000920E-02 0. -1.
       -2   -1    0    0    0  501  0.00000000000E+00  0.00000000000E+00 -0.13292685794E+04  0.13292685794E+04  0.25500000920E-02 0.  1.
    10030    2    1    2    0    0  0.00000000000E+00  0.00000000000E+00  0.13881324414E+04  0.40466696002E+04  0.38011344594E+04 0.  0.
        3    1    3    3  502    0  0.55732880592E+03 -0.17914697834E+04  0.10172833655E+04  0.21342082463E+04  0.10100000352E+00 0.  1.
       -3    1    3    3    0  502 -0.55732880592E+03  0.17914697834E+04  0.37084907588E+03  0.19124613539E+04  0.10100000352E+00 0. -1.
</event>
<event>
 5   0  0.1150235E-07  0.3792196E+04  0.7818609E-02  0.8047832E-01
       -2   -1    0    0    0  501  0.00000000000E+00  0.00000000000E+00  0.14385844929E+04  0.14385844929E+04  0.25500000920E-02 0. -1.
        2   -1    0    0  501    0  0.00000000000E+00  0.00000000000E+00 -0.24991142211E+04  0.24991142211E+04  0.25500000920E-02 0.  1.
    10030    2    1    2    0    0  0.00000000000E+00  0.00000000000E+00 -0.10605297282E+04  0.39376987140E+04  0.37921956513E+04 0.  0.
        4    1    3    3  502    0  0.13753968860E+04  0.10675197545E+04 -0.13099897044E+04  0.21788505361E+04  0.12699999809E+01 0.  1.
       -4    1    3    3    0  502 -0.13753968860E+04 -0.10675197545E+04  0.24945997621E+03  0.17588481778E+04  0.12699999809E+01 0. -1.
</event>
<event>
 5   0  0.7858367E-08  0.3842838E+04  0.7818609E-02  0.8037024E-01
        2   -1    0    0  501    0  0.00000000000E+00  0.00000000000E+00  0.19361302357E+04  0.19361302357E+04  0.25500000920E-02 0. -1.
       -2   -1    0    0    0  501  0.00000000000E+00  0.00000000000E+00 -0.19068194385E+04  0.19068194385E+04  0.25500000920E-02 0.  1.
    10030    2    1    2    0    0  0.00000000000E+00  0.00000000000E+00  0.29310797147E+02  0.38429496742E+04  0.38428378935E+04 0.  0.
        2    1    3    3  502    0  0.72526517316E+03  0.13229882747E+04 -0.11751452463E+04  0.19124000356E+04  0.25500000920E-02 0. -1.
       -2    1    3    3    0  502 -0.72526517316E+03 -0.13229882747E+04  0.12044560435E+04  0.19305496386E+04  0.25500000920E-02 0.  1.
</event>
<event>
 5   0  0.1143283E-07  0.3797056E+04  0.7818609E-02  0.8046787E-01
       -2   -1    0    0    0  501  0.00000000000E+00  0.00000000000E+00  0.16521275875E+04  0.16521275875E+04  0.25500000920E-02 0. -1.
        2   -1    0    0  501    0  0.00000000000E+00  0.00000000000E+00 -0.21816771000E+04  0.21816771000E+04  0.25500000920E-02 0.  1.
    10030    2    1    2    0    0  0.00000000000E+00  0.00000000000E+00 -0.52954951246E+03  0.38338046875E+04  0.37970561881E+04 0.  0.
        1    1    3    3  502    0 -0.27601191330E+03  0.15650621986E+04  0.78393370040E+03  0.17720480548E+04  0.50400001928E-02 0. -1.
       -1    1    3    3    0  502  0.27601191330E+03 -0.15650621986E+04 -0.13134832129E+04  0.20617566327E+04  0.50400001928E-02 0.  1.
</event>
<event>
 5   0  0.3701250E-08  0.3811098E+04  0.7818609E-02  0.8043777E-01
        1   -1    0    0  501    0  0.00000000000E+00  0.00000000000E+00  0.14603648494E+04  0.14603648495E+04  0.50400001928E-02 0.  1.
       -1   -1    0    0    0  501  0.00000000000E+00  0.00000000000E+00 -0.24864449628E+04  0.24864449628E+04  0.50400001928E-02 0. -1.
    10030    2    1    2    0    0  0.00000000000E+00  0.00000000000E+00 -0.10260801133E+04  0.39468098122E+04  0.38110979120E+04 0.  0.
        3    1    3    3  502    0  0.15274773112E+04 -0.85529302070E+03  0.26635768594E+03  0.17707793523E+04  0.10100000352E+00 0.  1.
       -3    1    3    3    0  502 -0.15274773112E+04  0.85529302070E+03 -0.12924377993E+04  0.21760304599E+04  0.10100000352E+00 0. -1.
</event>
<event>
 5   0  0.1174870E-07  0.3794708E+04  0.7818609E-02  0.8047291E-01
       -2   -1    0    0    0  501  0.00000000000E+00  0.00000000000E+00  0.14184964776E+04  0.14184964776E+04  0.25500000920E-02 0. -1.
        2   -1    0    0  501    0  0.00000000000E+00  0.00000000000E+00 -0.25378647723E+04  0.25378647723E+04  0.25500000920E-02 0.  1.
    10030    2    1    2    0    0  0.00000000000E+00  0.00000000000E+00 -0.11193682947E+04  0.39563612499E+04  0.37947080205E+04 0.  0.
        5    1    3    3  502    0  0.96808495552E+03 -0.12135267730E+04  0.57770292450E+03  0.16563811363E+04  0.46999998093E+01 0. -1.
       -5    1    3    3    0  502 -0.96808495552E+03  0.12135267730E+04 -0.16970712192E+04  0.22999801136E+04  0.46999998093E+01 0.  1.
</event>
<event>
 5   0  0.3889225E-08  0.3783134E+04  0.7818609E-02  0.8049784E-01
        1   -1    0    0  501    0  0.00000000000E+00  0.00000000000E+00  0.19813687563E+04  0.19813687563E+04  0.50400001928E-02 0.  1.
       -1   -1    0    0    0  501  0.00000000000E+00  0.00000000000E+00 -0.18058349849E+04  0.18058349849E+04  0.50400001928E-02 0. -1.
    10030    2    1    2    0    0  0.00000000000E+00  0.00000000000E+00  0.17553377144E+03  0.37872037412E+04  0.37831336313E+04 0.  0.
        5    1    3    3  502    0 -0.66397036600E+03  0.11086220308E+04 -0.12950604262E+04  0.18295089646E+04  0.46999998093E+01 0. -1.
       -5    1    3    3    0  502  0.66397036600E+03 -0.11086220308E+04  0.14705941976E+04  0.19576947766E+04  0.46999998093E+01 0.  1.
</event>
<event>
 5   0  0.3701250E-08  0.3804593E+04  0.7818609E-02  0.8045170E-01
        1   -1    0    0  501    0  0.00000000000E+00  0.00000000000E+00  0.26129204450E+04  0.26129204450E+04  0.50400001928E-02 0. -1.
       -1   -1    0    0    0  501  0.00000000000E+00  0.00000000000E+00 -0.13849376776E+04  0.13849376776E+04  0.50400001928E-02 0.  1.
    10030    2    1    2    0    0  0.00000000000E+00  0.00000000000E+00  0.12279827674E+04  0.39978581226E+04  0.38045929995E+04 0.  0.
        3    1    3    3  502    0 -0.18598469204E+04 -0.39048967467E+03  0.52470936668E+03  0.19715051821E+04  0.10100000352E+00 0.  1.
       -3    1    3    3    0  502  0.18598469204E+04  0.39048967467E+03  0.70327340068E+03  0.20263529405E+04  0.10100000352E+00 0. -1.
</event>
<event>
 5   0  0.1143283E-07  0.3796582E+04  0.7818609E-02  0.8046889E-01
        2   -1    0    0  501    0  0.00000000000E+00  0.00000000000E+00  0.23935439020E+04  0.23935439020E+04  0.25500000920E-02 0.  1.
       -2   -1    0    0    0  501  0.00000000000E+00  0.00000000000E+00 -0.15055121214E+04  0.15055121214E+04  0.25500000920E-02 0. -1.
    10030    2    1    2    0    0  0.00000000000E+00  0.00000000000E+00  0.88803178060E+03  0.38990560235E+04  0.37965823356E+04 0.  0.
        1    1    3    3  502    0  0.97265243467E+03  0.48364591264E+03  0.20428081539E+04  0.23136618770E+04  0.50400001928E-02 0.  1.
       -1    1    3    3    0  502 -0.97265243467E+03 -0.48364591264E+03 -0.11547763733E+04  0.15853941465E+04  0.50400001928E-02 0. -1.
</event>
<event>
 5   0  0.3701250E-08  0.3823543E+04  0.7818609E-02  0.8041121E-01
       -1   -1    0    0    0  501  0.00000000000E+00  0.00000000000E+00  0.15537940433E+04  0.15537940433E+04  0.50400001928E-02 0. -1.
        1   -1    0    0  501    0  0.00000000000E+00  0.00000000000E+00 -0.23522234549E+04  0.23522234549E+04  0.50400001928E-02 0.  1.
    10030    2    1    2    0    0  0.00000000000E+00  0.00000000000E+00 -0.79842941160E+03  0.39060174982E+04  0.38235432743E+04 0.  0.
        1    1    3    3  502    0 -0.52608881447E+03 -0.83713586800E+03  0.12723265127E+04  0.16113288482E+04  0.50400001928E-02 0. -1.
       -1    1    3    3    0  502  0.52608881447E+03  0.83713586800E+03 -0.20707559243E+04  0.22946886499E+04  0.50400001928E-02 0.  1.
</event>
<event>
 5   0  0.3701250E-08  0.3791403E+04  0.7818609E-02  0.8048002E-01
        1   -1    0    0  501    0  0.00000000000E+00  0.00000000000E+00  0.17800908557E+04  0.17800908557E+04  0.50400001928E-02 0. -1.
       -1   -1    0    0    0  501  0.00000000000E+00  0.00000000000E+00 -0.20188204502E+04  0.20188204502E+04  0.50400001928E-02 0.  1.
    10030    2    1    2    0    0  0.00000000000E+00  0.00000000000E+00 -0.23872959454E+03  0.37989113059E+04  0.37914028131E+04 0.  0.
        3    1    3    3  502    0  0.27022414714E+03 -0.16597030758E+04  0.75761045401E+03  0.18443451412E+04  0.10100000352E+00 0. -1.
       -3    1    3    3    0  502 -0.27022414714E+03  0.16597030758E+04 -0.99634004854E+03  0.19545661647E+04  0.10100000352E+00 0.  1.
</event>
<event>
 5   0  0.3701250E-08  0.3802989E+04  0.7818609E-02  0.8045514E-01
       -1   -1    0    0    0  501  0.00000000000E+00  0.00000000000E+00  0.21589042258E+04  0.21589042258E+04  0.50400001928E-02 0. -1.
        1   -1    0    0  501    0  0.00000000000E+00  0.00000000000E+00 -0.16747761440E+04  0.16747761440E+04  0.50400001928E-02 0.  1.
    10030    2    1    2    0    0  0.00000000000E+00  0.00000000000E+00  0.48412808187E+03  0.38336803698E+04  0.38029889795E+04 0.  0.
        2    1    3    3  502    0  0.13785999380E+04 -0.20229798362E+03 -0.10622944552E+04  0.17521220770E+04  0.25500000920E-02 0.  1.
       -2    1    3    3    0  502 -0.13785999380E+04  0.20229798362E+03  0.15464225370E+04  0.20815582928E+04  0.25500000920E-02 0. -1.
</event>
<event>
 5   0  0.3701250E-08  0.3823055E+04  0.7818609E-02  0.8041225E-01
        1   -1    0    0  501    0  0.00000000000E+00  0.00000000000E+00  0.11591178678E+04  0.11591178678E+04  0.50400001928E-02 0.  1.
       -1   -1    0    0    0  501  0.00000000000E+00  0.00000000000E+00 -0.31523435348E+04  0.31523435349E+04  0.50400001928E-02 0. -1.
    10030    2    1    2    0    0  0.00000000000E+00  0.00000000000E+00 -0.19932256670E+04  0.43114614027E+04  0.38230551744E+04 0.  0.
        3    1    3    3  502    0  0.13006089417E+04 -0.25722097772E+03 -0.25495540954E+04  0.28736687955E+04  0.10100000352E+00 0. -1.
       -3    1    3    3    0  502 -0.13006089417E+04  0.25722097772E+03  0.55632842839E+03  0.14377926071E+04  0.10100000352E+00 0.  1.
</event>
<event>
 5   0  0.7858367E-08  0.3803288E+04  0.7818609E-02  0.8045450E-01
        2   -1    0    0  501    0  0.00000000000E+00  0.00000000000E+00  0.30481172077E+04  0.30481172077E+04  0.25500000920E-02 0.  1.
       -2   -1    0    0    0  501  0.00000000000E+00  0.00000000000E+00 -0.11863878658E+04  0.11863878658E+04  0.25500000920E-02 0. -1.
    10030    2    1    2    0    0  0.00000000000E+00  0.00000000000E+00  0.18617293419E+04  0.42345050736E+04  0.38032876667E+04 0.  0.
        2    1    3    3  502    0  0.83757863831E+03 -0.47976779318E+03 -0.89335842383E+03  0.13152202797E+04  0.25500000920E-02 0. -1.
       -2    1    3    3    0  502 -0.83757863831E+03  0.47976779318E+03  0.27550877657E+04  0.29192847939E+04  0.25500000920E-02 0.  1.
</event>
<event>
 5   0  0.1143283E-07  0.3789355E+04  0.7818609E-02  0.8048443E-01
       -2   -1    0    0    0  501  0.00000000000E+00  0.00000000000E+00  0.33030831962E+04  0.33030831962E+04  0.25500000920E-02 0.  1.
        2   -1    0    0  501    0  0.00000000000E+00  0.00000000000E+00 -0.10868035498E+04  0.10868035498E+04  0.25500000920E-02 0. -1.
    10030    2    1    2    0    0  0.00000000000E+00  0.00000000000E+00  0.22162796463E+04  0.43898867460E+04  0.37893548491E+04 0.  0.
        1    1    3    3  502    0 -0.12535001391E+04  0.12770275431E+04  0.18295108216E+04  0.25591349692E+04  0.50400001928E-02 0.  1.
       -1    1    3    3    0  502  0.12535001391E+04 -0.12770275431E+04  0.38676882476E+03  0.18307517768E+04  0.50400001928E-02 0. -1.
</event>
<event>
 5   0  0.3701250E-08  0.3760008E+04  0.7818609E-02  0.8054792E-01
       -1   -1    0    0    0  501  0.00000000000E+00  0.00000000000E+00  0.24261658661E+04  0.24261658661E+04  0.50400001928E-02 0.  1.
        1   -1    0    0  501    0  0.00000000000E+00  0.00000000000E+00 -0.14567903438E+04  0.14567903438E+04  0.50400001928E-02 0. -1.
    10030    2    1    2    0    0  0.00000000000E+00  0.00000000000E+00  0.96937552235E+03  0.38829562099E+04  0.37600079820E+04 0.  0.
        4    1    3    3  502    0 -0.14002003562E+04  0.11959814924E+04  0.87586209986E+03  0.20391343257E+04  0.12699999809E+01 0.  1.
       -4    1    3    3    0  502  0.14002003562E+04 -0.11959814924E+04  0.93513422486E+02  0.18438218842E+04  0.12699999809E+01 0. -1.
</event>
<event>
 5   0  0.7858367E-08  0.3803283E+04  0.7818609E-02  0.8045451E-01
        2   -1    0    0  501    0  0.00000000000E+00  0.00000000000E+00  0.23961640804E+04  0.23961640804E+04  0.25500000920E-02 0. -1.
       -2   -1    0    0    0  501  0.00000000000E+00  0.00000000000E+00 -0.15091791986E+04  0.15091791986E+04  0.25500000920E-02 0.  1.
    10030    2    1    2    0    0  0.00000000000E+00  0.00000000000E+00  0.88698488183E+03  0.39053432790E+04  0.38032833114E+04 0.  0.
        2    1    3    3  502    0 -0.25939162458E+03  0.18837227451E+04  0.41950774647E+03  0.19472242154E+04  0.25500000920E-02 0.  1.
       -2    1    3    3    0  502  0.25939162458E+03 -0.18837227451E+04  0.46747713536E+03  0.19581190637E+04  0.25500000920E-02 0. -1.
</event>
<event>
 5   0  0.3701250E-08  0.3808487E+04  0.7818609E-02  0.8044336E-01
        1   -1    0    0  501    0  0.00000000000E+00  0.00000000000E+00  0.12809200586E+04  0.12809200586E+04  0.50400001928E-02 0. -1.
       -1   -1    0    0    0  501  0.00000000000E+00  0.00000000000E+00 -0.28308897412E+04  0.28308897412E+04  0.50400001928E-02 0.  1.
    10030    2    1    2    0    0  0.00000000000E+00  0.00000000000E+00 -0.15499696826E+04  0.41118097997E+04  0.38084870766E+04 0.  0.
        3    1    3    3  502    0 -0.17383590509E+04 -0.10173256964E+03 -0.16070126250E+04  0.23695424227E+04  0.10100000352E+00 0.  1.
       -3    1    3    3    0  502  0.17383590509E+04  0.10173256964E+03  0.57042942468E+02  0.17422673771E+04  0.10100000352E+00 0. -1.
</event>
<event>
 5   0  0.7858367E-08  0.3818693E+04  0.7818609E-02  0.8042155E-01
        2   -1    0    0  501    0  0.00000000000E+00  0.00000000000E+00  0.12840492829E+04  0.12840492829E+04  0.25500000920E-02 0.  1.
       -2   -1    0    0    0  501  0.00000000000E+00  0.00000000000E+00 -0.28391471820E+04  0.28391471820E+04  0.25500000920E-02 0. -1.
    10030    2    1    2    0    0  0.00000000000E+00  0.00000000000E+00 -0.15550978991E+04  0.41231964649E+04  0.38186934432E+04 0.  0.
        2    1    3    3  502    0  0.25739288398E+03  0.18695863438E+04 -0.46460921431E+03  0.19435704041E+04  0.25500000920E-02 0.  1.
       -2    1    3    3    0  502 -0.25739288398E+03 -0.18695863438E+04 -0.10904886848E+04  0.21796260609E+04  0.25500000920E-02 0. -1.
</event>
<event>
 5   0  0.3701250E-08  0.3809738E+04  0.7818609E-02  0.8044068E-01
       -1   -1    0    0    0  501  0.00000000000E+00  0.00000000000E+00  0.17445501008E+04  0.17445501008E+04  0.50400001928E-02 0. -1.
        1   -1    0    0  501    0  0.00000000000E+00  0.00000000000E+00 -0.20799212531E+04  0.20799212531E+04  0.50400001928E-02 0.  1.
    10030    2    1    2    0    0  0.00000000000E+00  0.00000000000E+00 -0.33537115226E+03  0.38244713539E+04  0.38097384854E+04 0.  0.
        2    1    3    3  502    0  0.65280944198E+03 -0.10563393753E+04 -0.16177485946E+04  0.20393929388E+04  0.25500000920E-02 0.  1.
       -2    1    3    3    0  502 -0.65280944198E+03  0.10563393753E+04  0.12823774424E+04  0.17850784151E+04  0.25500000920E-02 0. -1.
</event>
<event>
 5   0  0.3701250E-08  0.3803461E+04  0.7818609E-02  0.8045413E-01
        1   -1    0    0  501    0  0.00000000000E+00  0.00000000000E+00  0.16836911308E+04  0.16836911308E+04  0.50400001928E-02 0.  1.
       -1   -1    0    0    0  501  0.00000000000E+00  0.00000000000E+00 -0.21480061887E+04  0.21480061887E+04  0.50400001928E-02 0. -1.
    10030    2    1    2    0    0  0.00000000000E+00  0.00000000000E+00 -0.46431505785E+03  0.38316973195E+04  0.38034610390E+04 0.  0.
        2    1    3    3  502    0 -0.30757078597E+03  0.98932706562E+03  0.13744264496E+04  0.17211670159E+04  0.25500000920E-02 0.  1.
       -2    1    3    3    0  502  0.30757078597E+03 -0.98932706562E+03 -0.18387415075E+04  0.21105303036E+04  0.25500000920E-02 0. -1.
</event>
<event>
 5   0  0.3701250E-08  0.3798990E+04  0.7818609E-02  0.8046372E-01
       -1   -1    0    0    0  501  0.00000000000E+00  0.00000000000E+00  0.20169366697E+04  0.20169366697E+04  0.50400001928E-02 0. -1.
        1   -1    0    0  501    0  0.00000000000E+00  0.00000000000E+00 -0.17888919430E+04  0.17888919430E+04  0.50400001928E-02 0.  1.
    10030    2    1    2    0    0  0.00000000000E+00  0.00000000000E+00  0.22804472672E+03  0.38058286128E+04  0.37989902648E+04 0.  0.
        2    1    3    3  502    0 -0.17748109186E+03 -0.92104969292E+03 -0.15406922524E+04  0.18037640343E+04  0.25500000920E-02 0.  1.
       -2    1    3    3    0  502  0.17748109186E+03  0.92104969292E+03  0.17687369792E+04  0.20020645784E+04  0.25500000920E-02 0. -1.
</event>
<event>
 5   0  0.7858367E-08  0.3806315E+04  0.7818609E-02  0.8044801E-01
       -2   -1    0    0    0  501  0.00000000000E+00  0.00000000000E+00  0.18534212158E+04  0.18534212158E+04  0.25500000920E-02 0. -1.
        2   -1    0    0  501    0  0.00000000000E+00  0.00000000000E+00 -0.19542289398E+04  0.19542289398E+04  0.25500000920E-02 0.  1.
    10030    2    1    2    0    0  0.00000000000E+00  0.00000000000E+00 -0.10080772397E+03  0.38076501555E+04  0.38063154769E+04 0.  0.
        2    1    3    3  502    0 -0.12596490353E+04 -0.64371280408E+03  0.12231990831E+04  0.18701063776E+04  0.25500000920E-02 0. -1.
       -2    1    3    3    0  502  0.12596490353E+04  0.64371280408E+03 -0.13240068071E+04  0.19375437780E+04  0.25500000920E-02 0.  1.
</event>
<event>
 5   0  0.3889225E-08  0.3801269E+04  0.7818609E-02  0.8045883E-01
        1   -1    0    0  501    0  0.00000000000E+00  0.00000000000E+00  0.30590517072E+04  0.30590517072E+04  0.50400001928E-02 0.  1.
       -1   -1    0    0    0  501  0.00000000000E+00  0.00000000000E+00 -0.11808923162E+04  0.11808923162E+04  0.50400001928E-02 0. -1.
    10030    2    1    2    0    0  0.00000000000E+00  0.00000000000E+00  0.18781593909E+04  0.42399440234E+04  0.38012685545E+04 0.  0.
        5    1    3    3  502    0 -0.72024502123E+03  0.16721901694E+02 -0.10226832431E+04  0.12509738680E+04  0.46999998093E+01 0. -1.
       -5    1    3    3    0  502  0.72024502123E+03 -0.16721901694E+02  0.29008426340E+04  0.29889701554E+04  0.46999998093E+01 0.  1.
</event>
<event>
 5   0  0.1174870E-07  0.3828810E+04  0.7818609E-02  0.8040000E-01
       -2   -1    0    0    0  501  0.00000000000E+00  0.00000000000E+00  0.14886095304E+04  0.14886095304E+04  0.25500000920E-02 0.  1.
        2   -1    0    0  501    0  0.00000000000E+00  0.00000000000E+00 -0.24619931182E+04  0.24619931182E+04  0.25500000920E-02 0. -1.
    10030    2    1    2    0    0  0.00000000000E+00  0.00000000000E+00 -0.97338358776E+03  0.39506026486E+04  0.38288099559E+04 0.  0.
        5    1    3    3  502    0  0.34964989917E+02 -0.82247501823E+03 -0.22700326222E+04  0.24146962339E+04  0.46999998093E+01 0. -1.
       -5    1    3    3    0  502 -0.34964989917E+02  0.82247501823E+03  0.12966490345E+04  0.15359064147E+04  0.46999998093E+01 0.  1.
</event>
<event>
 5   0  0.1193861E-07  0.3771737E+04  0.7818609E-02  0.8052247E-01
        2   -1    0    0  501    0  0.00000000000E+00  0.00000000000E+00  0.13149777149E+04  0.13149777149E+04  0.25500000920E-02 0.  1.
       -2   -1    0    0    0  501  0.00000000000E+00  0.00000000000E+00 -0.27046090751E+04  0.27046090751E+04  0.25500000920E-02 0. -1.
    10030    2    1    2    0    0  0.00000000000E+00  0.00000000000E+00 -0.13896313602E+04  0.40195867900E+04  0.37717373510E+04 0.  0.
        3    1    3    3  502    0 -0.32690913751E+03 -0.10616344231E+04 -0.23189567870E+04  0.25712833026E+04  0.10100000352E+00 0. -1.
       -3    1    3    3    0  502  0.32690913751E+03  0.10616344231E+04  0.92932542677E+03  0.14483034874E+04  0.10100000352E+00 0.  1.
</event>
<event>
 5   0  0.7858367E-08  0.3783707E+04  0.7818609E-02  0.8049660E-01
        2   -1    0    0  501    0  0.00000000000E+00  0.00000000000E+00  0.23910679760E+04  0.23910679760E+04  0.25500000920E-02 0.  1.
       -2   -1    0    0    0  501  0.00000000000E+00  0.00000000000E+00 -0.14968667163E+04  0.14968667163E+04  0.25500000920E-02 0. -1.
    10030    2    1    2    0    0  0.00000000000E+00  0.00000000000E+00  0.89420125963E+03  0.38879346923E+04  0.37837072137E+04 0.  0.
        2    1    3    3  502    0 -0.42652093918E+03  0.39539713819E+03 -0.14027257762E+04  0.15185185582E+04  0.25500000920E-02 0. -1.
       -2    1    3    3    0  502  0.42652093918E+03 -0.39539713819E+03  0.22969270358E+04  0.23694161341E+04  0.25500000920E-02 0.  1.
</event>
<event>
 5   0  0.3701250E-08  0.3808601E+04  0.7818609E-02  0.8044312E-01
        1   -1    0    0  501    0  0.00000000000E+00  0.00000000000E+00  0.18371342470E+04  0.18371342470E+04  0.50400001928E-02 0.  1.
       -1   -1    0    0    0  501  0.00000000000E+00  0.00000000000E+00 -0.19739227704E+04  0.19739227704E+04  0.50400001928E-02 0. -1.
    10030    2    1    2    0    0  0.00000000000E+00  0.00000000000E+00 -0.13678852334E+03  0.38110570174E+04  0.38086013823E+04 0.  0.
        4    1    3    3  502    0 -0.10363978584E+04 -0.64966137310E+03  0.13920600801E+04  0.18531090902E+04  0.12699999809E+01 0.  1.
       -4    1    3    3    0  502  0.10363978584E+04  0.64966137310E+03 -0.15288486034E+04  0.19579479272E+04  0.12699999809E+01 0. -1.
</event>
<event>
 5   0  0.1174870E-07  0.3792457E+04  0.7818609E-02  0.8047775E-01
        2   -1    0    0  501    0  0.00000000000E+00  0.00000000000E+00  0.13619748211E+04  0.13619748211E+04  0.25500000920E-02 0.  1.
       -2   -1    0    0    0  501  0.00000000000E+00  0.00000000000E+00 -0.26400511649E+04  0.26400511649E+04  0.25500000920E-02 0. -1.
    10030    2    1    2    0    0  0.00000000000E+00  0.00000000000E+00 -0.12780763438E+04  0.40020259860E+04  0.37924573632E+04 0.  0.
        5    1    3    3  502    0 -0.14403400875E+04 -0.47320920511E+03  0.56282511194E+03  0.16171891405E+04  0.46999998093E+01 0.  1.
       -5    1    3    3    0  502  0.14403400875E+04  0.47320920511E+03 -0.18409014558E+04  0.23848368455E+04  0.46999998093E+01 0. -1.
</event>
<event>
 5   0  0.3701250E-08  0.3841741E+04  0.7818609E-02  0.8037256E-01
        3   -1    0    0  501    0  0.00000000000E+00  0.00000000000E+00  0.15050245224E+04  0.15050245257E+04  0.10100000352E+00 0.  1.
       -3   -1    0    0    0  501  0.00000000000E+00  0.00000000000E+00 -0.24516174651E+04  0.24516174672E+04  0.10100000352E+00 0. -1.
    10030    2    1    2    0    0  0.00000000000E+00  0.00000000000E+00 -0.94659294271E+03  0.39566419929E+04  0.38417414880E+04 0.  0.
        5    1    3    3  502    0 -0.16956641196E+04 -0.86619961354E+03 -0.21245551385E+03  0.19159170160E+04  0.46999998093E+01 0. -1.
       -5    1    3    3    0  502  0.16956641196E+04  0.86619961354E+03 -0.73413742886E+03  0.20407249769E+04  0.46999998093E+01 0.  1.
</event>
<event>
 5   0  0.7858367E-08  0.3800157E+04  0.7818609E-02  0.8046121E-01
       -2   -1    0    0    0  501  0.00000000000E+00  0.00000000000E+00  0.15359112980E+04  0.15359112980E+04  0.25500000920E-02 0.  1.
        2   -1    0    0  501    0  0.00000000000E+00  0.00000000000E+00 -0.23505907812E+04  0.23505907812E+04  0.25500000920E-02 0. -1.
    10030    2    1    2    0    0  0.00000000000E+00  0.00000000000E+00 -0.81467948315E+03  0.38865020792E+04  0.38001573324E+04 0.  0.
        2    1    3    3  502    0 -0.97625834452E+03 -0.14119566104E+04  0.42578411529E+03  0.17686135637E+04  0.25500000920E-02 0.  1.
       -2    1    3    3    0  502  0.97625834452E+03  0.14119566104E+04 -0.12404635984E+04  0.21178885155E+04  0.25500000920E-02 0. -1.
</event>
<event>
 5   0  0.3701250E-08  0.3776059E+04  0.7818609E-02  0.8051312E-01
       -1   -1    0    0    0  501  0.00000000000E+00  0.00000000000E+00  0.11573924122E+04  0.11573924122E+04  0.50400001928E-02 0. -1.
        1   -1    0    0  501    0  0.00000000000E+00  0.00000000000E+00 -0.30799028353E+04  0.30799028354E+04  0.50400001928E-02 0.  1.
    10030    2    1    2    0    0  0.00000000000E+00  0.00000000000E+00 -0.19225104231E+04  0.42372952476E+04  0.37760594127E+04 0.  0.
        2    1    3    3  502    0  0.15106321579E+04  0.11173820002E+04 -0.75402487239E+03  0.20246247946E+04  0.25500000920E-02 0. -1.
       -2    1    3    3    0  502 -0.15106321579E+04 -0.11173820002E+04 -0.11684855508E+04  0.22126704529E+04  0.25500000920E-02 0.  1.
</event>
<event>
 5   0  0.1193861E-07  0.3811553E+04  0.7818609E-02  0.8043680E-01
       -2   -1    0    0    0  501  0.00000000000E+00  0.00000000000E+00  0.13347356270E+04  0.13347356270E+04  0.25500000920E-02 0.  1.
        2   -1    0    0  501    0  0.00000000000E+00  0.00000000000E+00 -0.27211258918E+04  0.27211258918E+04  0.25500000920E-02 0. -1.
    10030    2    1    2    0    0  0.00000000000E+00  0.00000000000E+00 -0.13863902649E+04  0.40558615188E+04  0.38115527929E+04 0.  0.
        3    1    3    3  502    0  0.83438427207E+03 -0.10037865273E+04  0.78440568653E+03  0.15228515348E+04  0.10100000352E+00 0.  1.
       -3    1    3    3    0  502 -0.83438427207E+03  0.10037865273E+04 -0.21707959514E+04  0.25330099839E+04  0.10100000352E+00 0. -1.
</event>
<event>
 5   0  0.1193861E-07  0.3801851E+04  0.7818609E-02  0.8045758E-01
        2   -1    0    0  501    0  0.00000000000E+00  0.00000000000E+00  0.28483824242E+04  0.28483824242E+04  0.25500000920E-02 0.  1.
       -2   -1    0    0    0  501  0.00000000000E+00  0.00000000000E+00 -0.12686206953E+04  0.12686206953E+04  0.25500000920E-02 0. -1.
    10030    2    1    2    0    0  0.00000000000E+00  0.00000000000E+00  0.15797617289E+04  0.41170031194E+04  0.38018505448E+04 0.  0.
        3    1    3    3  502    0  0.16297310529E+04  0.43872683364E+03 -0.15727265332E+03  0.16950631956E+04  0.10100000352E+00 0. -1.
       -3    1    3    3    0  502 -0.16297310529E+04 -0.43872683364E+03  0.17370343822E+04  0.24219399238E+04  0.10100000352E+00 0.  1.
</event>
<event>
 5   0  0.3889225E-08  0.3812829E+04  0.7818609E-02  0.8043408E-01
        1   -1    0    0  501    0  0.00000000000E+00  0.00000000000E+00  0.18088616971E+04  0.18088616971E+04  0.50400001928E-02 0. -1.
       -1   -1    0    0    0  501  0.00000000000E+00  0.00000000000E+00 -0.20092279164E+04  0.20092279164E+04  0.50400001928E-02 0.  1.
    10030    2    1    2    0    0  0.00000000000E+00  0.00000000000E+00 -0.20036621932E+03  0.38180896135E+04  0.38128285662E+04 0.  0.
        5    1    3    3  502    0 -0.13782641813E+04 -0.10663808279E+04  0.67393797235E+03  0.18684203767E+04  0.46999998093E+01 0. -1.
       -5    1    3    3    0  502  0.13782641813E+04  0.10663808279E+04 -0.87430419166E+03  0.19496692368E+04  0.46999998093E+01 0.  1.
</event>
<event>
 5   0  0.3701250E-08  0.3797035E+04  0.7818609E-02  0.8046792E-01
        1   -1    0    0  501    0  0.00000000000E+00  0.00000000000E+00  0.19851327882E+04  0.19851327882E+04  0.50400001928E-02 0. -1.
       -1   -1    0    0    0  501  0.00000000000E+00  0.00000000000E+00 -0.18156810393E+04  0.18156810393E+04  0.50400001928E-02 0.  1.
    10030    2    1    2    0    0  0.00000000000E+00  0.00000000000E+00  0.16945174894E+03  0.38008138275E+04  0.37970346135E+04 0.  0.
        3    1    3    3  502    0 -0.58618498546E+03  0.15480747908E+04  0.10152852450E+04  0.19418940584E+04  0.10100000352E+00 0. -1.
       -3    1    3    3    0  502  0.58618498546E+03 -0.15480747908E+04 -0.84583349605E+03  0.18589197692E+04  0.10100000352E+00 0.  1.
</event>
<event>
 5   0  0.1143283E-07  0.3822465E+04  0.7818609E-02  0.8041351E-01
        2   -1    0    0  501    0  0.00000000000E+00  0.00000000000E+00  0.21851831824E+04  0.21851831824E+04  0.25500000920E-02 0. -1.
       -2   -1    0    0    0  501  0.00000000000E+00  0.00000000000E+00 -0.16716263258E+04  0.16716263258E+04  0.25500000920E-02 0.  1.
    10030    2    1    2    0    0  0.00000000000E+00  0.00000000000E+00  0.51355685655E+03  0.38568095082E+04  0.38224650342E+04 0.  0.
        1    1    3    3  502    0 -0.92625183089E+03 -0.10681125968E+04 -0.10408572647E+04  0.17556169340E+04  0.50400001928E-02 0.  1.
       -1    1    3    3    0  502  0.92625183089E+03  0.10681125968E+04  0.15544141212E+04  0.21011925742E+04  0.50400001928E-02 0. -1.
</event>
<event>
 5   0  0.1150235E-07  0.3775311E+04  0.7818609E-02  0.8051474E-01
       -2   -1    0    0    0  501  0.00000000000E+00  0.00000000000E+00  0.12200231493E+04  0.12200231493E+04  0.25500000920E-02 0.  1.
        2   -1    0    0  501    0  0.00000000000E+00  0.00000000000E+00 -0.29206356860E+04  0.29206356860E+04  0.25500000920E-02 0. -1.
    10030    2    1    2    0    0  0.00000000000E+00  0.00000000000E+00 -0.17006125367E+04  0.41406588352E+04  0.37753109262E+04 0.  0.
        4    1    3    3  502    0  0.15122257571E+04  0.11238614184E+04 -0.72358125664E+03  0.20182821101E+04  0.12699999809E+01 0. -1.
       -4    1    3    3    0  502 -0.15122257571E+04 -0.11238614184E+04 -0.97703128007E+03  0.21223767251E+04  0.12699999809E+01 0.  1.
</event>
<event>
 5   0  0.1150235E-07  0.3786169E+04  0.7818609E-02  0.8049130E-01
        2   -1    0    0  501    0  0.00000000000E+00  0.00000000000E+00  0.19054874823E+04  0.19054874823E+04  0.25500000920E-02 0. -1.
       -2   -1    0    0    0  501  0.00000000000E+00  0.00000000000E+00 -0.18807621315E+04  0.18807621315E+04  0.25500000920E-02 0.  1.
    10030    2    1    2    0    0  0.00000000000E+00  0.00000000000E+00  0.24725350784E+02  0.37862496137E+04  0.37861688809E+04 0.  0.
        4    1    3    3  502    0 -0.59266760754E+03 -0.81160147682E+03  0.16167083364E+04  0.19036016674E+04  0.12699999809E+01 0. -1.
       -4    1    3    3    0  502  0.59266760754E+03  0.81160147682E+03 -0.15919829857E+04  0.18826479463E+04  0.12699999809E+01 0.  1.
</event>
<event>
 5   0  0.7858367E-08  0.3785152E+04  0.7818609E-02  0.8049349E-01
       -2   -1    0    0    0  501  0.00000000000E+00  0.00000000000E+00  0.27032599686E+04  0.27032599686E+04  0.25500000920E-02 0.  1.
        2   -1    0    0  501    0  0.00000000000E+00  0.00000000000E+00 -0.13250091518E+04  0.13250091518E+04  0.25500000920E-02 0. -1.
    10030    2    1    2    0    0  0.00000000000E+00  0.00000000000E+00  0.13782508168E+04  0.40282691204E+04  0.37851521492E+04 0.  0.
        2    1    3    3  502    0  0.96097847107E+03  0.16241439233E+04  0.53667261844E+03  0.19619736504E+04  0.25500000920E-02 0. -1.
       -2    1    3    3    0  502 -0.96097847107E+03 -0.16241439233E+04  0.84157819832E+03  0.20662954700E+04  0.25500000920E-02 0.  1.
</event>
<event>
 5   0  0.3701250E-08  0.3808131E+04  0.7818609E-02  0.8044412E-01
       -1   -1    0    0    0  501  0.00000000000E+00  0.00000000000E+00  0.18662258560E+04  0.18662258560E+04  0.50400001928E-02 0.  1.
        1   -1    0    0  501    0  0.00000000000E+00  0.00000000000E+00 -0.19426722312E+04  0.19426722312E+04  0.50400001928E-02 0. -1.
    10030    2    1    2    0    0  0.00000000000E+00  0.00000000000E+00 -0.76446375257E+02  0.38088980872E+04  0.38081308526E+04 0.  0.
        4    1    3    3  502    0 -0.24373331946E+03  0.10347789040E+04 -0.16181902097E+04  0.19361597245E+04  0.12699999809E+01 0. -1.
       -4    1    3    3    0  502  0.24373331946E+03 -0.10347789040E+04  0.15417438344E+04  0.18727383627E+04  0.12699999809E+01 0.  1.
</event>
<event>
 5   0  0.1150235E-07  0.3799200E+04  0.7818609E-02  0.8046327E-01
        2   -1    0    0  501    0  0.00000000000E+00  0.00000000000E+00  0.25666161864E+04  0.25666161864E+04  0.25500000920E-02 0.  1.
       -2   -1    0    0    0  501  0.00000000000E+00  0.00000000000E+00 -0.14059291949E+04  0.14059291949E+04  0.25500000920E-02 0. -1.
    10030    2    1    2    0    0  0.00000000000E+00  0.00000000000E+00  0.11606869915E+04  0.39725453813E+04  0.37992002466E+04 0.  0.
        4    1    3    3  502    0 -0.92846251332E+03 -0.16570910493E+04  0.60338601662E+03  0.19930051887E+04  0.12699999809E+01 0. -1.
       -4    1    3    3    0  502  0.92846251332E+03  0.16570910493E+04  0.55730097486E+03  0.19795401925E+04  0.12699999809E+01 0.  1.
</event>
<event>
 5   0  0.1150235E-07  0.3805857E+04  0.7818609E-02  0.8044899E-01
       -2   -1    0    0    0  501  0.00000000000E+00  0.00000000000E+00  0.16998844438E+04  0.16998844438E+04  0.25500000920E-02 0. -1.
        2   -1    0    0  501    0  0.00000000000E+00  0.00000000000E+00 -0.21302250749E+04  0.21302250749E+04  0.25500000920E-02 0.  1.
    10030    2    1    2    0    0  0.00000000000E+00  0.00000000000E+00 -0.43034063110E+03  0.38301095186E+04  0.38058567847E+04 0.  0.
        4    1    3    3  502    0  0.16324510363E+03 -0.18255635331E+04 -0.73009844982E+03  0.19729106763E+04  0.12699999809E+01 0.  1.
       -4    1    3    3    0  502 -0.16324510363E+03  0.18255635331E+04  0.29975781872E+03  0.18571988424E+04  0.12699999809E+01 0. -1.
</event>
<event>
 5   0  0.1143283E-07  0.3808225E+04  0.7818609E-02  0.8044392E-01
       -2   -1    0    0    0  501  0.00000000000E+00  0.00000000000E+00  0.16033247403E+04  0.16033247403E+04  0.25500000920E-02 0. -1.
        2   -1    0    0  501    0  0.00000000000E+00  0.00000000000E+00 -0.22613289327E+04  0.22613289327E+04  0.25500000920E-02 0.  1.
    10030    2    1    2    0    0  0.00000000000E+00  0.00000000000E+00 -0.65800419236E+03  0.38646536730E+04  0.38082251109E+04 0.  0.
        1    1    3    3  502    0  0.72644810543E+02  0.12056348376E+04 -0.18228231779E+04  0.21866680059E+04  0.50400001928E-02 0.  1.
       -1    1    3    3    0  502 -0.72644810543E+02 -0.12056348376E+04  0.11648189855E+04  0.16779856671E+04  0.50400001928E-02 0. -1.
</event>
<event>
 5   0  0.3701250E-08  0.3784167E+04  0.7818609E-02  0.8049561E-01
        1   -1    0    0  501    0  0.00000000000E+00  0.00000000000E+00  0.16984183439E+04  0.16984183439E+04  0.50400001928E-02 0.  1.
       -1   -1    0    0    0  501  0.00000000000E+00  0.00000000000E+00 -0.21078321362E+04  0.21078321362E+04  0.50400001928E-02 0. -1.
    10030    2    1    2    0    0  0.00000000000E+00  0.00000000000E+00 -0.40941379232E+03  0.38062504802E+04  0.37841674202E+04 0.  0.
        3    1    3    3  502    0 -0.87161513932E+03  0.15805162626E+04 -0.77567802851E+03  0.19645409188E+04  0.10100000352E+00 0. -1.
       -3    1    3    3    0  502  0.87161513932E+03 -0.15805162626E+04  0.36626423619E+03  0.18417095614E+04  0.10100000352E+00 0.  1.
</event>
<event>
 5   0  0.1174870E-07  0.3798508E+04  0.7818609E-02  0.8046475E-01
       -2   -1    0    0    0  501  0.00000000000E+00  0.00000000000E+00  0.24008479471E+04  0.24008479471E+04  0.25500000920E-02 0. -1.
        2   -1    0    0  501    0  0.00000000000E+00  0.00000000000E+00 -0.15024547500E+04  0.15024547500E+04  0.25500000920E-02 0.  1.
    10030    2    1    2    0    0  0.00000000000E+00  0.00000000000E+00  0.89839319704E+03  0.39033026971E+04  0.37985078134E+04 0.  0.
        5    1    3    3  502    0 -0.88391849877E+03 -0.10541731305E+04 -0.89633634993E+03  0.16419603660E+04  0.46999998093E+01 0.  1.
       -5    1    3    3    0  502  0.88391849877E+03  0.10541731305E+04  0.17947295470E+04  0.22613423311E+04  0.46999998093E+01 0. -1.
</event>
<event>
 5   0  0.1150235E-07  0.3796293E+04  0.7818609E-02  0.8046951E-01
       -2   -1    0    0    0  501  0.00000000000E+00  0.00000000000E+00  0.16145601780E+04  0.16145601780E+04  0.25500000920E-02 0.  1.
        2   -1    0    0  501    0  0.00000000000E+00  0.00000000000E+00 -0.22315426875E+04  0.22315426875E+04  0.25500000920E-02 0. -1.
    10030    2    1    2    0    0  0.00000000000E+00  0.00000000000E+00 -0.61698250950E+03  0.38461028655E+04  0.37962929069E+04 0.  0.
        4    1    3    3  502    0  0.64006237450E+03 -0.17558879256E+04 -0.64471317155E+03  0.19769873386E+04  0.12699999809E+01 0. -1.
       -4    1    3    3    0  502 -0.64006237450E+03  0.17558879256E+04  0.27730662052E+02  0.18691155269E+04  0.12699999809E+01 0.  1.
</event>
<event>
 5   0  0.1150235E-07  0.3830317E+04  0.7818609E-02  0.8039680E-01
       -2   -1    0    0    0  501  0.00000000000E+00  0.00000000000E+00  0.27494577670E+04  0.27494577670E+04  0.25500000920E-02 0. -1.
        2   -1    0    0  501    0  0.00000000000E+00  0.00000000000E+00 -0.13340200828E+04  0.13340200828E+04  0.25500000920E-02 0.  1.
    10030    2    1    2    0    0  0.00000000000E+00  0.00000000000E+00  0.14154376842E+04  0.40834778498E+04  0.38303168944E+04 0.  0.
        4    1    3    3  502    0  0.81233012538E+03 -0.81438588099E+03 -0.92473728064E+03  0.14758879520E+04  0.12699999809E+01 0.  1.
       -4    1    3    3    0  502 -0.81233012538E+03  0.81438588099E+03  0.23401749649E+04  0.26075898978E+04  0.12699999809E+01 0. -1.
</event>
<event>
 5   0  0.1143283E-07  0.3789942E+04  0.7818609E-02  0.8048317E-01
        2   -1    0    0  501    0  0.00000000000E+00  0.00000000000E+00  0.15481656047E+04  0.15481656047E+04  0.25500000920E-02 0.  1.
       -2   -1    0    0    0  501  0.00000000000E+00  0.00000000000E+00 -0.23194638977E+04  0.23194638977E+04  0.25500000920E-02 0. -1.
    10030    2    1    2    0    0  0.00000000000E+00  0.00000000000E+00 -0.77129829293E+03  0.38676295024E+04  0.37899415446E+04 0.  0.
        1    1    3    3  502    0  0.90864355549E+02 -0.10819694769E+04  0.11992476949E+04  0.16177482233E+04  0.50400001928E-02 0.  1.
       -1    1    3    3    0  502 -0.90864355549E+02  0.10819694769E+04 -0.19705459878E+04  0.22498812791E+04  0.50400001928E-02 0. -1.
</event>
<event>
 5   0  0.3701250E-08  0.3817139E+04  0.7818609E-02  0.8042487E-01
       -1   -1    0    0    0  501  0.00000000000E+00  0.00000000000E+00  0.21539787563E+04  0.21539787563E+04  0.50400001928E-02 0.  1.
        1   -1    0    0  501    0  0.00000000000E+00  0.00000000000E+00 -0.16911204386E+04  0.16911204387E+04  0.50400001928E-02 0. -1.
    10030    2    1    2    0    0  0.00000000000E+00  0.00000000000E+00  0.46285831767E+03  0.38450991950E+04  0.38171389806E+04 0.  0.
        1    1    3    3  502    0  0.14325436336E+04  0.12032025352E+04 -0.14917426196E+03  0.18767340151E+04  0.50400001928E-02 0.  1.
       -1    1    3    3    0  502 -0.14325436336E+04 -0.12032025352E+04  0.61203257963E+03  0.19683651799E+04  0.50400001928E-02 0. -1.
</event>
<event>
 5   0  0.7858367E-08  0.3828972E+04  0.7818609E-02  0.8039966E-01
        2   -1    0    0  501    0  0.00000000000E+00  0.00000000000E+00  0.21702910163E+04  0.21702910163E+04  0.25500000920E-02 0.  1.
       -2   -1    0    0    0  501  0.00000000000E+00  0.00000000000E+00 -0.16888320211E+04  0.16888320211E+04  0.25500000920E-02 0. -1.
    10030    2    1    2    0    0  0.00000000000E+00  0.00000000000E+00  0.48145899527E+03  0.38591230374E+04  0.38289721667E+04 0.  0.
        2    1    3    3  502    0 -0.77812504482E+03  0.17241776268E+04  0.53799246193E+03  0.19666476460E+04  0.25500000920E-02 0.  1.
       -2    1    3    3    0  502  0.77812504482E+03 -0.17241776268E+04 -0.56533466664E+02  0.18924753914E+04  0.25500000920E-02 0. -1.
</event>
<event>
 5   0  0.3701250E-08  0.3742259E+04  0.7818609E-02  0.8058661E-01
        1   -1    0    0  501    0  0.00000000000E+00  0.00000000000E+00  0.11278828577E+04  0.11278828578E+04  0.50400001928E-02 0.  1.
       -1   -1    0    0    0  501  0.00000000000E+00  0.00000000000E+00 -0.31041566450E+04  0.31041566450E+04  0.50400001928E-02 0. -1.
    10030    2    1    2    0    0  0.00000000000E+00  0.00000000000E+00 -0.19762737873E+04  0.42320395028E+04  0.37422587124E+04 0.  0.
        4    1    3    3  502    0  0.12657420875E+04  0.12642131592E+04 -0.16083548857E+04  0.24056485602E+04  0.12699999809E+01 0.  1.
       -4    1    3    3    0  502 -0.12657420875E+04 -0.12642131592E+04 -0.36791890158E+03  0.18263909426E+04  0.12699999809E+01 0. -1.
</event>
<event>
 5   0  0.3701250E-08  0.3787862E+04  0.7818609E-02  0.8048765E-01
        1   -1    0    0  501    0  0.00000000000E+00  0.00000000000E+00  0.25400634623E+04  0.25400634623E+04  0.50400001928E-02 0. -1.
       -1   -1    0    0    0  501  0.00000000000E+00  0.00000000000E+00 -0.14121595293E+04  0.14121595293E+04  0.50400001928E-02 0.  1.
    10030    2    1    2    0    0  0.00000000000E+00  0.00000000000E+00  0.11279039330E+04  0.39522229916E+04  0.37878621007E+04 0.  0.
        2    1    3    3  502    0  0.12685571004E+04 -0.14056791925E+04  0.51963896884E+03  0.19634652447E+04  0.25500000920E-02 0. -1.
       -2    1    3    3    0  502 -0.12685571004E+04  0.14056791925E+04  0.60826496412E+03  0.19887577469E+04  0.25500000920E-02 0.  1.
</event>
<event>
 5   0  0.1193861E-07  0.3803472E+04  0.7818609E-02  0.8045410E-01
        2   -1    0    0  501    0  0.00000000000E+00  0.00000000000E+00  0.11543609944E+04  0.11543609944E+04  0.25500000920E-02 0. -1.
       -2   -1    0    0    0  501  0.00000000000E+00  0.00000000000E+00 -0.31329883066E+04  0.31329883066E+04  0.25500000920E-02 0.  1.
    10030    2    1    2    0    0  0.00000000000E+00  0.00000000000E+00 -0.19786273122E+04  0.42873493010E+04  0.38034718335E+04 0.  0.
        3    1    3    3  502    0  0.44836555157E+03  0.18473713722E+04 -0.92980720043E+03  0.21162122045E+04  0.10100000352E+00 0. -1.
       -3    1    3    3    0  502 -0.44836555157E+03 -0.18473713722E+04 -0.10488201117E+04  0.21711370964E+04  0.10100000352E+00 0.  1.
</event>
<event>
 5   0  0.3701250E-08  0.3807126E+04  0.7818609E-02  0.8044627E-01
        1   -1    0    0  501    0  0.00000000000E+00  0.00000000000E+00  0.25144317874E+04  0.25144317874E+04  0.50400001928E-02 0.  1.
       -1   -1    0    0    0  501  0.00000000000E+00  0.00000000000E+00 -0.14411019462E+04  0.14411019462E+04  0.50400001928E-02 0. -1.
    10030    2    1    2    0    0  0.00000000000E+00  0.00000000000E+00  0.10733298412E+04  0.39555337335E+04  0.38071262350E+04 0.  0.
        1    1    3    3  502    0 -0.49278621562E+03 -0.48580626016E+03 -0.13057942778E+04  0.14778175370E+04  0.50400001928E-02 0. -1.
       -1    1    3    3    0  502  0.49278621562E+03  0.48580626016E+03  0.23791241190E+04  0.24777161965E+04  0.50400001928E-02 0.  1.
</event>
<event>
 5   0  0.7858367E-08  0.3808718E+04  0.7818609E-02  0.8044287E-01
        2   -1    0    0  501    0  0.00000000000E+00  0.00000000000E+00  0.20130917437E+04  0.20130917437E+04  0.25500000920E-02 0. -1.
       -2   -1    0    0    0  501  0.00000000000E+00  0.00000000000E+00 -0.18014992622E+04  0.18014992622E+04  0.25500000920E-02 0.  1.
    10030    2    1    2    0    0  0.00000000000E+00  0.00000000000E+00  0.21159248158E+03  0.38145910059E+04  0.38087180473E+04 0.  0.
        2    1    3    3  502    0 -0.11934870359E+04  0.48483708752E+02 -0.13796702508E+04  0.18248977988E+04  0.25500000920E-02 0.  1.
       -2    1    3    3    0  502  0.11934870359E+04 -0.48483708752E+02  0.15912627324E+04  0.19896932071E+04  0.25500000920E-02 0. -1.
</event>
<event>
 5   0  0.3889225E-08  0.3809654E+04  0.7818609E-02  0.8044086E-01
        1   -1    0    0  501    0  0.00000000000E+00  0.00000000000E+00  0.24204500511E+04  0.24204500511E+04  0.50400001928E-02 0.  1.
       -1   -1    0    0    0  501  0.00000000000E+00  0.00000000000E+00 -0.14990459726E+04  0.14990459726E+04  0.50400001928E-02 0. -1.
    10030    2    1    2    0    0  0.00000000000E+00  0.00000000000E+00  0.92140407849E+03  0.39194960236E+04  0.38096540005E+04 0.  0.
        5    1    3    3  502    0  0.47674546872E+02  0.13214238381E+04 -0.94992830514E+03  0.16281338082E+04  0.46999998093E+01 0. -1.
       -5    1    3    3    0  502 -0.47674546872E+02 -0.13214238381E+04  0.18713323836E+04  0.22913622155E+04  0.46999998093E+01 0.  1.
</event>
<event>
 5   0  0.1143283E-07  0.3800038E+04  0.7818609E-02  0.8046147E-01
       -2   -1    0    0    0  501  0.00000000000E+00  0.00000000000E+00  0.13977947665E+04  0.13977947665E+04  0.25500000920E-02 0.  1.
        2   -1    0    0  501    0  0.00000000000E+00  0.00000000000E+00 -0.25826905434E+04  0.25826905434E+04  0.25500000920E-02 0. -1.
    10030    2    1    2    0    0  0.00000000000E+00  0.00000000000E+00 -0.11848957768E+04  0.39804853099E+04  0.38000375393E+04 0.  0.
        1    1    3    3  502    0  0.13989526518E+03  0.11571093119E+04  0.97933889021E+03  0.15223591254E+04  0.50400001928E-02 0.  1.
       -1    1    3    3    0  502 -0.13989526518E+03 -0.11571093119E+04 -0.21642346670E+04  0.24581261845E+04  0.50400001928E-02 0. -1.
</event>
<event>
 5   0  0.1193861E-07  0.3801589E+04  0.7818609E-02  0.8045814E-01
       -2   -1    0    0    0  501  0.00000000000E+00  0.00000000000E+00  0.14061416185E+04  0.14061416185E+04  0.25500000920E-02 0.  1.
        2   -1    0    0  501    0  0.00000000000E+00  0.00000000000E+00 -0.25694561936E+04  0.25694561936E+04  0.25500000920E-02 0. -1.
    10030    2    1    2    0    0  0.00000000000E+00  0.00000000000E+00 -0.11633145752E+04  0.39755978121E+04  0.38015887683E+04 0.  0.
        3    1    3    3  502    0  0.60416429285E+03  0.15751244200E+04  0.33420789442E+03  0.17198041628E+04  0.10100000352E+00 0.  1.
       -3    1    3    3    0  502 -0.60416429285E+03 -0.15751244200E+04 -0.14975224696E+04  0.22557936494E+04  0.10100000352E+00 0. -1.
</event>
<event>
 5   0  0.3701250E-08  0.3790623E+04  0.7818609E-02  0.8048170E-01
       -1   -1    0    0    0  501  0.00000000000E+00  0.00000000000E+00  0.15024858000E+04  0.15024858000E+04  0.50400001928E-02 0.  1.
        1   -1    0    0  501    0  0.00000000000E+00  0.00000000000E+00 -0.23908412356E+04  0.23908412356E+04  0.50400001928E-02 0. -1.
    10030    2    1    2    0    0  0.00000000000E+00  0.00000000000E+00 -0.88835543564E+03  0.38933270356E+04  0.37906226436E+04 0.  0.
        3    1    3    3  502    0  0.12741730506E+04  0.55769313935E+03 -0.17665657184E+04  0.22483978847E+04  0.10100000352E+00 0. -1.
       -3    1    3    3    0  502 -0.12741730506E+04 -0.55769313935E+03  0.87821028275E+03  0.16449291509E+04  0.10100000352E+00 0.  1.
</event>
<event>
 5   0  0.7858367E-08  0.3785592E+04  0.7818609E-02  0.8049254E-01
       -2   -1    0    0    0  501  0.00000000000E+00  0.00000000000E+00  0.24550679823E+04  0.24550679823E+04  0.25500000920E-02 0.  1.
        2   -1    0    0  501    0  0.00000000000E+00  0.00000000000E+00 -0.14592985048E+04  0.14592985048E+04  0.25500000920E-02 0. -1.
    10030    2    1    2    0    0  0.00000000000E+00  0.00000000000E+00  0.99576947743E+03  0.39143664871E+04  0.37855921787E+04 0.  0.
        2    1    3    3  502    0 -0.22059481096E+03 -0.44064917498E+03  0.23875753371E+04  0.24378986354E+04  0.25500000920E-02 0.  1.
       -2    1    3    3    0  502  0.22059481096E+03  0.44064917498E+03 -0.13918058597E+04  0.14764678517E+04  0.25500000920E-02 0. -1.
</event>
<event>
 5   0  0.7858367E-08  0.3793913E+04  0.7818609E-02  0.8047462E-01
        2   -1    0    0  501    0  0.00000000000E+00  0.00000000000E+00  0.17659641005E+04  0.17659641005E+04  0.25500000920E-02 0.  1.
       -2   -1    0    0    0  501  0.00000000000E+00  0.00000000000E+00 -0.20376649577E+04  0.20376649577E+04  0.25500000920E-02 0. -1.
    10030    2    1    2    0    0  0.00000000000E+00  0.00000000000E+00 -0.27170085721E+03  0.38036290583E+04  0.37939125790E+04 0.  0.
        2    1    3    3  502    0 -0.49673116563E+03  0.18211248800E+04 -0.32396221218E+03  0.19152517314E+04  0.25500000920E-02 0.  1.
       -2    1    3    3    0  502  0.49673116563E+03 -0.18211248800E+04  0.52261354971E+02  0.18883773269E+04  0.25500000920E-02 0. -1.
</event>
<event>
 5   0  0.1150235E-07  0.3802314E+04  0.7818609E-02  0.8045658E-01
        2   -1    0    0  501    0  0.00000000000E+00  0.00000000000E+00  0.20058110894E+04  0.20058110894E+04  0.25500000920E-02 0.  1.
       -2   -1    0    0    0  501  0.00000000000E+00  0.00000000000E+00 -0.18019635348E+04  0.18019635348E+04  0.25500000920E-02 0. -1.
    10030    2    1    2    0    0  0.00000000000E+00  0.00000000000E+00  0.20384755455E+03  0.38077746242E+04  0.38023142641E+04 0.  0.
        4    1    3    3  502    0  0.12467422457E+04  0.12745604937E+04  0.76281554769E+03  0.19392678649E+04  0.12699999809E+01 0.  1.
       -4    1    3    3    0  502 -0.12467422457E+04 -0.12745604937E+04 -0.55896799314E+03  0.18685067593E+04  0.12699999809E+01 0. -1.
</event>
<event>
 5   0  0.3701250E-08  0.3733029E+04  0.7818609E-02  0.8060681E-01
       -1   -1    0    0    0  501  0.00000000000E+00  0.00000000000E+00  0.19519026877E+04  0.19519026877E+04  0.50400001928E-02 0. -1.
        1   -1    0    0  501    0  0.00000000000E+00  0.00000000000E+00 -0.17848613363E+04  0.17848613363E+04  0.50400001928E-02 0.  1.
    10030    2    1    2    0    0  0.00000000000E+00  0.00000000000E+00  0.16704135139E+03  0.37367640240E+04  0.37330286040E+04 0.  0.
        2    1    3    3  502    0  0.16902085046E+04 -0.30608227748E+03 -0.64754189090E+03  0.18357019503E+04  0.25500000920E-02 0.  1.
       -2    1    3    3    0  502 -0.16902085046E+04  0.30608227748E+03  0.81458324230E+03  0.19010620738E+04  0.25500000920E-02 0. -1.
</event>
<event>
 5   0  0.3701250E-08  0.3778194E+04  0.7818609E-02  0.8050851E-01
        1   -1    0    0  501    0  0.00000000000E+00  0.00000000000E+00  0.22601266530E+04  0.22601266530E+04  0.50400001928E-02 0. -1.
       -1   -1    0    0    0  501  0.00000000000E+00  0.00000000000E+00 -0.15789764100E+04  0.15789764100E+04  0.50400001928E-02 0.  1.
    10030    2    1    2    0    0  0.00000000000E+00  0.00000000000E+00  0.68115024295E+03  0.38391030630E+04  0.37781935730E+04 0.  0.
        3    1    3    3  502    0  0.23846615085E+03  0.17984089132E+04  0.87589454440E+03  0.20145302151E+04  0.10100000352E+00 0.  1.
       -3    1    3    3    0  502 -0.23846615085E+03 -0.17984089132E+04 -0.19474430145E+03  0.18245728479E+04  0.10100000352E+00 0. -1.
</event>
<event>
 5   0  0.3701250E-08  0.3790341E+04  0.7818609E-02  0.8048231E-01
       -1   -1    0    0    0  501  0.00000000000E+00  0.00000000000E+00  0.16842221399E+04  0.16842221399E+04  0.50400001928E-02 0.  1.
        1   -1    0    0  501    0  0.00000000000E+00  0.00000000000E+00 -0.21325400456E+04  0.21325400456E+04  0.50400001928E-02 0. -1.
    10030    2    1    2    0    0  0.00000000000E+00  0.00000000000E+00 -0.44831790564E+03  0.38167621855E+04  0.37903409657E+04 0.  0.
        4    1    3    3  502    0  0.93260800732E+03  0.90915475744E+02 -0.18829566964E+04  0.21032239187E+04  0.12699999809E+01 0. -1.
       -4    1    3    3    0  502 -0.93260800732E+03 -0.90915475744E+02  0.14346387907E+04  0.17135382668E+04  0.12699999809E+01 0.  1.
</event>
<event>
 5   0  0.3701250E-08  0.3837923E+04  0.7818609E-02  0.8038065E-01
        1   -1    0    0  501    0  0.00000000000E+00  0.00000000000E+00  0.18625914185E+04  0.18625914185E+04  0.50400001928E-02 0.  1.
       -1   -1    0    0    0  501  0.00000000000E+00  0.00000000000E+00 -0.19770373321E+04  0.19770373321E+04  0.50400001928E-02 0. -1.
    10030    2    1    2    0    0  0.00000000000E+00  0.00000000000E+00 -0.11444591362E+03  0.38396287506E+04  0.38379227553E+04 0.  0.
        2    1    3    3  502    0 -0.11344913217E+04  0.15412425030E+04  0.83955881353E+02  0.19156063276E+04  0.25500000920E-02 0.  1.
       -2    1    3    3    0  502  0.11344913217E+04 -0.15412425030E+04 -0.19840179497E+03  0.19240224231E+04  0.25500000920E-02 0. -1.
</event>
<event>
 5   0  0.3701250E-08  0.3801838E+04  0.7818609E-02  0.8045761E-01
        1   -1    0    0  501    0  0.00000000000E+00  0.00000000000E+00  0.13633474056E+04  0.13633474057E+04  0.50400001928E-02 0.  1.
       -1   -1    0    0    0  501  0.00000000000E+00  0.00000000000E+00 -0.26504565084E+04  0.26504565084E+04  0.50400001928E-02 0. -1.
    10030    2    1    2    0    0  0.00000000000E+00  0.00000000000E+00 -0.12871091028E+04  0.40138039141E+04  0.38018379790E+04 0.  0.
        1    1    3    3  502    0  0.13900049663E+04 -0.10336282992E+04  0.18303489784E+03  0.17418389826E+04  0.50400001928E-02 0.  1.
       -1    1    3    3    0  502 -0.13900049663E+04  0.10336282992E+04 -0.14701440006E+04  0.22719649315E+04  0.50400001928E-02 0. -1.
</event>
<event>
 5   0  0.7858367E-08  0.3795934E+04  0.7818609E-02  0.8047028E-01
       -2   -1    0    0    0  501  0.00000000000E+00  0.00000000000E+00  0.17440593785E+04  0.17440593785E+04  0.25500000920E-02 0. -1.
        2   -1    0    0  501    0  0.00000000000E+00  0.00000000000E+00 -0.20654568641E+04  0.20654568642E+04  0.25500000920E-02 0.  1.
    10030    2    1    2    0    0  0.00000000000E+00  0.00000000000E+00 -0.32139748563E+03  0.38095162427E+04  0.37959343592E+04 0.  0.
        2    1    3    3  502    0  0.36347283047E+03 -0.21024283111E+03 -0.20182576214E+04  0.20614748053E+04  0.25500000920E-02 0.  1.
       -2    1    3    3    0  502 -0.36347283047E+03  0.21024283111E+03  0.16968601358E+04  0.17480414374E+04  0.25500000920E-02 0. -1.
</event>
<event>
 5   0  0.3701250E-08  0.3622863E+04  0.7818609E-02  0.8085275E-01
       -1   -1    0    0    0  501  0.00000000000E+00  0.00000000000E+00  0.12002736574E+04  0.12002736574E+04  0.50400001928E-02 0. -1.
        1   -1    0    0  501    0  0.00000000000E+00  0.00000000000E+00 -0.27337796129E+04  0.27337796129E+04  0.50400001928E-02 0.  1.
    10030    2    1    2    0    0  0.00000000000E+00  0.00000000000E+00 -0.15335059555E+04  0.39340532703E+04  0.36228627656E+04 0.  0.
        2    1    3    3  502    0 -0.75502683293E+03  0.55849837403E+03  0.91526418219E+03  0.13113712195E+04  0.25500000920E-02 0. -1.
       -2    1    3    3    0  502  0.75502683293E+03 -0.55849837403E+03 -0.24487701377E+04  0.26226820508E+04  0.25500000920E-02 0.  1.
</event>
<event>
 5   0  0.7858367E-08  0.3845443E+04  0.7818609E-02  0.8036473E-01
       -2   -1    0    0    0  501  0.00000000000E+00  0.00000000000E+00  0.14987330419E+04  0.14987330419E+04  0.25500000920E-02 0.  1.
        2   -1    0    0  501    0  0.00000000000E+00  0.00000000000E+00 -0.24666548366E+04  0.24666548366E+04  0.25500000920E-02 0. -1.
    10030    2    1    2    0    0  0.00000000000E+00  0.00000000000E+00 -0.96792179467E+03  0.39653878785E+04  0.38454425527E+04 0.  0.
        2    1    3    3  502    0 -0.18008151532E+04  0.62881641548E+03 -0.73339802595E+03  0.20435796938E+04  0.25500000920E-02 0. -1.
       -2    1    3    3    0  502  0.18008151532E+04 -0.62881641548E+03 -0.23452376872E+03  0.19218081846E+04  0.25500000920E-02 0.  1.
</event>
<event>
 5   0  0.3701250E-08  0.3783089E+04  0.7818609E-02  0.8049794E-01
       -1   -1    0    0    0  501  0.00000000000E+00  0.00000000000E+00  0.12874999119E+04  0.12874999119E+04  0.50400001928E-02 0. -1.
        1   -1    0    0  501    0  0.00000000000E+00  0.00000000000E+00 -0.27789828053E+04  0.27789828053E+04  0.50400001928E-02 0.  1.
    10030    2    1    2    0    0  0.00000000000E+00  0.00000000000E+00 -0.14914828935E+04  0.40664827172E+04  0.37830887470E+04 0.  0.
        4    1    3    3  502    0  0.40684951776E+02  0.96116474548E+02 -0.27758847137E+04  0.27778465038E+04  0.12699999809E+01 0.  1.
       -4    1    3    3    0  502 -0.40684951776E+02 -0.96116474548E+02  0.12844018202E+04  0.12886362135E+04  0.12699999809E+01 0. -1.
</event>
<event>
 5   0  0.3701250E-08  0.3823015E+04  0.7818609E-02  0.8041234E-01
       -1   -1    0    0    0  501  0.00000000000E+00  0.00000000000E+00  0.16779334277E+04  0.16779334277E+04  0.50400001928E-02 0.  1.
        1   -1    0    0  501    0  0.00000000000E+00  0.00000000000E+00 -0.21775961147E+04  0.21775961147E+04  0.50400001928E-02 0. -1.
    10030    2    1    2    0    0  0.00000000000E+00  0.00000000000E+00 -0.49966268696E+03  0.38555295424E+04  0.38230152042E+04 0.  0.
        3    1    3    3  502    0  0.83748949092E+03 -0.14016762081E+04 -0.12521535371E+04  0.20576621031E+04  0.10100000352E+00 0. -1.
       -3    1    3    3    0  502 -0.83748949092E+03  0.14016762081E+04  0.75249085010E+03  0.17978674394E+04  0.10100000352E+00 0.  1.
</event>
<event>
 5   0  0.7858367E-08  0.3804602E+04  0.7818609E-02  0.8045168E-01
       -2   -1    0    0    0  501  0.00000000000E+00  0.00000000000E+00  0.20802805646E+04  0.20802805646E+04  0.25500000920E-02 0.  1.
        2   -1    0    0  501    0  0.00000000000E+00  0.00000000000E+00 -0.17395484376E+04  0.17395484376E+04  0.25500000920E-02 0. -1.
    10030    2    1    2    0    0  0.00000000000E+00  0.00000000000E+00  0.34073212698E+03  0.38198290023E+04  0.38046018483E+04 0.  0.
        2    1    3    3  502    0 -0.39450178336E+03  0.59892279949E+03 -0.15986189279E+04  0.17521194746E+04  0.25500000920E-02 0. -1.
       -2    1    3    3    0  502  0.39450178336E+03 -0.59892279949E+03  0.19393510548E+04  0.20677095276E+04  0.25500000920E-02 0.  1.
</event>
<event>
 5   0  0.1143283E-07  0.3802269E+04  0.7818609E-02  0.8045668E-01
        2   -1    0    0  501    0  0.00000000000E+00  0.00000000000E+00  0.19693274306E+04  0.19693274306E+04  0.25500000920E-02 0. -1.
       -2   -1    0    0    0  501  0.00000000000E+00  0.00000000000E+00 -0.18353027002E+04  0.18353027002E+04  0.25500000920E-02 0.  1.
    10030    2    1    2    0    0  0.00000000000E+00  0.00000000000E+00  0.13402473042E+03  0.38046301307E+04  0.38022687705E+04 0.  0.
        1    1    3    3  502    0 -0.54187608925E+03 -0.13269278886E+04  0.13167654650E+04  0.19463397975E+04  0.50400001928E-02 0. -1.
       -1    1    3    3    0  502  0.54187608925E+03  0.13269278886E+04 -0.11827407345E+04  0.18582903333E+04  0.50400001928E-02 0.  1.
</event>
<event>
 5   0  0.1193861E-07  0.3780577E+04  0.7818609E-02  0.8050336E-01
       -2   -1    0    0    0  501  0.00000000000E+00  0.00000000000E+00  0.28768615545E+04  0.28768615545E+04  0.25500000920E-02 0.  1.
        2   -1    0    0  501    0  0.00000000000E+00  0.00000000000E+00 -0.12420448448E+04  0.12420448448E+04  0.25500000920E-02 0. -1.
    10030    2    1    2    0    0  0.00000000000E+00  0.00000000000E+00  0.16348167098E+04  0.41189063993E+04  0.37805772379E+04 0.  0.
        3    1    3    3  502    0  0.14438969824E+04  0.93922879481E+03  0.16656750746E+04  0.23961349480E+04  0.10100000352E+00 0.  1.
       -3    1    3    3    0  502 -0.14438969824E+04 -0.93922879481E+03 -0.30858364845E+02  0.17227714513E+04  0.10100000352E+00 0. -1.
</event>
<event>
 5   0  0.3701250E-08  0.3792993E+04  0.7818609E-02  0.8047660E-01
        1   -1    0    0  501    0  0.00000000000E+00  0.00000000000E+00  0.18148784954E+04  0.18148784954E+04  0.50400001928E-02 0.  1.
       -1   -1    0    0    0  501  0.00000000000E+00  0.00000000000E+00 -0.19817853478E+04  0.19817853478E+04  0.50400001928E-02 0. -1.
    10030    2    1    2    0    0  0.00000000000E+00  0.00000000000E+00 -0.16690685235E+03  0.37966638432E+04  0.37929933352E+04 0.  0.
        2    1    3    3  502    0  0.81792182537E+03 -0.34151151144E+03 -0.17617015042E+04  0.19721101426E+04  0.25500000920E-02 0. -1.
       -2    1    3    3    0  502 -0.81792182537E+03  0.34151151144E+03  0.15947946518E+04  0.18245537006E+04  0.25500000920E-02 0.  1.
</event>
<event>
 5   0  0.3701250E-08  0.3800477E+04  0.7818609E-02  0.8046053E-01
        1   -1    0    0  501    0  0.00000000000E+00  0.00000000000E+00  0.22084848082E+04  0.22084848082E+04  0.50400001928E-02 0.  1.
       -1   -1    0    0    0  501  0.00000000000E+00  0.00000000000E+00 -0.16350148817E+04  0.16350148817E+04  0.50400001928E-02 0. -1.
    10030    2    1    2    0    0  0.00000000000E+00  0.00000000000E+00  0.57346992645E+03  0.38434996899E+04  0.38004765635E+04 0.  0.
        1    1    3    3  502    0 -0.38279519162E+03 -0.11989743517E+04 -0.11530507788E+04  0.17069264053E+04  0.50400001928E-02 0. -1.
       -1    1    3    3    0  502  0.38279519162E+03  0.11989743517E+04  0.17265207052E+04  0.21365732846E+04  0.50400001928E-02 0.  1.
</event>
<event>
 5   0  0.3701250E-08  0.3725890E+04  0.7818609E-02  0.8062248E-01
       -1   -1    0    0    0  501  0.00000000000E+00  0.00000000000E+00  0.16856028756E+04  0.16856028756E+04  0.50400001928E-02 0. -1.
        1   -1    0    0  501    0  0.00000000000E+00  0.00000000000E+00 -0.20589453898E+04  0.20589453898E+04  0.50400001928E-02 0.  1.
    10030    2    1    2    0    0  0.00000000000E+00  0.00000000000E+00 -0.37334251417E+03  0.37445482654E+04  0.37258901056E+04 0.  0.
        3    1    3    3  502    0  0.49692071979E+03 -0.13638435322E+04  0.98689413695E+03  0.17552661991E+04  0.10100000352E+00 0. -1.
       -3    1    3    3    0  502 -0.49692071979E+03  0.13638435322E+04 -0.13602366511E+04  0.19892820663E+04  0.10100000352E+00 0.  1.
</event>
<event>
 5   0  0.1143283E-07  0.3792433E+04  0.7818609E-02  0.8047781E-01
       -2   -1    0    0    0  501  0.00000000000E+00  0.00000000000E+00  0.15519806054E+04  0.15519806054E+04  0.25500000920E-02 0.  1.
        2   -1    0    0  501    0  0.00000000000E+00  0.00000000000E+00 -0.23168057539E+04  0.23168057539E+04  0.25500000920E-02 0. -1.
    10030    2    1    2    0    0  0.00000000000E+00  0.00000000000E+00 -0.76482514848E+03  0.38687863594E+04  0.37924333068E+04 0.  0.
        1    1    3    3  502    0 -0.12417217449E+04 -0.74406227806E+03 -0.16318718831E+04  0.21814003320E+04  0.50400001928E-02 0. -1.
       -1    1    3    3    0  502  0.12417217449E+04  0.74406227806E+03  0.86704673465E+03  0.16873860274E+04  0.50400001928E-02 0.  1.
</event>
<event>
 5   0  0.7858367E-08  0.3818642E+04  0.7818609E-02  0.8042166E-01
       -2   -1    0    0    0  501  0.00000000000E+00  0.00000000000E+00  0.27496545379E+04  0.27496545379E+04  0.25500000920E-02 0. -1.
        2   -1    0    0  501    0  0.00000000000E+00  0.00000000000E+00 -0.13258052556E+04  0.13258052556E+04  0.25500000920E-02 0.  1.
    10030    2    1    2    0    0  0.00000000000E+00  0.00000000000E+00  0.14238492823E+04  0.40754597935E+04  0.38186418724E+04 0.  0.
        2    1    3    3  502    0 -0.21917772732E+03  0.61949146515E+03 -0.12013186806E+04  0.13692973103E+04  0.25500000920E-02 0.  1.
       -2    1    3    3    0  502  0.21917772732E+03 -0.61949146515E+03  0.26251679630E+04  0.27061624832E+04  0.25500000920E-02 0. -1.
</event>
<event>
 5   0  0.1174870E-07  0.3796563E+04  0.7818609E-02  0.8046893E-01
       -2   -1    0    0    0  501  0.00000000000E+00  0.00000000000E+00  0.14261640637E+04  0.14261640637E+04  0.25500000920E-02 0. -1.
        2   -1    0    0  501    0  0.00000000000E+00  0.00000000000E+00 -0.25266884150E+04  0.25266884150E+04  0.25500000920E-02 0.  1.
    10030    2    1    2    0    0  0.00000000000E+00  0.00000000000E+00 -0.11005243513E+04  0.39528524787E+04  0.37965627706E+04 0.  0.
        5    1    3    3  502    0  0.11959198157E+04 -0.27257486059E+02 -0.20848728351E+04  0.24036813443E+04  0.46999998093E+01 0.  1.
       -5    1    3    3    0  502 -0.11959198157E+04  0.27257486059E+02  0.98434848385E+03  0.15491711344E+04  0.46999998093E+01 0. -1.
</event>
<event>
 5   0  0.1174870E-07  0.3759498E+04  0.7818609E-02  0.8054903E-01
        2   -1    0    0  501    0  0.00000000000E+00  0.00000000000E+00  0.18474113089E+04  0.18474113089E+04  0.25500000920E-02 0.  1.
       -2   -1    0    0    0  501  0.00000000000E+00  0.00000000000E+00 -0.19126528922E+04  0.19126528922E+04  0.25500000920E-02 0. -1.
    10030    2    1    2    0    0  0.00000000000E+00  0.00000000000E+00 -0.65241583295E+02  0.37600642011E+04  0.37594981490E+04 0.  0.
        5    1    3    3  502    0  0.11218867310E+04 -0.13104486259E+04 -0.77941189851E+03  0.18929898140E+04  0.46999998093E+01 0. -1.
       -5    1    3    3    0  502 -0.11218867310E+04  0.13104486259E+04  0.71417031521E+03  0.18670743872E+04  0.46999998093E+01 0.  1.
</event>
<event>
 5   0  0.1150235E-07  0.3782738E+04  0.7818609E-02  0.8049870E-01
        2   -1    0    0  501    0  0.00000000000E+00  0.00000000000E+00  0.17297754831E+04  0.17297754831E+04  0.25500000920E-02 0. -1.
       -2   -1    0    0    0  501  0.00000000000E+00  0.00000000000E+00 -0.20680579428E+04  0.20680579428E+04  0.25500000920E-02 0.  1.
    10030    2    1    2    0    0  0.00000000000E+00  0.00000000000E+00 -0.33828245972E+03  0.37978334259E+04  0.37827375945E+04 0.  0.
        4    1    3    3  502    0  0.11437140236E+04 -0.14596466950E+04 -0.54294960134E+03  0.19322127534E+04  0.12699999809E+01 0.  1.
       -4    1    3    3    0  502 -0.11437140236E+04  0.14596466950E+04  0.20466714162E+03  0.18656206725E+04  0.12699999809E+01 0. -1.
</event>
<event>
 5   0  0.3701250E-08  0.3802728E+04  0.7818609E-02  0.8045570E-01
        1   -1    0    0  501    0  0.00000000000E+00  0.00000000000E+00  0.23366482336E+04  0.23366482336E+04  0.50400001928E-02 0. -1.
       -1   -1    0    0    0  501  0.00000000000E+00  0.00000000000E+00 -0.15471672913E+04  0.15471672913E+04  0.50400001928E-02 0.  1.
    10030    2    1    2    0    0  0.00000000000E+00  0.00000000000E+00  0.78948094227E+03  0.38838155249E+04  0.38027283459E+04 0.  0.
        1    1    3    3  502    0 -0.17226360984E+04  0.99452573514E+02  0.12104063252E+04  0.21077118906E+04  0.50400001928E-02 0. -1.
       -1    1    3    3    0  502  0.17226360984E+04 -0.99452573514E+02 -0.42092538290E+03  0.17761036343E+04  0.50400001928E-02 0.  1.
</event>
<event>
 5   0  0.1143283E-07  0.3854123E+04  0.7818609E-02  0.8034639E-01
        2   -1    0    0  501    0  0.00000000000E+00  0.00000000000E+00  0.27289169084E+04  0.27289169084E+04  0.25500000920E-02 0. -1.
       -2   -1    0    0    0  501  0.00000000000E+00  0.00000000000E+00 -0.13608202660E+04  0.13608202660E+04  0.25500000920E-02 0.  1.
    10030    2    1    2    0    0  0.00000000000E+00  0.00000000000E+00  0.13680966423E+04  0.40897371744E+04  0.38541226930E+04 0.  0.
        1    1    3    3  502    0 -0.33653225161E+03  0.50194276218E+03  0.26257667660E+04  0.26944111792E+04  0.50400001928E-02 0. -1.
       -1    1    3    3    0  502  0.33653225161E+03 -0.50194276218E+03 -0.12576701237E+04  0.13953259952E+04  0.50400001928E-02 0.  1.
</event>
<event>
 5   0  0.1174870E-07  0.3782410E+04  0.7818609E-02  0.8049940E-01
       -2   -1    0    0    0  501  0.00000000000E+00  0.00000000000E+00  0.14036293330E+04  0.14036293330E+04  0.25500000920E-02 0. -1.
        2   -1    0    0  501    0  0.00000000000E+00  0.00000000000E+00 -0.25481491376E+04  0.25481491376E+04  0.25500000920E-02 0.  1.
    10030    2    1    2    0    0  0.00000000000E+00  0.00000000000E+00 -0.11445198046E+04  0.39517784705E+04  0.37824102761E+04 0.  0.
        5    1    3    3  502    0  0.12479112437E+04  0.27409505414E+03  0.88453069556E+03  0.15539714322E+04  0.46999998093E+01 0. -1.
       -5    1    3    3    0  502 -0.12479112437E+04 -0.27409505414E+03 -0.20290505001E+04  0.23978070383E+04  0.46999998093E+01 0.  1.
</event>
<event>
 5   0  0.3701250E-08  0.3779074E+04  0.7818609E-02  0.8050661E-01
        1   -1    0    0  501    0  0.00000000000E+00  0.00000000000E+00  0.18272401310E+04  0.18272401310E+04  0.50400001928E-02 0.  1.
       -1   -1    0    0    0  501  0.00000000000E+00  0.00000000000E+00 -0.19539575260E+04  0.19539575260E+04  0.50400001928E-02 0. -1.
    10030    2    1    2    0    0  0.00000000000E+00  0.00000000000E+00 -0.12671739499E+03  0.37811976569E+04  0.37790737519E+04 0.  0.
        2    1    3    3  502    0 -0.73700543850E+03  0.92735033007E+03  0.14096079146E+04  0.18412360316E+04  0.25500000920E-02 0.  1.
       -2    1    3    3    0  502  0.73700543850E+03 -0.92735033007E+03 -0.15363253096E+04  0.19399616254E+04  0.25500000920E-02 0. -1.
</event>
<event>
 5   0  0.1150235E-07  0.3809863E+04  0.7818609E-02  0.8044042E-01
       -2   -1    0    0    0  501  0.00000000000E+00  0.00000000000E+00  0.17658387723E+04  0.17658387723E+04  0.25500000920E-02 0. -1.
        2   -1    0    0  501    0  0.00000000000E+00  0.00000000000E+00 -0.20549801368E+04  0.20549801368E+04  0.25500000920E-02 0.  1.
    10030    2    1    2    0    0  0.00000000000E+00  0.00000000000E+00 -0.28914136453E+03  0.38208189090E+04  0.38098627806E+04 0.  0.
        4    1    3    3  502    0 -0.66656355269E+03  0.17262913205E+04 -0.59794737984E+03  0.19447188421E+04  0.12699999809E+01 0. -1.
       -4    1    3    3    0  502  0.66656355269E+03 -0.17262913205E+04  0.30880601531E+03  0.18761000669E+04  0.12699999809E+01 0.  1.
</event>
<event>
 5   0  0.7858367E-08  0.3805074E+04  0.7818609E-02  0.8045067E-01
        2   -1    0    0  501    0  0.00000000000E+00  0.00000000000E+00  0.21715663871E+04  0.21715663871E+04  0.25500000920E-02 0. -1.
       -2   -1    0    0    0  501  0.00000000000E+00  0.00000000000E+00 -0.16668372169E+04  0.16668372169E+04  0.25500000920E-02 0.  1.
    10030    2    1    2    0    0  0.00000000000E+00  0.00000000000E+00  0.50472917023E+03  0.38384036040E+04  0.38050743346E+04 0.  0.
        2    1    3    3  502    0 -0.54613022207E+03  0.10906142569E+04 -0.12205447006E+04  0.17255222523E+04  0.25500000920E-02 0.  1.
       -2    1    3    3    0  502  0.54613022207E+03 -0.10906142569E+04  0.17252738709E+04  0.21128813517E+04  0.25500000920E-02 0. -1.
</event>
<event>
 5   0  0.3889225E-08  0.3813365E+04  0.7818609E-02  0.8043293E-01
       -1   -1    0    0    0  501  0.00000000000E+00  0.00000000000E+00  0.25007691500E+04  0.25007691500E+04  0.50400001928E-02 0.  1.
        1   -1    0    0  501    0  0.00000000000E+00  0.00000000000E+00 -0.14537282797E+04  0.14537282797E+04  0.50400001928E-02 0. -1.
    10030    2    1    2    0    0  0.00000000000E+00  0.00000000000E+00  0.10470408703E+04  0.39544974297E+04  0.38133653559E+04 0.  0.
        5    1    3    3  502    0 -0.16149963698E+04 -0.54598168057E+03  0.14090002306E+04  0.22116991228E+04  0.46999998093E+01 0.  1.
       -5    1    3    3    0  502  0.16149963698E+04  0.54598168057E+03 -0.36195936028E+03  0.17427983069E+04  0.46999998093E+01 0. -1.
</event>
<event>
 5   0  0.1193861E-07  0.3790305E+04  0.7818609E-02  0.8048239E-01
       -2   -1    0    0    0  501  0.00000000000E+00  0.00000000000E+00  0.14980420527E+04  0.14980420527E+04  0.25500000920E-02 0.  1.
        2   -1    0    0  501    0  0.00000000000E+00  0.00000000000E+00 -0.23975316896E+04  0.23975316896E+04  0.25500000920E-02 0. -1.
    10030    2    1    2    0    0  0.00000000000E+00  0.00000000000E+00 -0.89948963692E+03  0.38955737424E+04  0.37903051560E+04 0.  0.
        3    1    3    3  502    0  0.18897543001E+04 -0.31786439699E+02 -0.59297668709E+03  0.19808591707E+04  0.10100000352E+00 0.  1.
       -3    1    3    3    0  502 -0.18897543001E+04  0.31786439699E+02 -0.30651294983E+03  0.19147145717E+04  0.10100000352E+00 0. -1.
</event>
<event>
 5   0  0.7858367E-08  0.3811207E+04  0.7818609E-02  0.8043754E-01
       -2   -1    0    0    0  501  0.00000000000E+00  0.00000000000E+00  0.19709415907E+04  0.19709415907E+04  0.25500000920E-02 0.  1.
        2   -1    0    0  501    0  0.00000000000E+00  0.00000000000E+00 -0.18424316470E+04  0.18424316470E+04  0.25500000920E-02 0. -1.
    10030    2    1    2    0    0  0.00000000000E+00  0.00000000000E+00  0.12850994375E+03  0.38133732377E+04  0.38112072424E+04 0.  0.
        2    1    3    3  502    0  0.17629760432E+04 -0.71984888076E+03 -0.69066196031E+01  0.19042884869E+04  0.25500000920E-02 0.  1.
       -2    1    3    3    0  502 -0.17629760432E+04  0.71984888076E+03  0.13541656335E+03  0.19090847508E+04  0.25500000920E-02 0. -1.
</event>
<event>
 5   0  0.1174870E-07  0.3772673E+04  0.7818609E-02  0.8052045E-01
       -2   -1    0    0    0  501  0.00000000000E+00  0.00000000000E+00  0.26000202433E+04  0.26000202433E+04  0.25500000920E-02 0.  1.
        2   -1    0    0  501    0  0.00000000000E+00  0.00000000000E+00 -0.13685526604E+04  0.13685526604E+04  0.25500000920E-02 0. -1.
    10030    2    1    2    0    0  0.00000000000E+00  0.00000000000E+00  0.12314675829E+04  0.39685729037E+04  0.37726725917E+04 0.  0.
        5    1    3    3  502    0  0.79411068908E+03 -0.14923229851E+04  0.14962172403E+04  0.22575047726E+04  0.46999998093E+01 0.  1.
       -5    1    3    3    0  502 -0.79411068908E+03  0.14923229851E+04 -0.26474965735E+03  0.17110681311E+04  0.46999998093E+01 0. -1.
</event>
<event>
 5   0  0.3701250E-08  0.3800482E+04  0.7818609E-02  0.8046051E-01
        1   -1    0    0  501    0  0.00000000000E+00  0.00000000000E+00  0.21362658838E+04  0.21362658838E+04  0.50400001928E-02 0. -1.
       -1   -1    0    0    0  501  0.00000000000E+00  0.00000000000E+00 -0.16902935535E+04  0.16902935535E+04  0.50400001928E-02 0.  1.
    10030    2    1    2    0    0  0.00000000000E+00  0.00000000000E+00  0.44597233025E+03  0.38265594373E+04  0.38004823126E+04 0.  0.
        3    1    3    3  502    0 -0.16712402232E+04  0.82324672713E+03  0.59990405564E+03  0.19572082013E+04  0.10100000352E+00 0. -1.
       -3    1    3    3    0  502  0.16712402232E+04 -0.82324672713E+03 -0.15393172539E+03  0.18693512360E+04  0.10100000352E+00 0.  1.
</event>
<event>
 5   0  0.1143283E-07  0.3774542E+04  0.7818609E-02  0.8051640E-01
       -2   -1    0    0    0  501  0.00000000000E+00  0.00000000000E+00  0.12151651295E+04  0.12151651296E+04  0.25500000920E-02 0.  1.
        2   -1    0    0  501    0  0.00000000000E+00  0.00000000000E+00 -0.29311180958E+04  0.29311180958E+04  0.25500000920E-02 0. -1.
    10030    2    1    2    0    0  0.00000000000E+00  0.00000000000E+00 -0.17159529662E+04  0.41462832253E+04  0.37745423567E+04 0.  0.
        1    1    3    3  502    0  0.10596210914E+04 -0.15575305539E+04 -0.98367623721E+03  0.21251628698E+04  0.50400001928E-02 0.  1.
       -1    1    3    3    0  502 -0.10596210914E+04  0.15575305539E+04 -0.73227672901E+03  0.20211203555E+04  0.50400001928E-02 0. -1.
</event>
<event>
 5   0  0.3701250E-08  0.3771801E+04  0.7818609E-02  0.8052234E-01
        1   -1    0    0  501    0  0.00000000000E+00  0.00000000000E+00  0.12787466474E+04  0.12787466474E+04  0.50400001928E-02 0. -1.
       -1   -1    0    0    0  501  0.00000000000E+00  0.00000000000E+00 -0.27813331510E+04  0.27813331510E+04  0.50400001928E-02 0.  1.
    10030    2    1    2    0    0  0.00000000000E+00  0.00000000000E+00 -0.15025865036E+04  0.40600797984E+04  0.37718008654E+04 0.  0.
        3    1    3    3  502    0  0.11849431159E+04 -0.11970399659E+02  0.82793894298E+03  0.14455851348E+04  0.10100000352E+00 0. -1.
       -3    1    3    3    0  502 -0.11849431159E+04  0.11970399659E+02 -0.23305254466E+04  0.26144946636E+04  0.10100000352E+00 0.  1.
</event>
<event>
 5   0  0.7858367E-08  0.3766432E+04  0.7818609E-02  0.8053397E-01
        2   -1    0    0  501    0  0.00000000000E+00  0.00000000000E+00  0.30580186386E+04  0.30580186386E+04  0.25500000920E-02 0. -1.
       -2   -1    0    0    0  501  0.00000000000E+00  0.00000000000E+00 -0.11597387000E+04  0.11597387000E+04  0.25500000920E-02 0.  1.
    10030    2    1    2    0    0  0.00000000000E+00  0.00000000000E+00  0.18982799386E+04  0.42177573386E+04  0.37664320308E+04 0.  0.
        2    1    3    3  502    0 -0.43167869535E+03 -0.16397043009E+04  0.31477797729E+02  0.16958677844E+04  0.25500000920E-02 0.  1.
       -2    1    3    3    0  502  0.43167869535E+03  0.16397043009E+04  0.18668021409E+04  0.25218895542E+04  0.25500000920E-02 0. -1.
</event>
<event>
 5   0  0.1143283E-07  0.3820405E+04  0.7818609E-02  0.8041790E-01
       -2   -1    0    0    0  501  0.00000000000E+00  0.00000000000E+00  0.16428163145E+04  0.16428163145E+04  0.25500000920E-02 0.  1.
        2   -1    0    0  501    0  0.00000000000E+00  0.00000000000E+00 -0.22211083692E+04  0.22211083692E+04  0.25500000920E-02 0. -1.
    10030    2    1    2    0    0  0.00000000000E+00  0.00000000000E+00 -0.57829205467E+03  0.38639246837E+04  0.38204047247E+04 0.  0.
        1    1    3    3  502    0 -0.15864292725E+04  0.66839572847E+03 -0.11264427853E+04  0.20572758772E+04  0.50400001928E-02 0. -1.
       -1    1    3    3    0  502  0.15864292725E+04 -0.66839572847E+03  0.54815073061E+03  0.18066488065E+04  0.50400001928E-02 0.  1.
</event>
<event>
 5   0  0.1150235E-07  0.3794701E+04  0.7818609E-02  0.8047293E-01
        2   -1    0    0  501    0  0.00000000000E+00  0.00000000000E+00  0.18410296292E+04  0.18410296292E+04  0.25500000920E-02 0. -1.
       -2   -1    0    0    0  501  0.00000000000E+00  0.00000000000E+00 -0.19553944988E+04  0.19553944988E+04  0.25500000920E-02 0.  1.
    10030    2    1    2    0    0  0.00000000000E+00  0.00000000000E+00 -0.11436486966E+03  0.37964241280E+04  0.37947011524E+04 0.  0.
        4    1    3    3  502    0  0.48538655092E+03 -0.52890861525E+03 -0.18142808698E+04  0.19511435402E+04  0.12699999809E+01 0.  1.
       -4    1    3    3    0  502 -0.48538655092E+03  0.52890861525E+03  0.16999160001E+04  0.18452805878E+04  0.12699999809E+01 0. -1.
</event>
<event>
 5   0  0.1193861E-07  0.3812074E+04  0.7818609E-02  0.8043569E-01
       -2   -1    0    0    0  501  0.00000000000E+00  0.00000000000E+00  0.11530077095E+04  0.11530077095E+04  0.25500000920E-02 0.  1.
        2   -1    0    0  501    0  0.00000000000E+00  0.00000000000E+00 -0.31508694790E+04  0.31508694790E+04  0.25500000920E-02 0. -1.
    10030    2    1    2    0    0  0.00000000000E+00  0.00000000000E+00 -0.19978617694E+04  0.43038771885E+04  0.38120738718E+04 0.  0.
        3    1    3    3  502    0  0.81809022366E+03 -0.11101563354E+04  0.48659242170E+03  0.14623579925E+04  0.10100000352E+00 0.  1.
       -3    1    3    3    0  502 -0.81809022366E+03  0.11101563354E+04 -0.24844541911E+04  0.28415191960E+04  0.10100000352E+00 0. -1.
</event>
<event>
 5   0  0.3701250E-08  0.3805951E+04  0.7818609E-02  0.8044879E-01
        1   -1    0    0  501    0  0.00000000000E+00  0.00000000000E+00  0.23173553242E+04  0.23173553242E+04  0.50400001928E-02 0.  1.
       -1   -1    0    0    0  501  0.00000000000E+00  0.00000000000E+00 -0.15626930823E+04  0.15626930823E+04  0.50400001928E-02 0. -1.
    10030    2    1    2    0    0  0.00000000000E+00  0.00000000000E+00  0.75466224186E+03  0.38800484065E+04  0.38059506746E+04 0.  0.
        2    1    3    3  502    0 -0.10935828602E+04  0.15570012442E+04  0.41173404784E+03  0.19467155089E+04  0.25500000920E-02 0. -1.
       -2    1    3    3    0  502  0.10935828602E+04 -0.15570012442E+04  0.34292819402E+03  0.19333328976E+04  0.25500000920E-02 0.  1.
</event>
<event>
 5   0  0.3701250E-08  0.3810229E+04  0.7818609E-02  0.8043963E-01
       -1   -1    0    0    0  501  0.00000000000E+00  0.00000000000E+00  0.12540053728E+04  0.12540053728E+04  0.50400001928E-02 0. -1.
        1   -1    0    0  501    0  0.00000000000E+00  0.00000000000E+00 -0.28942943591E+04  0.28942943591E+04  0.50400001928E-02 0.  1.
    10030    2    1    2    0    0  0.00000000000E+00  0.00000000000E+00 -0.16402889863E+04  0.41482997319E+04  0.38102286948E+04 0.  0.
        3    1    3    3  502    0  0.13918201223E+04  0.12839739996E+04 -0.59252971424E+03  0.19841481691E+04  0.10100000352E+00 0. -1.
       -3    1    3    3    0  502 -0.13918201223E+04 -0.12839739996E+04 -0.10477592721E+04  0.21641515628E+04  0.10100000352E+00 0.  1.
</event>
<event>
 5   0  0.3701250E-08  0.3781376E+04  0.7818609E-02  0.8050163E-01
       -3   -1    0    0    0  501  0.00000000000E+00  0.00000000000E+00  0.23155097050E+04  0.23155097072E+04  0.10100000352E+00 0.  1.
        3   -1    0    0  501    0  0.00000000000E+00  0.00000000000E+00 -0.15438078329E+04  0.15438078363E+04  0.10100000352E+00 0. -1.
    10030    2    1    2    0    0  0.00000000000E+00  0.00000000000E+00  0.77170187200E+03  0.38593175434E+04  0.37813764850E+04 0.  0.
        3    1    3    3  502    0 -0.81373727886E+03 -0.12358298498E+03  0.21230692445E+04  0.22770296749E+04  0.10100000352E+00 0.  1.
       -3    1    3    3    0  502  0.81373727886E+03  0.12358298498E+03 -0.13513673725E+04  0.15822878685E+04  0.10100000352E+00 0. -1.
</event>
<event>
 5   0  0.1150235E-07  0.3804114E+04  0.7818609E-02  0.8045273E-01
       -2   -1    0    0    0  501  0.00000000000E+00  0.00000000000E+00  0.15595357986E+04  0.15595357986E+04  0.25500000920E-02 0.  1.
        2   -1    0    0  501    0  0.00000000000E+00  0.00000000000E+00 -0.23198066273E+04  0.23198066273E+04  0.25500000920E-02 0. -1.
    10030    2    1    2    0    0  0.00000000000E+00  0.00000000000E+00 -0.76027082866E+03  0.38793424259E+04  0.38041143417E+04 0.  0.
        4    1    3    3  502    0 -0.88817497665E+03 -0.14083930260E+03  0.13290549038E+04  0.16047052840E+04  0.12699999809E+01 0.  1.
       -4    1    3    3    0  502  0.88817497665E+03  0.14083930260E+03 -0.20893257324E+04  0.22746371419E+04  0.12699999809E+01 0. -1.
</event>
<event>
 5   0  0.3701250E-08  0.3806917E+04  0.7818609E-02  0.8044672E-01
        1   -1    0    0  501    0  0.00000000000E+00  0.00000000000E+00  0.17123464997E+04  0.17123464997E+04  0.50400001928E-02 0.  1.
       -1   -1    0    0    0  501  0.00000000000E+00  0.00000000000E+00 -0.21159002803E+04  0.21159002803E+04  0.50400001928E-02 0. -1.
    10030    2    1    2    0    0  0.00000000000E+00  0.00000000000E+00 -0.40355378059E+03  0.38282467801E+04  0.38069170933E+04 0.  0.
        2    1    3    3  502    0 -0.33953498062E+03  0.17296947156E+03 -0.20771526527E+04  0.21118157078E+04  0.25500000920E-02 0. -1.
       -2    1    3    3    0  502  0.33953498062E+03 -0.17296947156E+03  0.16735988721E+04  0.17164310723E+04  0.25500000920E-02 0.  1.
</event>
<event>
 5   0  0.3701250E-08  0.3815320E+04  0.7818609E-02  0.8042875E-01
       -3   -1    0    0    0  501  0.00000000000E+00  0.00000000000E+00  0.23726600948E+04  0.23726600969E+04  0.10100000352E+00 0.  1.
        3   -1    0    0  501    0  0.00000000000E+00  0.00000000000E+00 -0.15337921683E+04  0.15337921716E+04  0.10100000352E+00 0. -1.
    10030    2    1    2    0    0  0.00000000000E+00  0.00000000000E+00  0.83886792648E+03  0.39064522686E+04  0.38153204228E+04 0.  0.
        5    1    3    3  502    0 -0.94673508994E+03  0.15223876600E+04  0.10870623441E+04  0.20965920318E+04  0.46999998093E+01 0.  1.
       -5    1    3    3    0  502  0.94673508994E+03 -0.15223876600E+04 -0.24819441758E+03  0.18098602368E+04  0.46999998093E+01 0. -1.
</event>
<event>
 5   0  0.3701250E-08  0.3799809E+04  0.7818609E-02  0.8046196E-01
        1   -1    0    0  501    0  0.00000000000E+00  0.00000000000E+00  0.13093870330E+04  0.13093870330E+04  0.50400001928E-02 0.  1.
       -1   -1    0    0    0  501  0.00000000000E+00  0.00000000000E+00 -0.27567375729E+04  0.27567375729E+04  0.50400001928E-02 0. -1.
    10030    2    1    2    0    0  0.00000000000E+00  0.00000000000E+00 -0.14473505399E+04  0.40661246059E+04  0.37998086433E+04 0.  0.
        1    1    3    3  502    0 -0.30814622470E+03  0.52227699966E+03 -0.26503986701E+04  0.27188858878E+04  0.50400001928E-02 0. -1.
       -1    1    3    3    0  502  0.30814622470E+03 -0.52227699966E+03  0.12030481302E+04  0.13472387182E+04  0.50400001928E-02 0.  1.
</event>
<event>
 5   0  0.1143283E-07  0.3779354E+04  0.7818609E-02  0.8050600E-01
       -2   -1    0    0    0  501  0.00000000000E+00  0.00000000000E+00  0.12741599823E+04  0.12741599823E+04  0.25500000920E-02 0.  1.
        2   -1    0    0  501    0  0.00000000000E+00  0.00000000000E+00 -0.28025358386E+04  0.28025358386E+04  0.25500000920E-02 0. -1.
    10030    2    1    2    0    0  0.00000000000E+00  0.00000000000E+00 -0.15283758563E+04  0.40766958208E+04  0.37793539207E+04 0.  0.
        1    1    3    3  502    0 -0.92548700337E+03 -0.98925368115E+03 -0.21853114451E+04  0.25711349928E+04  0.50400001928E-02 0. -1.
       -1    1    3    3    0  502  0.92548700337E+03  0.98925368115E+03  0.65693558882E+03  0.15055608280E+04  0.50400001928E-02 0.  1.
</event>
<event>
 5   0  0.3701250E-08  0.3810363E+04  0.7818609E-02  0.8043935E-01
        1   -1    0    0  501    0  0.00000000000E+00  0.00000000000E+00  0.17025020354E+04  0.17025020354E+04  0.50400001928E-02 0. -1.
       -1   -1    0    0    0  501  0.00000000000E+00  0.00000000000E+00 -0.21319891262E+04  0.21319891262E+04  0.50400001928E-02 0.  1.
    10030    2    1    2    0    0  0.00000000000E+00  0.00000000000E+00 -0.42948709073E+03  0.38344911616E+04  0.38103626215E+04 0.  0.
        3    1    3    3  502    0  0.10405338454E+04  0.11371493353E+04  0.91212247108E+03  0.17910295102E+04  0.10100000352E+00 0. -1.
       -3    1    3    3    0  502 -0.10405338454E+04 -0.11371493353E+04 -0.13416095618E+04  0.20434616514E+04  0.10100000352E+00 0.  1.
</event>
<event>
 5   0  0.7858367E-08  0.3788488E+04  0.7818609E-02  0.8048630E-01
       -2   -1    0    0    0  501  0.00000000000E+00  0.00000000000E+00  0.18584448011E+04  0.18584448011E+04  0.25500000920E-02 0.  1.
        2   -1    0    0  501    0  0.00000000000E+00  0.00000000000E+00 -0.19307326183E+04  0.19307326183E+04  0.25500000920E-02 0. -1.
    10030    2    1    2    0    0  0.00000000000E+00  0.00000000000E+00 -0.72287817192E+02  0.37891774193E+04  0.37884878232E+04 0.  0.
        2    1    3    3  502    0 -0.25749115477E+03  0.82443255069E+03 -0.17223242228E+04  0.19267567189E+04  0.25500000920E-02 0. -1.
       -2    1    3    3    0  502  0.25749115477E+03 -0.82443255069E+03  0.16500364056E+04  0.18624207004E+04  0.25500000920E-02 0.  1.
</event>
<event>
 5   0  0.1150235E-07  0.3851159E+04  0.7818609E-02  0.8035265E-01
        2   -1    0    0  501    0  0.00000000000E+00  0.00000000000E+00  0.21215875264E+04  0.21215875264E+04  0.25500000920E-02 0.  1.
       -2   -1    0    0    0  501  0.00000000000E+00  0.00000000000E+00 -0.17476800273E+04  0.17476800273E+04  0.25500000920E-02 0. -1.
    10030    2    1    2    0    0  0.00000000000E+00  0.00000000000E+00  0.37390749913E+03  0.38692675537E+04  0.38511588625E+04 0.  0.
        4    1    3    3  502    0 -0.57693313963E+03  0.16764625704E+04 -0.56789518036E+03  0.18616887888E+04  0.12699999809E+01 0. -1.
       -4    1    3    3    0  502  0.57693313963E+03 -0.16764625704E+04  0.94180267949E+03  0.20075787650E+04  0.12699999809E+01 0.  1.
</event>
<event>
 5   0  0.1143283E-07  0.3808113E+04  0.7818609E-02  0.8044416E-01
       -2   -1    0    0    0  501  0.00000000000E+00  0.00000000000E+00  0.22241664351E+04  0.22241664351E+04  0.25500000920E-02 0.  1.
        2   -1    0    0  501    0  0.00000000000E+00  0.00000000000E+00 -0.16300175367E+04  0.16300175367E+04  0.25500000920E-02 0. -1.
    10030    2    1    2    0    0  0.00000000000E+00  0.00000000000E+00  0.59414889841E+03  0.38541839718E+04  0.38081125476E+04 0.  0.
        1    1    3    3  502    0  0.12933399220E+04  0.88763224150E+03 -0.79524690548E+03  0.17587031559E+04  0.50400001928E-02 0. -1.
       -1    1    3    3    0  502 -0.12933399220E+04 -0.88763224150E+03  0.13893958039E+04  0.20954808159E+04  0.50400001928E-02 0.  1.
</event>
<event>
 5   0  0.7858367E-08  0.3731372E+04  0.7818609E-02  0.8061045E-01
        2   -1    0    0  501    0  0.00000000000E+00  0.00000000000E+00  0.27236599822E+04  0.27236599822E+04  0.25500000920E-02 0.  1.
       -2   -1    0    0    0  501  0.00000000000E+00  0.00000000000E+00 -0.12779804587E+04  0.12779804588E+04  0.25500000920E-02 0. -1.
    10030    2    1    2    0    0  0.00000000000E+00  0.00000000000E+00  0.14456795234E+04  0.40016404409E+04  0.37313719909E+04 0.  0.
        2    1    3    3  502    0  0.15309125270E+04  0.10542177532E+04  0.89481709000E+03  0.20629507656E+04  0.25500000920E-02 0. -1.
       -2    1    3    3    0  502 -0.15309125270E+04 -0.10542177532E+04  0.55086243345E+03  0.19386896754E+04  0.25500000920E-02 0.  1.
</event>
<event>
 5   0  0.1143283E-07  0.3859804E+04  0.7818609E-02  0.8033442E-01
       -2   -1    0    0    0  501  0.00000000000E+00  0.00000000000E+00  0.27779200944E+04  0.27779200944E+04  0.25500000920E-02 0.  1.
        2   -1    0    0  501    0  0.00000000000E+00  0.00000000000E+00 -0.13407591343E+04  0.13407591343E+04  0.25500000920E-02 0. -1.
    10030    2    1    2    0    0  0.00000000000E+00  0.00000000000E+00  0.14371609601E+04  0.41186792286E+04  0.38598040058E+04 0.  0.
        1    1    3    3  502    0  0.88062653145E+03  0.89303104322E+03 -0.84660145331E+03  0.15131891993E+04  0.50400001928E-02 0. -1.
       -1    1    3    3    0  502 -0.88062653145E+03 -0.89303104322E+03  0.22837624134E+04  0.26054900293E+04  0.50400001928E-02 0.  1.
</event>
<event>
 5   0  0.1193861E-07  0.3786603E+04  0.7818609E-02  0.8049036E-01
       -2   -1    0    0    0  501  0.00000000000E+00  0.00000000000E+00  0.17044357152E+04  0.17044357152E+04  0.25500000920E-02 0.  1.
        2   -1    0    0  501    0  0.00000000000E+00  0.00000000000E+00 -0.21030951430E+04  0.21030951430E+04  0.25500000920E-02 0. -1.
    10030    2    1    2    0    0  0.00000000000E+00  0.00000000000E+00 -0.39865942775E+03  0.38075308582E+04  0.37866029495E+04 0.  0.
        3    1    3    3  502    0  0.17287255869E+04  0.35967703470E+02  0.57616855815E+03  0.18225685304E+04  0.10100000352E+00 0.  1.
       -3    1    3    3    0  502 -0.17287255869E+04 -0.35967703470E+02 -0.97482798590E+03  0.19849623278E+04  0.10100000352E+00 0. -1.
</event>
<event>
 5   0  0.7858367E-08  0.3812681E+04  0.7818609E-02  0.8043439E-01
       -2   -1    0    0    0  501  0.00000000000E+00  0.00000000000E+00  0.14572467158E+04  0.14572467158E+04  0.25500000920E-02 0. -1.
        2   -1    0    0  501    0  0.00000000000E+00  0.00000000000E+00 -0.24938355926E+04  0.24938355926E+04  0.25500000920E-02 0.  1.
    10030    2    1    2    0    0  0.00000000000E+00  0.00000000000E+00 -0.10365888767E+04  0.39510823084E+04  0.38126808034E+04 0.  0.
        2    1    3    3  502    0 -0.89668843003E+03 -0.89349691837E+03  0.95884136890E+03  0.15880061884E+04  0.25500000920E-02 0. -1.
       -2    1    3    3    0  502  0.89668843003E+03  0.89349691837E+03 -0.19954302456E+04  0.23630761200E+04  0.25500000920E-02 0.  1.
</event>
<event>
 5   0  0.3701250E-08  0.3772747E+04  0.7818609E-02  0.8052029E-01
        1   -1    0    0  501    0  0.00000000000E+00  0.00000000000E+00  0.22783736873E+04  0.22783736873E+04  0.50400001928E-02 0.  1.
       -1   -1    0    0    0  501  0.00000000000E+00  0.00000000000E+00 -0.15618176619E+04  0.15618176619E+04  0.50400001928E-02 0. -1.
    10030    2    1    2    0    0  0.00000000000E+00  0.00000000000E+00  0.71655602538E+03  0.38401913492E+04  0.37727466203E+04 0.  0.
        3    1    3    3  502    0 -0.24514459483E+03 -0.56107208067E+03  0.21744128822E+04  0.22589752421E+04  0.10100000352E+00 0.  1.
       -3    1    3    3    0  502  0.24514459483E+03  0.56107208067E+03 -0.14578568568E+04  0.15812161071E+04  0.10100000352E+00 0. -1.
</event>
<event>
 5   0  0.3701250E-08  0.3803806E+04  0.7818609E-02  0.8045339E-01
        1   -1    0    0  501    0  0.00000000000E+00  0.00000000000E+00  0.16626808947E+04  0.16626808947E+04  0.50400001928E-02 0.  1.
       -1   -1    0    0    0  501  0.00000000000E+00  0.00000000000E+00 -0.21755442245E+04  0.21755442245E+04  0.50400001928E-02 0. -1.
    10030    2    1    2    0    0  0.00000000000E+00  0.00000000000E+00 -0.51286332982E+03  0.38382251192E+04  0.38038064186E+04 0.  0.
        1    1    3    3  502    0  0.11633091875E+04  0.11637294131E+03 -0.17701405769E+04  0.21213742219E+04  0.50400001928E-02 0. -1.
       -1    1    3    3    0  502 -0.11633091875E+04 -0.11637294131E+03  0.12572772471E+04  0.17168508972E+04  0.50400001928E-02 0.  1.
</event>
<event>
 5   0  0.7858367E-08  0.3705292E+04  0.7818609E-02  0.8066790E-01
        2   -1    0    0  501    0  0.00000000000E+00  0.00000000000E+00  0.26691481555E+04  0.26691481555E+04  0.25500000920E-02 0.  1.
       -2   -1    0    0    0  501  0.00000000000E+00  0.00000000000E+00 -0.12859146506E+04  0.12859146506E+04  0.25500000920E-02 0. -1.
    10030    2    1    2    0    0  0.00000000000E+00  0.00000000000E+00  0.13832335049E+04  0.39550628061E+04  0.37052917390E+04 0.  0.
        2    1    3    3  502    0 -0.34105651248E+03  0.80559016826E+03 -0.10515647900E+04  0.13678755687E+04  0.25500000920E-02 0. -1.
       -2    1    3    3    0  502  0.34105651248E+03 -0.80559016826E+03  0.24347982950E+04  0.25871872373E+04  0.25500000920E-02 0.  1.
</event>
<event>
 5   0  0.1193861E-07  0.3798104E+04  0.7818609E-02  0.8046562E-01
        2   -1    0    0  501    0  0.00000000000E+00  0.00000000000E+00  0.20022867066E+04  0.20022867066E+04  0.25500000920E-02 0. -1.
       -2   -1    0    0    0  501  0.00000000000E+00  0.00000000000E+00 -0.18011398318E+04  0.18011398318E+04  0.25500000920E-02 0.  1.
    10030    2    1    2    0    0  0.00000000000E+00  0.00000000000E+00  0.20114687482E+03  0.38034265384E+04  0.37981039175E+04 0.  0.
        3    1    3    3  502    0  0.17481465300E+03 -0.55444882788E+02 -0.17922510961E+04  0.18016099188E+04  0.10100000352E+00 0.  1.
       -3    1    3    3    0  502 -0.17481465300E+03  0.55444882788E+02  0.19933979709E+04  0.20018166196E+04  0.10100000352E+00 0. -1.
</event>
<event>
 5   0  0.1174870E-07  0.3801572E+04  0.7818609E-02  0.8045818E-01
        2   -1    0    0  501    0  0.00000000000E+00  0.00000000000E+00  0.22024883038E+04  0.22024883038E+04  0.25500000920E-02 0. -1.
       -2   -1    0    0    0  501  0.00000000000E+00  0.00000000000E+00 -0.16404115596E+04  0.16404115596E+04  0.25500000920E-02 0.  1.
    10030    2    1    2    0    0  0.00000000000E+00  0.00000000000E+00  0.56207674422E+03  0.38428998633E+04  0.38015719240E+04 0.  0.
        5    1    3    3  502    0  0.65008056775E+03 -0.13166235575E+04  0.15011658010E+04  0.20999102812E+04  0.46999998093E+01 0. -1.
       -5    1    3    3    0  502 -0.65008056775E+03  0.13166235575E+04 -0.93908905681E+03  0.17429895821E+04  0.46999998093E+01 0.  1.
</event>
<event>
 5   0  0.3701250E-08  0.3817388E+04  0.7818609E-02  0.8042434E-01
       -1   -1    0    0    0  501  0.00000000000E+00  0.00000000000E+00  0.12408579087E+04  0.12408579087E+04  0.50400001928E-02 0. -1.
        1   -1    0    0  501    0  0.00000000000E+00  0.00000000000E+00 -0.29359627837E+04  0.29359627837E+04  0.50400001928E-02 0.  1.
    10030    2    1    2    0    0  0.00000000000E+00  0.00000000000E+00 -0.16951048750E+04  0.41768206924E+04  0.38173879236E+04 0.  0.
        2    1    3    3  502    0 -0.34587844730E+03  0.12215380861E+04  0.71188979194E+03  0.14555322985E+04  0.25500000920E-02 0. -1.
       -2    1    3    3    0  502  0.34587844730E+03 -0.12215380861E+04 -0.24069946670E+04  0.27212883939E+04  0.25500000920E-02 0.  1.
</event>
<event>
 5   0  0.3889225E-08  0.3859017E+04  0.7818609E-02  0.8033607E-01
        1   -1    0    0  501    0  0.00000000000E+00  0.00000000000E+00  0.19812806409E+04  0.19812806409E+04  0.50400001928E-02 0. -1.
       -1   -1    0    0    0  501  0.00000000000E+00  0.00000000000E+00 -0.18790892662E+04  0.18790892662E+04  0.50400001928E-02 0.  1.
    10030    2    1    2    0    0  0.00000000000E+00  0.00000000000E+00  0.10219137475E+03  0.38603699071E+04  0.38590170695E+04 0.  0.
        5    1    3    3  502    0 -0.91836074174E+01 -0.22966687116E+03  0.19675308131E+04  0.19809166567E+04  0.46999998093E+01 0. -1.
       -5    1    3    3    0  502  0.91836074174E+01  0.22966687116E+03 -0.18653394383E+04  0.18794532504E+04  0.46999998093E+01 0.  1.
</event>
<event>
 5   0  0.1143283E-07  0.3811111E+04  0.7818609E-02  0.8043775E-01
       -2   -1    0    0    0  501  0.00000000000E+00  0.00000000000E+00  0.18772868497E+04  0.18772868497E+04  0.25500000920E-02 0. -1.
        2   -1    0    0  501    0  0.00000000000E+00  0.00000000000E+00 -0.19342495374E+04  0.19342495374E+04  0.25500000920E-02 0.  1.
    10030    2    1    2    0    0  0.00000000000E+00  0.00000000000E+00 -0.56962687655E+02  0.38115363871E+04  0.38111107151E+04 0.  0.
        1    1    3    3  502    0 -0.60381608941E+03  0.25023289240E+03 -0.18186340188E+04  0.19325216854E+04  0.50400001928E-02 0.  1.
       -1    1    3    3    0  502  0.60381608941E+03 -0.25023289240E+03  0.17616713311E+04  0.18790147017E+04  0.50400001928E-02 0. -1.
</event>
<event>
 5   0  0.7858367E-08  0.3803292E+04  0.7818609E-02  0.8045449E-01
       -2   -1    0    0    0  501  0.00000000000E+00  0.00000000000E+00  0.18626983847E+04  0.18626983847E+04  0.25500000920E-02 0. -1.
        2   -1    0    0  501    0  0.00000000000E+00  0.00000000000E+00 -0.19414079705E+04  0.19414079705E+04  0.25500000920E-02 0.  1.
    10030    2    1    2    0    0  0.00000000000E+00  0.00000000000E+00 -0.78709585871E+02  0.38041063552E+04  0.38032919902E+04 0.  0.
        2    1    3    3  502    0 -0.12966180390E+04 -0.13899073048E+04  0.17197879015E+02  0.19008830638E+04  0.25500000920E-02 0. -1.
       -2    1    3    3    0  502  0.12966180390E+04  0.13899073048E+04 -0.95907464885E+02  0.19032232914E+04  0.25500000920E-02 0.  1.
</event>
<event>
 5   0  0.7858367E-08  0.3807569E+04  0.7818609E-02  0.8044532E-01
        2   -1    0    0  501    0  0.00000000000E+00  0.00000000000E+00  0.12790329984E+04  0.12790329984E+04  0.25500000920E-02 0. -1.
       -2   -1    0    0    0  501  0.00000000000E+00  0.00000000000E+00 -0.28337000712E+04  0.28337000712E+04  0.25500000920E-02 0.  1.
    10030    2    1    2    0    0  0.00000000000E+00  0.00000000000E+00 -0.15546670728E+04  0.41127330696E+04  0.38075692501E+04 0.  0.
        2    1    3    3  502    0  0.15761462043E+04 -0.38546578140E+03  0.29825343888E+03  0.16497805429E+04  0.25500000920E-02 0. -1.
       -2    1    3    3    0  502 -0.15761462043E+04  0.38546578140E+03 -0.18529205117E+04  0.24629525267E+04  0.25500000920E-02 0.  1.
</event>
<event>
 5   0  0.7858367E-08  0.3799542E+04  0.7818609E-02  0.8046253E-01
       -2   -1    0    0    0  501  0.00000000000E+00  0.00000000000E+00  0.24278877288E+04  0.24278877288E+04  0.25500000920E-02 0. -1.
        2   -1    0    0  501    0  0.00000000000E+00  0.00000000000E+00 -0.14865306371E+04  0.14865306371E+04  0.25500000920E-02 0.  1.
    10030    2    1    2    0    0  0.00000000000E+00  0.00000000000E+00  0.94135709168E+03  0.39144183659E+04  0.37995418105E+04 0.  0.
        2    1    3    3  502    0 -0.87098318394E+03 -0.15778139909E+04 -0.14833780693E+03  0.18083453215E+04  0.25500000920E-02 0.  1.
       -2    1    3    3    0  502  0.87098318394E+03  0.15778139909E+04  0.10896948986E+04  0.21060730445E+04  0.25500000920E-02 0. -1.
</event>
<event>
 5   0  0.1174870E-07  0.3846482E+04  0.7818609E-02  0.8036253E-01
        2   -1    0    0  501    0  0.00000000000E+00  0.00000000000E+00  0.19884928681E+04  0.19884928681E+04  0.25500000920E-02 0. -1.
       -2   -1    0    0    0  501  0.00000000000E+00  0.00000000000E+00 -0.18601301875E+04  0.18601301875E+04  0.25500000920E-02 0.  1.
    10030    2    1    2    0    0  0.00000000000E+00  0.00000000000E+00  0.12836268065E+03  0.38486230556E+04  0.38464818271E+04 0.  0.
        5    1    3    3  502    0 -0.71618334937E+03 -0.12871982780E+04 -0.11730487680E+04  0.18830463348E+04  0.46999998093E+01 0.  1.
       -5    1    3    3    0  502  0.71618334937E+03  0.12871982780E+04  0.13014114487E+04  0.19655767208E+04  0.46999998093E+01 0. -1.
</event>
<event>
 5   0  0.3701250E-08  0.3758450E+04  0.7818609E-02  0.8055131E-01
       -1   -1    0    0    0  501  0.00000000000E+00  0.00000000000E+00  0.15378269954E+04  0.15378269955E+04  0.50400001928E-02 0.  1.
        1   -1    0    0  501    0  0.00000000000E+00  0.00000000000E+00 -0.22964137937E+04  0.22964137937E+04  0.50400001928E-02 0. -1.
    10030    2    1    2    0    0  0.00000000000E+00  0.00000000000E+00 -0.75858679829E+03  0.38342407892E+04  0.37584502789E+04 0.  0.
        1    1    3    3  502    0  0.94403316747E+03 -0.14869119978E+04 -0.10477790564E+04  0.20493771887E+04  0.50400001928E-02 0.  1.
       -1    1    3    3    0  502 -0.94403316747E+03  0.14869119978E+04  0.28919225808E+03  0.17848636005E+04  0.50400001928E-02 0. -1.
</event>
<event>
 5   0  0.1174870E-07  0.3813100E+04  0.7818609E-02  0.8043349E-01
       -2   -1    0    0    0  501  0.00000000000E+00  0.00000000000E+00  0.15562139087E+04  0.15562139087E+04  0.25500000920E-02 0.  1.
        2   -1    0    0  501    0  0.00000000000E+00  0.00000000000E+00 -0.23357544143E+04  0.23357544143E+04  0.25500000920E-02 0. -1.
    10030    2    1    2    0    0  0.00000000000E+00  0.00000000000E+00 -0.77954050560E+03  0.38919683230E+04  0.38131003170E+04 0.  0.
        5    1    3    3  502    0 -0.88335285309E+03 -0.13861775256E+04 -0.13757266866E+04  0.21434659787E+04  0.46999998093E+01 0. -1.
       -5    1    3    3    0  502  0.88335285309E+03  0.13861775256E+04  0.59618618104E+03  0.17485023443E+04  0.46999998093E+01 0.  1.
</event>
<event>
 5   0  0.1150235E-07  0.3874713E+04  0.7818609E-02  0.8030309E-01
        2   -1    0    0  501    0  0.00000000000E+00  0.00000000000E+00  0.16378715213E+04  0.16378715213E+04  0.25500000920E-02 0. -1.
       -2   -1    0    0    0  501  0.00000000000E+00  0.00000000000E+00 -0.22916026080E+04  0.22916026080E+04  0.25500000920E-02 0.  1.
    10030    2    1    2    0    0  0.00000000000E+00  0.00000000000E+00 -0.65373108674E+03  0.39294741293E+04  0.38747132280E+04 0.  0.
        4    1    3    3  502    0  0.67156239734E+03 -0.13379152806E+04  0.92028525316E+03  0.17572535138E+04  0.12699999809E+01 0. -1.
       -4    1    3    3    0  502 -0.67156239734E+03  0.13379152806E+04 -0.15740163399E+04  0.21722206156E+04  0.12699999809E+01 0.  1.
</event>
<event>
 5   0  0.3701250E-08  0.3813546E+04  0.7818609E-02  0.8043254E-01
       -1   -1    0    0    0  501  0.00000000000E+00  0.00000000000E+00  0.17913216438E+04  0.17913216438E+04  0.50400001928E-02 0.  1.
        1   -1    0    0  501    0  0.00000000000E+00  0.00000000000E+00 -0.20296647154E+04  0.20296647154E+04  0.50400001928E-02 0. -1.
    10030    2    1    2    0    0  0.00000000000E+00  0.00000000000E+00 -0.23834307161E+03  0.38209863592E+04  0.38135455074E+04 0.  0.
        4    1    3    3  502    0 -0.91791008090E+03  0.12371583885E+03  0.15507886764E+04  0.18063254572E+04  0.12699999809E+01 0.  1.
       -4    1    3    3    0  502  0.91791008090E+03 -0.12371583885E+03 -0.17891317480E+04  0.20146609020E+04  0.12699999809E+01 0. -1.
</event>
<event>
 5   0  0.3701250E-08  0.3814737E+04  0.7818609E-02  0.8043000E-01
        1   -1    0    0  501    0  0.00000000000E+00  0.00000000000E+00  0.15395156629E+04  0.15395156629E+04  0.50400001928E-02 0. -1.
       -1   -1    0    0    0  501  0.00000000000E+00  0.00000000000E+00 -0.23631165040E+04  0.23631165040E+04  0.50400001928E-02 0.  1.
    10030    2    1    2    0    0  0.00000000000E+00  0.00000000000E+00 -0.82360084109E+03  0.39026321669E+04  0.38147371449E+04 0.  0.
        3    1    3    3  502    0  0.49463705005E+03 -0.16969404332E+04  0.32150101527E+03  0.17965621498E+04  0.10100000352E+00 0.  1.
       -3    1    3    3    0  502 -0.49463705005E+03  0.16969404332E+04 -0.11451018564E+04  0.21060700171E+04  0.10100000352E+00 0. -1.
</event>
<event>
 5   0  0.1174870E-07  0.3806316E+04  0.7818609E-02  0.8044801E-01
        2   -1    0    0  501    0  0.00000000000E+00  0.00000000000E+00  0.11548258190E+04  0.11548258190E+04  0.25500000920E-02 0.  1.
       -2   -1    0    0    0  501  0.00000000000E+00  0.00000000000E+00 -0.31364127732E+04  0.31364127732E+04  0.25500000920E-02 0. -1.
    10030    2    1    2    0    0  0.00000000000E+00  0.00000000000E+00 -0.19815869543E+04  0.42912385922E+04  0.38063160402E+04 0.  0.
        5    1    3    3  502    0 -0.15558657512E+03 -0.11568806240E+04 -0.26854246312E+04  0.29281576973E+04  0.46999998093E+01 0. -1.
       -5    1    3    3    0  502  0.15558657512E+03  0.11568806240E+04  0.70383767693E+03  0.13630808949E+04  0.46999998093E+01 0.  1.
</event>
<event>
 5   0  0.1174870E-07  0.3798240E+04  0.7818609E-02  0.8046533E-01
        2   -1    0    0  501    0  0.00000000000E+00  0.00000000000E+00  0.17206103491E+04  0.17206103491E+04  0.25500000920E-02 0.  1.
       -2   -1    0    0    0  501  0.00000000000E+00  0.00000000000E+00 -0.20961501976E+04  0.20961501976E+04  0.25500000920E-02 0. -1.
    10030    2    1    2    0    0  0.00000000000E+00  0.00000000000E+00 -0.37553984847E+03  0.38167605466E+04  0.37982404996E+04 0.  0.
        5    1    3    3  502    0 -0.11338191343E+04 -0.23280977116E+03 -0.17007305344E+04  0.20572439475E+04  0.46999998093E+01 0. -1.
       -5    1    3    3    0  502  0.11338191343E+04  0.23280977116E+03  0.13251906859E+04  0.17595165992E+04  0.46999998093E+01 0.  1.
</event>
<event>
 5   0  0.7858367E-08  0.3777239E+04  0.7818609E-02  0.8051057E-01
       -2   -1    0    0    0  501  0.00000000000E+00  0.00000000000E+00  0.15286435006E+04  0.15286435006E+04  0.25500000920E-02 0.  1.
        2   -1    0    0  501    0  0.00000000000E+00  0.00000000000E+00 -0.23333653464E+04  0.23333653464E+04  0.25500000920E-02 0. -1.
    10030    2    1    2    0    0  0.00000000000E+00  0.00000000000E+00 -0.80472184586E+03  0.38620088470E+04  0.37772390823E+04 0.  0.
        2    1    3    3  502    0  0.13932037500E+04 -0.85611095911E+03  0.56380162394E+03  0.17296863688E+04  0.25500000920E-02 0.  1.
       -2    1    3    3    0  502 -0.13932037500E+04  0.85611095911E+03 -0.13685234698E+04  0.21323224781E+04  0.25500000920E-02 0. -1.
</event>
<event>
 5   0  0.1150235E-07  0.3804504E+04  0.7818609E-02  0.8045189E-01
        2   -1    0    0  501    0  0.00000000000E+00  0.00000000000E+00  0.17677430449E+04  0.17677430449E+04  0.25500000920E-02 0. -1.
       -2   -1    0    0    0  501  0.00000000000E+00  0.00000000000E+00 -0.20469958186E+04  0.20469958186E+04  0.25500000920E-02 0.  1.
    10030    2    1    2    0    0  0.00000000000E+00  0.00000000000E+00 -0.27925277366E+03  0.38147388635E+04  0.38045039736E+04 0.  0.
        4    1    3    3  502    0 -0.14440902286E+03  0.12857694514E+04  0.12585796980E+04  0.18050156557E+04  0.12699999809E+01 0. -1.
       -4    1    3    3    0  502  0.14440902286E+03 -0.12857694514E+04 -0.15378324717E+04  0.20097232078E+04  0.12699999809E+01 0.  1.
</event>
<event>
 5   0  0.3701250E-08  0.3802987E+04  0.7818609E-02  0.8045514E-01
       -1   -1    0    0    0  501  0.00000000000E+00  0.00000000000E+00  0.14086073922E+04  0.14086073922E+04  0.50400001928E-02 0.  1.
        1   -1    0    0  501    0  0.00000000000E+00  0.00000000000E+00 -0.25668461254E+04  0.25668461254E+04  0.50400001928E-02 0. -1.
    10030    2    1    2    0    0  0.00000000000E+00  0.00000000000E+00 -0.11582387332E+04  0.39754535177E+04  0.38029874715E+04 0.  0.
        1    1    3    3  502    0  0.12069736972E+04  0.12418125797E+04  0.24185956027E+03  0.17485365412E+04  0.50400001928E-02 0.  1.
       -1    1    3    3    0  502 -0.12069736972E+04 -0.12418125797E+04 -0.14000982935E+04  0.22269169765E+04  0.50400001928E-02 0. -1.
</event>
<event>
 5   0  0.3701250E-08  0.3820044E+04  0.7818609E-02  0.8041867E-01
       -1   -1    0    0    0  501  0.00000000000E+00  0.00000000000E+00  0.13538493941E+04  0.13538493941E+04  0.50400001928E-02 0.  1.
        1   -1    0    0  501    0  0.00000000000E+00  0.00000000000E+00 -0.26946743070E+04  0.26946743070E+04  0.50400001928E-02 0. -1.
    10030    2    1    2    0    0  0.00000000000E+00  0.00000000000E+00 -0.13408249130E+04  0.40485237011E+04  0.38200435483E+04 0.  0.
        1    1    3    3  502    0  0.60252752284E+03  0.15258524745E+04  0.36631769980E+03  0.16809086373E+04  0.50400001928E-02 0.  1.
       -1    1    3    3    0  502 -0.60252752284E+03 -0.15258524745E+04 -0.17071426128E+04  0.23676150638E+04  0.50400001928E-02 0. -1.
</event>
<event>
 5   0  0.3701250E-08  0.3790521E+04  0.7818609E-02  0.8048192E-01
        1   -1    0    0  501    0  0.00000000000E+00  0.00000000000E+00  0.18921349948E+04  0.18921349948E+04  0.50400001928E-02 0. -1.
       -1   -1    0    0    0  501  0.00000000000E+00  0.00000000000E+00 -0.18983907507E+04  0.18983907507E+04  0.50400001928E-02 0.  1.
    10030    2    1    2    0    0  0.00000000000E+00  0.00000000000E+00 -0.62557559574E+01  0.37905257455E+04  0.37905205833E+04 0.  0.
        3    1    3    3  502    0 -0.18741842224E+04 -0.21369887308E+03 -0.18691565496E+03  0.18955661899E+04  0.10100000352E+00 0.  1.
       -3    1    3    3    0  502  0.18741842224E+04  0.21369887308E+03  0.18065989900E+03  0.18949595556E+04  0.10100000352E+00 0. -1.
</event>
<event>
 5   0  0.1150235E-07  0.3806679E+04  0.7818609E-02  0.8044723E-01
        2   -1    0    0  501    0  0.00000000000E+00  0.00000000000E+00  0.15808192757E+04  0.15808192757E+04  0.25500000920E-02 0. -1.
       -2   -1    0    0    0  501  0.00000000000E+00  0.00000000000E+00 -0.22916611841E+04  0.22916611841E+04  0.25500000920E-02 0.  1.
    10030    2    1    2    0    0  0.00000000000E+00  0.00000000000E+00 -0.71084190834E+03  0.38724804598E+04  0.38066794839E+04 0.  0.
        4    1    3    3  502    0  0.15539845742E+04 -0.58879227739E+02 -0.14718268465E+04  0.21411704040E+04  0.12699999809E+01 0.  1.
       -4    1    3    3    0  502 -0.15539845742E+04  0.58879227739E+02  0.76098493812E+03  0.17313100558E+04  0.12699999809E+01 0. -1.
</event>
<event>
 5   0  0.3889225E-08  0.3803238E+04  0.7818609E-02  0.8045460E-01
       -1   -1    0    0    0  501  0.00000000000E+00  0.00000000000E+00  0.13312655747E+04  0.13312655747E+04  0.50400001928E-02 0.  1.
        1   -1    0    0  501    0  0.00000000000E+00  0.00000000000E+00 -0.27163281642E+04  0.27163281642E+04  0.50400001928E-02 0. -1.
    10030    2    1    2    0    0  0.00000000000E+00  0.00000000000E+00 -0.13850625894E+04  0.40475937389E+04  0.38032376600E+04 0.  0.
        5    1    3    3  502    0  0.17163725800E+04 -0.77886628667E+03 -0.96085001178E+03  0.21156139442E+04  0.46999998093E+01 0.  1.
       -5    1    3    3    0  502 -0.17163725800E+04  0.77886628667E+03 -0.42421257767E+03  0.19319797947E+04  0.46999998093E+01 0. -1.
</event>
<event>
 5   0  0.7858367E-08  0.3813715E+04  0.7818609E-02  0.8043218E-01
        2   -1    0    0  501    0  0.00000000000E+00  0.00000000000E+00  0.18522462784E+04  0.18522462784E+04  0.25500000920E-02 0.  1.
       -2   -1    0    0    0  501  0.00000000000E+00  0.00000000000E+00 -0.19630788034E+04  0.19630788034E+04  0.25500000920E-02 0. -1.
    10030    2    1    2    0    0  0.00000000000E+00  0.00000000000E+00 -0.11083252493E+03  0.38153250818E+04  0.38137149384E+04 0.  0.
        2    1    3    3  502    0  0.16406836158E+04 -0.80312054321E+01 -0.10275251175E+04  0.19359016232E+04  0.25500000920E-02 0. -1.
       -2    1    3    3    0  502 -0.16406836158E+04  0.80312054321E+01  0.91669259260E+03  0.18794234586E+04  0.25500000920E-02 0.  1.
</event>
<event>
 5   0  0.3701250E-08  0.3878690E+04  0.7818609E-02  0.8029476E-01
       -1   -1    0    0    0  501  0.00000000000E+00  0.00000000000E+00  0.14403816432E+04  0.14403816432E+04  0.50400001928E-02 0.  1.
        1   -1    0    0  501    0  0.00000000000E+00  0.00000000000E+00 -0.26111545193E+04  0.26111545193E+04  0.50400001928E-02 0. -1.
    10030    2    1    2    0    0  0.00000000000E+00  0.00000000000E+00 -0.11707728761E+04  0.40515361625E+04  0.38786900042E+04 0.  0.
        4    1    3    3  502    0 -0.11675334092E+04 -0.41012187037E+03  0.97438199361E+03  0.15750416161E+04  0.12699999809E+01 0.  1.
       -4    1    3    3    0  502  0.11675334092E+04  0.41012187037E+03 -0.21451548697E+04  0.24764945463E+04  0.12699999809E+01 0. -1.
</event>
<event>
 5   0  0.3889225E-08  0.3783846E+04  0.7818609E-02  0.8049630E-01
        1   -1    0    0  501    0  0.00000000000E+00  0.00000000000E+00  0.13813804771E+04  0.13813804771E+04  0.50400001928E-02 0.  1.
       -1   -1    0    0    0  501  0.00000000000E+00  0.00000000000E+00 -0.25911559021E+04  0.25911559021E+04  0.50400001928E-02 0. -1.
    10030    2    1    2    0    0  0.00000000000E+00  0.00000000000E+00 -0.12097754250E+04  0.39725363792E+04  0.37838457560E+04 0.  0.
        5    1    3    3  502    0  0.41675390346E+03  0.57296236925E+03  0.12368384170E+04  0.14253985591E+04  0.46999998093E+01 0.  1.
       -5    1    3    3    0  502 -0.41675390346E+03 -0.57296236925E+03 -0.24466138419E+04  0.25471378200E+04  0.46999998093E+01 0. -1.
</event>
<event>
 5   0  0.1150235E-07  0.3812273E+04  0.7818609E-02  0.8043526E-01
        2   -1    0    0  501    0  0.00000000000E+00  0.00000000000E+00  0.20395828285E+04  0.20395828285E+04  0.25500000920E-02 0. -1.
       -2   -1    0    0    0  501  0.00000000000E+00  0.00000000000E+00 -0.17814211219E+04  0.17814211219E+04  0.25500000920E-02 0.  1.
    10030    2    1    2    0    0  0.00000000000E+00  0.00000000000E+00  0.25816170662E+03  0.38210039504E+04  0.38122727765E+04 0.  0.
        4    1    3    3  502    0 -0.41346140682E+03  0.34465994437E+03 -0.17036620827E+04  0.17866748213E+04  0.12699999809E+01 0.  1.
       -4    1    3    3    0  502  0.41346140682E+03 -0.34465994437E+03  0.19618237893E+04  0.20343291291E+04  0.12699999809E+01 0. -1.
</event>
<event>
 5   0  0.3701250E-08  0.3842923E+04  0.7818609E-02  0.8037006E-01
       -1   -1    0    0    0  501  0.00000000000E+00  0.00000000000E+00  0.24671103676E+04  0.24671103676E+04  0.50400001928E-02 0. -1.
        1   -1    0    0  501    0  0.00000000000E+00  0.00000000000E+00 -0.14964932354E+04  0.14964932354E+04  0.50400001928E-02 0.  1.
    10030    2    1    2    0    0  0.00000000000E+00  0.00000000000E+00  0.97061713216E+03  0.39636036030E+04  0.38429228335E+04 0.  0.
        3    1    3    3  502    0  0.13475722918E+04  0.13694887489E+04  0.50979111463E+03  0.19877971490E+04  0.10100000352E+00 0.  1.
       -3    1    3    3    0  502 -0.13475722918E+04 -0.13694887489E+04  0.46082601753E+03  0.19758064540E+04  0.10100000352E+00 0. -1.
</event>
<event>
 5   0  0.7858367E-08  0.4000951E+04  0.7818609E-02  0.8004355E-01
       -2   -1    0    0    0  501  0.00000000000E+00  0.00000000000E+00  0.13068886224E+04  0.13068886224E+04  0.25500000920E-02 0. -1.
        2   -1    0    0  501    0  0.00000000000E+00  0.00000000000E+00 -0.30621598520E+04  0.30621598520E+04  0.25500000920E-02 0.  1.
    10030    2    1    2    0    0  0.00000000000E+00  0.00000000000E+00 -0.17552712295E+04  0.43690484744E+04  0.40009508223E+04 0.  0.
        2    1    3    3  502    0  0.63194042455E+03  0.18090305755E+04 -0.25036446166E+03  0.19325171893E+04  0.25500000920E-02 0. -1.
       -2    1    3    3    0  502 -0.63194042455E+03 -0.18090305755E+04 -0.15049067678E+04  0.24365312851E+04  0.25500000920E-02 0.  1.
</event>
<event>
 5   0  0.7858367E-08  0.3794153E+04  0.7818609E-02  0.8047411E-01
        2   -1    0    0  501    0  0.00000000000E+00  0.00000000000E+00  0.24370442535E+04  0.24370442535E+04  0.25500000920E-02 0. -1.
       -2   -1    0    0    0  501  0.00000000000E+00  0.00000000000E+00 -0.14767473045E+04  0.14767473045E+04  0.25500000920E-02 0.  1.
    10030    2    1    2    0    0  0.00000000000E+00  0.00000000000E+00  0.96029694900E+03  0.39137915581E+04  0.37941526234E+04 0.  0.
        2    1    3    3  502    0 -0.91496927076E+03 -0.16608969697E+04  0.42224446792E+03  0.19426883181E+04  0.25500000920E-02 0. -1.
       -2    1    3    3    0  502  0.91496927076E+03  0.16608969697E+04  0.53805248108E+03  0.19711032400E+04  0.25500000920E-02 0.  1.
</event>
<event>
 5   0  0.7858367E-08  0.3933235E+04  0.7818609E-02  0.8018152E-01
       -2   -1    0    0    0  501  0.00000000000E+00  0.00000000000E+00  0.15143372395E+04  0.15143372395E+04  0.25500000920E-02 0.  1.
        2   -1    0    0  501    0  0.00000000000E+00  0.00000000000E+00 -0.25539782106E+04  0.25539782106E+04  0.25500000920E-02 0. -1.
    10030    2    1    2    0    0  0.00000000000E+00  0.00000000000E+00 -0.10396409711E+04  0.40683154501E+04  0.39332349602E+04 0.  0.
        2    1    3    3  502    0  0.77162441132E+03  0.15918550247E+03 -0.23836027595E+04  0.25104394778E+04  0.25500000920E-02 0. -1.
       -2    1    3    3    0  502 -0.77162441132E+03 -0.15918550247E+03  0.13439617884E+04  0.15578759723E+04  0.25500000920E-02 0.  1.
</event>
<event>
 5   0  0.1193861E-07  0.3784061E+04  0.7818609E-02  0.8049584E-01
       -2   -1    0    0    0  501  0.00000000000E+00  0.00000000000E+00  0.20222375211E+04  0.20222375211E+04  0.25500000920E-02 0. -1.
        2   -1    0    0  501    0  0.00000000000E+00  0.00000000000E+00 -0.17702069342E+04  0.17702069342E+04  0.25500000920E-02 0.  1.
    10030    2    1    2    0    0  0.00000000000E+00  0.00000000000E+00  0.25203058694E+03  0.37924444553E+04  0.37840607196E+04 0.  0.
        3    1    3    3  502    0 -0.89492360369E+03 -0.12403695828E+04 -0.99017295099E+03  0.18220448516E+04  0.10100000352E+00 0.  1.
       -3    1    3    3    0  502  0.89492360369E+03  0.12403695828E+04  0.12422035379E+04  0.19703996037E+04  0.10100000352E+00 0. -1.
</event>
<event>
 5   0  0.1143283E-07  0.3794011E+04  0.7818609E-02  0.8047441E-01
        2   -1    0    0  501    0  0.00000000000E+00  0.00000000000E+00  0.16771578783E+04  0.16771578783E+04  0.25500000920E-02 0. -1.
       -2   -1    0    0    0  501  0.00000000000E+00  0.00000000000E+00 -0.21456712152E+04  0.21456712152E+04  0.25500000920E-02 0.  1.
    10030    2    1    2    0    0  0.00000000000E+00  0.00000000000E+00 -0.46851333687E+03  0.38228290935E+04  0.37940107448E+04 0.  0.
        1    1    3    3  502    0  0.13951503623E+04 -0.10090313352E+04 -0.10365715819E+04  0.20097436188E+04  0.50400001928E-02 0.  1.
       -1    1    3    3    0  502 -0.13951503623E+04  0.10090313352E+04  0.56805824505E+03  0.18130854747E+04  0.50400001928E-02 0. -1.
</event>
<event>
 5   0  0.1193861E-07  0.3803506E+04  0.7818609E-02  0.8045403E-01
        2   -1    0    0  501    0  0.00000000000E+00  0.00000000000E+00  0.28843558256E+04  0.28843558256E+04  0.25500000920E-02 0. -1.
       -2   -1    0    0    0  501  0.00000000000E+00  0.00000000000E+00 -0.12538900674E+04  0.12538900674E+04  0.25500000920E-02 0.  1.
    10030    2    1    2    0    0  0.00000000000E+00  0.00000000000E+00  0.16304657582E+04  0.41382458930E+04  0.38035063404E+04 0.  0.
        3    1    3    3  502    0 -0.70800249481E+03 -0.17615829471E+04  0.69494474289E+03  0.20217295116E+04  0.10100000352E+00 0. -1.
       -3    1    3    3    0  502  0.70800249481E+03  0.17615829471E+04  0.93552101533E+03  0.21165163814E+04  0.10100000352E+00 0.  1.
</event>
<event>
 5   0  0.3701250E-08  0.3797676E+04  0.7818609E-02  0.8046654E-01
        1   -1    0    0  501    0  0.00000000000E+00  0.00000000000E+00  0.26270009790E+04  0.26270009790E+04  0.50400001928E-02 0. -1.
       -1   -1    0    0    0  501  0.00000000000E+00  0.00000000000E+00 -0.13725102025E+04  0.13725102025E+04  0.50400001928E-02 0.  1.
    10030    2    1    2    0    0  0.00000000000E+00  0.00000000000E+00  0.12544907765E+04  0.39995111815E+04  0.37976759450E+04 0.  0.
        2    1    3    3  502    0 -0.58849530754E+03  0.28568161603E+03  0.25045800363E+04  0.25886023007E+04  0.25500000920E-02 0. -1.
       -2    1    3    3    0  502  0.58849530754E+03 -0.28568161603E+03 -0.12500892598E+04  0.14109088809E+04  0.25500000920E-02 0.  1.
</event>
<event>
 5   0  0.3701250E-08  0.3842779E+04  0.7818609E-02  0.8037036E-01
       -1   -1    0    0    0  501  0.00000000000E+00  0.00000000000E+00  0.15419373723E+04  0.15419373723E+04  0.50400001928E-02 0.  1.
        1   -1    0    0  501    0  0.00000000000E+00  0.00000000000E+00 -0.23942208213E+04  0.23942208213E+04  0.50400001928E-02 0. -1.
    10030    2    1    2    0    0  0.00000000000E+00  0.00000000000E+00 -0.85228344905E+03  0.39361581936E+04  0.38427794951E+04 0.  0.
        3    1    3    3  502    0  0.12346604292E+04 -0.89893308339E+03 -0.16203502940E+04  0.22266571692E+04  0.10100000352E+00 0. -1.
       -3    1    3    3    0  502 -0.12346604292E+04  0.89893308339E+03  0.76806684490E+03  0.17095010244E+04  0.10100000352E+00 0.  1.
</event>
<event>
 5   0  0.7858367E-08  0.3805995E+04  0.7818609E-02  0.8044870E-01
       -2   -1    0    0    0  501  0.00000000000E+00  0.00000000000E+00  0.21817929425E+04  0.21817929425E+04  0.25500000920E-02 0.  1.
        2   -1    0    0  501    0  0.00000000000E+00  0.00000000000E+00 -0.16598268713E+04  0.16598268713E+04  0.25500000920E-02 0. -1.
    10030    2    1    2    0    0  0.00000000000E+00  0.00000000000E+00  0.52196607126E+03  0.38416198138E+04  0.38059945105E+04 0.  0.
        2    1    3    3  502    0 -0.22197954435E+03  0.16074141810E+04 -0.74247712153E+03  0.17844684204E+04  0.25500000920E-02 0. -1.
       -2    1    3    3    0  502  0.22197954435E+03 -0.16074141810E+04  0.12644431928E+04  0.20571513934E+04  0.25500000920E-02 0.  1.
</event>
<event>
 5   0  0.7858367E-08  0.3800721E+04  0.7818609E-02  0.8046000E-01
       -2   -1    0    0    0  501  0.00000000000E+00  0.00000000000E+00  0.17525312577E+04  0.17525312577E+04  0.25500000920E-02 0.  1.
        2   -1    0    0  501    0  0.00000000000E+00  0.00000000000E+00 -0.20606598875E+04  0.20606598875E+04  0.25500000920E-02 0. -1.
    10030    2    1    2    0    0  0.00000000000E+00  0.00000000000E+00 -0.30812862981E+03  0.38131911451E+04  0.38007214390E+04 0.  0.
        2    1    3    3  502    0 -0.13131212843E+04  0.56838676803E+03  0.11006465654E+04  0.18052074361E+04  0.25500000920E-02 0.  1.
       -2    1    3    3    0  502  0.13131212843E+04 -0.56838676803E+03 -0.14087751952E+04  0.20079837091E+04  0.25500000920E-02 0. -1.
</event>
<event>
 5   0  0.3889225E-08  0.3813978E+04  0.7818609E-02  0.8043162E-01
        1   -1    0    0  501    0  0.00000000000E+00  0.00000000000E+00  0.13480247846E+04  0.13480247846E+04  0.50400001928E-02 0. -1.
       -1   -1    0    0    0  501  0.00000000000E+00  0.00000000000E+00 -0.26977298501E+04  0.26977298501E+04  0.50400001928E-02 0.  1.
    10030    2    1    2    0    0  0.00000000000E+00  0.00000000000E+00 -0.13497050655E+04  0.40457546348E+04  0.38139778186E+04 0.  0.
        5    1    3    3  502    0 -0.12512981850E+04  0.60129907458E+03  0.71199138829E+03  0.15602120215E+04  0.46999998093E+01 0. -1.
       -5    1    3    3    0  502  0.12512981850E+04 -0.60129907458E+03 -0.20616964538E+04  0.24855426133E+04  0.46999998093E+01 0.  1.
</event>
<event>
 5   0  0.3701250E-08  0.3762558E+04  0.7818609E-02  0.8054238E-01
       -1   -1    0    0    0  501  0.00000000000E+00  0.00000000000E+00  0.17817069028E+04  0.17817069029E+04  0.50400001928E-02 0.  1.
        1   -1    0    0  501    0  0.00000000000E+00  0.00000000000E+00 -0.19864159650E+04  0.19864159650E+04  0.50400001928E-02 0. -1.
    10030    2    1    2    0    0  0.00000000000E+00  0.00000000000E+00 -0.20470906216E+03  0.37681228679E+04  0.37625581919E+04 0.  0.
        2    1    3    3  502    0 -0.10811609188E+03  0.13775702595E+04  0.11761784480E+04  0.18146031662E+04  0.25500000920E-02 0.  1.
       -2    1    3    3    0  502  0.10811609188E+03 -0.13775702595E+04 -0.13808875102E+04  0.19535197017E+04  0.25500000920E-02 0. -1.
</event>
<event>
 5   0  0.1174870E-07  0.3805501E+04  0.7818609E-02  0.8044975E-01
       -2   -1    0    0    0  501  0.00000000000E+00  0.00000000000E+00  0.13597861515E+04  0.13597861515E+04  0.25500000920E-02 0.  1.
        2   -1    0    0  501    0  0.00000000000E+00  0.00000000000E+00 -0.26625215406E+04  0.26625215406E+04  0.25500000920E-02 0. -1.
    10030    2    1    2    0    0  0.00000000000E+00  0.00000000000E+00 -0.13027353891E+04  0.40223076922E+04  0.38055012385E+04 0.  0.
        5    1    3    3  502    0  0.23625777220E+03 -0.28421557250E+02  0.13439903380E+04  0.13649020618E+04  0.46999998093E+01 0.  1.
       -5    1    3    3    0  502 -0.23625777220E+03  0.28421557250E+02 -0.26467257271E+04  0.26574056303E+04  0.46999998093E+01 0. -1.
</event>
<event>
 5   0  0.1174870E-07  0.3803065E+04  0.7818609E-02  0.8045497E-01
       -2   -1    0    0    0  501  0.00000000000E+00  0.00000000000E+00  0.12436760468E+04  0.12436760468E+04  0.25500000920E-02 0.  1.
        2   -1    0    0  501    0  0.00000000000E+00  0.00000000000E+00 -0.29073701007E+04  0.29073701007E+04  0.25500000920E-02 0. -1.
    10030    2    1    2    0    0  0.00000000000E+00  0.00000000000E+00 -0.16636940539E+04  0.41510461475E+04  0.38030653707E+04 0.  0.
        5    1    3    3  502    0  0.64707988794E+02 -0.65212253117E+03 -0.27802139665E+04  0.28564073080E+04  0.46999998093E+01 0. -1.
       -5    1    3    3    0  502 -0.64707988794E+02  0.65212253117E+03  0.11165199126E+04  0.12946388395E+04  0.46999998093E+01 0.  1.
</event>
<event>
 5   0  0.3701250E-08  0.3799999E+04  0.7818609E-02  0.8046155E-01
       -1   -1    0    0    0  501  0.00000000000E+00  0.00000000000E+00  0.17200635449E+04  0.17200635449E+04  0.50400001928E-02 0. -1.
        1   -1    0    0  501    0  0.00000000000E+00  0.00000000000E+00 -0.20987588985E+04  0.20987588985E+04  0.50400001928E-02 0.  1.
    10030    2    1    2    0    0  0.00000000000E+00  0.00000000000E+00 -0.37869535357E+03  0.38188224434E+04  0.37999993004E+04 0.  0.
        1    1    3    3  502    0  0.75354878795E+03 -0.25008513195E+03 -0.19240558049E+04  0.20814343826E+04  0.50400001928E-02 0.  1.
       -1    1    3    3    0  502 -0.75354878795E+03  0.25008513195E+03  0.15453604513E+04  0.17373880607E+04  0.50400001928E-02 0. -1.
</event>
<event>
 5   0  0.3701250E-08  0.3795795E+04  0.7818609E-02  0.8047058E-01
       -1   -1    0    0    0  501  0.00000000000E+00  0.00000000000E+00  0.17359614814E+04  0.17359614814E+04  0.50400001928E-02 0.  1.
        1   -1    0    0  501    0  0.00000000000E+00  0.00000000000E+00 -0.20749397395E+04  0.20749397395E+04  0.50400001928E-02 0. -1.
    10030    2    1    2    0    0  0.00000000000E+00  0.00000000000E+00 -0.33897825815E+03  0.38109012209E+04  0.37957952864E+04 0.  0.
        4    1    3    3  502    0 -0.45808508900E+03 -0.16100152961E+04  0.72851027991E+03  0.18255738942E+04  0.12699999809E+01 0.  1.
       -4    1    3    3    0  502  0.45808508900E+03  0.16100152961E+04 -0.10674885381E+04  0.19853273267E+04  0.12699999809E+01 0. -1.
</event>
<event>
 5   0  0.1150235E-07  0.3807323E+04  0.7818609E-02  0.8044585E-01
       -2   -1    0    0    0  501  0.00000000000E+00  0.00000000000E+00  0.10555745836E+04  0.10555745836E+04  0.25500000920E-02 0.  1.
        2   -1    0    0  501    0  0.00000000000E+00  0.00000000000E+00 -0.34331317840E+04  0.34331317840E+04  0.25500000920E-02 0. -1.
    10030    2    1    2    0    0  0.00000000000E+00  0.00000000000E+00 -0.23775572003E+04  0.44887063676E+04  0.38073227619E+04 0.  0.
        4    1    3    3  502    0  0.12229624950E+04 -0.11859257270E+04 -0.21904617779E+04  0.27749200903E+04  0.12699999809E+01 0. -1.
       -4    1    3    3    0  502 -0.12229624950E+04  0.11859257270E+04 -0.18709542245E+03  0.17137862773E+04  0.12699999809E+01 0.  1.
</event>
<event>
 5   0  0.3701250E-08  0.3785908E+04  0.7818609E-02  0.8049186E-01
       -3   -1    0    0    0  501  0.00000000000E+00  0.00000000000E+00  0.19958588568E+04  0.19958588594E+04  0.10100000352E+00 0. -1.
        3   -1    0    0  501    0  0.00000000000E+00  0.00000000000E+00 -0.17953551695E+04  0.17953551723E+04  0.10100000352E+00 0.  1.
    10030    2    1    2    0    0  0.00000000000E+00  0.00000000000E+00  0.20050368732E+03  0.37912140317E+04  0.37859083593E+04 0.  0.
        2    1    3    3  502    0  0.75450720293E+03  0.65670125702E+03  0.17095939369E+04  0.19807193364E+04  0.25500000920E-02 0. -1.
       -2    1    3    3    0  502 -0.75450720293E+03 -0.65670125702E+03 -0.15090902496E+04  0.18104946953E+04  0.25500000920E-02 0.  1.
</event>
<event>
 5   0  0.1193861E-07  0.3787521E+04  0.7818609E-02  0.8048838E-01
        2   -1    0    0  501    0  0.00000000000E+00  0.00000000000E+00  0.17450169439E+04  0.17450169439E+04  0.25500000920E-02 0.  1.
       -2   -1    0    0    0  501  0.00000000000E+00  0.00000000000E+00 -0.20551832569E+04  0.20551832569E+04  0.25500000920E-02 0. -1.
    10030    2    1    2    0    0  0.00000000000E+00  0.00000000000E+00 -0.31016631300E+03  0.38002002009E+04  0.37875214092E+04 0.  0.
        3    1    3    3  502    0  0.12668908649E+04 -0.38519940064E+03  0.12033095257E+04  0.17892302442E+04  0.10100000352E+00 0.  1.
       -3    1    3    3    0  502 -0.12668908649E+04  0.38519940064E+03 -0.15134758388E+04  0.20109699566E+04  0.10100000352E+00 0. -1.
</event>
<event>
 5   0  0.1193861E-07  0.3832590E+04  0.7818609E-02  0.8039197E-01
        2   -1    0    0  501    0  0.00000000000E+00  0.00000000000E+00  0.28470293954E+04  0.28470293954E+04  0.25500000920E-02 0. -1.
       -2   -1    0    0    0  501  0.00000000000E+00  0.00000000000E+00 -0.12898312090E+04  0.12898312090E+04  0.25500000920E-02 0.  1.
    10030    2    1    2    0    0  0.00000000000E+00  0.00000000000E+00  0.15571981864E+04  0.41368606044E+04  0.38325904384E+04 0.  0.
        3    1    3    3  502    0  0.63180573549E+03 -0.60675856297E+03 -0.10610735448E+04  0.13759402308E+04  0.10100000352E+00 0.  1.
       -3    1    3    3    0  502 -0.63180573549E+03  0.60675856297E+03  0.26182717311E+04  0.27609203736E+04  0.10100000352E+00 0. -1.
</event>
<event>
 5   0  0.7858367E-08  0.3811656E+04  0.7818609E-02  0.8043658E-01
       -2   -1    0    0    0  501  0.00000000000E+00  0.00000000000E+00  0.16187064592E+04  0.16187064592E+04  0.25500000920E-02 0.  1.
        2   -1    0    0  501    0  0.00000000000E+00  0.00000000000E+00 -0.22438789050E+04  0.22438789050E+04  0.25500000920E-02 0. -1.
    10030    2    1    2    0    0  0.00000000000E+00  0.00000000000E+00 -0.62517244580E+03  0.38625853642E+04  0.38116564783E+04 0.  0.
        2    1    3    3  502    0  0.16845657044E+04  0.84151772828E+03 -0.14948386396E+02  0.18831189962E+04  0.25500000920E-02 0. -1.
       -2    1    3    3    0  502 -0.16845657044E+04 -0.84151772828E+03 -0.61022405940E+03  0.19794663680E+04  0.25500000920E-02 0.  1.
</event>
<event>
 5   0  0.1150235E-07  0.3806795E+04  0.7818609E-02  0.8044698E-01
        2   -1    0    0  501    0  0.00000000000E+00  0.00000000000E+00  0.19391460344E+04  0.19391460344E+04  0.25500000920E-02 0. -1.
       -2   -1    0    0    0  501  0.00000000000E+00  0.00000000000E+00 -0.18683076497E+04  0.18683076497E+04  0.25500000920E-02 0.  1.
    10030    2    1    2    0    0  0.00000000000E+00  0.00000000000E+00  0.70838384731E+02  0.38074536841E+04  0.38067946464E+04 0.  0.
        4    1    3    3  502    0  0.84053989587E+03 -0.31914988169E+03  0.17133734223E+04  0.19349454930E+04  0.12699999809E+01 0. -1.
       -4    1    3    3    0  502 -0.84053989587E+03  0.31914988169E+03 -0.16425350376E+04  0.18725081912E+04  0.12699999809E+01 0.  1.
</event>
<event>
 5   0  0.3701250E-08  0.3785305E+04  0.7818609E-02  0.8049316E-01
       -1   -1    0    0    0  501  0.00000000000E+00  0.00000000000E+00  0.11943585566E+04  0.11943585566E+04  0.50400001928E-02 0.  1.
        1   -1    0    0  501    0  0.00000000000E+00  0.00000000000E+00 -0.29992105841E+04  0.29992105841E+04  0.50400001928E-02 0. -1.
    10030    2    1    2    0    0  0.00000000000E+00  0.00000000000E+00 -0.18048520275E+04  0.41935691407E+04  0.37853046505E+04 0.  0.
        2    1    3    3  502    0 -0.43808365192E+03  0.22774925871E+03 -0.29266036889E+04  0.29679616175E+04  0.25500000920E-02 0. -1.
       -2    1    3    3    0  502  0.43808365192E+03 -0.22774925871E+03  0.11217516615E+04  0.12256075232E+04  0.25500000920E-02 0.  1.
</event>
<event>
 5   0  0.3701250E-08  0.3815179E+04  0.7818609E-02  0.8042905E-01
        1   -1    0    0  501    0  0.00000000000E+00  0.00000000000E+00  0.19689878941E+04  0.19689878941E+04  0.50400001928E-02 0. -1.
       -1   -1    0    0    0  501  0.00000000000E+00  0.00000000000E+00 -0.18481054312E+04  0.18481054312E+04  0.50400001928E-02 0.  1.
    10030    2    1    2    0    0  0.00000000000E+00  0.00000000000E+00  0.12088246293E+03  0.38170933253E+04  0.38151787487E+04 0.  0.
        3    1    3    3  502    0 -0.15970807982E+04  0.91329787345E+03 -0.44391205863E+03  0.18925744391E+04  0.10100000352E+00 0. -1.
       -3    1    3    3    0  502  0.15970807982E+04 -0.91329787345E+03  0.56479452156E+03  0.19245188862E+04  0.10100000352E+00 0.  1.
</event>
<event>
 5   0  0.1193861E-07  0.3831779E+04  0.7818609E-02  0.8039369E-01
       -2   -1    0    0    0  501  0.00000000000E+00  0.00000000000E+00  0.12051583549E+04  0.12051583549E+04  0.25500000920E-02 0.  1.
        2   -1    0    0  501    0  0.00000000000E+00  0.00000000000E+00 -0.30457678187E+04  0.30457678187E+04  0.25500000920E-02 0. -1.
    10030    2    1    2    0    0  0.00000000000E+00  0.00000000000E+00 -0.18406094638E+04  0.42509261736E+04  0.38317789778E+04 0.  0.
        3    1    3    3  502    0  0.11463506772E+04 -0.18329684496E+03 -0.26111340256E+04  0.28575756365E+04  0.10100000352E+00 0. -1.
       -3    1    3    3    0  502 -0.11463506772E+04  0.18329684496E+03  0.77052456181E+03  0.13933505370E+04  0.10100000352E+00 0.  1.
</event>
<event>
 5   0  0.1193861E-07  0.3781692E+04  0.7818609E-02  0.8050095E-01
       -2   -1    0    0    0  501  0.00000000000E+00  0.00000000000E+00  0.13878121425E+04  0.13878121425E+04  0.25500000920E-02 0. -1.
        2   -1    0    0  501    0  0.00000000000E+00  0.00000000000E+00 -0.25762124128E+04  0.25762124128E+04  0.25500000920E-02 0.  1.
    10030    2    1    2    0    0  0.00000000000E+00  0.00000000000E+00 -0.11884002703E+04  0.39640245553E+04  0.37816921441E+04 0.  0.
        3    1    3    3  502    0 -0.63148010958E+03  0.16654461233E+04  0.71082493693E+02  0.17825629440E+04  0.10100000352E+00 0.  1.
       -3    1    3    3    0  502  0.63148010958E+03 -0.16654461233E+04 -0.12594827640E+04  0.21814616113E+04  0.10100000352E+00 0. -1.
</event>
<event>
 5   0  0.3701250E-08  0.3808322E+04  0.7818609E-02  0.8044371E-01
        1   -1    0    0  501    0  0.00000000000E+00  0.00000000000E+00  0.19470728724E+04  0.19470728724E+04  0.50400001928E-02 0.  1.
       -1   -1    0    0    0  501  0.00000000000E+00  0.00000000000E+00 -0.18621948305E+04  0.18621948305E+04  0.50400001928E-02 0. -1.
    10030    2    1    2    0    0  0.00000000000E+00  0.00000000000E+00  0.84878041916E+02  0.38092677028E+04  0.38083219599E+04 0.  0.
        2    1    3    3  502    0  0.17763207437E+03 -0.15560299960E+04 -0.10409026734E+04  0.18804948491E+04  0.25500000920E-02 0. -1.
       -2    1    3    3    0  502 -0.17763207437E+03  0.15560299960E+04  0.11257807153E+04  0.19287728537E+04  0.25500000920E-02 0.  1.
</event>
<event>
 5   0  0.3701250E-08  0.3816449E+04  0.7818609E-02  0.8042634E-01
       -1   -1    0    0    0  501  0.00000000000E+00  0.00000000000E+00  0.19110136931E+04  0.19110136931E+04  0.50400001928E-02 0.  1.
        1   -1    0    0  501    0  0.00000000000E+00  0.00000000000E+00 -0.19054390907E+04  0.19054390907E+04  0.50400001928E-02 0. -1.
    10030    2    1    2    0    0  0.00000000000E+00  0.00000000000E+00  0.55746024476E+01  0.38164527838E+04  0.38164487125E+04 0.  0.
        1    1    3    3  502    0  0.72161279157E+03 -0.12107233381E+04 -0.12835826696E+04  0.19063474217E+04  0.50400001928E-02 0. -1.
       -1    1    3    3    0  502 -0.72161279157E+03  0.12107233381E+04  0.12891572721E+04  0.19101053621E+04  0.50400001928E-02 0.  1.
</event>
<event>
 5   0  0.1193861E-07  0.3801039E+04  0.7818609E-02  0.8045932E-01
        2   -1    0    0  501    0  0.00000000000E+00  0.00000000000E+00  0.15708455148E+04  0.15708455148E+04  0.25500000920E-02 0.  1.
       -2   -1    0    0    0  501  0.00000000000E+00  0.00000000000E+00 -0.22993817584E+04  0.22993817585E+04  0.25500000920E-02 0. -1.
    10030    2    1    2    0    0  0.00000000000E+00  0.00000000000E+00 -0.72853624363E+03  0.38702272733E+04  0.38010385539E+04 0.  0.
        3    1    3    3  502    0 -0.41214233775E+03  0.34437927729E+02  0.15244705632E+04  0.15795751916E+04  0.10100000352E+00 0.  1.
       -3    1    3    3    0  502  0.41214233775E+03 -0.34437927729E+02 -0.22530068069E+04  0.22906520817E+04  0.10100000352E+00 0. -1.
</event>
<event>
 5   0  0.3701250E-08  0.3790707E+04  0.7818609E-02  0.8048152E-01
       -1   -1    0    0    0  501  0.00000000000E+00  0.00000000000E+00  0.19079268340E+04  0.19079268340E+04  0.50400001928E-02 0. -1.
        1   -1    0    0  501    0  0.00000000000E+00  0.00000000000E+00 -0.18828630299E+04  0.18828630299E+04  0.50400001928E-02 0.  1.
    10030    2    1    2    0    0  0.00000000000E+00  0.00000000000E+00  0.25063804041E+02  0.37907898639E+04  0.37907070050E+04 0.  0.
        4    1    3    3  502    0 -0.22732934730E+03 -0.12148415432E+04  0.14495200540E+04  0.19048959570E+04  0.12699999809E+01 0. -1.
       -4    1    3    3    0  502  0.22732934730E+03  0.12148415432E+04 -0.14244562500E+04  0.18858939069E+04  0.12699999809E+01 0.  1.
</event>
<event>
 5   0  0.3701250E-08  0.3789782E+04  0.7818609E-02  0.8048351E-01
       -1   -1    0    0    0  501  0.00000000000E+00  0.00000000000E+00  0.13623207347E+04  0.13623207347E+04  0.50400001928E-02 0. -1.
        1   -1    0    0  501    0  0.00000000000E+00  0.00000000000E+00 -0.26356581490E+04  0.26356581490E+04  0.50400001928E-02 0.  1.
    10030    2    1    2    0    0  0.00000000000E+00  0.00000000000E+00 -0.12733374143E+04  0.39979788837E+04  0.37897819177E+04 0.  0.
        4    1    3    3  502    0  0.82803906485E+03  0.17444768121E+03 -0.24252540095E+04  0.25686454231E+04  0.12699999809E+01 0.  1.
       -4    1    3    3    0  502 -0.82803906485E+03 -0.17444768121E+03  0.11519165952E+04  0.14293334606E+04  0.12699999809E+01 0. -1.
</event>
<event>
 5   0  0.7858367E-08  0.3727310E+04  0.7818609E-02  0.8061936E-01
        2   -1    0    0  501    0  0.00000000000E+00  0.00000000000E+00  0.24367468488E+04  0.24367468488E+04  0.25500000920E-02 0.  1.
       -2   -1    0    0    0  501  0.00000000000E+00  0.00000000000E+00 -0.14253469856E+04  0.14253469856E+04  0.25500000920E-02 0. -1.
    10030    2    1    2    0    0  0.00000000000E+00  0.00000000000E+00  0.10113998632E+04  0.38620938344E+04  0.37273099016E+04 0.  0.
        2    1    3    3  502    0 -0.33628403733E+03 -0.54097884101E+03 -0.13090513266E+04  0.14558023341E+04  0.25500000920E-02 0. -1.
       -2    1    3    3    0  502  0.33628403733E+03  0.54097884101E+03  0.23204511898E+04  0.24062915003E+04  0.25500000920E-02 0.  1.
</event>
<event>
 5   0  0.3701250E-08  0.3805478E+04  0.7818609E-02  0.8044980E-01
       -1   -1    0    0    0  501  0.00000000000E+00  0.00000000000E+00  0.20140425358E+04  0.20140425358E+04  0.50400001928E-02 0. -1.
        1   -1    0    0  501    0  0.00000000000E+00  0.00000000000E+00 -0.17975868947E+04  0.17975868947E+04  0.50400001928E-02 0.  1.
    10030    2    1    2    0    0  0.00000000000E+00  0.00000000000E+00  0.21645564104E+03  0.38116294305E+04  0.38054784024E+04 0.  0.
        1    1    3    3  502    0  0.17313671687E+04  0.64927381563E+03 -0.34108136751E+03  0.18802992474E+04  0.50400001928E-02 0.  1.
       -1    1    3    3    0  502 -0.17313671687E+04 -0.64927381563E+03  0.55753700855E+03  0.19313301831E+04  0.50400001928E-02 0. -1.
</event>
<event>
 5   0  0.3701250E-08  0.3798306E+04  0.7818609E-02  0.8046519E-01
       -1   -1    0    0    0  501  0.00000000000E+00  0.00000000000E+00  0.24950881717E+04  0.24950881717E+04  0.50400001928E-02 0. -1.
        1   -1    0    0  501    0  0.00000000000E+00  0.00000000000E+00 -0.14455528977E+04  0.14455528977E+04  0.50400001928E-02 0.  1.
    10030    2    1    2    0    0  0.00000000000E+00  0.00000000000E+00  0.10495352740E+04  0.39406410695E+04  0.37983059049E+04 0.  0.
        1    1    3    3  502    0 -0.58853759544E+03  0.74560060335E+03 -0.11813903488E+04  0.15159089409E+04  0.50400001928E-02 0.  1.
       -1    1    3    3    0  502  0.58853759544E+03 -0.74560060335E+03  0.22309256228E+04  0.24247321286E+04  0.50400001928E-02 0. -1.
</event>
<event>
 5   0  0.3701250E-08  0.3800801E+04  0.7818609E-02  0.8045983E-01
        1   -1    0    0  501    0  0.00000000000E+00  0.00000000000E+00  0.13894262970E+04  0.13894262970E+04  0.50400001928E-02 0.  1.
       -1   -1    0    0    0  501  0.00000000000E+00  0.00000000000E+00 -0.25992907507E+04  0.25992907507E+04  0.50400001928E-02 0. -1.
    10030    2    1    2    0    0  0.00000000000E+00  0.00000000000E+00 -0.12098644537E+04  0.39887170478E+04  0.38008014538E+04 0.  0.
        1    1    3    3  502    0  0.13100285970E+04  0.16453029822E+03  0.82949582583E+03  0.15592653620E+04  0.50400001928E-02 0.  1.
       -1    1    3    3    0  502 -0.13100285970E+04 -0.16453029822E+03 -0.20393602795E+04  0.24294516858E+04  0.50400001928E-02 0. -1.
</event>
<event>
 5   0  0.3889225E-08  0.3848531E+04  0.7818609E-02  0.8035820E-01
       -1   -1    0    0    0  501  0.00000000000E+00  0.00000000000E+00  0.17056010625E+04  0.17056010625E+04  0.50400001928E-02 0.  1.
        1   -1    0    0  501    0  0.00000000000E+00  0.00000000000E+00 -0.21709634062E+04  0.21709634062E+04  0.50400001928E-02 0. -1.
    10030    2    1    2    0    0  0.00000000000E+00  0.00000000000E+00 -0.46536234373E+03  0.38765644687E+04  0.38485308845E+04 0.  0.
        5    1    3    3  502    0 -0.47185035650E+03 -0.97155340442E+03 -0.18368320276E+04  0.21308525909E+04  0.46999998093E+01 0. -1.
       -5    1    3    3    0  502  0.47185035650E+03  0.97155340442E+03  0.13714696838E+04  0.17457118778E+04  0.46999998093E+01 0.  1.
</event>
<event>
 5   0  0.3701250E-08  0.3801199E+04  0.7818609E-02  0.8045898E-01
       -1   -1    0    0    0  501  0.00000000000E+00  0.00000000000E+00  0.14221344669E+04  0.14221344669E+04  0.50400001928E-02 0. -1.
        1   -1    0    0  501    0  0.00000000000E+00  0.00000000000E+00 -0.25400399962E+04  0.25400399962E+04  0.50400001928E-02 0.  1.
    10030    2    1    2    0    0  0.00000000000E+00  0.00000000000E+00 -0.11179055293E+04  0.39621744632E+04  0.38011989824E+04 0.  0.
        3    1    3    3  502    0 -0.10589099384E+04  0.21027461742E+03  0.10715059530E+04  0.15210623557E+04  0.10100000352E+00 0. -1.
       -3    1    3    3    0  502  0.10589099384E+04 -0.21027461742E+03 -0.21894114823E+04  0.24411121075E+04  0.10100000352E+00 0.  1.
</event>
<event>
 5   0  0.1174870E-07  0.3914658E+04  0.7818609E-02  0.8021987E-01
        2   -1    0    0  501    0  0.00000000000E+00  0.00000000000E+00  0.28352895803E+04  0.28352895803E+04  0.25500000920E-02 0.  1.
       -2   -1    0    0    0  501  0.00000000000E+00  0.00000000000E+00 -0.13512331478E+04  0.13512331478E+04  0.25500000920E-02 0. -1.
    10030    2    1    2    0    0  0.00000000000E+00  0.00000000000E+00  0.14840564325E+04  0.41865227282E+04  0.39146582301E+04 0.  0.
        5    1    3    3  502    0  0.18019421014E+04  0.35965662451E+03  0.14632254446E+04  0.23489144335E+04  0.46999998093E+01 0. -1.
       -5    1    3    3    0  502 -0.18019421014E+04 -0.35965662451E+03  0.20830987951E+02  0.18376082946E+04  0.46999998093E+01 0.  1.
</event>
<event>
 5   0  0.1174870E-07  0.3797750E+04  0.7818609E-02  0.8046638E-01
       -2   -1    0    0    0  501  0.00000000000E+00  0.00000000000E+00  0.26278585856E+04  0.26278585856E+04  0.25500000920E-02 0. -1.
        2   -1    0    0  501    0  0.00000000000E+00  0.00000000000E+00 -0.13721158023E+04  0.13721158023E+04  0.25500000920E-02 0.  1.
    10030    2    1    2    0    0  0.00000000000E+00  0.00000000000E+00  0.12557427833E+04  0.39999743879E+04  0.37977500136E+04 0.  0.
        5    1    3    3  502    0  0.37138450216E+03 -0.25373540896E+03  0.25709352986E+04  0.26099882194E+04  0.46999998093E+01 0. -1.
       -5    1    3    3    0  502 -0.37138450216E+03  0.25373540896E+03 -0.13151925153E+04  0.13899861685E+04  0.46999998093E+01 0.  1.
</event>
<event>
 5   0  0.1174870E-07  0.3811569E+04  0.7818609E-02  0.8043677E-01
        2   -1    0    0  501    0  0.00000000000E+00  0.00000000000E+00  0.17599729803E+04  0.17599729803E+04  0.25500000920E-02 0.  1.
       -2   -1    0    0    0  501  0.00000000000E+00  0.00000000000E+00 -0.20636763909E+04  0.20636763909E+04  0.25500000920E-02 0. -1.
    10030    2    1    2    0    0  0.00000000000E+00  0.00000000000E+00 -0.30370341059E+03  0.38236493712E+04  0.38115690669E+04 0.  0.
        5    1    3    3  502    0 -0.17667174652E+04 -0.65995304023E+03 -0.42688112557E+03  0.19336696208E+04  0.46999998093E+01 0.  1.
       -5    1    3    3    0  502  0.17667174652E+04  0.65995304023E+03  0.12317771498E+03  0.18899797503E+04  0.46999998093E+01 0. -1.
</event>
<event>
 5   0  0.1193861E-07  0.3782599E+04  0.7818609E-02  0.8049900E-01
       -2   -1    0    0    0  501  0.00000000000E+00  0.00000000000E+00  0.19933607951E+04  0.19933607951E+04  0.25500000920E-02 0.  1.
        2   -1    0    0  501    0  0.00000000000E+00  0.00000000000E+00 -0.17944633530E+04  0.17944633530E+04  0.25500000920E-02 0. -1.
    10030    2    1    2    0    0  0.00000000000E+00  0.00000000000E+00  0.19889744205E+03  0.37878241481E+04  0.37825985227E+04 0.  0.
        3    1    3    3  502    0 -0.43458600158E+03  0.17434400082E+04 -0.49176069562E+03  0.18628678555E+04  0.10100000352E+00 0. -1.
       -3    1    3    3    0  502  0.43458600158E+03 -0.17434400082E+04  0.69065813768E+03  0.19249562926E+04  0.10100000352E+00 0.  1.
</event>
<event>
 5   0  0.3701250E-08  0.3804801E+04  0.7818609E-02  0.8045125E-01
        1   -1    0    0  501    0  0.00000000000E+00  0.00000000000E+00  0.25988430956E+04  0.25988430956E+04  0.50400001928E-02 0. -1.
       -1   -1    0    0    0  501  0.00000000000E+00  0.00000000000E+00 -0.13925917780E+04  0.13925917780E+04  0.50400001928E-02 0.  1.
    10030    2    1    2    0    0  0.00000000000E+00  0.00000000000E+00  0.12062513176E+04  0.39914348736E+04  0.38048009289E+04 0.  0.
        1    1    3    3  502    0 -0.64298533927E+03  0.11226087118E+04 -0.86008486881E+03  0.15535206622E+04  0.50400001928E-02 0.  1.
       -1    1    3    3    0  502  0.64298533927E+03 -0.11226087118E+04  0.20663361865E+04  0.24379142113E+04  0.50400001928E-02 0. -1.
</event>
<event>
 5   0  0.3889225E-08  0.3820485E+04  0.7818609E-02  0.8041773E-01
        1   -1    0    0  501    0  0.00000000000E+00  0.00000000000E+00  0.11252014241E+04  0.11252014241E+04  0.50400001928E-02 0. -1.
       -1   -1    0    0    0  501  0.00000000000E+00  0.00000000000E+00 -0.32429984336E+04  0.32429984336E+04  0.50400001928E-02 0.  1.
    10030    2    1    2    0    0  0.00000000000E+00  0.00000000000E+00 -0.21177970095E+04  0.43681998578E+04  0.38204850247E+04 0.  0.
        5    1    3    3  502    0 -0.11598860515E+04 -0.12032697602E+04 -0.11733598922E+01  0.16712920855E+04  0.46999998093E+01 0.  1.
       -5    1    3    3    0  502  0.11598860515E+04  0.12032697602E+04 -0.21166236496E+04  0.26969077723E+04  0.46999998093E+01 0. -1.
</event>
<event>
 5   0  0.1193861E-07  0.3790699E+04  0.7818609E-02  0.8048154E-01
       -2   -1    0    0    0  501  0.00000000000E+00  0.00000000000E+00  0.25424101444E+04  0.25424101444E+04  0.25500000920E-02 0. -1.
        2   -1    0    0  501    0  0.00000000000E+00  0.00000000000E+00 -0.14129705417E+04  0.14129705417E+04  0.25500000920E-02 0.  1.
    10030    2    1    2    0    0  0.00000000000E+00  0.00000000000E+00  0.11294396027E+04  0.39553806861E+04  0.37906994811E+04 0.  0.
        3    1    3    3  502    0 -0.13785188362E+04 -0.84815425503E+03 -0.46436668084E+03  0.16838397330E+04  0.10100000352E+00 0.  1.
       -3    1    3    3    0  502  0.13785188362E+04  0.84815425503E+03  0.15938062836E+04  0.22715409531E+04  0.10100000352E+00 0. -1.
</event>
<event>
 5   0  0.3701250E-08  0.3788085E+04  0.7818609E-02  0.8048717E-01
        1   -1    0    0  501    0  0.00000000000E+00  0.00000000000E+00  0.21401048211E+04  0.21401048211E+04  0.50400001928E-02 0. -1.
       -1   -1    0    0    0  501  0.00000000000E+00  0.00000000000E+00 -0.16762718305E+04  0.16762718305E+04  0.50400001928E-02 0.  1.
    10030    2    1    2    0    0  0.00000000000E+00  0.00000000000E+00  0.46383299061E+03  0.38163766516E+04  0.37880852292E+04 0.  0.
        4    1    3    3  502    0  0.18048988719E+04  0.54815523947E+03  0.59578384179E+02  0.18872427775E+04  0.12699999809E+01 0.  1.
       -4    1    3    3    0  502 -0.18048988719E+04 -0.54815523947E+03  0.40425460643E+03  0.19291338741E+04  0.12699999809E+01 0. -1.
</event>
<event>
 5   0  0.7858367E-08  0.3788114E+04  0.7818609E-02  0.8048710E-01
       -2   -1    0    0    0  501  0.00000000000E+00  0.00000000000E+00  0.24286521741E+04  0.24286521741E+04  0.25500000920E-02 0.  1.
        2   -1    0    0  501    0  0.00000000000E+00  0.00000000000E+00 -0.14771373035E+04  0.14771373035E+04  0.25500000920E-02 0. -1.
    10030    2    1    2    0    0  0.00000000000E+00  0.00000000000E+00  0.95151487053E+03  0.39057894776E+04  0.37881144247E+04 0.  0.
        2    1    3    3  502    0 -0.12533468696E+04  0.10355142631E+01  0.19399316216E+04  0.23095917700E+04  0.25500000920E-02 0.  1.
       -2    1    3    3    0  502  0.12533468696E+04 -0.10355142631E+01 -0.98841675108E+03  0.15961977075E+04  0.25500000920E-02 0. -1.
</event>
<event>
 5   0  0.1143283E-07  0.3806209E+04  0.7818609E-02  0.8044824E-01
       -2   -1    0    0    0  501  0.00000000000E+00  0.00000000000E+00  0.14679722089E+04  0.14679722089E+04  0.25500000920E-02 0.  1.
        2   -1    0    0  501    0  0.00000000000E+00  0.00000000000E+00 -0.24672172262E+04  0.24672172262E+04  0.25500000920E-02 0. -1.
    10030    2    1    2    0    0  0.00000000000E+00  0.00000000000E+00 -0.99924501730E+03  0.39351894351E+04  0.38062087811E+04 0.  0.
        1    1    3    3  502    0  0.16542707245E+04 -0.83099734483E+03 -0.43494259724E+02  0.18517721155E+04  0.50400001928E-02 0.  1.
       -1    1    3    3    0  502 -0.16542707245E+04  0.83099734483E+03 -0.95575075758E+03  0.20834173196E+04  0.50400001928E-02 0. -1.
</event>
<event>
 5   0  0.3701250E-08  0.3800455E+04  0.7818609E-02  0.8046057E-01
        1   -1    0    0  501    0  0.00000000000E+00  0.00000000000E+00  0.14594071125E+04  0.14594071126E+04  0.50400001928E-02 0.  1.
       -1   -1    0    0    0  501  0.00000000000E+00  0.00000000000E+00 -0.24741991115E+04  0.24741991115E+04  0.50400001928E-02 0. -1.
    10030    2    1    2    0    0  0.00000000000E+00  0.00000000000E+00 -0.10147919990E+04  0.39336062241E+04  0.38004545945E+04 0.  0.
        1    1    3    3  502    0  0.94023149856E+03 -0.32835275373E+02  0.12014320846E+04  0.15259595277E+04  0.50400001928E-02 0.  1.
       -1    1    3    3    0  502 -0.94023149856E+03  0.32835275373E+02 -0.22162240835E+04  0.24076466964E+04  0.50400001928E-02 0. -1.
</event>
<event>
 5   0  0.1143283E-07  0.3823233E+04  0.7818609E-02  0.8041187E-01
       -2   -1    0    0    0  501  0.00000000000E+00  0.00000000000E+00  0.15288296642E+04  0.15288296642E+04  0.25500000920E-02 0. -1.
        2   -1    0    0  501    0  0.00000000000E+00  0.00000000000E+00 -0.23902448596E+04  0.23902448596E+04  0.25500000920E-02 0.  1.
    10030    2    1    2    0    0  0.00000000000E+00  0.00000000000E+00 -0.86141519540E+03  0.39190745238E+04  0.38232327923E+04 0.  0.
        1    1    3    3  502    0  0.47434990884E+03 -0.12663905978E+04 -0.18156974274E+04  0.22639589506E+04  0.50400001928E-02 0.  1.
       -1    1    3    3    0  502 -0.47434990884E+03  0.12663905978E+04  0.95428223199E+03  0.16551155732E+04  0.50400001928E-02 0. -1.
</event>
<event>
 5   0  0.3701250E-08  0.3811353E+04  0.7818609E-02  0.8043723E-01
       -1   -1    0    0    0  501  0.00000000000E+00  0.00000000000E+00  0.14039431658E+04  0.14039431658E+04  0.50400001928E-02 0.  1.
        1   -1    0    0  501    0  0.00000000000E+00  0.00000000000E+00 -0.25867158068E+04  0.25867158068E+04  0.50400001928E-02 0. -1.
    10030    2    1    2    0    0  0.00000000000E+00  0.00000000000E+00 -0.11827726411E+04  0.39906589726E+04  0.38113525047E+04 0.  0.
        4    1    3    3  502    0 -0.80899825359E+03 -0.12317872064E+04  0.67368648615E+03  0.16203805080E+04  0.12699999809E+01 0.  1.
       -4    1    3    3    0  502  0.80899825359E+03  0.12317872064E+04 -0.18564591272E+04  0.23702784647E+04  0.12699999809E+01 0. -1.
</event>
<event>
 5   0  0.7858367E-08  0.3709113E+04  0.7818609E-02  0.8065945E-01
       -2   -1    0    0    0  501  0.00000000000E+00  0.00000000000E+00  0.16378200042E+04  0.16378200042E+04  0.25500000920E-02 0. -1.
        2   -1    0    0  501    0  0.00000000000E+00  0.00000000000E+00 -0.20999743902E+04  0.20999743902E+04  0.25500000920E-02 0.  1.
    10030    2    1    2    0    0  0.00000000000E+00  0.00000000000E+00 -0.46215438594E+03  0.37377943944E+04  0.37091131363E+04 0.  0.
        2    1    3    3  502    0 -0.19132148738E+03  0.12995973830E+04 -0.15503307851E+04  0.20320144716E+04  0.25500000920E-02 0.  1.
       -2    1    3    3    0  502  0.19132148738E+03 -0.12995973830E+04  0.10881763992E+04  0.17057799228E+04  0.25500000920E-02 0. -1.
</event>
<event>
 5   0  0.3701250E-08  0.3813495E+04  0.7818609E-02  0.8043265E-01
       -1   -1    0    0    0  501  0.00000000000E+00  0.00000000000E+00  0.21359792776E+04  0.21359792776E+04  0.50400001928E-02 0. -1.
        1   -1    0    0  501    0  0.00000000000E+00  0.00000000000E+00 -0.17021171455E+04  0.17021171455E+04  0.50400001928E-02 0.  1.
    10030    2    1    2    0    0  0.00000000000E+00  0.00000000000E+00  0.43386213214E+03  0.38380964231E+04  0.38134954836E+04 0.  0.
        4    1    3    3  502    0  0.12787963910E+04 -0.13769097954E+04 -0.10839485611E+03  0.18822730546E+04  0.12699999809E+01 0.  1.
       -4    1    3    3    0  502 -0.12787963910E+04  0.13769097954E+04  0.54225698825E+03  0.19558233685E+04  0.12699999809E+01 0. -1.
</event>
<event>
 5   0  0.3701250E-08  0.3794018E+04  0.7818609E-02  0.8047440E-01
        1   -1    0    0  501    0  0.00000000000E+00  0.00000000000E+00  0.18067579997E+04  0.18067579997E+04  0.50400001928E-02 0.  1.
       -1   -1    0    0    0  501  0.00000000000E+00  0.00000000000E+00 -0.19917680337E+04  0.19917680337E+04  0.50400001928E-02 0. -1.
    10030    2    1    2    0    0  0.00000000000E+00  0.00000000000E+00 -0.18501003402E+03  0.37985260333E+04  0.37940178325E+04 0.  0.
        4    1    3    3  502    0 -0.24000454150E+03  0.16591751568E+04 -0.98135316647E+03  0.19425550265E+04  0.12699999809E+01 0. -1.
       -4    1    3    3    0  502  0.24000454150E+03 -0.16591751568E+04  0.79634313245E+03  0.18559710068E+04  0.12699999809E+01 0.  1.
</event>
<event>
 5   0  0.1174870E-07  0.3802497E+04  0.7818609E-02  0.8045619E-01
       -2   -1    0    0    0  501  0.00000000000E+00  0.00000000000E+00  0.11547624034E+04  0.11547624034E+04  0.25500000920E-02 0. -1.
        2   -1    0    0  501    0  0.00000000000E+00  0.00000000000E+00 -0.31302941031E+04  0.31302941031E+04  0.25500000920E-02 0.  1.
    10030    2    1    2    0    0  0.00000000000E+00  0.00000000000E+00 -0.19755316997E+04  0.42850565065E+04  0.38024970437E+04 0.  0.
        5    1    3    3  502    0  0.42805621086E+03  0.93786981082E+02  0.10970697535E+04  0.11813603394E+04  0.46999998093E+01 0. -1.
       -5    1    3    3    0  502 -0.42805621086E+03 -0.93786981082E+02 -0.30726014532E+04  0.31036961671E+04  0.46999998093E+01 0.  1.
</event>
<event>
 5   0  0.7858367E-08  0.3801145E+04  0.7818609E-02  0.8045909E-01
        2   -1    0    0  501    0  0.00000000000E+00  0.00000000000E+00  0.12539098570E+04  0.12539098570E+04  0.25500000920E-02 0. -1.
       -2   -1    0    0    0  501  0.00000000000E+00  0.00000000000E+00 -0.28807295300E+04  0.28807295300E+04  0.25500000920E-02 0.  1.
    10030    2    1    2    0    0  0.00000000000E+00  0.00000000000E+00 -0.16268196731E+04  0.41346393870E+04  0.38011446449E+04 0.  0.
        2    1    3    3  502    0 -0.21637435194E+03 -0.11567836389E+03 -0.28634305112E+04  0.28739230394E+04  0.25500000920E-02 0.  1.
       -2    1    3    3    0  502  0.21637435194E+03  0.11567836389E+03  0.12366108381E+04  0.12607163476E+04  0.25500000920E-02 0. -1.
</event>
<event>
 5   0  0.1150235E-07  0.3817485E+04  0.7818609E-02  0.8042413E-01
        2   -1    0    0  501    0  0.00000000000E+00  0.00000000000E+00  0.23362232166E+04  0.23362232166E+04  0.25500000920E-02 0.  1.
       -2   -1    0    0    0  501  0.00000000000E+00  0.00000000000E+00 -0.15594817586E+04  0.15594817586E+04  0.25500000920E-02 0. -1.
    10030    2    1    2    0    0  0.00000000000E+00  0.00000000000E+00  0.77674145797E+03  0.38957049751E+04  0.38174847689E+04 0.  0.
        4    1    3    3  502    0  0.70533074488E+03 -0.93695923407E+03  0.19251865699E+04  0.22542690629E+04  0.12699999809E+01 0.  1.
       -4    1    3    3    0  502 -0.70533074488E+03  0.93695923407E+03 -0.11484451120E+04  0.16414359123E+04  0.12699999809E+01 0. -1.
</event>
<event>
 5   0  0.1174870E-07  0.3800236E+04  0.7818609E-02  0.8046104E-01
       -2   -1    0    0    0  501  0.00000000000E+00  0.00000000000E+00  0.15462079693E+04  0.15462079693E+04  0.25500000920E-02 0. -1.
        2   -1    0    0  501    0  0.00000000000E+00  0.00000000000E+00 -0.23350340530E+04  0.23350340530E+04  0.25500000920E-02 0.  1.
    10030    2    1    2    0    0  0.00000000000E+00  0.00000000000E+00 -0.78882608371E+03  0.38812420223E+04  0.38002359197E+04 0.  0.
        5    1    3    3  502    0  0.15134273228E+04 -0.11083767322E+04 -0.85534691883E+02  0.18778443799E+04  0.46999998093E+01 0. -1.
       -5    1    3    3    0  502 -0.15134273228E+04  0.11083767322E+04 -0.70329139183E+03  0.20033976424E+04  0.46999998093E+01 0.  1.
</event>
<event>
 5   0  0.1150235E-07  0.3776340E+04  0.7818609E-02  0.8051251E-01
       -2   -1    0    0    0  501  0.00000000000E+00  0.00000000000E+00  0.13773742045E+04  0.13773742045E+04  0.25500000920E-02 0. -1.
        2   -1    0    0  501    0  0.00000000000E+00  0.00000000000E+00 -0.25883928773E+04  0.25883928773E+04  0.25500000920E-02 0.  1.
    10030    2    1    2    0    0  0.00000000000E+00  0.00000000000E+00 -0.12110186728E+04  0.39657670818E+04  0.37763398048E+04 0.  0.
        4    1    3    3  502    0 -0.79367498471E+03 -0.84457961742E+03  0.95988300766E+03  0.15048626890E+04  0.12699999809E+01 0. -1.
       -4    1    3    3    0  502  0.79367498471E+03  0.84457961742E+03 -0.21709016805E+04  0.24609043928E+04  0.12699999809E+01 0.  1.
</event>
<event>
 5   0  0.3701250E-08  0.4044178E+04  0.7818609E-02  0.7995693E-01
       -1   -1    0    0    0  501  0.00000000000E+00  0.00000000000E+00  0.24596991637E+04  0.24596991637E+04  0.50400001928E-02 0. -1.
        1   -1    0    0  501    0  0.00000000000E+00  0.00000000000E+00 -0.16623347027E+04  0.16623347027E+04  0.50400001928E-02 0.  1.
    10030    2    1    2    0    0  0.00000000000E+00  0.00000000000E+00  0.79736446099E+03  0.41220338664E+04  0.40441776805E+04 0.  0.
        1    1    3    3  502    0 -0.12006205795E+03  0.25458689511E+03  0.24396333551E+04  0.24558176423E+04  0.50400001928E-02 0. -1.
       -1    1    3    3    0  502  0.12006205795E+03 -0.25458689511E+03 -0.16422688941E+04  0.16662162241E+04  0.50400001928E-02 0.  1.
</event>
<event>
 5   0  0.1174870E-07  0.3858292E+04  0.7818609E-02  0.8033760E-01
        2   -1    0    0  501    0  0.00000000000E+00  0.00000000000E+00  0.26881262448E+04  0.26881262448E+04  0.25500000920E-02 0. -1.
       -2   -1    0    0    0  501  0.00000000000E+00  0.00000000000E+00 -0.13844604341E+04  0.13844604341E+04  0.25500000920E-02 0.  1.
    10030    2    1    2    0    0  0.00000000000E+00  0.00000000000E+00  0.13036658108E+04  0.40725866789E+04  0.38582920718E+04 0.  0.
        5    1    3    3  502    0  0.32635731034E+03  0.14385526433E+04 -0.66045566081E+03  0.16162198401E+04  0.46999998093E+01 0.  1.
       -5    1    3    3    0  502 -0.32635731034E+03 -0.14385526433E+04  0.19641214716E+04  0.24563668388E+04  0.46999998093E+01 0. -1.
</event>
<event>
 5   0  0.3889225E-08  0.3798365E+04  0.7818609E-02  0.8046506E-01
       -1   -1    0    0    0  501  0.00000000000E+00  0.00000000000E+00  0.24461564930E+04  0.24461564930E+04  0.50400001928E-02 0. -1.
        1   -1    0    0  501    0  0.00000000000E+00  0.00000000000E+00 -0.14745152166E+04  0.14745152166E+04  0.50400001928E-02 0.  1.
    10030    2    1    2    0    0  0.00000000000E+00  0.00000000000E+00  0.97164127641E+03  0.39206717096E+04  0.37983654228E+04 0.  0.
        5    1    3    3  502    0 -0.36648877980E+02  0.35266595968E+02 -0.14738061068E+04  0.14746909519E+04  0.46999998093E+01 0.  1.
       -5    1    3    3    0  502  0.36648877980E+02 -0.35266595968E+02  0.24454473832E+04  0.24459807578E+04  0.46999998093E+01 0. -1.
</event>
<event>
 5   0  0.7858367E-08  0.3824390E+04  0.7818609E-02  0.8040941E-01
        2   -1    0    0  501    0  0.00000000000E+00  0.00000000000E+00  0.23134998443E+04  0.23134998443E+04  0.25500000920E-02 0.  1.
       -2   -1    0    0    0  501  0.00000000000E+00  0.00000000000E+00 -0.15805011704E+04  0.15805011704E+04  0.25500000920E-02 0. -1.
    10030    2    1    2    0    0  0.00000000000E+00  0.00000000000E+00  0.73299867392E+03  0.38940010147E+04  0.38243897352E+04 0.  0.
        2    1    3    3  502    0 -0.80844964618E+02 -0.17144432351E+04 -0.49183806515E+03  0.17854288552E+04  0.25500000920E-02 0. -1.
       -2    1    3    3    0  502  0.80844964618E+02  0.17144432351E+04  0.12248367391E+04  0.21085721595E+04  0.25500000920E-02 0.  1.
</event>
<event>
 5   0  0.7858367E-08  0.3800514E+04  0.7818609E-02  0.8046045E-01
        2   -1    0    0  501    0  0.00000000000E+00  0.00000000000E+00  0.19290256745E+04  0.19290256745E+04  0.25500000920E-02 0. -1.
       -2   -1    0    0    0  501  0.00000000000E+00  0.00000000000E+00 -0.18719173402E+04  0.18719173402E+04  0.25500000920E-02 0.  1.
    10030    2    1    2    0    0  0.00000000000E+00  0.00000000000E+00  0.57108334239E+02  0.38009430147E+04  0.38005139704E+04 0.  0.
        2    1    3    3  502    0 -0.11428592518E+03 -0.12542339876E+03  0.19214337585E+04  0.19289116076E+04  0.25500000920E-02 0. -1.
       -2    1    3    3    0  502  0.11428592518E+03  0.12542339876E+03 -0.18643254243E+04  0.18720314071E+04  0.25500000920E-02 0.  1.
</event>
<event>
 5   0  0.1174870E-07  0.3801107E+04  0.7818609E-02  0.8045917E-01
       -2   -1    0    0    0  501  0.00000000000E+00  0.00000000000E+00  0.18685497840E+04  0.18685497840E+04  0.25500000920E-02 0. -1.
        2   -1    0    0  501    0  0.00000000000E+00  0.00000000000E+00 -0.19331056372E+04  0.19331056372E+04  0.25500000920E-02 0.  1.
    10030    2    1    2    0    0  0.00000000000E+00  0.00000000000E+00 -0.64555853209E+02  0.38016554213E+04  0.38011072708E+04 0.  0.
        5    1    3    3  502    0  0.40687682529E+03 -0.11273817675E+04 -0.15074630464E+04  0.19258778068E+04  0.46999998093E+01 0.  1.
       -5    1    3    3    0  502 -0.40687682529E+03  0.11273817675E+04  0.14429071932E+04  0.18757776144E+04  0.46999998093E+01 0. -1.
</event>
<event>
 5   0  0.3701250E-08  0.3694453E+04  0.7818609E-02  0.8069192E-01
        1   -1    0    0  501    0  0.00000000000E+00  0.00000000000E+00  0.27678825289E+04  0.27678825289E+04  0.50400001928E-02 0.  1.
       -1   -1    0    0    0  501  0.00000000000E+00  0.00000000000E+00 -0.12328001736E+04  0.12328001736E+04  0.50400001928E-02 0. -1.
    10030    2    1    2    0    0  0.00000000000E+00  0.00000000000E+00  0.15350823553E+04  0.40006827024E+04  0.36944531731E+04 0.  0.
        1    1    3    3  502    0  0.11294644165E+04 -0.26164797228E+03 -0.78974828665E+03  0.14028014420E+04  0.50400001928E-02 0. -1.
       -1    1    3    3    0  502 -0.11294644165E+04  0.26164797228E+03  0.23248306420E+04  0.25978812604E+04  0.50400001928E-02 0.  1.
</event>
<event>
 5   0  0.3889225E-08  0.3745734E+04  0.7818609E-02  0.8057902E-01
       -1   -1    0    0    0  501  0.00000000000E+00  0.00000000000E+00  0.12195026464E+04  0.12195026464E+04  0.50400001928E-02 0. -1.
        1   -1    0    0  501    0  0.00000000000E+00  0.00000000000E+00 -0.28762792312E+04  0.28762792312E+04  0.50400001928E-02 0.  1.
    10030    2    1    2    0    0  0.00000000000E+00  0.00000000000E+00 -0.16567765848E+04  0.40957818776E+04  0.37457336447E+04 0.  0.
        5    1    3    3  502    0 -0.39669450169E+03  0.17357017085E+04 -0.19307347064E+03  0.17909010033E+04  0.46999998093E+01 0. -1.
       -5    1    3    3    0  502  0.39669450169E+03 -0.17357017085E+04 -0.14637031142E+04  0.23048808743E+04  0.46999998093E+01 0.  1.
</event>
<event>
 5   0  0.7858367E-08  0.3794681E+04  0.7818609E-02  0.8047297E-01
       -2   -1    0    0    0  501  0.00000000000E+00  0.00000000000E+00  0.26154099977E+04  0.26154099977E+04  0.25500000920E-02 0. -1.
        2   -1    0    0  501    0  0.00000000000E+00  0.00000000000E+00 -0.13764190835E+04  0.13764190835E+04  0.25500000920E-02 0.  1.
    10030    2    1    2    0    0  0.00000000000E+00  0.00000000000E+00  0.12389909142E+04  0.39918290811E+04  0.37946806094E+04 0.  0.
        2    1    3    3  502    0 -0.11540830228E+04  0.15028975528E+04  0.51809477277E+03  0.19644416182E+04  0.25500000920E-02 0.  1.
       -2    1    3    3    0  502  0.11540830228E+04 -0.15028975528E+04  0.72089614147E+03  0.20273874629E+04  0.25500000920E-02 0. -1.
</event>
<event>
 5   0  0.1174870E-07  0.3820998E+04  0.7818609E-02  0.8041664E-01
        2   -1    0    0  501    0  0.00000000000E+00  0.00000000000E+00  0.20256131211E+04  0.20256131211E+04  0.25500000920E-02 0.  1.
       -2   -1    0    0    0  501  0.00000000000E+00  0.00000000000E+00 -0.18019270232E+04  0.18019270232E+04  0.25500000920E-02 0. -1.
    10030    2    1    2    0    0  0.00000000000E+00  0.00000000000E+00  0.22368609791E+03  0.38275401443E+04  0.38209983101E+04 0.  0.
        5    1    3    3  502    0 -0.84565521831E+03 -0.17109258743E+04  0.24602979194E+02  0.19086716564E+04  0.46999998093E+01 0.  1.
       -5    1    3    3    0  502  0.84565521831E+03  0.17109258743E+04  0.19908311871E+03  0.19188684879E+04  0.46999998093E+01 0. -1.
</event>
<event>
 5   0  0.1143283E-07  0.3814244E+04  0.7818609E-02  0.8043105E-01
        2   -1    0    0  501    0  0.00000000000E+00  0.00000000000E+00  0.29315208228E+04  0.29315208228E+04  0.25500000920E-02 0. -1.
       -2   -1    0    0    0  501  0.00000000000E+00  0.00000000000E+00 -0.12406922711E+04  0.12406922711E+04  0.25500000920E-02 0.  1.
    10030    2    1    2    0    0  0.00000000000E+00  0.00000000000E+00  0.16908285517E+04  0.41722130938E+04  0.38142444742E+04 0.  0.
        1    1    3    3  502    0 -0.78636676826E+02  0.17386711567E+04  0.16983049292E+04  0.24317484966E+04  0.50400001928E-02 0.  1.
       -1    1    3    3    0  502  0.78636676826E+02 -0.17386711567E+04 -0.74763774909E+01  0.17404645973E+04  0.50400001928E-02 0. -1.
</event>
<event>
 5   0  0.1150235E-07  0.3803305E+04  0.7818609E-02  0.8045446E-01
        2   -1    0    0  501    0  0.00000000000E+00  0.00000000000E+00  0.22993907083E+04  0.22993907083E+04  0.25500000920E-02 0. -1.
       -2   -1    0    0    0  501  0.00000000000E+00  0.00000000000E+00 -0.15727132955E+04  0.15727132955E+04  0.25500000920E-02 0.  1.
    10030    2    1    2    0    0  0.00000000000E+00  0.00000000000E+00  0.72667741278E+03  0.38721040038E+04  0.38033050566E+04 0.  0.
        4    1    3    3  502    0 -0.77013604226E+03 -0.38611149248E+03 -0.13626421248E+04  0.16121373333E+04  0.12699999809E+01 0.  1.
       -4    1    3    3    0  502  0.77013604226E+03  0.38611149248E+03  0.20893195376E+04  0.22599666704E+04  0.12699999809E+01 0. -1.
</event>
<event>
 5   0  0.3889225E-08  0.3791833E+04  0.7818609E-02  0.8047910E-01
       -1   -1    0    0    0  501  0.00000000000E+00  0.00000000000E+00  0.12791721180E+04  0.12791721180E+04  0.50400001928E-02 0.  1.
        1   -1    0    0  501    0  0.00000000000E+00  0.00000000000E+00 -0.28100197484E+04  0.28100197484E+04  0.50400001928E-02 0. -1.
    10030    2    1    2    0    0  0.00000000000E+00  0.00000000000E+00 -0.15308476304E+04  0.40891918663E+04  0.37918327564E+04 0.  0.
        5    1    3    3  502    0  0.42909427127E+02  0.36601386844E+03  0.12401693613E+04  0.12937733594E+04  0.46999998093E+01 0.  1.
       -5    1    3    3    0  502 -0.42909427127E+02 -0.36601386844E+03 -0.27710169917E+04  0.27954185069E+04  0.46999998093E+01 0. -1.
</event>
<event>
 5   0  0.3889225E-08  0.3797094E+04  0.7818609E-02  0.8046779E-01
        1   -1    0    0  501    0  0.00000000000E+00  0.00000000000E+00  0.21958265182E+04  0.21958265182E+04  0.50400001928E-02 0. -1.
       -1   -1    0    0    0  501  0.00000000000E+00  0.00000000000E+00 -0.16415139314E+04  0.16415139315E+04  0.50400001928E-02 0.  1.
    10030    2    1    2    0    0  0.00000000000E+00  0.00000000000E+00  0.55431258674E+03  0.38373404496E+04  0.37970935309E+04 0.  0.
        5    1    3    3  502    0  0.45077500944E+03  0.18094901706E+04 -0.82998625175E+02  0.18666450248E+04  0.46999998093E+01 0.  1.
       -5    1    3    3    0  502 -0.45077500944E+03 -0.18094901706E+04  0.63731121191E+03  0.19706954249E+04  0.46999998093E+01 0. -1.
</event>
<event>
 5   0  0.1150235E-07  0.3815624E+04  0.7818609E-02  0.8042810E-01
       -2   -1    0    0    0  501  0.00000000000E+00  0.00000000000E+00  0.16061312932E+04  0.16061312932E+04  0.25500000920E-02 0.  1.
        2   -1    0    0  501    0  0.00000000000E+00  0.00000000000E+00 -0.22661579131E+04  0.22661579131E+04  0.25500000920E-02 0. -1.
    10030    2    1    2    0    0  0.00000000000E+00  0.00000000000E+00 -0.66002661989E+03  0.38722892063E+04  0.38156242685E+04 0.  0.
        4    1    3    3  502    0  0.11200715198E+04  0.10552770258E+04  0.81437469208E+03  0.17410851681E+04  0.12699999809E+01 0.  1.
       -4    1    3    3    0  502 -0.11200715198E+04 -0.10552770258E+04 -0.14744013120E+04  0.21312040382E+04  0.12699999809E+01 0. -1.
</event>
<event>
 5   0  0.3701250E-08  0.3796784E+04  0.7818609E-02  0.8046845E-01
       -1   -1    0    0    0  501  0.00000000000E+00  0.00000000000E+00  0.12485734319E+04  0.12485734319E+04  0.50400001928E-02 0. -1.
        1   -1    0    0  501    0  0.00000000000E+00  0.00000000000E+00 -0.28864072596E+04  0.28864072596E+04  0.50400001928E-02 0.  1.
    10030    2    1    2    0    0  0.00000000000E+00  0.00000000000E+00 -0.16378338277E+04  0.41349806916E+04  0.37967835957E+04 0.  0.
        4    1    3    3  502    0  0.11284699186E+04  0.10620302454E+04  0.37536512957E+03  0.15944444778E+04  0.12699999809E+01 0. -1.
       -4    1    3    3    0  502 -0.11284699186E+04 -0.10620302454E+04 -0.20131989573E+04  0.25405362138E+04  0.12699999809E+01 0.  1.
</event>
<event>
 5   0  0.7858367E-08  0.3825216E+04  0.7818609E-02  0.8040765E-01
       -2   -1    0    0    0  501  0.00000000000E+00  0.00000000000E+00  0.11194056400E+04  0.11194056400E+04  0.25500000920E-02 0. -1.
        2   -1    0    0  501    0  0.00000000000E+00  0.00000000000E+00 -0.32678675587E+04  0.32678675587E+04  0.25500000920E-02 0.  1.
    10030    2    1    2    0    0  0.00000000000E+00  0.00000000000E+00 -0.21484619186E+04  0.43872731987E+04  0.38252160075E+04 0.  0.
        2    1    3    3  502    0 -0.13307291155E+04  0.27086682182E+03  0.47045665280E+03  0.14371980644E+04  0.25500000920E-02 0. -1.
       -2    1    3    3    0  502  0.13307291155E+04 -0.27086682182E+03 -0.26189185714E+04  0.29500751343E+04  0.25500000920E-02 0.  1.
</event>
<event>
 5   0  0.3701250E-08  0.3819819E+04  0.7818609E-02  0.8041915E-01
       -1   -1    0    0    0  501  0.00000000000E+00  0.00000000000E+00  0.19347870799E+04  0.19347870799E+04  0.50400001928E-02 0.  1.
        1   -1    0    0  501    0  0.00000000000E+00  0.00000000000E+00 -0.18853515861E+04  0.18853515861E+04  0.50400001928E-02 0. -1.
    10030    2    1    2    0    0  0.00000000000E+00  0.00000000000E+00  0.49435493805E+02  0.38201386659E+04  0.38198187861E+04 0.  0.
        3    1    3    3  502    0  0.29266698530E+03  0.17483435738E+04 -0.68625293636E+03  0.19008688327E+04  0.10100000352E+00 0. -1.
       -3    1    3    3    0  502 -0.29266698530E+03 -0.17483435738E+04  0.73568843016E+03  0.19192698332E+04  0.10100000352E+00 0.  1.
</event>
<event>
 5   0  0.3701250E-08  0.3695005E+04  0.7818609E-02  0.8069070E-01
        1   -1    0    0  501    0  0.00000000000E+00  0.00000000000E+00  0.23794869579E+04  0.23794869579E+04  0.50400001928E-02 0.  1.
       -1   -1    0    0    0  501  0.00000000000E+00  0.00000000000E+00 -0.14344546000E+04  0.14344546001E+04  0.50400001928E-02 0. -1.
    10030    2    1    2    0    0  0.00000000000E+00  0.00000000000E+00  0.94503235788E+03  0.38139415580E+04  0.36950052842E+04 0.  0.
        4    1    3    3  502    0 -0.12390843612E+04  0.10838647402E+04  0.13380611192E+04  0.21214386630E+04  0.12699999809E+01 0.  1.
       -4    1    3    3    0  502  0.12390843612E+04 -0.10838647402E+04 -0.39302876134E+03  0.16925028950E+04  0.12699999809E+01 0. -1.
</event>
<event>
 5   0  0.3701250E-08  0.3802552E+04  0.7818609E-02  0.8045607E-01
       -1   -1    0    0    0  501  0.00000000000E+00  0.00000000000E+00  0.14152575072E+04  0.14152575072E+04  0.50400001928E-02 0.  1.
        1   -1    0    0  501    0  0.00000000000E+00  0.00000000000E+00 -0.25542001375E+04  0.25542001375E+04  0.50400001928E-02 0. -1.
    10030    2    1    2    0    0  0.00000000000E+00  0.00000000000E+00 -0.11389426303E+04  0.39694576447E+04  0.38025522584E+04 0.  0.
        2    1    3    3  502    0  0.94634557744E+03 -0.69209228343E+03 -0.21319281471E+04  0.24330391088E+04  0.25500000920E-02 0. -1.
       -2    1    3    3    0  502 -0.94634557744E+03  0.69209228343E+03  0.99298551682E+03  0.15364185359E+04  0.25500000920E-02 0.  1.
</event>
<event>
 5   0  0.1150235E-07  0.3806016E+04  0.7818609E-02  0.8044865E-01
       -2   -1    0    0    0  501  0.00000000000E+00  0.00000000000E+00  0.13237906694E+04  0.13237906694E+04  0.25500000920E-02 0. -1.
        2   -1    0    0  501    0  0.00000000000E+00  0.00000000000E+00 -0.27356582307E+04  0.27356582307E+04  0.25500000920E-02 0.  1.
    10030    2    1    2    0    0  0.00000000000E+00  0.00000000000E+00 -0.14118675613E+04  0.40594489001E+04  0.38060156807E+04 0.  0.
        4    1    3    3  502    0 -0.76942734954E+03 -0.16423805115E+03  0.11422025744E+04  0.13869466167E+04  0.12699999809E+01 0. -1.
       -4    1    3    3    0  502  0.76942734954E+03  0.16423805115E+03 -0.25540701357E+04  0.26725022834E+04  0.12699999809E+01 0.  1.
</event>
<event>
 5   0  0.3701250E-08  0.3809581E+04  0.7818609E-02  0.8044102E-01
        1   -1    0    0  501    0  0.00000000000E+00  0.00000000000E+00  0.28201224994E+04  0.28201224994E+04  0.50400001928E-02 0.  1.
       -1   -1    0    0    0  501  0.00000000000E+00  0.00000000000E+00 -0.12865492703E+04  0.12865492703E+04  0.50400001928E-02 0. -1.
    10030    2    1    2    0    0  0.00000000000E+00  0.00000000000E+00  0.15335732291E+04  0.41066717698E+04  0.38095808399E+04 0.  0.
        1    1    3    3  502    0  0.91699925037E+03 -0.14359180288E+04 -0.15138745234E+03  0.17104579420E+04  0.50400001928E-02 0. -1.
       -1    1    3    3    0  502 -0.91699925037E+03  0.14359180288E+04  0.16849606814E+04  0.23962138278E+04  0.50400001928E-02 0.  1.
</event>
<event>
 5   0  0.1143283E-07  0.3901493E+04  0.7818609E-02  0.8024719E-01
       -2   -1    0    0    0  501  0.00000000000E+00  0.00000000000E+00  0.12767603993E+04  0.12767603993E+04  0.25500000920E-02 0. -1.
        2   -1    0    0  501    0  0.00000000000E+00  0.00000000000E+00 -0.29805209479E+04  0.29805209479E+04  0.25500000920E-02 0.  1.
    10030    2    1    2    0    0  0.00000000000E+00  0.00000000000E+00 -0.17037605486E+04  0.42572813471E+04  0.39014925941E+04 0.  0.
        1    1    3    3  502    0 -0.98138830801E+03  0.41543730405E+03  0.93104356462E+03  0.14151159966E+04  0.50400001928E-02 0. -1.
       -1    1    3    3    0  502  0.98138830801E+03 -0.41543730405E+03 -0.26348041132E+04  0.28421653505E+04  0.50400001928E-02 0.  1.
</event>
<event>
 5   0  0.7858367E-08  0.3813087E+04  0.7818609E-02  0.8043352E-01
       -2   -1    0    0    0  501  0.00000000000E+00  0.00000000000E+00  0.19779347012E+04  0.19779347012E+04  0.25500000920E-02 0. -1.
        2   -1    0    0  501    0  0.00000000000E+00  0.00000000000E+00 -0.18377290377E+04  0.18377290377E+04  0.25500000920E-02 0.  1.
    10030    2    1    2    0    0  0.00000000000E+00  0.00000000000E+00  0.14020566351E+03  0.38156637388E+04  0.38130869567E+04 0.  0.
        2    1    3    3  502    0  0.11846913917E+04  0.56743028881E+03  0.14528605017E+04  0.19586409736E+04  0.25500000920E-02 0. -1.
       -2    1    3    3    0  502 -0.11846913917E+04 -0.56743028881E+03 -0.13126548381E+04  0.18570227652E+04  0.25500000920E-02 0.  1.
</event>
<event>
 5   0  0.7858367E-08  0.3803693E+04  0.7818609E-02  0.8045363E-01
        2   -1    0    0  501    0  0.00000000000E+00  0.00000000000E+00  0.25797475880E+04  0.25797475880E+04  0.25500000920E-02 0.  1.
       -2   -1    0    0    0  501  0.00000000000E+00  0.00000000000E+00 -0.14020828386E+04  0.14020828386E+04  0.25500000920E-02 0. -1.
    10030    2    1    2    0    0  0.00000000000E+00  0.00000000000E+00  0.11776647494E+04  0.39818304266E+04  0.38036928483E+04 0.  0.
        2    1    3    3  502    0 -0.67445261697E+02  0.13562529684E+04 -0.80508705167E+03  0.15786501000E+04  0.25500000920E-02 0. -1.
       -2    1    3    3    0  502  0.67445261697E+02 -0.13562529684E+04  0.19827518011E+04  0.24031803266E+04  0.25500000920E-02 0.  1.
</event>
<event>
 5   0  0.3701250E-08  0.3682100E+04  0.7818609E-02  0.8071940E-01
       -1   -1    0    0    0  501  0.00000000000E+00  0.00000000000E+00  0.11817825797E+04  0.11817825797E+04  0.50400001928E-02 0.  1.
        1   -1    0    0  501    0  0.00000000000E+00  0.00000000000E+00 -0.28680956606E+04  0.28680956606E+04  0.50400001928E-02 0. -1.
    10030    2    1    2    0    0  0.00000000000E+00  0.00000000000E+00 -0.16863130809E+04  0.40498782403E+04  0.36821002097E+04 0.  0.
        2    1    3    3  502    0 -0.40535401337E+03 -0.15653781327E+04 -0.18112688217E+04  0.24280476352E+04  0.25500000920E-02 0. -1.
       -2    1    3    3    0  502  0.40535401337E+03  0.15653781327E+04  0.12495574080E+03  0.16218306051E+04  0.25500000920E-02 0.  1.
</event>
<event>
 5   0  0.3701250E-08  0.3791659E+04  0.7818609E-02  0.8047947E-01
        1   -1    0    0  501    0  0.00000000000E+00  0.00000000000E+00  0.14237849921E+04  0.14237849921E+04  0.50400001928E-02 0.  1.
       -1   -1    0    0    0  501  0.00000000000E+00  0.00000000000E+00 -0.25243768307E+04  0.25243768307E+04  0.50400001928E-02 0. -1.
    10030    2    1    2    0    0  0.00000000000E+00  0.00000000000E+00 -0.11005918386E+04  0.39481618228E+04  0.37916591861E+04 0.  0.
        1    1    3    3  502    0 -0.48446935457E+03  0.17404528721E+04  0.48127830016E+02  0.18072639662E+04  0.50400001928E-02 0.  1.
       -1    1    3    3    0  502  0.48446935457E+03 -0.17404528721E+04 -0.11487196686E+04  0.21408978566E+04  0.50400001928E-02 0. -1.
</event>
<event>
 5   0  0.7858367E-08  0.3799220E+04  0.7818609E-02  0.8046322E-01
       -2   -1    0    0    0  501  0.00000000000E+00  0.00000000000E+00  0.15162762376E+04  0.15162762376E+04  0.25500000920E-02 0. -1.
        2   -1    0    0  501    0  0.00000000000E+00  0.00000000000E+00 -0.23798552177E+04  0.23798552177E+04  0.25500000920E-02 0.  1.
    10030    2    1    2    0    0  0.00000000000E+00  0.00000000000E+00 -0.86357898018E+03  0.38961314553E+04  0.37992198755E+04 0.  0.
        2    1    3    3  502    0  0.21715344266E+03 -0.18443882032E+04 -0.22106369936E+02  0.18572593123E+04  0.25500000920E-02 0.  1.
       -2    1    3    3    0  502 -0.21715344266E+03  0.18443882032E+04 -0.84147261024E+03  0.20388721430E+04  0.25500000920E-02 0. -1.
</event>
<event>
 5   0  0.1193861E-07  0.3768877E+04  0.7818609E-02  0.8052867E-01
        2   -1    0    0  501    0  0.00000000000E+00  0.00000000000E+00  0.17953291442E+04  0.17953291442E+04  0.25500000920E-02 0. -1.
       -2   -1    0    0    0  501  0.00000000000E+00  0.00000000000E+00 -0.19779709933E+04  0.19779709933E+04  0.25500000920E-02 0.  1.
    10030    2    1    2    0    0  0.00000000000E+00  0.00000000000E+00 -0.18264184913E+03  0.37733001376E+04  0.37688772709E+04 0.  0.
        3    1    3    3  502    0 -0.10494069044E+04  0.59124408498E+03 -0.15422574845E+04  0.19568808288E+04  0.10100000352E+00 0.  1.
       -3    1    3    3    0  502  0.10494069044E+04 -0.59124408498E+03  0.13596156354E+04  0.18164193088E+04  0.10100000352E+00 0. -1.
</event>
<event>
 5   0  0.1174870E-07  0.3780894E+04  0.7818609E-02  0.8050267E-01
       -2   -1    0    0    0  501  0.00000000000E+00  0.00000000000E+00  0.11519440147E+04  0.11519440147E+04  0.25500000920E-02 0. -1.
        2   -1    0    0  501    0  0.00000000000E+00  0.00000000000E+00 -0.31023993708E+04  0.31023993708E+04  0.25500000920E-02 0.  1.
    10030    2    1    2    0    0  0.00000000000E+00  0.00000000000E+00 -0.19504553562E+04  0.42543433855E+04  0.37808942785E+04 0.  0.
        5    1    3    3  502    0 -0.58621465999E+03  0.15293124609E+04  0.87093460013E+02  0.16401376746E+04  0.46999998093E+01 0. -1.
       -5    1    3    3    0  502  0.58621465999E+03 -0.15293124609E+04 -0.20375488162E+04  0.26142057109E+04  0.46999998093E+01 0.  1.
</event>
<event>
 5   0  0.3701250E-08  0.3909922E+04  0.7818609E-02  0.8022969E-01
       -3   -1    0    0    0  501  0.00000000000E+00  0.00000000000E+00  0.21614356462E+04  0.21614356486E+04  0.10100000352E+00 0. -1.
        3   -1    0    0  501    0  0.00000000000E+00  0.00000000000E+00 -0.17682102304E+04  0.17682102333E+04  0.10100000352E+00 0.  1.
    10030    2    1    2    0    0  0.00000000000E+00  0.00000000000E+00  0.39322541577E+03  0.39296458819E+04  0.39099220618E+04 0.  0.
        4    1    3    3  502    0 -0.81586210017E+03 -0.37644472166E+02  0.19817548843E+04  0.21434556462E+04  0.12699999809E+01 0. -1.
       -4    1    3    3    0  502  0.81586210017E+03  0.37644472166E+02 -0.15885294685E+04  0.17861902357E+04  0.12699999809E+01 0.  1.
</event>
<event>
 5   0  0.3701250E-08  0.3818147E+04  0.7818609E-02  0.8042272E-01
       -1   -1    0    0    0  501  0.00000000000E+00  0.00000000000E+00  0.29237174108E+04  0.29237174108E+04  0.50400001928E-02 0.  1.
        1   -1    0    0  501    0  0.00000000000E+00  0.00000000000E+00 -0.12465504343E+04  0.12465504343E+04  0.50400001928E-02 0. -1.
    10030    2    1    2    0    0  0.00000000000E+00  0.00000000000E+00  0.16771669765E+04  0.41702678451E+04  0.38181467799E+04 0.  0.
        3    1    3    3  502    0 -0.52656433224E+03 -0.39454961560E+03 -0.11187892189E+04  0.12979324796E+04  0.10100000352E+00 0. -1.
       -3    1    3    3    0  502  0.52656433224E+03  0.39454961560E+03  0.27959561954E+04  0.28723353655E+04  0.10100000352E+00 0.  1.
</event>
<event>
 5   0  0.7858367E-08  0.3874254E+04  0.7818609E-02  0.8030405E-01
       -2   -1    0    0    0  501  0.00000000000E+00  0.00000000000E+00  0.24205181004E+04  0.24205181004E+04  0.25500000920E-02 0. -1.
        2   -1    0    0  501    0  0.00000000000E+00  0.00000000000E+00 -0.15502717835E+04  0.15502717835E+04  0.25500000920E-02 0.  1.
    10030    2    1    2    0    0  0.00000000000E+00  0.00000000000E+00  0.87024631692E+03  0.39707898840E+04  0.38742539476E+04 0.  0.
        2    1    3    3  502    0  0.43734193805E+03 -0.14049235496E+04  0.17264305960E+04  0.22684004835E+04  0.25500000920E-02 0. -1.
       -2    1    3    3    0  502 -0.43734193805E+03  0.14049235496E+04 -0.85618427904E+03  0.17023894004E+04  0.25500000920E-02 0.  1.
</event>
<event>
 5   0  0.7858367E-08  0.3812758E+04  0.7818609E-02  0.8043423E-01
       -2   -1    0    0    0  501  0.00000000000E+00  0.00000000000E+00  0.24503208110E+04  0.24503208110E+04  0.25500000920E-02 0.  1.
        2   -1    0    0  501    0  0.00000000000E+00  0.00000000000E+00 -0.14831855742E+04  0.14831855742E+04  0.25500000920E-02 0. -1.
    10030    2    1    2    0    0  0.00000000000E+00  0.00000000000E+00  0.96713523679E+03  0.39335063852E+04  0.38127577836E+04 0.  0.
        2    1    3    3  502    0  0.12797620117E+04 -0.24507116839E+03  0.19191943002E+04  0.23197321928E+04  0.25500000920E-02 0.  1.
       -2    1    3    3    0  502 -0.12797620117E+04  0.24507116839E+03 -0.95205906341E+03  0.16137741925E+04  0.25500000920E-02 0. -1.
</event>
<event>
 5   0  0.3701250E-08  0.3817730E+04  0.7818609E-02  0.8042361E-01
       -1   -1    0    0    0  501  0.00000000000E+00  0.00000000000E+00  0.14469681729E+04  0.14469681729E+04  0.50400001928E-02 0. -1.
        1   -1    0    0  501    0  0.00000000000E+00  0.00000000000E+00 -0.25182071217E+04  0.25182071218E+04  0.50400001928E-02 0.  1.
    10030    2    1    2    0    0  0.00000000000E+00  0.00000000000E+00 -0.10712389488E+04  0.39651752947E+04  0.38177299842E+04 0.  0.
        1    1    3    3  502    0  0.76180526106E+03  0.19010622670E+03 -0.23427242338E+04  0.24707983465E+04  0.50400001928E-02 0.  1.
       -1    1    3    3    0  502 -0.76180526106E+03 -0.19010622670E+03  0.12714852850E+04  0.14943769482E+04  0.50400001928E-02 0. -1.
</event>
<event>
 5   0  0.3701250E-08  0.3798606E+04  0.7818609E-02  0.8046454E-01
       -1   -1    0    0    0  501  0.00000000000E+00  0.00000000000E+00  0.16004983315E+04  0.16004983315E+04  0.50400001928E-02 0.  1.
        1   -1    0    0  501    0  0.00000000000E+00  0.00000000000E+00 -0.22538925134E+04  0.22538925134E+04  0.50400001928E-02 0. -1.
    10030    2    1    2    0    0  0.00000000000E+00  0.00000000000E+00 -0.65339418195E+03  0.38543908449E+04  0.37986056426E+04 0.  0.
        1    1    3    3  502    0  0.85893730756E+03 -0.12539942395E+04 -0.14823151326E+04  0.21230951470E+04  0.50400001928E-02 0. -1.
       -1    1    3    3    0  502 -0.85893730756E+03  0.12539942395E+04  0.82892095061E+03  0.17312956979E+04  0.50400001928E-02 0.  1.
</event>
<event>
 5   0  0.1193861E-07  0.3794039E+04  0.7818609E-02  0.8047435E-01
        2   -1    0    0  501    0  0.00000000000E+00  0.00000000000E+00  0.22748905192E+04  0.22748905192E+04  0.25500000920E-02 0. -1.
       -2   -1    0    0    0  501  0.00000000000E+00  0.00000000000E+00 -0.15819144790E+04  0.15819144790E+04  0.25500000920E-02 0.  1.
    10030    2    1    2    0    0  0.00000000000E+00  0.00000000000E+00  0.69297604026E+03  0.38568049982E+04  0.37940386137E+04 0.  0.
        3    1    3    3  502    0 -0.40666856187E+03 -0.18299539840E+04  0.64211055339E+03  0.19815188305E+04  0.10100000352E+00 0. -1.
       -3    1    3    3    0  502  0.40666856187E+03  0.18299539840E+04  0.50865486863E+02  0.18752861677E+04  0.10100000352E+00 0.  1.
</event>
<event>
 5   0  0.3701250E-08  0.3803534E+04  0.7818609E-02  0.8045397E-01
        1   -1    0    0  501    0  0.00000000000E+00  0.00000000000E+00  0.13988010488E+04  0.13988010488E+04  0.50400001928E-02 0.  1.
       -1   -1    0    0    0  501  0.00000000000E+00  0.00000000000E+00 -0.25855843985E+04  0.25855843985E+04  0.50400001928E-02 0. -1.
    10030    2    1    2    0    0  0.00000000000E+00  0.00000000000E+00 -0.11867833497E+04  0.39843854474E+04  0.38035342346E+04 0.  0.
        4    1    3    3  502    0  0.11467684131E+04  0.47134356458E+03  0.91721278876E+03  0.15422462391E+04  0.12699999809E+01 0.  1.
       -4    1    3    3    0  502 -0.11467684131E+04 -0.47134356458E+03 -0.21039961385E+04  0.24421392083E+04  0.12699999809E+01 0. -1.
</event>
<event>
 5   0  0.3701250E-08  0.3818453E+04  0.7818609E-02  0.8042206E-01
        1   -1    0    0  501    0  0.00000000000E+00  0.00000000000E+00  0.11966749176E+04  0.11966749176E+04  0.50400001928E-02 0.  1.
       -1   -1    0    0    0  501  0.00000000000E+00  0.00000000000E+00 -0.30460621686E+04  0.30460621686E+04  0.50400001928E-02 0. -1.
    10030    2    1    2    0    0  0.00000000000E+00  0.00000000000E+00 -0.18493872511E+04  0.42427370862E+04  0.38184531918E+04 0.  0.
        1    1    3    3  502    0 -0.10885215103E+04 -0.98363990168E+03 -0.22822184354E+04  0.27131066182E+04  0.50400001928E-02 0. -1.
       -1    1    3    3    0  502  0.10885215103E+04  0.98363990168E+03  0.43283118438E+03  0.15296304680E+04  0.50400001928E-02 0.  1.
</event>
<event>
 5   0  0.3701250E-08  0.3800618E+04  0.7818609E-02  0.8046022E-01
        3   -1    0    0  501    0  0.00000000000E+00  0.00000000000E+00  0.22002586787E+04  0.22002586810E+04  0.10100000352E+00 0. -1.
       -3   -1    0    0    0  501  0.00000000000E+00  0.00000000000E+00 -0.16412497911E+04  0.16412497942E+04  0.10100000352E+00 0.  1.
    10030    2    1    2    0    0  0.00000000000E+00  0.00000000000E+00  0.55900888760E+03  0.38415084752E+04  0.38006179009E+04 0.  0.
        3    1    3    3  502    0 -0.15172207665E+04 -0.82982264202E+03  0.10757680009E+04  0.20366249712E+04  0.10100000352E+00 0.  1.
       -3    1    3    3    0  502  0.15172207665E+04  0.82982264202E+03 -0.51675911334E+03  0.18048835039E+04  0.10100000352E+00 0. -1.
</event>
<event>
 5   0  0.3701250E-08  0.3798177E+04  0.7818609E-02  0.8046546E-01
       -1   -1    0    0    0  501  0.00000000000E+00  0.00000000000E+00  0.12713786559E+04  0.12713786559E+04  0.50400001928E-02 0. -1.
        1   -1    0    0  501    0  0.00000000000E+00  0.00000000000E+00 -0.28367135345E+04  0.28367135345E+04  0.50400001928E-02 0.  1.
    10030    2    1    2    0    0  0.00000000000E+00  0.00000000000E+00 -0.15653348786E+04  0.41080921904E+04  0.37981769525E+04 0.  0.
        1    1    3    3  502    0 -0.70320775134E+03  0.32462025120E+03  0.10927889637E+04  0.13394279258E+04  0.50400001928E-02 0. -1.
       -1    1    3    3    0  502  0.70320775134E+03 -0.32462025120E+03 -0.26581238423E+04  0.27686642646E+04  0.50400001928E-02 0.  1.
</event>
<event>
 5   0  0.3701250E-08  0.3797655E+04  0.7818609E-02  0.8046658E-01
        1   -1    0    0  501    0  0.00000000000E+00  0.00000000000E+00  0.25800342687E+04  0.25800342687E+04  0.50400001928E-02 0. -1.
       -1   -1    0    0    0  501  0.00000000000E+00  0.00000000000E+00 -0.13974799501E+04  0.13974799501E+04  0.50400001928E-02 0.  1.
    10030    2    1    2    0    0  0.00000000000E+00  0.00000000000E+00  0.11825543186E+04  0.39775142188E+04  0.37976551508E+04 0.  0.
        1    1    3    3  502    0 -0.46916355391E+03  0.18384106630E+04  0.51235623175E+03  0.19652931371E+04  0.50400001928E-02 0. -1.
       -1    1    3    3    0  502  0.46916355391E+03 -0.18384106630E+04  0.67019808683E+03  0.20122210818E+04  0.50400001928E-02 0.  1.
</event>
<event>
 5   0  0.1174870E-07  0.3830301E+04  0.7818609E-02  0.8039683E-01
        2   -1    0    0  501    0  0.00000000000E+00  0.00000000000E+00  0.33051627925E+04  0.33051627925E+04  0.25500000920E-02 0. -1.
       -2   -1    0    0    0  501  0.00000000000E+00  0.00000000000E+00 -0.11097191169E+04  0.11097191169E+04  0.25500000920E-02 0.  1.
    10030    2    1    2    0    0  0.00000000000E+00  0.00000000000E+00  0.21954436756E+04  0.44148819094E+04  0.38303014686E+04 0.  0.
        5    1    3    3  502    0 -0.11018946832E+04 -0.15659870907E+04  0.11391646443E+04  0.22280497386E+04  0.46999998093E+01 0. -1.
       -5    1    3    3    0  502  0.11018946832E+04  0.15659870907E+04  0.10562790313E+04  0.21868321707E+04  0.46999998093E+01 0.  1.
</event>
<event>
 5   0  0.3701250E-08  0.3708003E+04  0.7818609E-02  0.8066191E-01
        1   -1    0    0  501    0  0.00000000000E+00  0.00000000000E+00  0.17187350849E+04  0.17187350849E+04  0.50400001928E-02 0. -1.
       -1   -1    0    0    0  501  0.00000000000E+00  0.00000000000E+00 -0.19999134939E+04  0.19999134939E+04  0.50400001928E-02 0.  1.
    10030    2    1    2    0    0  0.00000000000E+00  0.00000000000E+00 -0.28117840909E+03  0.37186485788E+04  0.37080029605E+04 0.  0.
        2    1    3    3  502    0 -0.12190565734E+04  0.11113726193E+04  0.70805149346E+03  0.17951559669E+04  0.25500000920E-02 0. -1.
       -2    1    3    3    0  502  0.12190565734E+04 -0.11113726193E+04 -0.98922990254E+03  0.19234926119E+04  0.25500000920E-02 0.  1.
</event>
<event>
 5   0  0.3701250E-08  0.3822526E+04  0.7818609E-02  0.8041338E-01
       -1   -1    0    0    0  501  0.00000000000E+00  0.00000000000E+00  0.32255594440E+04  0.32255594440E+04  0.50400001928E-02 0.  1.
        1   -1    0    0  501    0  0.00000000000E+00  0.00000000000E+00 -0.11324940614E+04  0.11324940614E+04  0.50400001928E-02 0. -1.
    10030    2    1    2    0    0  0.00000000000E+00  0.00000000000E+00  0.20930653826E+04  0.43580535054E+04  0.38225263453E+04 0.  0.
        4    1    3    3  502    0 -0.26269516834E+03  0.17503083753E+04  0.18689353094E+04  0.25740064032E+04  0.12699999809E+01 0.  1.
       -4    1    3    3    0  502  0.26269516834E+03 -0.17503083753E+04  0.22413007315E+03  0.17840471022E+04  0.12699999809E+01 0. -1.
</event>
<event>
 5   0  0.3701250E-08  0.3808898E+04  0.7818609E-02  0.8044248E-01
       -1   -1    0    0    0  501  0.00000000000E+00  0.00000000000E+00  0.23263159787E+04  0.23263159787E+04  0.50400001928E-02 0.  1.
        1   -1    0    0  501    0  0.00000000000E+00  0.00000000000E+00 -0.15590853408E+04  0.15590853408E+04  0.50400001928E-02 0. -1.
    10030    2    1    2    0    0  0.00000000000E+00  0.00000000000E+00  0.76723063785E+03  0.38854013195E+04  0.38088975520E+04 0.  0.
        1    1    3    3  502    0 -0.74355382878E+03 -0.12346447942E+04  0.16534907465E+04  0.21934565673E+04  0.50400001928E-02 0.  1.
       -1    1    3    3    0  502  0.74355382878E+03  0.12346447942E+04 -0.88626010863E+03  0.16919447521E+04  0.50400001928E-02 0. -1.
</event>
<event>
 5   0  0.1193861E-07  0.3821105E+04  0.7818609E-02  0.8041641E-01
        2   -1    0    0  501    0  0.00000000000E+00  0.00000000000E+00  0.20727893481E+04  0.20727893481E+04  0.25500000920E-02 0. -1.
       -2   -1    0    0    0  501  0.00000000000E+00  0.00000000000E+00 -0.17610140519E+04  0.17610140519E+04  0.25500000920E-02 0.  1.
    10030    2    1    2    0    0  0.00000000000E+00  0.00000000000E+00  0.31177529629E+03  0.38338034000E+04  0.38211051640E+04 0.  0.
        3    1    3    3  502    0 -0.15234766783E+04  0.13355201925E+03  0.13048542778E+04  0.20103387843E+04  0.10100000352E+00 0. -1.
       -3    1    3    3    0  502  0.15234766783E+04 -0.13355201925E+03 -0.99307898147E+03  0.18234646157E+04  0.10100000352E+00 0.  1.
</event>
<event>
 5   0  0.1150235E-07  0.3814201E+04  0.7818609E-02  0.8043114E-01
       -2   -1    0    0    0  501  0.00000000000E+00  0.00000000000E+00  0.15265303631E+04  0.15265303631E+04  0.25500000920E-02 0.  1.
        2   -1    0    0  501    0  0.00000000000E+00  0.00000000000E+00 -0.23825487571E+04  0.23825487571E+04  0.25500000920E-02 0. -1.
    10030    2    1    2    0    0  0.00000000000E+00  0.00000000000E+00 -0.85601839396E+03  0.39090791202E+04  0.38142013682E+04 0.  0.
        4    1    3    3  502    0  0.33732658394E+03 -0.25233334542E+03  0.14782498085E+04  0.15371029408E+04  0.12699999809E+01 0.  1.
       -4    1    3    3    0  502 -0.33732658394E+03  0.25233334542E+03 -0.23342682025E+04  0.23719761794E+04  0.12699999809E+01 0. -1.
</event>
<event>
 5   0  0.3889225E-08  0.3808907E+04  0.7818609E-02  0.8044246E-01
        1   -1    0    0  501    0  0.00000000000E+00  0.00000000000E+00  0.22904895096E+04  0.22904895096E+04  0.50400001928E-02 0.  1.
       -1   -1    0    0    0  501  0.00000000000E+00  0.00000000000E+00 -0.15834791678E+04  0.15834791678E+04  0.50400001928E-02 0. -1.
    10030    2    1    2    0    0  0.00000000000E+00  0.00000000000E+00  0.70701034178E+03  0.38739686775E+04  0.38089066266E+04 0.  0.
        5    1    3    3  502    0  0.11066353954E+04  0.27606606522E+03 -0.11976912419E+04  0.16538865655E+04  0.46999998093E+01 0. -1.
       -5    1    3    3    0  502 -0.11066353954E+04 -0.27606606522E+03  0.19047015837E+04  0.22200821119E+04  0.46999998093E+01 0.  1.
</event>
<event>
 5   0  0.1150235E-07  0.3805548E+04  0.7818609E-02  0.8044965E-01
        2   -1    0    0  501    0  0.00000000000E+00  0.00000000000E+00  0.20304567536E+04  0.20304567536E+04  0.25500000920E-02 0.  1.
       -2   -1    0    0    0  501  0.00000000000E+00  0.00000000000E+00 -0.17831206571E+04  0.17831206571E+04  0.25500000920E-02 0. -1.
    10030    2    1    2    0    0  0.00000000000E+00  0.00000000000E+00  0.24733609656E+03  0.38135774107E+04  0.38055482552E+04 0.  0.
        4    1    3    3  502    0 -0.58957303251E+03 -0.87516100902E+03  0.17103736849E+04  0.20096972178E+04  0.12699999809E+01 0.  1.
       -4    1    3    3    0  502  0.58957303251E+03  0.87516100902E+03 -0.14630375884E+04  0.18038801929E+04  0.12699999809E+01 0. -1.
</event>
<event>
 5   0  0.3701250E-08  0.3793015E+04  0.7818609E-02  0.8047656E-01
       -1   -1    0    0    0  501  0.00000000000E+00  0.00000000000E+00  0.18992044323E+04  0.18992044324E+04  0.50400001928E-02 0.  1.
        1   -1    0    0  501    0  0.00000000000E+00  0.00000000000E+00 -0.18938139132E+04  0.18938139132E+04  0.50400001928E-02 0. -1.
    10030    2    1    2    0    0  0.00000000000E+00  0.00000000000E+00  0.53905191107E+01  0.37930183456E+04  0.37930145152E+04 0.  0.
        3    1    3    3  502    0 -0.16859927589E+04 -0.66158312469E+03 -0.55986726429E+03  0.18957096765E+04  0.10100000352E+00 0. -1.
       -3    1    3    3    0  502  0.16859927589E+04  0.66158312469E+03  0.56525778340E+03  0.18973086691E+04  0.10100000352E+00 0.  1.
</event>
<event>
 5   0  0.7858367E-08  0.3805687E+04  0.7818609E-02  0.8044936E-01
       -2   -1    0    0    0  501  0.00000000000E+00  0.00000000000E+00  0.17366272693E+04  0.17366272693E+04  0.25500000920E-02 0.  1.
        2   -1    0    0  501    0  0.00000000000E+00  0.00000000000E+00 -0.20849681274E+04  0.20849681274E+04  0.25500000920E-02 0. -1.
    10030    2    1    2    0    0  0.00000000000E+00  0.00000000000E+00 -0.34834085810E+03  0.38215953968E+04  0.38056865377E+04 0.  0.
        2    1    3    3  502    0  0.14344343421E+04 -0.11100387404E+04 -0.75192293545E+03  0.19634602079E+04  0.25500000920E-02 0.  1.
       -2    1    3    3    0  502 -0.14344343421E+04  0.11100387404E+04  0.40358207735E+03  0.18581351889E+04  0.25500000920E-02 0. -1.
</event>
<event>
 5   0  0.1150235E-07  0.3685461E+04  0.7818609E-02  0.8071191E-01
        2   -1    0    0  501    0  0.00000000000E+00  0.00000000000E+00  0.15928356890E+04  0.15928356890E+04  0.25500000920E-02 0.  1.
       -2   -1    0    0    0  501  0.00000000000E+00  0.00000000000E+00 -0.21318305578E+04  0.21318305578E+04  0.25500000920E-02 0. -1.
    10030    2    1    2    0    0  0.00000000000E+00  0.00000000000E+00 -0.53899486885E+03  0.37246662468E+04  0.36854610541E+04 0.  0.
        4    1    3    3  502    0  0.13343991120E+04 -0.11600173792E+04 -0.79404948298E+03  0.19382408273E+04  0.12699999809E+01 0. -1.
       -4    1    3    3    0  502 -0.13343991120E+04  0.11600173792E+04  0.25505461412E+03  0.17864254195E+04  0.12699999809E+01 0.  1.
</event>
<event>
 5   0  0.3701250E-08  0.3796198E+04  0.7818609E-02  0.8046971E-01
       -1   -1    0    0    0  501  0.00000000000E+00  0.00000000000E+00  0.18526558423E+04  0.18526558423E+04  0.50400001928E-02 0.  1.
        1   -1    0    0  501    0  0.00000000000E+00  0.00000000000E+00 -0.19446570898E+04  0.19446570898E+04  0.50400001928E-02 0. -1.
    10030    2    1    2    0    0  0.00000000000E+00  0.00000000000E+00 -0.92001247498E+02  0.37973129321E+04  0.37961982660E+04 0.  0.
        2    1    3    3  502    0 -0.13457121338E+04  0.11434801050E+04 -0.74211617828E+03  0.19155219445E+04  0.25500000920E-02 0. -1.
       -2    1    3    3    0  502  0.13457121338E+04 -0.11434801050E+04  0.65011493078E+03  0.18817909876E+04  0.25500000920E-02 0.  1.
</event>
<event>
 5   0  0.1150235E-07  0.3799701E+04  0.7818609E-02  0.8046219E-01
       -2   -1    0    0    0  501  0.00000000000E+00  0.00000000000E+00  0.23092852201E+04  0.23092852201E+04  0.25500000920E-02 0.  1.
        2   -1    0    0  501    0  0.00000000000E+00  0.00000000000E+00 -0.15630085400E+04  0.15630085400E+04  0.25500000920E-02 0. -1.
    10030    2    1    2    0    0  0.00000000000E+00  0.00000000000E+00  0.74627668010E+03  0.38722937601E+04  0.37997013148E+04 0.  0.
        4    1    3    3  502    0  0.12142219316E+04 -0.13614222656E+04 -0.16768417794E+03  0.18319184154E+04  0.12699999809E+01 0. -1.
       -4    1    3    3    0  502 -0.12142219316E+04  0.13614222656E+04  0.91396085804E+03  0.20403753447E+04  0.12699999809E+01 0.  1.
</event>
<event>
 5   0  0.1174870E-07  0.3805848E+04  0.7818609E-02  0.8044901E-01
        2   -1    0    0  501    0  0.00000000000E+00  0.00000000000E+00  0.16791769542E+04  0.16791769542E+04  0.25500000920E-02 0.  1.
       -2   -1    0    0    0  501  0.00000000000E+00  0.00000000000E+00 -0.21564852991E+04  0.21564852991E+04  0.25500000920E-02 0. -1.
    10030    2    1    2    0    0  0.00000000000E+00  0.00000000000E+00 -0.47730834484E+03  0.38356622533E+04  0.38058483503E+04 0.  0.
        5    1    3    3  502    0 -0.18878661213E+04  0.23871244587E+03 -0.24745197141E+03  0.19189259214E+04  0.46999998093E+01 0. -1.
       -5    1    3    3    0  502  0.18878661213E+04 -0.23871244587E+03 -0.22985637342E+03  0.19167363319E+04  0.46999998093E+01 0.  1.
</event>
<event>
 5   0  0.7858367E-08  0.3836795E+04  0.7818609E-02  0.8038305E-01
        2   -1    0    0  501    0  0.00000000000E+00  0.00000000000E+00  0.13135517444E+04  0.13135517444E+04  0.25500000920E-02 0. -1.
       -2   -1    0    0    0  501  0.00000000000E+00  0.00000000000E+00 -0.28017534604E+04  0.28017534604E+04  0.25500000920E-02 0.  1.
    10030    2    1    2    0    0  0.00000000000E+00  0.00000000000E+00 -0.14882017159E+04  0.41153052048E+04  0.38367945712E+04 0.  0.
        2    1    3    3  502    0 -0.73759717902E+03 -0.12035791041E+04  0.64927323582E+03  0.15537721818E+04  0.25500000920E-02 0. -1.
       -2    1    3    3    0  502  0.73759717902E+03  0.12035791041E+04 -0.21374749518E+04  0.25615330230E+04  0.25500000920E-02 0.  1.
</event>
<event>
 5   0  0.1193861E-07  0.3788295E+04  0.7818609E-02  0.8048671E-01
        2   -1    0    0  501    0  0.00000000000E+00  0.00000000000E+00  0.23649762208E+04  0.23649762208E+04  0.25500000920E-02 0.  1.
       -2   -1    0    0    0  501  0.00000000000E+00  0.00000000000E+00 -0.15170533565E+04  0.15170533565E+04  0.25500000920E-02 0. -1.
    10030    2    1    2    0    0  0.00000000000E+00  0.00000000000E+00  0.84792286430E+03  0.38820295772E+04  0.37882951911E+04 0.  0.
        3    1    3    3  502    0  0.12384179707E+04  0.10089174999E+04  0.14670883153E+04  0.21688572399E+04  0.10100000352E+00 0.  1.
       -3    1    3    3    0  502 -0.12384179707E+04 -0.10089174999E+04 -0.61916545104E+03  0.17131723374E+04  0.10100000352E+00 0. -1.
</event>
<event>
 5   0  0.3701250E-08  0.3811858E+04  0.7818609E-02  0.8043615E-01
       -4   -1    0    0    0  501  0.00000000000E+00  0.00000000000E+00  0.15969184943E+04  0.15969189993E+04  0.12699999809E+01 0.  1.
        4   -1    0    0  501    0  0.00000000000E+00  0.00000000000E+00 -0.22747328322E+04  0.22747331867E+04  0.12699999809E+01 0. -1.
    10030    2    1    2    0    0  0.00000000000E+00  0.00000000000E+00 -0.67781433785E+03  0.38716521861E+04  0.38118576014E+04 0.  0.
        3    1    3    3  502    0  0.17797387964E+04  0.66035196171E+03 -0.16585348872E+03  0.19055293980E+04  0.10100000352E+00 0.  1.
       -3    1    3    3    0  502 -0.17797387964E+04 -0.66035196171E+03 -0.51196084913E+03  0.19661227881E+04  0.10100000352E+00 0. -1.
</event>
<event>
 5   0  0.3701250E-08  0.3795919E+04  0.7818609E-02  0.8047031E-01
        1   -1    0    0  501    0  0.00000000000E+00  0.00000000000E+00  0.20346081176E+04  0.20346081176E+04  0.50400001928E-02 0.  1.
       -1   -1    0    0    0  501  0.00000000000E+00  0.00000000000E+00 -0.17704887762E+04  0.17704887762E+04  0.50400001928E-02 0. -1.
    10030    2    1    2    0    0  0.00000000000E+00  0.00000000000E+00  0.26411934143E+03  0.38050968939E+04  0.37959193017E+04 0.  0.
        4    1    3    3  502    0  0.11154198563E+04  0.34883335710E+02  0.16709818121E+04  0.20093680927E+04  0.12699999809E+01 0.  1.
       -4    1    3    3    0  502 -0.11154198563E+04 -0.34883335710E+02 -0.14068624707E+04  0.17957288011E+04  0.12699999809E+01 0. -1.
</event>
<event>
 5   0  0.3701250E-08  0.3674638E+04  0.7818609E-02  0.8073606E-01
       -1   -1    0    0    0  501  0.00000000000E+00  0.00000000000E+00  0.21180135037E+04  0.21180135037E+04  0.50400001928E-02 0. -1.
        1   -1    0    0  501    0  0.00000000000E+00  0.00000000000E+00 -0.15938242539E+04  0.15938242539E+04  0.50400001928E-02 0.  1.
    10030    2    1    2    0    0  0.00000000000E+00  0.00000000000E+00  0.52418924980E+03  0.37118377577E+04  0.36746381005E+04 0.  0.
        3    1    3    3  502    0  0.12676420206E+04  0.21084115958E+02 -0.10811721227E+04  0.16662214743E+04  0.10100000352E+00 0.  1.
       -3    1    3    3    0  502 -0.12676420206E+04 -0.21084115958E+02  0.16053613725E+04  0.20456162834E+04  0.10100000352E+00 0. -1.
</event>
<event>
 5   0  0.3701250E-08  0.3801160E+04  0.7818609E-02  0.8045906E-01
        1   -1    0    0  501    0  0.00000000000E+00  0.00000000000E+00  0.13097652329E+04  0.13097652329E+04  0.50400001928E-02 0.  1.
       -1   -1    0    0    0  501  0.00000000000E+00  0.00000000000E+00 -0.27579025072E+04  0.27579025072E+04  0.50400001928E-02 0. -1.
    10030    2    1    2    0    0  0.00000000000E+00  0.00000000000E+00 -0.14481372743E+04  0.40676677401E+04  0.38011602542E+04 0.  0.
        3    1    3    3  502    0  0.96237141479E+02  0.11111318383E+04 -0.23709045604E+04  0.26201267134E+04  0.10100000352E+00 0. -1.
       -3    1    3    3    0  502 -0.96237141479E+02 -0.11111318383E+04  0.92276728612E+03  0.14475410267E+04  0.10100000352E+00 0.  1.
</event>
<event>
 5   0  0.1143283E-07  0.3796124E+04  0.7818609E-02  0.8046987E-01
        2   -1    0    0  501    0  0.00000000000E+00  0.00000000000E+00  0.19677651491E+04  0.19677651491E+04  0.25500000920E-02 0. -1.
       -2   -1    0    0    0  501  0.00000000000E+00  0.00000000000E+00 -0.18308275387E+04  0.18308275387E+04  0.25500000920E-02 0.  1.
    10030    2    1    2    0    0  0.00000000000E+00  0.00000000000E+00  0.13693761046E+03  0.37985926878E+04  0.37961236147E+04 0.  0.
        1    1    3    3  502    0 -0.15434144155E+04 -0.10160795806E+04 -0.36551000833E+03  0.18836515968E+04  0.50400001928E-02 0.  1.
       -1    1    3    3    0  502  0.15434144155E+04  0.10160795806E+04  0.50244761879E+03  0.19149410909E+04  0.50400001928E-02 0. -1.
</event>
<event>
 5   0  0.1193861E-07  0.3808189E+04  0.7818609E-02  0.8044400E-01
        2   -1    0    0  501    0  0.00000000000E+00  0.00000000000E+00  0.15282548876E+04  0.15282548876E+04  0.25500000920E-02 0.  1.
       -2   -1    0    0    0  501  0.00000000000E+00  0.00000000000E+00 -0.23723633654E+04  0.23723633654E+04  0.25500000920E-02 0. -1.
    10030    2    1    2    0    0  0.00000000000E+00  0.00000000000E+00 -0.84410847779E+03  0.39006182530E+04  0.38081890228E+04 0.  0.
        3    1    3    3  502    0 -0.18561990633E+04  0.39146486877E+03 -0.25419812326E+03  0.19139844310E+04  0.10100000352E+00 0.  1.
       -3    1    3    3    0  502  0.18561990633E+04 -0.39146486877E+03 -0.58991035453E+03  0.19866338220E+04  0.10100000352E+00 0. -1.
</event>
<event>
 5   0  0.7858367E-08  0.3769540E+04  0.7818609E-02  0.8052723E-01
       -2   -1    0    0    0  501  0.00000000000E+00  0.00000000000E+00  0.20202524518E+04  0.20202524518E+04  0.25500000920E-02 0. -1.
        2   -1    0    0  501    0  0.00000000000E+00  0.00000000000E+00 -0.17583730278E+04  0.17583730278E+04  0.25500000920E-02 0.  1.
    10030    2    1    2    0    0  0.00000000000E+00  0.00000000000E+00  0.26187942396E+03  0.37786254796E+04  0.37695397175E+04 0.  0.
        2    1    3    3  502    0  0.27513951371E+03  0.27690891273E+03 -0.17174073544E+04  0.17612121732E+04  0.25500000920E-02 0.  1.
       -2    1    3    3    0  502 -0.27513951371E+03 -0.27690891273E+03  0.19792867783E+04  0.20174133064E+04  0.25500000920E-02 0. -1.
</event>
<event>
 5   0  0.3701250E-08  0.3743703E+04  0.7818609E-02  0.8058345E-01
        1   -1    0    0  501    0  0.00000000000E+00  0.00000000000E+00  0.25165155251E+04  0.25165155251E+04  0.50400001928E-02 0. -1.
       -1   -1    0    0    0  501  0.00000000000E+00  0.00000000000E+00 -0.13923330714E+04  0.13923330714E+04  0.50400001928E-02 0.  1.
    10030    2    1    2    0    0  0.00000000000E+00  0.00000000000E+00  0.11241824537E+04  0.39088485966E+04  0.37437028677E+04 0.  0.
        1    1    3    3  502    0 -0.99083783910E+03  0.15836855927E+04  0.68566811468E+03  0.19899649353E+04  0.50400001928E-02 0. -1.
       -1    1    3    3    0  502  0.99083783910E+03 -0.15836855927E+04  0.43851433905E+03  0.19188836613E+04  0.50400001928E-02 0.  1.
</event>
<event>
 5   0  0.7858367E-08  0.3803795E+04  0.7818609E-02  0.8045341E-01
        2   -1    0    0  501    0  0.00000000000E+00  0.00000000000E+00  0.20482928187E+04  0.20482928187E+04  0.25500000920E-02 0. -1.
       -2   -1    0    0    0  501  0.00000000000E+00  0.00000000000E+00 -0.17659649193E+04  0.17659649193E+04  0.25500000920E-02 0.  1.
    10030    2    1    2    0    0  0.00000000000E+00  0.00000000000E+00  0.28232789942E+03  0.38142577379E+04  0.38037945592E+04 0.  0.
        2    1    3    3  502    0 -0.52062290893E+03  0.80090147507E+03  0.17902916626E+04  0.20291958070E+04  0.25500000920E-02 0. -1.
       -2    1    3    3    0  502  0.52062290893E+03 -0.80090147507E+03 -0.15079637632E+04  0.17850619309E+04  0.25500000920E-02 0.  1.
</event>
<event>
 5   0  0.3701250E-08  0.3798143E+04  0.7818609E-02  0.8046554E-01
        1   -1    0    0  501    0  0.00000000000E+00  0.00000000000E+00  0.20104787366E+04  0.20104787366E+04  0.50400001928E-02 0.  1.
       -1   -1    0    0    0  501  0.00000000000E+00  0.00000000000E+00 -0.17938376273E+04  0.17938376274E+04  0.50400001928E-02 0. -1.
    10030    2    1    2    0    0  0.00000000000E+00  0.00000000000E+00  0.21664110926E+03  0.38043163640E+04  0.37981429182E+04 0.  0.
        1    1    3    3  502    0  0.97729743563E+03 -0.16176986660E+04 -0.77488797067E+02  0.18915770578E+04  0.50400001928E-02 0.  1.
       -1    1    3    3    0  502 -0.97729743563E+03  0.16176986660E+04  0.29412990633E+03  0.19127393062E+04  0.50400001928E-02 0. -1.
</event>
<event>
 5   0  0.3889225E-08  0.3795155E+04  0.7818609E-02  0.8047195E-01
        1   -1    0    0  501    0  0.00000000000E+00  0.00000000000E+00  0.16511634918E+04  0.16511634918E+04  0.50400001928E-02 0. -1.
       -1   -1    0    0    0  501  0.00000000000E+00  0.00000000000E+00 -0.21807655899E+04  0.21807655899E+04  0.50400001928E-02 0.  1.
    10030    2    1    2    0    0  0.00000000000E+00  0.00000000000E+00 -0.52960209812E+03  0.38319290817E+04  0.37951550831E+04 0.  0.
        5    1    3    3  502    0 -0.86820634105E+02 -0.14436621934E+04  0.97554846111E+03  0.17445386901E+04  0.46999998093E+01 0. -1.
       -5    1    3    3    0  502  0.86820634105E+02  0.14436621934E+04 -0.15051505592E+04  0.20873903916E+04  0.46999998093E+01 0.  1.
</event>
<event>
 5   0  0.7858367E-08  0.3813862E+04  0.7818609E-02  0.8043187E-01
        2   -1    0    0  501    0  0.00000000000E+00  0.00000000000E+00  0.23201035230E+04  0.23201035230E+04  0.25500000920E-02 0. -1.
       -2   -1    0    0    0  501  0.00000000000E+00  0.00000000000E+00 -0.15673377822E+04  0.15673377822E+04  0.25500000920E-02 0.  1.
    10030    2    1    2    0    0  0.00000000000E+00  0.00000000000E+00  0.75276574080E+03  0.38874413053E+04  0.38138620376E+04 0.  0.
        2    1    3    3  502    0 -0.16562244041E+04 -0.67948921459E+03  0.10460208968E+04  0.20733896368E+04  0.25500000920E-02 0. -1.
       -2    1    3    3    0  502  0.16562244041E+04  0.67948921459E+03 -0.29325515596E+03  0.18140516685E+04  0.25500000920E-02 0.  1.
</event>
<event>
 5   0  0.3701250E-08  0.3805078E+04  0.7818609E-02  0.8045066E-01
       -1   -1    0    0    0  501  0.00000000000E+00  0.00000000000E+00  0.35274228945E+04  0.35274228945E+04  0.50400001928E-02 0. -1.
        1   -1    0    0  501    0  0.00000000000E+00  0.00000000000E+00 -0.10261469197E+04  0.10261469197E+04  0.50400001928E-02 0.  1.
    10030    2    1    2    0    0  0.00000000000E+00  0.00000000000E+00  0.25012759748E+04  0.45535698142E+04  0.38050777325E+04 0.  0.
        1    1    3    3  502    0  0.95539684525E+03  0.69062326595E+03  0.30376693869E+04  0.32584012846E+04  0.50400001928E-02 0. -1.
       -1    1    3    3    0  502 -0.95539684525E+03 -0.69062326595E+03 -0.53639341212E+03  0.12951685296E+04  0.50400001928E-02 0.  1.
</event>
<event>
 5   0  0.3889225E-08  0.3663721E+04  0.7818609E-02  0.8076050E-01
       -1   -1    0    0    0  501  0.00000000000E+00  0.00000000000E+00  0.26052140538E+04  0.26052140538E+04  0.50400001928E-02 0.  1.
        1   -1    0    0  501    0  0.00000000000E+00  0.00000000000E+00 -0.12880755126E+04  0.12880755127E+04  0.50400001928E-02 0. -1.
    10030    2    1    2    0    0  0.00000000000E+00  0.00000000000E+00  0.13171385411E+04  0.38932895664E+04  0.36637207469E+04 0.  0.
        5    1    3    3  502    0  0.81089319657E+03  0.70563081325E+03  0.22348303701E+04  0.24799095737E+04  0.46999998093E+01 0.  1.
       -5    1    3    3    0  502 -0.81089319657E+03 -0.70563081325E+03 -0.91769182894E+03  0.14133799927E+04  0.46999998093E+01 0. -1.
</event>
<event>
 5   0  0.3701250E-08  0.3771648E+04  0.7818609E-02  0.8052267E-01
       -1   -1    0    0    0  501  0.00000000000E+00  0.00000000000E+00  0.21057213810E+04  0.21057213810E+04  0.50400001928E-02 0.  1.
        1   -1    0    0  501    0  0.00000000000E+00  0.00000000000E+00 -0.16888905635E+04  0.16888905635E+04  0.50400001928E-02 0. -1.
    10030    2    1    2    0    0  0.00000000000E+00  0.00000000000E+00  0.41683081746E+03  0.37946119446E+04  0.37716484300E+04 0.  0.
        1    1    3    3  502    0 -0.13147935440E+04 -0.13484291589E+04  0.30590589971E+03  0.19080151150E+04  0.50400001928E-02 0.  1.
       -1    1    3    3    0  502  0.13147935440E+04  0.13484291589E+04  0.11092491775E+03  0.18865968295E+04  0.50400001928E-02 0. -1.
</event>
<event>
 5   0  0.1174870E-07  0.3801984E+04  0.7818609E-02  0.8045729E-01
       -2   -1    0    0    0  501  0.00000000000E+00  0.00000000000E+00  0.13353332555E+04  0.13353332555E+04  0.25500000920E-02 0.  1.
        2   -1    0    0  501    0  0.00000000000E+00  0.00000000000E+00 -0.27062682343E+04  0.27062682343E+04  0.25500000920E-02 0. -1.
    10030    2    1    2    0    0  0.00000000000E+00  0.00000000000E+00 -0.13709349789E+04  0.40416014898E+04  0.38019836777E+04 0.  0.
        5    1    3    3  502    0 -0.91838235191E+03 -0.72579182151E+03 -0.22777162543E+04  0.25609008840E+04  0.46999998093E+01 0. -1.
       -5    1    3    3    0  502  0.91838235191E+03  0.72579182151E+03  0.90678127544E+03  0.14807006058E+04  0.46999998093E+01 0.  1.
</event>
<event>
 5   0  0.3701250E-08  0.3850922E+04  0.7818609E-02  0.8035315E-01
       -1   -1    0    0    0  501  0.00000000000E+00  0.00000000000E+00  0.36044845891E+04  0.36044845891E+04  0.50400001928E-02 0.  1.
        1   -1    0    0  501    0  0.00000000000E+00  0.00000000000E+00 -0.10285518941E+04  0.10285518941E+04  0.50400001928E-02 0. -1.
    10030    2    1    2    0    0  0.00000000000E+00  0.00000000000E+00  0.25759326950E+04  0.46330364832E+04  0.38509216826E+04 0.  0.
        2    1    3    3  502    0 -0.12192389331E+04 -0.14455246591E+04  0.85199584742E+03  0.20741219926E+04  0.25500000920E-02 0. -1.
       -2    1    3    3    0  502  0.12192389331E+04  0.14455246591E+04  0.17239368476E+04  0.25589144907E+04  0.25500000920E-02 0.  1.
</event>
<event>
 5   0  0.3889225E-08  0.3808764E+04  0.7818609E-02  0.8044277E-01
        1   -1    0    0  501    0  0.00000000000E+00  0.00000000000E+00  0.23475192022E+04  0.23475192022E+04  0.50400001928E-02 0.  1.
       -1   -1    0    0    0  501  0.00000000000E+00  0.00000000000E+00 -0.15448951689E+04  0.15448951689E+04  0.50400001928E-02 0. -1.
    10030    2    1    2    0    0  0.00000000000E+00  0.00000000000E+00  0.80262403327E+03  0.38924143711E+04  0.38087641431E+04 0.  0.
        5    1    3    3  502    0  0.31545962231E+03 -0.75291052970E+03  0.21596400973E+04  0.23087781355E+04  0.46999998093E+01 0.  1.
       -5    1    3    3    0  502 -0.31545962231E+03  0.75291052970E+03 -0.13570160640E+04  0.15836362357E+04  0.46999998093E+01 0. -1.
</event>
<event>
 5   0  0.1143283E-07  0.3797536E+04  0.7818609E-02  0.8046684E-01
       -2   -1    0    0    0  501  0.00000000000E+00  0.00000000000E+00  0.18666865803E+04  0.18666865803E+04  0.25500000920E-02 0.  1.
        2   -1    0    0  501    0  0.00000000000E+00  0.00000000000E+00 -0.19314012479E+04  0.19314012479E+04  0.25500000920E-02 0. -1.
    10030    2    1    2    0    0  0.00000000000E+00  0.00000000000E+00 -0.64714667624E+02  0.37980878282E+04  0.37975364597E+04 0.  0.
        1    1    3    3  502    0 -0.16007896454E+04  0.88266438114E+03 -0.54594614847E+03  0.19077948253E+04  0.50400001928E-02 0. -1.
       -1    1    3    3    0  502  0.16007896454E+04 -0.88266438114E+03  0.48123148085E+03  0.18902930029E+04  0.50400001928E-02 0.  1.
</event>
<event>
 5   0  0.1174870E-07  0.3800615E+04  0.7818609E-02  0.8046023E-01
       -2   -1    0    0    0  501  0.00000000000E+00  0.00000000000E+00  0.27426519438E+04  0.27426519438E+04  0.25500000920E-02 0. -1.
        2   -1    0    0  501    0  0.00000000000E+00  0.00000000000E+00 -0.13166701198E+04  0.13166701198E+04  0.25500000920E-02 0.  1.
    10030    2    1    2    0    0  0.00000000000E+00  0.00000000000E+00  0.14259818241E+04  0.40593220636E+04  0.38006146152E+04 0.  0.
        5    1    3    3  502    0 -0.33678805982E+03  0.53314616041E+03 -0.12016490577E+04  0.13570753750E+04  0.46999998093E+01 0.  1.
       -5    1    3    3    0  502  0.33678805982E+03 -0.53314616041E+03  0.26276308817E+04  0.27022466886E+04  0.46999998093E+01 0. -1.
</event>
<event>
 5   0  0.1143283E-07  0.3797198E+04  0.7818609E-02  0.8046756E-01
        2   -1    0    0  501    0  0.00000000000E+00  0.00000000000E+00  0.20976468437E+04  0.20976468437E+04  0.25500000920E-02 0.  1.
       -2   -1    0    0    0  501  0.00000000000E+00  0.00000000000E+00 -0.17184389442E+04  0.17184389442E+04  0.25500000920E-02 0. -1.
    10030    2    1    2    0    0  0.00000000000E+00  0.00000000000E+00  0.37920789954E+03  0.38160857879E+04  0.37971979286E+04 0.  0.
        1    1    3    3  502    0  0.13990335217E+04  0.25257263748E+03  0.14542713095E+04  0.20337140344E+04  0.50400001928E-02 0.  1.
       -1    1    3    3    0  502 -0.13990335217E+04 -0.25257263748E+03 -0.10750634099E+04  0.17823717535E+04  0.50400001928E-02 0. -1.
</event>
<event>
 5   0  0.3701250E-08  0.3804110E+04  0.7818609E-02  0.8045274E-01
        1   -1    0    0  501    0  0.00000000000E+00  0.00000000000E+00  0.12875056982E+04  0.12875056982E+04  0.50400001928E-02 0.  1.
       -1   -1    0    0    0  501  0.00000000000E+00  0.00000000000E+00 -0.28099388523E+04  0.28099388523E+04  0.50400001928E-02 0. -1.
    10030    2    1    2    0    0  0.00000000000E+00  0.00000000000E+00 -0.15224331541E+04  0.40974445505E+04  0.38041095063E+04 0.  0.
        4    1    3    3  502    0 -0.12182762742E+04 -0.11776672237E+04  0.16954206378E+03  0.17028926256E+04  0.12699999809E+01 0. -1.
       -4    1    3    3    0  502  0.12182762742E+04  0.11776672237E+04 -0.16919752179E+04  0.23945519249E+04  0.12699999809E+01 0.  1.
</event>
<event>
 5   0  0.1143283E-07  0.3849535E+04  0.7818609E-02  0.8035608E-01
       -2   -1    0    0    0  501  0.00000000000E+00  0.00000000000E+00  0.13938278981E+04  0.13938278981E+04  0.25500000920E-02 0.  1.
        2   -1    0    0  501    0  0.00000000000E+00  0.00000000000E+00 -0.26579530804E+04  0.26579530804E+04  0.25500000920E-02 0. -1.
    10030    2    1    2    0    0  0.00000000000E+00  0.00000000000E+00 -0.12641251824E+04  0.40517809785E+04  0.38495345980E+04 0.  0.
        1    1    3    3  502    0  0.39638564018E+03 -0.73557745753E+03  0.11929705246E+04  0.14564938875E+04  0.50400001928E-02 0.  1.
       -1    1    3    3    0  502 -0.39638564018E+03  0.73557745753E+03 -0.24570957069E+04  0.25952870910E+04  0.50400001928E-02 0. -1.
</event>
<event>
 5   0  0.3701250E-08  0.3755454E+04  0.7818609E-02  0.8055783E-01
        1   -1    0    0  501    0  0.00000000000E+00  0.00000000000E+00  0.19639864717E+04  0.19639864717E+04  0.50400001928E-02 0. -1.
       -1   -1    0    0    0  501  0.00000000000E+00  0.00000000000E+00 -0.17952556480E+04  0.17952556480E+04  0.50400001928E-02 0.  1.
    10030    2    1    2    0    0  0.00000000000E+00  0.00000000000E+00  0.16873082372E+03  0.37592421197E+04  0.37554535310E+04 0.  0.
        1    1    3    3  502    0  0.25249916932E+03 -0.16864648306E+04 -0.70251816295E+03  0.18443023680E+04  0.50400001928E-02 0.  1.
       -1    1    3    3    0  502 -0.25249916932E+03  0.16864648306E+04  0.87124898667E+03  0.19149397516E+04  0.50400001928E-02 0. -1.
</event>
<event>
 5   0  0.1150235E-07  0.3826530E+04  0.7818609E-02  0.8040486E-01
       -2   -1    0    0    0  501  0.00000000000E+00  0.00000000000E+00  0.18975283267E+04  0.18975283267E+04  0.25500000920E-02 0. -1.
        2   -1    0    0  501    0  0.00000000000E+00  0.00000000000E+00 -0.19291318132E+04  0.19291318132E+04  0.25500000920E-02 0.  1.
    10030    2    1    2    0    0  0.00000000000E+00  0.00000000000E+00 -0.31603486495E+02  0.38266601400E+04  0.38265296349E+04 0.  0.
        4    1    3    3  502    0  0.17742731528E+04  0.71162138471E+03  0.62498007953E+02  0.19126834108E+04  0.12699999809E+01 0.  1.
       -4    1    3    3    0  502 -0.17742731528E+04 -0.71162138471E+03 -0.94101494449E+02  0.19139767292E+04  0.12699999809E+01 0. -1.
</event>
<event>
 5   0  0.3701250E-08  0.3812438E+04  0.7818609E-02  0.8043491E-01
        3   -1    0    0  501    0  0.00000000000E+00  0.00000000000E+00  0.15273474301E+04  0.15273474335E+04  0.10100000352E+00 0. -1.
       -3   -1    0    0    0  501  0.00000000000E+00  0.00000000000E+00 -0.23790728483E+04  0.23790728504E+04  0.10100000352E+00 0.  1.
    10030    2    1    2    0    0  0.00000000000E+00  0.00000000000E+00 -0.85172541813E+03  0.39064202839E+04  0.38124379663E+04 0.  0.
        2    1    3    3  502    0  0.10512855767E+04 -0.12099355607E+04 -0.14830554975E+04  0.21837122140E+04  0.25500000920E-02 0.  1.
       -2    1    3    3    0  502 -0.10512855767E+04  0.12099355607E+04  0.63133007942E+03  0.17227080699E+04  0.25500000920E-02 0. -1.
</event>
<event>
 5   0  0.7858367E-08  0.3815452E+04  0.7818609E-02  0.8042847E-01
       -2   -1    0    0    0  501  0.00000000000E+00  0.00000000000E+00  0.23199653193E+04  0.23199653193E+04  0.25500000920E-02 0.  1.
        2   -1    0    0  501    0  0.00000000000E+00  0.00000000000E+00 -0.15687387096E+04  0.15687387096E+04  0.25500000920E-02 0. -1.
    10030    2    1    2    0    0  0.00000000000E+00  0.00000000000E+00  0.75122660969E+03  0.38887040289E+04  0.38154524771E+04 0.  0.
        2    1    3    3  502    0 -0.33557832902E+03 -0.85560562646E+03 -0.13282312938E+04  0.16152003506E+04  0.25500000920E-02 0. -1.
       -2    1    3    3    0  502  0.33557832902E+03  0.85560562646E+03  0.20794579034E+04  0.22735036783E+04  0.25500000920E-02 0.  1.
</event>
<event>
 5   0  0.1193861E-07  0.3816859E+04  0.7818609E-02  0.8042547E-01
       -2   -1    0    0    0  501  0.00000000000E+00  0.00000000000E+00  0.20904888714E+04  0.20904888714E+04  0.25500000920E-02 0.  1.
        2   -1    0    0  501    0  0.00000000000E+00  0.00000000000E+00 -0.17422252670E+04  0.17422252670E+04  0.25500000920E-02 0. -1.
    10030    2    1    2    0    0  0.00000000000E+00  0.00000000000E+00  0.34826360438E+03  0.38327141384E+04  0.38168586729E+04 0.  0.
        3    1    3    3  502    0  0.83492034254E+03  0.49580300877E+03 -0.14756141478E+04  0.17664511670E+04  0.10100000352E+00 0. -1.
       -3    1    3    3    0  502 -0.83492034254E+03 -0.49580300877E+03  0.18238777522E+04  0.20662629714E+04  0.10100000352E+00 0.  1.
</event>
<event>
 5   0  0.7858367E-08  0.3799769E+04  0.7818609E-02  0.8046204E-01
        2   -1    0    0  501    0  0.00000000000E+00  0.00000000000E+00  0.21445544049E+04  0.21445544049E+04  0.25500000920E-02 0.  1.
       -2   -1    0    0    0  501  0.00000000000E+00  0.00000000000E+00 -0.16831287828E+04  0.16831287828E+04  0.25500000920E-02 0. -1.
    10030    2    1    2    0    0  0.00000000000E+00  0.00000000000E+00  0.46142562202E+03  0.38276831877E+04  0.37997690694E+04 0.  0.
        2    1    3    3  502    0 -0.11918953089E+04 -0.12385370499E+04  0.10459620681E+04  0.20121195539E+04  0.25500000920E-02 0.  1.
       -2    1    3    3    0  502  0.11918953089E+04  0.12385370499E+04 -0.58453644607E+03  0.18155636338E+04  0.25500000920E-02 0. -1.
</event>
<event>
 5   0  0.1193861E-07  0.3794907E+04  0.7818609E-02  0.8047249E-01
        2   -1    0    0  501    0  0.00000000000E+00  0.00000000000E+00  0.30774655690E+04  0.30774655690E+04  0.25500000920E-02 0.  1.
       -2   -1    0    0    0  501  0.00000000000E+00  0.00000000000E+00 -0.11699011955E+04  0.11699011955E+04  0.25500000920E-02 0. -1.
    10030    2    1    2    0    0  0.00000000000E+00  0.00000000000E+00  0.19075643734E+04  0.42473667645E+04  0.37949074552E+04 0.  0.
        3    1    3    3  502    0  0.24819380515E+01 -0.73410747435E+02 -0.11683093665E+04  0.11706161129E+04  0.10100000352E+00 0. -1.
       -3    1    3    3    0  502 -0.24819380515E+01  0.73410747435E+02  0.30758737399E+04  0.30767506516E+04  0.10100000352E+00 0.  1.
</event>
<event>
 5   0  0.1193861E-07  0.3743402E+04  0.7818609E-02  0.8058411E-01
       -2   -1    0    0    0  501  0.00000000000E+00  0.00000000000E+00  0.13642670312E+04  0.13642670312E+04  0.25500000920E-02 0. -1.
        2   -1    0    0  501    0  0.00000000000E+00  0.00000000000E+00 -0.25678725754E+04  0.25678725754E+04  0.25500000920E-02 0.  1.
    10030    2    1    2    0    0  0.00000000000E+00  0.00000000000E+00 -0.12036055442E+04  0.39321396067E+04  0.37434016055E+04 0.  0.
        3    1    3    3  502    0 -0.12706670266E+04 -0.77542248958E+03 -0.17936413246E+04  0.23308847980E+04  0.10100000352E+00 0.  1.
       -3    1    3    3    0  502  0.12706670266E+04  0.77542248958E+03  0.59003578041E+03  0.16012548087E+04  0.10100000352E+00 0. -1.
</event>
<event>
 5   0  0.7858367E-08  0.3902725E+04  0.7818609E-02  0.8024463E-01
       -2   -1    0    0    0  501  0.00000000000E+00  0.00000000000E+00  0.35260560491E+04  0.35260560491E+04  0.25500000920E-02 0. -1.
        2   -1    0    0  501    0  0.00000000000E+00  0.00000000000E+00 -0.10799078042E+04  0.10799078042E+04  0.25500000920E-02 0.  1.
    10030    2    1    2    0    0  0.00000000000E+00  0.00000000000E+00  0.24461482449E+04  0.46059638533E+04  0.39027249176E+04 0.  0.
        2    1    3    3  502    0 -0.22683552719E+03  0.37360126522E+03  0.34675442083E+04  0.34949814160E+04  0.25500000920E-02 0. -1.
       -2    1    3    3    0  502  0.22683552719E+03 -0.37360126522E+03 -0.10213959634E+04  0.11109824373E+04  0.25500000920E-02 0.  1.
</event>
<event>
 5   0  0.3889225E-08  0.3794119E+04  0.7818609E-02  0.8047418E-01
        1   -1    0    0  501    0  0.00000000000E+00  0.00000000000E+00  0.23271304694E+04  0.23271304694E+04  0.50400001928E-02 0. -1.
       -1   -1    0    0    0  501  0.00000000000E+00  0.00000000000E+00 -0.15464687601E+04  0.15464687601E+04  0.50400001928E-02 0.  1.
    10030    2    1    2    0    0  0.00000000000E+00  0.00000000000E+00  0.78066170931E+03  0.38735992295E+04  0.37941189078E+04 0.  0.
        5    1    3    3  502    0  0.41363958476E+03  0.16997171240E+04 -0.35898988386E+03  0.17857860550E+04  0.46999998093E+01 0.  1.
       -5    1    3    3    0  502 -0.41363958476E+03 -0.16997171240E+04  0.11396515932E+04  0.20878131744E+04  0.46999998093E+01 0. -1.
</event>
<event>
 5   0  0.1174870E-07  0.3816093E+04  0.7818609E-02  0.8042710E-01
        2   -1    0    0  501    0  0.00000000000E+00  0.00000000000E+00  0.26980997314E+04  0.26980997314E+04  0.25500000920E-02 0. -1.
       -2   -1    0    0    0  501  0.00000000000E+00  0.00000000000E+00 -0.13493353077E+04  0.13493353077E+04  0.25500000920E-02 0.  1.
    10030    2    1    2    0    0  0.00000000000E+00  0.00000000000E+00  0.13487644237E+04  0.40474350391E+04  0.38160928874E+04 0.  0.
        5    1    3    3  502    0 -0.58040507916E+03  0.14030559769E+04  0.18999330989E+04  0.24321192406E+04  0.46999998093E+01 0. -1.
       -5    1    3    3    0  502  0.58040507916E+03 -0.14030559769E+04 -0.55116867522E+03  0.16153157985E+04  0.46999998093E+01 0.  1.
</event>
<event>
 5   0  0.1193861E-07  0.3821076E+04  0.7818609E-02  0.8041647E-01
       -2   -1    0    0    0  501  0.00000000000E+00  0.00000000000E+00  0.14911065965E+04  0.14911065965E+04  0.25500000920E-02 0. -1.
        2   -1    0    0  501    0  0.00000000000E+00  0.00000000000E+00 -0.24479503186E+04  0.24479503186E+04  0.25500000920E-02 0.  1.
    10030    2    1    2    0    0  0.00000000000E+00  0.00000000000E+00 -0.95684372207E+03  0.39390569151E+04  0.38210756956E+04 0.  0.
        3    1    3    3  502    0 -0.14255309716E+04 -0.84912857416E+03  0.49792043360E+03  0.17323633149E+04  0.10100000352E+00 0. -1.
       -3    1    3    3    0  502  0.14255309716E+04  0.84912857416E+03 -0.14547641557E+04  0.22066936002E+04  0.10100000352E+00 0.  1.
</event>
<event>
 5   0  0.3701250E-08  0.3802194E+04  0.7818609E-02  0.8045684E-01
       -1   -1    0    0    0  501  0.00000000000E+00  0.00000000000E+00  0.12723932964E+04  0.12723932965E+04  0.50400001928E-02 0. -1.
        1   -1    0    0  501    0  0.00000000000E+00  0.00000000000E+00 -0.28404497197E+04  0.28404497197E+04  0.50400001928E-02 0.  1.
    10030    2    1    2    0    0  0.00000000000E+00  0.00000000000E+00 -0.15680564233E+04  0.41128430162E+04  0.38021936733E+04 0.  0.
        4    1    3    3  502    0  0.58192376212E+03 -0.10646776230E+04  0.79910335834E+03  0.14528391157E+04  0.12699999809E+01 0. -1.
       -4    1    3    3    0  502 -0.58192376212E+03  0.10646776230E+04 -0.23671597816E+04  0.26600039005E+04  0.12699999809E+01 0.  1.
</event>
<event>
 5   0  0.1143283E-07  0.3809284E+04  0.7818609E-02  0.8044165E-01
        2   -1    0    0  501    0  0.00000000000E+00  0.00000000000E+00  0.24415262591E+04  0.24415262591E+04  0.25500000920E-02 0.  1.
       -2   -1    0    0    0  501  0.00000000000E+00  0.00000000000E+00 -0.14858173168E+04  0.14858173168E+04  0.25500000920E-02 0. -1.
    10030    2    1    2    0    0  0.00000000000E+00  0.00000000000E+00  0.95570894226E+03  0.39273435759E+04  0.38092844447E+04 0.  0.
        1    1    3    3  502    0 -0.63237205378E+03 -0.16928279196E+04 -0.14254366505E+03  0.18126994997E+04  0.50400001928E-02 0. -1.
       -1    1    3    3    0  502  0.63237205378E+03  0.16928279196E+04  0.10982526073E+04  0.21146440762E+04  0.50400001928E-02 0.  1.
</event>
<event>
 5   0  0.7858367E-08  0.3802409E+04  0.7818609E-02  0.8045638E-01
       -2   -1    0    0    0  501  0.00000000000E+00  0.00000000000E+00  0.20713686444E+04  0.20713686444E+04  0.25500000920E-02 0. -1.
        2   -1    0    0  501    0  0.00000000000E+00  0.00000000000E+00 -0.17450196499E+04  0.17450196499E+04  0.25500000920E-02 0.  1.
    10030    2    1    2    0    0  0.00000000000E+00  0.00000000000E+00  0.32634899447E+03  0.38163882943E+04  0.38024092293E+04 0.  0.
        2    1    3    3  502    0  0.17796391447E+04 -0.60352684655E+03 -0.12636282027E+03  0.18834350804E+04  0.25500000920E-02 0.  1.
       -2    1    3    3    0  502 -0.17796391447E+04  0.60352684655E+03  0.45271181474E+03  0.19329532139E+04  0.25500000920E-02 0. -1.
</event>
<event>
 5   0  0.3701250E-08  0.3764896E+04  0.7818609E-02  0.8053730E-01
       -1   -1    0    0    0  501  0.00000000000E+00  0.00000000000E+00  0.15436753752E+04  0.15436753752E+04  0.50400001928E-02 0. -1.
        1   -1    0    0  501    0  0.00000000000E+00  0.00000000000E+00 -0.22955670922E+04  0.22955670922E+04  0.50400001928E-02 0.  1.
    10030    2    1    2    0    0  0.00000000000E+00  0.00000000000E+00 -0.75189171706E+03  0.38392424674E+04  0.37648959573E+04 0.  0.
        2    1    3    3  502    0  0.15546629379E+03 -0.14500879922E+04 -0.15896959535E+04  0.21573266276E+04  0.25500000920E-02 0.  1.
       -2    1    3    3    0  502 -0.15546629379E+03  0.14500879922E+04  0.83780423648E+03  0.16819158398E+04  0.25500000920E-02 0. -1.
</event>
<event>
 5   0  0.1174870E-07  0.3696037E+04  0.7818609E-02  0.8068841E-01
        2   -1    0    0  501    0  0.00000000000E+00  0.00000000000E+00  0.22981556316E+04  0.22981556316E+04  0.25500000920E-02 0. -1.
       -2   -1    0    0    0  501  0.00000000000E+00  0.00000000000E+00 -0.14860489269E+04  0.14860489269E+04  0.25500000920E-02 0.  1.
    10030    2    1    2    0    0  0.00000000000E+00  0.00000000000E+00  0.81210670469E+03  0.37842045585E+04  0.36960366395E+04 0.  0.
        5    1    3    3  502    0  0.88710874498E+03  0.11733875974E+04  0.15513753550E+04  0.21378933465E+04  0.46999998093E+01 0. -1.
       -5    1    3    3    0  502 -0.88710874498E+03 -0.11733875974E+04 -0.73926865028E+03  0.16463112119E+04  0.46999998093E+01 0.  1.
</event>
<event>
 5   0  0.3701250E-08  0.3815148E+04  0.7818609E-02  0.8042912E-01
        1   -1    0    0  501    0  0.00000000000E+00  0.00000000000E+00  0.14520111978E+04  0.14520111978E+04  0.50400001928E-02 0. -1.
       -1   -1    0    0    0  501  0.00000000000E+00  0.00000000000E+00 -0.25060676881E+04  0.25060676881E+04  0.50400001928E-02 0.  1.
    10030    2    1    2    0    0  0.00000000000E+00  0.00000000000E+00 -0.10540564904E+04  0.39580788859E+04  0.38151478847E+04 0.  0.
        3    1    3    3  502    0  0.15406625176E+04 -0.33949120918E+03 -0.16395569805E+04  0.22753114901E+04  0.10100000352E+00 0.  1.
       -3    1    3    3    0  502 -0.15406625176E+04  0.33949120918E+03  0.58550049014E+03  0.16827673958E+04  0.10100000352E+00 0. -1.
</event>
<event>
 5   0  0.3701250E-08  0.3809079E+04  0.7818609E-02  0.8044209E-01
       -1   -1    0    0    0  501  0.00000000000E+00  0.00000000000E+00  0.15320252165E+04  0.15320252165E+04  0.50400001928E-02 0. -1.
        1   -1    0    0  501    0  0.00000000000E+00  0.00000000000E+00 -0.23676314636E+04  0.23676314636E+04  0.50400001928E-02 0.  1.
    10030    2    1    2    0    0  0.00000000000E+00  0.00000000000E+00 -0.83560624717E+03  0.38996566801E+04  0.38090792093E+04 0.  0.
        3    1    3    3  502    0 -0.55908595504E+03  0.97764174634E+03 -0.19901997804E+04  0.22867565820E+04  0.10100000352E+00 0.  1.
       -3    1    3    3    0  502  0.55908595504E+03 -0.97764174634E+03  0.11545935332E+04  0.16129000981E+04  0.10100000352E+00 0. -1.
</event>
<event>
 5   0  0.3701250E-08  0.3821833E+04  0.7818609E-02  0.8041486E-01
        1   -1    0    0  501    0  0.00000000000E+00  0.00000000000E+00  0.21928699040E+04  0.21928699040E+04  0.50400001928E-02 0. -1.
       -1   -1    0    0    0  501  0.00000000000E+00  0.00000000000E+00 -0.16652160512E+04  0.16652160513E+04  0.50400001928E-02 0.  1.
    10030    2    1    2    0    0  0.00000000000E+00  0.00000000000E+00  0.52765385274E+03  0.38580859552E+04  0.38218331530E+04 0.  0.
        2    1    3    3  502    0 -0.16215974185E+04 -0.99174571625E+03  0.65843102847E+02  0.19019655801E+04  0.25500000920E-02 0. -1.
       -2    1    3    3    0  502  0.16215974185E+04  0.99174571625E+03  0.46181074989E+03  0.19561203752E+04  0.25500000920E-02 0.  1.
</event>
<event>
 5   0  0.7858367E-08  0.3795782E+04  0.7818609E-02  0.8047061E-01
        2   -1    0    0  501    0  0.00000000000E+00  0.00000000000E+00  0.18141661781E+04  0.18141661781E+04  0.25500000920E-02 0.  1.
       -2   -1    0    0    0  501  0.00000000000E+00  0.00000000000E+00 -0.19854802803E+04  0.19854802803E+04  0.25500000920E-02 0. -1.
    10030    2    1    2    0    0  0.00000000000E+00  0.00000000000E+00 -0.17131410215E+03  0.37996464584E+04  0.37957824868E+04 0.  0.
        2    1    3    3  502    0  0.38655370931E+03 -0.15446466279E+04 -0.11194882236E+04  0.19464354235E+04  0.25500000920E-02 0. -1.
       -2    1    3    3    0  502 -0.38655370931E+03  0.15446466279E+04  0.94817412147E+03  0.18532110349E+04  0.25500000920E-02 0.  1.
</event>
<event>
 5   0  0.7858367E-08  0.3798869E+04  0.7818609E-02  0.8046398E-01
       -2   -1    0    0    0  501  0.00000000000E+00  0.00000000000E+00  0.19239163405E+04  0.19239163405E+04  0.25500000920E-02 0.  1.
        2   -1    0    0  501    0  0.00000000000E+00  0.00000000000E+00 -0.18752640196E+04  0.18752640196E+04  0.25500000920E-02 0. -1.
    10030    2    1    2    0    0  0.00000000000E+00  0.00000000000E+00  0.48652320892E+02  0.37991803601E+04  0.37988688264E+04 0.  0.
        2    1    3    3  502    0  0.48811273997E+03 -0.32518200487E+03  0.18310881941E+04  0.19227275828E+04  0.25500000920E-02 0.  1.
       -2    1    3    3    0  502 -0.48811273997E+03  0.32518200487E+03 -0.17824358732E+04  0.18764527773E+04  0.25500000920E-02 0. -1.
</event>
<event>
 5   0  0.7858367E-08  0.3806587E+04  0.7818609E-02  0.8044743E-01
        2   -1    0    0  501    0  0.00000000000E+00  0.00000000000E+00  0.26153376089E+04  0.26153376089E+04  0.25500000920E-02 0. -1.
       -2   -1    0    0    0  501  0.00000000000E+00  0.00000000000E+00 -0.13851081157E+04  0.13851081157E+04  0.25500000920E-02 0.  1.
    10030    2    1    2    0    0  0.00000000000E+00  0.00000000000E+00  0.12302294932E+04  0.40004457246E+04  0.38065865798E+04 0.  0.
        2    1    3    3  502    0  0.76778674628E+03 -0.13668514662E+04  0.17493111636E+04  0.23490144669E+04  0.25500000920E-02 0. -1.
       -2    1    3    3    0  502 -0.76778674628E+03  0.13668514662E+04 -0.51908167044E+03  0.16514312577E+04  0.25500000920E-02 0.  1.
</event>
<event>
 5   0  0.1143283E-07  0.3811951E+04  0.7818609E-02  0.8043595E-01
       -2   -1    0    0    0  501  0.00000000000E+00  0.00000000000E+00  0.18423242194E+04  0.18423242194E+04  0.25500000920E-02 0.  1.
        2   -1    0    0  501    0  0.00000000000E+00  0.00000000000E+00 -0.19718258979E+04  0.19718258979E+04  0.25500000920E-02 0. -1.
    10030    2    1    2    0    0  0.00000000000E+00  0.00000000000E+00 -0.12950167853E+03  0.38141501173E+04  0.38119510008E+04 0.  0.
        1    1    3    3  502    0 -0.88435447968E+03 -0.14365706178E+04  0.82284864173E+03  0.18769384308E+04  0.50400001928E-02 0.  1.
       -1    1    3    3    0  502  0.88435447968E+03  0.14365706178E+04 -0.95235032026E+03  0.19372116865E+04  0.50400001928E-02 0. -1.
</event>
<event>
 5   0  0.1143283E-07  0.3729967E+04  0.7818609E-02  0.8061353E-01
        2   -1    0    0  501    0  0.00000000000E+00  0.00000000000E+00  0.10269277311E+04  0.10269277311E+04  0.25500000920E-02 0.  1.
       -2   -1    0    0    0  501  0.00000000000E+00  0.00000000000E+00 -0.33869595357E+04  0.33869595357E+04  0.25500000920E-02 0. -1.
    10030    2    1    2    0    0  0.00000000000E+00  0.00000000000E+00 -0.23600318046E+04  0.44138872668E+04  0.37299665797E+04 0.  0.
        1    1    3    3  502    0 -0.56751142696E+03 -0.75848053253E+03 -0.30810658738E+04  0.32234033034E+04  0.50400001928E-02 0. -1.
       -1    1    3    3    0  502  0.56751142696E+03  0.75848053253E+03  0.72103406923E+03  0.11904839633E+04  0.50400001928E-02 0.  1.
</event>
<event>
 5   0  0.3701250E-08  0.3798725E+04  0.7818609E-02  0.8046429E-01
       -1   -1    0    0    0  501  0.00000000000E+00  0.00000000000E+00  0.22247898690E+04  0.22247898690E+04  0.50400001928E-02 0.  1.
        1   -1    0    0  501    0  0.00000000000E+00  0.00000000000E+00 -0.16215363085E+04  0.16215363086E+04  0.50400001928E-02 0. -1.
    10030    2    1    2    0    0  0.00000000000E+00  0.00000000000E+00  0.60325356049E+03  0.38463261776E+04  0.37987248132E+04 0.  0.
        1    1    3    3  502    0 -0.31447985535E+03 -0.16157417122E+04 -0.65790781463E+03  0.17726707400E+04  0.50400001928E-02 0. -1.
       -1    1    3    3    0  502  0.31447985535E+03  0.16157417122E+04  0.12611613751E+04  0.20736554376E+04  0.50400001928E-02 0.  1.
</event>
<event>
 5   0  0.7858367E-08  0.3799632E+04  0.7818609E-02  0.8046234E-01
       -2   -1    0    0    0  501  0.00000000000E+00  0.00000000000E+00  0.12178731575E+04  0.12178731575E+04  0.25500000920E-02 0. -1.
        2   -1    0    0  501    0  0.00000000000E+00  0.00000000000E+00 -0.29636094513E+04  0.29636094513E+04  0.25500000920E-02 0.  1.
    10030    2    1    2    0    0  0.00000000000E+00  0.00000000000E+00 -0.17457362938E+04  0.41814826088E+04  0.37996317717E+04 0.  0.
        2    1    3    3  502    0 -0.15625089856E+04  0.21475662154E+03  0.29269547425E+03  0.16041276063E+04  0.25500000920E-02 0. -1.
       -2    1    3    3    0  502  0.15625089856E+04 -0.21475662154E+03 -0.20384317680E+04  0.25773550026E+04  0.25500000920E-02 0.  1.
</event>
<event>
 5   0  0.3701250E-08  0.3792377E+04  0.7818609E-02  0.8047793E-01
       -1   -1    0    0    0  501  0.00000000000E+00  0.00000000000E+00  0.15146848914E+04  0.15146848914E+04  0.50400001928E-02 0.  1.
        1   -1    0    0  501    0  0.00000000000E+00  0.00000000000E+00 -0.23737813278E+04  0.23737813278E+04  0.50400001928E-02 0. -1.
    10030    2    1    2    0    0  0.00000000000E+00  0.00000000000E+00 -0.85909643644E+03  0.38884662192E+04  0.37923769394E+04 0.  0.
        2    1    3    3  502    0  0.14334762420E+04  0.51808933942E+03  0.72697610787E+03  0.16887169572E+04  0.25500000920E-02 0.  1.
       -2    1    3    3    0  502 -0.14334762420E+04 -0.51808933942E+03 -0.15860725443E+04  0.21997492620E+04  0.25500000920E-02 0. -1.
</event>
<event>
 5   0  0.7858367E-08  0.3831478E+04  0.7818609E-02  0.8039433E-01
        2   -1    0    0  501    0  0.00000000000E+00  0.00000000000E+00  0.23923188262E+04  0.23923188262E+04  0.25500000920E-02 0.  1.
       -2   -1    0    0    0  501  0.00000000000E+00  0.00000000000E+00 -0.15340999473E+04  0.15340999473E+04  0.25500000920E-02 0. -1.
    10030    2    1    2    0    0  0.00000000000E+00  0.00000000000E+00  0.85821887894E+03  0.39264187735E+04  0.38314781404E+04 0.  0.
        2    1    3    3  502    0  0.47194813688E+03  0.26021575598E+03 -0.14548150346E+04  0.15514296853E+04  0.25500000920E-02 0. -1.
       -2    1    3    3    0  502 -0.47194813688E+03 -0.26021575598E+03  0.23130339136E+04  0.23749890882E+04  0.25500000920E-02 0.  1.
</event>
<event>
 5   0  0.1150235E-07  0.3822494E+04  0.7818609E-02  0.8041345E-01
        2   -1    0    0  501    0  0.00000000000E+00  0.00000000000E+00  0.29045858449E+04  0.29045858449E+04  0.25500000920E-02 0.  1.
       -2   -1    0    0    0  501  0.00000000000E+00  0.00000000000E+00 -0.12576198091E+04  0.12576198091E+04  0.25500000920E-02 0. -1.
    10030    2    1    2    0    0  0.00000000000E+00  0.00000000000E+00  0.16469660358E+04  0.41622056541E+04  0.38224937912E+04 0.  0.
        4    1    3    3  502    0  0.73382875687E+03  0.38040537148E+03  0.26999001678E+04  0.28235926442E+04  0.12699999809E+01 0.  1.
       -4    1    3    3    0  502 -0.73382875687E+03 -0.38040537148E+03 -0.10529341320E+04  0.13386130099E+04  0.12699999809E+01 0. -1.
</event>
<event>
 5   0  0.3701250E-08  0.3805616E+04  0.7818609E-02  0.8044951E-01
        1   -1    0    0  501    0  0.00000000000E+00  0.00000000000E+00  0.20100818661E+04  0.20100818661E+04  0.50400001928E-02 0.  1.
       -1   -1    0    0    0  501  0.00000000000E+00  0.00000000000E+00 -0.18012587856E+04  0.18012587856E+04  0.50400001928E-02 0. -1.
    10030    2    1    2    0    0  0.00000000000E+00  0.00000000000E+00  0.20882308051E+03  0.38113406517E+04  0.38056156511E+04 0.  0.
        4    1    3    3  502    0  0.12606613541E+03  0.51648928935E+03  0.19341855298E+04  0.20059235113E+04  0.12699999809E+01 0.  1.
       -4    1    3    3    0  502 -0.12606613541E+03 -0.51648928935E+03 -0.17253624493E+04  0.18054171404E+04  0.12699999809E+01 0. -1.
</event>
<event>
 5   0  0.3701250E-08  0.3805372E+04  0.7818609E-02  0.8045003E-01
        1   -1    0    0  501    0  0.00000000000E+00  0.00000000000E+00  0.20822039368E+04  0.20822039368E+04  0.50400001928E-02 0. -1.
       -1   -1    0    0    0  501  0.00000000000E+00  0.00000000000E+00 -0.17386455811E+04  0.17386455811E+04  0.50400001928E-02 0.  1.
    10030    2    1    2    0    0  0.00000000000E+00  0.00000000000E+00  0.34355835563E+03  0.38208495179E+04  0.38053723464E+04 0.  0.
        3    1    3    3  502    0 -0.91333341318E+02  0.18879279345E+04  0.39084307351E+03  0.19301222716E+04  0.10100000352E+00 0.  1.
       -3    1    3    3    0  502  0.91333341318E+02 -0.18879279345E+04 -0.47284717881E+02  0.18907272463E+04  0.10100000352E+00 0. -1.
</event>
<event>
 5   0  0.1193861E-07  0.3804434E+04  0.7818609E-02  0.8045204E-01
        2   -1    0    0  501    0  0.00000000000E+00  0.00000000000E+00  0.20435254336E+04  0.20435254336E+04  0.25500000920E-02 0. -1.
       -2   -1    0    0    0  501  0.00000000000E+00  0.00000000000E+00 -0.17706803168E+04  0.17706803168E+04  0.25500000920E-02 0.  1.
    10030    2    1    2    0    0  0.00000000000E+00  0.00000000000E+00  0.27284511685E+03  0.38142057504E+04  0.38044343927E+04 0.  0.
        3    1    3    3  502    0  0.67666503100E+02 -0.16314744919E+04 -0.84186152564E+03  0.18371223726E+04  0.10100000352E+00 0.  1.
       -3    1    3    3    0  502 -0.67666503100E+02  0.16314744919E+04  0.11147066425E+04  0.19770833777E+04  0.10100000352E+00 0. -1.
</event>
<event>
 5   0  0.3889225E-08  0.3577659E+04  0.7818609E-02  0.8095628E-01
        1   -1    0    0  501    0  0.00000000000E+00  0.00000000000E+00  0.22216636001E+04  0.22216636001E+04  0.50400001928E-02 0. -1.
       -1   -1    0    0    0  501  0.00000000000E+00  0.00000000000E+00 -0.14403220021E+04  0.14403220021E+04  0.50400001928E-02 0.  1.
    10030    2    1    2    0    0  0.00000000000E+00  0.00000000000E+00  0.78134159794E+03  0.36619856022E+04  0.35776589913E+04 0.  0.
        5    1    3    3  502    0  0.61679222805E+03  0.40300041213E+03  0.20591365601E+04  0.21869859276E+04  0.46999998093E+01 0. -1.
       -5    1    3    3    0  502 -0.61679222805E+03 -0.40300041213E+03 -0.12777949621E+04  0.14749996746E+04  0.46999998093E+01 0.  1.
</event>
<event>
 5   0  0.3701250E-08  0.3790360E+04  0.7818609E-02  0.8048227E-01
        1   -1    0    0  501    0  0.00000000000E+00  0.00000000000E+00  0.18674722653E+04  0.18674722653E+04  0.50400001928E-02 0.  1.
       -1   -1    0    0    0  501  0.00000000000E+00  0.00000000000E+00 -0.19232988451E+04  0.19232988451E+04  0.50400001928E-02 0. -1.
    10030    2    1    2    0    0  0.00000000000E+00  0.00000000000E+00 -0.55826579848E+02  0.37907711104E+04  0.37903600099E+04 0.  0.
        4    1    3    3  502    0 -0.17473455505E+04  0.47931887385E+03  0.52779306984E+03  0.18872016832E+04  0.12699999809E+01 0.  1.
       -4    1    3    3    0  502  0.17473455505E+04 -0.47931887385E+03 -0.58361964968E+03  0.19035694272E+04  0.12699999809E+01 0. -1.
</event>
<event>
 5   0  0.7858367E-08  0.3806739E+04  0.7818609E-02  0.8044710E-01
        2   -1    0    0  501    0  0.00000000000E+00  0.00000000000E+00  0.13119662464E+04  0.13119662464E+04  0.25500000920E-02 0. -1.
       -2   -1    0    0    0  501  0.00000000000E+00  0.00000000000E+00 -0.27613635931E+04  0.27613635931E+04  0.25500000920E-02 0.  1.
    10030    2    1    2    0    0  0.00000000000E+00  0.00000000000E+00 -0.14493973466E+04  0.40733298395E+04  0.38067391969E+04 0.  0.
        2    1    3    3  502    0  0.12149090275E+04 -0.65881014103E+03 -0.21250834577E+04  0.25349584709E+04  0.25500000920E-02 0.  1.
       -2    1    3    3    0  502 -0.12149090275E+04  0.65881014103E+03  0.67568611110E+03  0.15383713686E+04  0.25500000920E-02 0. -1.
</event>
<event>
 5   0  0.1143283E-07  0.3809098E+04  0.7818609E-02  0.8044205E-01
        2   -1    0    0  501    0  0.00000000000E+00  0.00000000000E+00  0.18985422794E+04  0.18985422794E+04  0.25500000920E-02 0. -1.
       -2   -1    0    0    0  501  0.00000000000E+00  0.00000000000E+00 -0.19105747440E+04  0.19105747440E+04  0.25500000920E-02 0.  1.
    10030    2    1    2    0    0  0.00000000000E+00  0.00000000000E+00 -0.12032464576E+02  0.38091170234E+04  0.38090980189E+04 0.  0.
        1    1    3    3  502    0 -0.38205973947E+02 -0.12930291907E+04 -0.14038510731E+04  0.19089740752E+04  0.50400001928E-02 0.  1.
       -1    1    3    3    0  502  0.38205973947E+02  0.12930291907E+04  0.13918186086E+04  0.19001429482E+04  0.50400001928E-02 0. -1.
</event>
<event>
 5   0  0.3701250E-08  0.3808482E+04  0.7818609E-02  0.8044337E-01
       -1   -1    0    0    0  501  0.00000000000E+00  0.00000000000E+00  0.20077442257E+04  0.20077442257E+04  0.50400001928E-02 0.  1.
        1   -1    0    0  501    0  0.00000000000E+00  0.00000000000E+00 -0.18060734183E+04  0.18060734183E+04  0.50400001928E-02 0. -1.
    10030    2    1    2    0    0  0.00000000000E+00  0.00000000000E+00  0.20167080734E+03  0.38138176440E+04  0.38084818376E+04 0.  0.
        2    1    3    3  502    0 -0.36770710805E+03 -0.17446949717E+04  0.77032604270E+03  0.19423108077E+04  0.25500000920E-02 0.  1.
       -2    1    3    3    0  502  0.36770710805E+03  0.17446949717E+04 -0.56865523535E+03  0.18715068363E+04  0.25500000920E-02 0. -1.
</event>
<event>
 5   0  0.7858367E-08  0.3790584E+04  0.7818609E-02  0.8048179E-01
        2   -1    0    0  501    0  0.00000000000E+00  0.00000000000E+00  0.21281237067E+04  0.21281237067E+04  0.25500000920E-02 0.  1.
       -2   -1    0    0    0  501  0.00000000000E+00  0.00000000000E+00 -0.16879333293E+04  0.16879333293E+04  0.25500000920E-02 0. -1.
    10030    2    1    2    0    0  0.00000000000E+00  0.00000000000E+00  0.44019037748E+03  0.38160570360E+04  0.37905835611E+04 0.  0.
        2    1    3    3  502    0  0.17061341452E+04  0.35451928335E+03 -0.53026821388E+03  0.18214724874E+04  0.25500000920E-02 0. -1.
       -2    1    3    3    0  502 -0.17061341452E+04 -0.35451928335E+03  0.97045859136E+03  0.19945845486E+04  0.25500000920E-02 0.  1.
</event>
<event>
 5   0  0.1150235E-07  0.3823099E+04  0.7818609E-02  0.8041216E-01
       -2   -1    0    0    0  501  0.00000000000E+00  0.00000000000E+00  0.14385855153E+04  0.14385855153E+04  0.25500000920E-02 0. -1.
        2   -1    0    0  501    0  0.00000000000E+00  0.00000000000E+00 -0.25400095840E+04  0.25400095840E+04  0.25500000920E-02 0.  1.
    10030    2    1    2    0    0  0.00000000000E+00  0.00000000000E+00 -0.11014240687E+04  0.39785950992E+04  0.38230987411E+04 0.  0.
        4    1    3    3  502    0 -0.15822687176E+04  0.10229387211E+04 -0.88638583837E+03  0.20822246251E+04  0.12699999809E+01 0.  1.
       -4    1    3    3    0  502  0.15822687176E+04 -0.10229387211E+04 -0.21503823033E+03  0.18963704742E+04  0.12699999809E+01 0. -1.
</event>
<event>
 5   0  0.1193861E-07  0.3712951E+04  0.7818609E-02  0.8065098E-01
       -2   -1    0    0    0  501  0.00000000000E+00  0.00000000000E+00  0.17346122264E+04  0.17346122264E+04  0.25500000920E-02 0. -1.
        2   -1    0    0  501    0  0.00000000000E+00  0.00000000000E+00 -0.19869002582E+04  0.19869002582E+04  0.25500000920E-02 0.  1.
    10030    2    1    2    0    0  0.00000000000E+00  0.00000000000E+00 -0.25228803179E+03  0.37215124846E+04  0.37129511069E+04 0.  0.
        3    1    3    3  502    0  0.98798992377E+03  0.15002265495E+04 -0.59594398745E+03  0.18926048282E+04  0.10100000352E+00 0.  1.
       -3    1    3    3    0  502 -0.98798992377E+03 -0.15002265495E+04  0.34365595566E+03  0.18289076564E+04  0.10100000352E+00 0. -1.
</event>
<event>
 5   0  0.7858367E-08  0.3790291E+04  0.7818609E-02  0.8048242E-01
       -2   -1    0    0    0  501  0.00000000000E+00  0.00000000000E+00  0.17701130207E+04  0.17701130207E+04  0.25500000920E-02 0.  1.
        2   -1    0    0  501    0  0.00000000000E+00  0.00000000000E+00 -0.20290094286E+04  0.20290094286E+04  0.25500000920E-02 0. -1.
    10030    2    1    2    0    0  0.00000000000E+00  0.00000000000E+00 -0.25889640786E+03  0.37991224493E+04  0.37902907586E+04 0.  0.
        2    1    3    3  502    0  0.22707174674E+03  0.14320243906E+04  0.10937726024E+04  0.18162031658E+04  0.25500000920E-02 0.  1.
       -2    1    3    3    0  502 -0.22707174674E+03 -0.14320243906E+04 -0.13526690103E+04  0.19829192835E+04  0.25500000920E-02 0. -1.
</event>
<event>
 5   0  0.3889225E-08  0.3857601E+04  0.7818609E-02  0.8033906E-01
        1   -1    0    0  501    0  0.00000000000E+00  0.00000000000E+00  0.14457357537E+04  0.14457357537E+04  0.50400001928E-02 0. -1.
       -1   -1    0    0    0  501  0.00000000000E+00  0.00000000000E+00 -0.25732717293E+04  0.25732717293E+04  0.50400001928E-02 0.  1.
    10030    2    1    2    0    0  0.00000000000E+00  0.00000000000E+00 -0.11275359756E+04  0.40190074831E+04  0.38576007793E+04 0.  0.
        5    1    3    3  502    0 -0.10583618112E+04 -0.14962410400E+04 -0.11900713174E+04  0.21852136746E+04  0.46999998093E+01 0.  1.
       -5    1    3    3    0  502  0.10583618112E+04  0.14962410400E+04  0.62535341745E+02  0.18337938085E+04  0.46999998093E+01 0. -1.
</event>
<event>
 5   0  0.7858367E-08  0.3800026E+04  0.7818609E-02  0.8046149E-01
        2   -1    0    0  501    0  0.00000000000E+00  0.00000000000E+00  0.11680022113E+04  0.11680022113E+04  0.25500000920E-02 0. -1.
       -2   -1    0    0    0  501  0.00000000000E+00  0.00000000000E+00 -0.30907894612E+04  0.30907894612E+04  0.25500000920E-02 0.  1.
    10030    2    1    2    0    0  0.00000000000E+00  0.00000000000E+00 -0.19227872499E+04  0.42587916724E+04  0.38000257500E+04 0.  0.
        2    1    3    3  502    0 -0.20810420484E+03 -0.10620695151E+04  0.78878949093E+03  0.13392116621E+04  0.25500000920E-02 0. -1.
       -2    1    3    3    0  502  0.20810420484E+03  0.10620695151E+04 -0.27115767408E+04  0.29195800103E+04  0.25500000920E-02 0.  1.
</event>
<event>
 5   0  0.3701250E-08  0.3783422E+04  0.7818609E-02  0.8049722E-01
        1   -1    0    0  501    0  0.00000000000E+00  0.00000000000E+00  0.14829337915E+04  0.14829337915E+04  0.50400001928E-02 0.  1.
       -1   -1    0    0    0  501  0.00000000000E+00  0.00000000000E+00 -0.24131698568E+04  0.24131698568E+04  0.50400001928E-02 0. -1.
    10030    2    1    2    0    0  0.00000000000E+00  0.00000000000E+00 -0.93023606527E+03  0.38961036483E+04  0.37834223266E+04 0.  0.
        1    1    3    3  502    0 -0.48430024027E+03 -0.88515089418E+03  0.11827059094E+04  0.15546163824E+04  0.50400001928E-02 0.  1.
       -1    1    3    3    0  502  0.48430024027E+03  0.88515089418E+03 -0.21129419747E+04  0.23414872659E+04  0.50400001928E-02 0. -1.
</event>
<event>
 5   0  0.3701250E-08  0.3801328E+04  0.7818609E-02  0.8045870E-01
       -1   -1    0    0    0  501  0.00000000000E+00  0.00000000000E+00  0.13984885032E+04  0.13984885032E+04  0.50400001928E-02 0. -1.
        1   -1    0    0  501    0  0.00000000000E+00  0.00000000000E+00 -0.25831634622E+04  0.25831634622E+04  0.50400001928E-02 0.  1.
    10030    2    1    2    0    0  0.00000000000E+00  0.00000000000E+00 -0.11846749591E+04  0.39816519655E+04  0.38013284014E+04 0.  0.
        1    1    3    3  502    0 -0.95962744438E+03  0.16296563917E+04 -0.39398815424E+03  0.19318104081E+04  0.50400001928E-02 0. -1.
       -1    1    3    3    0  502  0.95962744438E+03 -0.16296563917E+04 -0.79068680481E+03  0.20498415574E+04  0.50400001928E-02 0.  1.
</event>
<event>
 5   0  0.1193861E-07  0.3790908E+04  0.7818609E-02  0.8048109E-01
        2   -1    0    0  501    0  0.00000000000E+00  0.00000000000E+00  0.20259707880E+04  0.20259707880E+04  0.25500000920E-02 0. -1.
       -2   -1    0    0    0  501  0.00000000000E+00  0.00000000000E+00 -0.17733451203E+04  0.17733451203E+04  0.25500000920E-02 0.  1.
    10030    2    1    2    0    0  0.00000000000E+00  0.00000000000E+00  0.25262566771E+03  0.37993159083E+04  0.37909077598E+04 0.  0.
        3    1    3    3  502    0  0.15836245531E+03  0.13878334436E+04  0.14103981658E+04  0.19850398814E+04  0.10100000352E+00 0. -1.
       -3    1    3    3    0  502 -0.15836245531E+03 -0.13878334436E+04 -0.11577724981E+04  0.18142760269E+04  0.10100000352E+00 0.  1.
</event>
<event>
 5   0  0.3889225E-08  0.3814321E+04  0.7818609E-02  0.8043089E-01
       -1   -1    0    0    0  501  0.00000000000E+00  0.00000000000E+00  0.15760021376E+04  0.15760021376E+04  0.50400001928E-02 0. -1.
        1   -1    0    0  501    0  0.00000000000E+00  0.00000000000E+00 -0.23079031750E+04  0.23079031750E+04  0.50400001928E-02 0.  1.
    10030    2    1    2    0    0  0.00000000000E+00  0.00000000000E+00 -0.73190103741E+03  0.38839053125E+04  0.38143205618E+04 0.  0.
        5    1    3    3  502    0  0.24448512206E+03 -0.11504108958E+04  0.11627778722E+04  0.16538720247E+04  0.46999998093E+01 0. -1.
       -5    1    3    3    0  502 -0.24448512206E+03  0.11504108958E+04 -0.18946789096E+04  0.22300332878E+04  0.46999998093E+01 0.  1.
</event>
<event>
 5   0  0.3701250E-08  0.3854970E+04  0.7818609E-02  0.8034460E-01
       -1   -1    0    0    0  501  0.00000000000E+00  0.00000000000E+00  0.15706002716E+04  0.15706002716E+04  0.50400001928E-02 0. -1.
        1   -1    0    0  501    0  0.00000000000E+00  0.00000000000E+00 -0.23654641509E+04  0.23654641509E+04  0.50400001928E-02 0.  1.
    10030    2    1    2    0    0  0.00000000000E+00  0.00000000000E+00 -0.79486387932E+03  0.39360644225E+04  0.38549701103E+04 0.  0.
        3    1    3    3  502    0 -0.33758122820E+03 -0.72901381017E+03  0.13915030352E+04  0.16067678514E+04  0.10100000352E+00 0. -1.
       -3    1    3    3    0  502  0.33758122820E+03  0.72901381017E+03 -0.21863669145E+04  0.23292965711E+04  0.10100000352E+00 0.  1.
</event>
<event>
 5   0  0.3701250E-08  0.3793234E+04  0.7818609E-02  0.8047608E-01
        1   -1    0    0  501    0  0.00000000000E+00  0.00000000000E+00  0.29447998395E+04  0.29447998395E+04  0.50400001928E-02 0. -1.
       -1   -1    0    0    0  501  0.00000000000E+00  0.00000000000E+00 -0.12215283617E+04  0.12215283618E+04  0.50400001928E-02 0.  1.
    10030    2    1    2    0    0  0.00000000000E+00  0.00000000000E+00  0.17232714778E+04  0.41663282013E+04  0.37932342526E+04 0.  0.
        2    1    3    3  502    0 -0.18098330687E+04  0.48368642112E+03  0.53635076937E+03  0.19486201370E+04  0.25500000920E-02 0.  1.
       -2    1    3    3    0  502  0.18098330687E+04 -0.48368642112E+03  0.11869207084E+04  0.22177080643E+04  0.25500000920E-02 0. -1.
</event>
<event>
 5   0  0.3889225E-08  0.3653500E+04  0.7818609E-02  0.8078346E-01
       -1   -1    0    0    0  501  0.00000000000E+00  0.00000000000E+00  0.18352586681E+04  0.18352586681E+04  0.50400001928E-02 0.  1.
        1   -1    0    0  501    0  0.00000000000E+00  0.00000000000E+00 -0.18182804368E+04  0.18182804368E+04  0.50400001928E-02 0. -1.
    10030    2    1    2    0    0  0.00000000000E+00  0.00000000000E+00  0.16978231334E+02  0.36535391049E+04  0.36534996553E+04 0.  0.
        5    1    3    3  502    0  0.16484015770E+04 -0.78401256855E+03  0.79829749411E+02  0.18271010770E+04  0.46999998093E+01 0.  1.
       -5    1    3    3    0  502 -0.16484015770E+04  0.78401256855E+03 -0.62851518077E+02  0.18264380280E+04  0.46999998093E+01 0. -1.
</event>
<event>
 5   0  0.3701250E-08  0.3816645E+04  0.7818609E-02  0.8042592E-01
       -1   -1    0    0    0  501  0.00000000000E+00  0.00000000000E+00  0.21498246377E+04  0.21498246377E+04  0.50400001928E-02 0. -1.
        1   -1    0    0  501    0  0.00000000000E+00  0.00000000000E+00 -0.16939500383E+04  0.16939500383E+04  0.50400001928E-02 0.  1.
    10030    2    1    2    0    0  0.00000000000E+00  0.00000000000E+00  0.45587459941E+03  0.38437746760E+04  0.38166454000E+04 0.  0.
        4    1    3    3  502    0 -0.18258937220E+04 -0.12848169910E+03 -0.31561986016E+03  0.18574210455E+04  0.12699999809E+01 0.  1.
       -4    1    3    3    0  502  0.18258937220E+04  0.12848169910E+03  0.77149445957E+03  0.19863536305E+04  0.12699999809E+01 0. -1.
</event>
<event>
 5   0  0.1143283E-07  0.3809552E+04  0.7818609E-02  0.8044108E-01
       -2   -1    0    0    0  501  0.00000000000E+00  0.00000000000E+00  0.15569851229E+04  0.15569851229E+04  0.25500000920E-02 0. -1.
        2   -1    0    0  501    0  0.00000000000E+00  0.00000000000E+00 -0.23302541087E+04  0.23302541087E+04  0.25500000920E-02 0.  1.
    10030    2    1    2    0    0  0.00000000000E+00  0.00000000000E+00 -0.77326898583E+03  0.38872392316E+04  0.38095516690E+04 0.  0.
        1    1    3    3  502    0 -0.18511433033E+02 -0.12222906673E+04  0.11039194548E+04  0.16471112018E+04  0.50400001928E-02 0. -1.
       -1    1    3    3    0  502  0.18511433033E+02  0.12222906673E+04 -0.18771884406E+04  0.22401280298E+04  0.50400001928E-02 0.  1.
</event>
<event>
 5   0  0.3701250E-08  0.3813963E+04  0.7818609E-02  0.8043165E-01
       -1   -1    0    0    0  501  0.00000000000E+00  0.00000000000E+00  0.26386231638E+04  0.26386231638E+04  0.50400001928E-02 0. -1.
        1   -1    0    0  501    0  0.00000000000E+00  0.00000000000E+00 -0.13782107802E+04  0.13782107802E+04  0.50400001928E-02 0.  1.
    10030    2    1    2    0    0  0.00000000000E+00  0.00000000000E+00  0.12604123836E+04  0.40168339440E+04  0.38139632349E+04 0.  0.
        4    1    3    3  502    0 -0.95163804032E+03  0.11810813189E+04 -0.58713440680E+03  0.16264367391E+04  0.12699999809E+01 0.  1.
       -4    1    3    3    0  502  0.95163804032E+03 -0.11810813189E+04  0.18475467904E+04  0.23903972050E+04  0.12699999809E+01 0. -1.
</event>
<event>
 5   0  0.1193861E-07  0.3779416E+04  0.7818609E-02  0.8050587E-01
        2   -1    0    0  501    0  0.00000000000E+00  0.00000000000E+00  0.20731260997E+04  0.20731260997E+04  0.25500000920E-02 0. -1.
       -2   -1    0    0    0  501  0.00000000000E+00  0.00000000000E+00 -0.17225177892E+04  0.17225177892E+04  0.25500000920E-02 0.  1.
    10030    2    1    2    0    0  0.00000000000E+00  0.00000000000E+00  0.35060831054E+03  0.37956438889E+04  0.37794161379E+04 0.  0.
        3    1    3    3  502    0  0.17595779933E+04 -0.61931899267E+03  0.47880338965E+03  0.19258565433E+04  0.10100000352E+00 0. -1.
       -3    1    3    3    0  502 -0.17595779933E+04  0.61931899267E+03 -0.12819507910E+03  0.18697873456E+04  0.10100000352E+00 0.  1.
</event>
<event>
 5   0  0.7858367E-08  0.3807159E+04  0.7818609E-02  0.8044620E-01
        2   -1    0    0  501    0  0.00000000000E+00  0.00000000000E+00  0.17209103033E+04  0.17209103033E+04  0.25500000920E-02 0. -1.
       -2   -1    0    0    0  501  0.00000000000E+00  0.00000000000E+00 -0.21056385263E+04  0.21056385263E+04  0.25500000920E-02 0.  1.
    10030    2    1    2    0    0  0.00000000000E+00  0.00000000000E+00 -0.38472822295E+03  0.38265488296E+04  0.38071590641E+04 0.  0.
        2    1    3    3  502    0 -0.11939811045E+04 -0.21020673066E+03  0.12827060675E+04  0.17649681592E+04  0.25500000920E-02 0. -1.
       -2    1    3    3    0  502  0.11939811045E+04  0.21020673066E+03 -0.16674342905E+04  0.20615806704E+04  0.25500000920E-02 0.  1.
</event>
<event>
 5   0  0.3701250E-08  0.3794248E+04  0.7818609E-02  0.8047390E-01
       -1   -1    0    0    0  501  0.00000000000E+00  0.00000000000E+00  0.10387763958E+04  0.10387763958E+04  0.50400001928E-02 0. -1.
        1   -1    0    0  501    0  0.00000000000E+00  0.00000000000E+00 -0.34647297015E+04  0.34647297015E+04  0.50400001928E-02 0.  1.
    10030    2    1    2    0    0  0.00000000000E+00  0.00000000000E+00 -0.24259533057E+04  0.45035060972E+04  0.37942479791E+04 0.  0.
        4    1    3    3  502    0 -0.61751898076E+02 -0.26983708062E+03 -0.34406300249E+04  0.34517476628E+04  0.12699999809E+01 0.  1.
       -4    1    3    3    0  502  0.61751898076E+02  0.26983708062E+03  0.10146767192E+04  0.10517584344E+04  0.12699999809E+01 0. -1.
</event>
<event>
 5   0  0.3701250E-08  0.3771657E+04  0.7818609E-02  0.8052265E-01
        1   -1    0    0  501    0  0.00000000000E+00  0.00000000000E+00  0.18526002976E+04  0.18526002976E+04  0.50400001928E-02 0. -1.
       -1   -1    0    0    0  501  0.00000000000E+00  0.00000000000E+00 -0.19196529313E+04  0.19196529313E+04  0.50400001928E-02 0.  1.
    10030    2    1    2    0    0  0.00000000000E+00  0.00000000000E+00 -0.67052633686E+02  0.37722532290E+04  0.37716572442E+04 0.  0.
        1    1    3    3  502    0 -0.43269176945E+03  0.13727068716E+04 -0.12522439026E+04  0.19077895885E+04  0.50400001928E-02 0.  1.
       -1    1    3    3    0  502  0.43269176945E+03 -0.13727068716E+04  0.11851912689E+04  0.18644636404E+04  0.50400001928E-02 0. -1.
</event>
<event>
 5   0  0.7858367E-08  0.3726642E+04  0.7818609E-02  0.8062083E-01
       -2   -1    0    0    0  501  0.00000000000E+00  0.00000000000E+00  0.17043225481E+04  0.17043225481E+04  0.25500000920E-02 0. -1.
        2   -1    0    0  501    0  0.00000000000E+00  0.00000000000E+00 -0.20371528058E+04  0.20371528058E+04  0.25500000920E-02 0.  1.
    10030    2    1    2    0    0  0.00000000000E+00  0.00000000000E+00 -0.33283025764E+03  0.37414753539E+04  0.37266421673E+04 0.  0.
        2    1    3    3  502    0  0.16719039754E+04 -0.72864066034E+03  0.21692309926E+03  0.18366370751E+04  0.25500000920E-02 0. -1.
       -2    1    3    3    0  502 -0.16719039754E+04  0.72864066034E+03 -0.54975335690E+03  0.19048382787E+04  0.25500000920E-02 0.  1.
</event>
<event>
 5   0  0.1193861E-07  0.3797410E+04  0.7818609E-02  0.8046711E-01
       -2   -1    0    0    0  501  0.00000000000E+00  0.00000000000E+00  0.33750029359E+04  0.33750029359E+04  0.25500000920E-02 0. -1.
        2   -1    0    0  501    0  0.00000000000E+00  0.00000000000E+00 -0.10681713314E+04  0.10681713314E+04  0.25500000920E-02 0.  1.
    10030    2    1    2    0    0  0.00000000000E+00  0.00000000000E+00  0.23068316046E+04  0.44431742673E+04  0.37974103699E+04 0.  0.
        3    1    3    3  502    0  0.12911803084E+04  0.95786502020E+03 -0.28529266369E+02  0.16079384052E+04  0.10100000352E+00 0.  1.
       -3    1    3    3    0  502 -0.12911803084E+04 -0.95786502020E+03  0.23353608709E+04  0.28352358621E+04  0.10100000352E+00 0. -1.
</event>
<event>
 5   0  0.3701250E-08  0.3791847E+04  0.7818609E-02  0.8047907E-01
       -1   -1    0    0    0  501  0.00000000000E+00  0.00000000000E+00  0.13718079810E+04  0.13718079810E+04  0.50400001928E-02 0.  1.
        1   -1    0    0  501    0  0.00000000000E+00  0.00000000000E+00 -0.26202833408E+04  0.26202833409E+04  0.50400001928E-02 0. -1.
    10030    2    1    2    0    0  0.00000000000E+00  0.00000000000E+00 -0.12484753599E+04  0.39920913218E+04  0.37918468320E+04 0.  0.
        4    1    3    3  502    0  0.18234390425E+04  0.51910728075E+03 -0.63585088358E+03  0.19996775414E+04  0.12699999809E+01 0.  1.
       -4    1    3    3    0  502 -0.18234390425E+04 -0.51910728075E+03 -0.61262447629E+03  0.19924137804E+04  0.12699999809E+01 0. -1.
</event>
<event>
 5   0  0.3701250E-08  0.3723070E+04  0.7818609E-02  0.8062868E-01
        1   -1    0    0  501    0  0.00000000000E+00  0.00000000000E+00  0.29007667427E+04  0.29007667427E+04  0.50400001928E-02 0.  1.
       -1   -1    0    0    0  501  0.00000000000E+00  0.00000000000E+00 -0.11946197476E+04  0.11946197476E+04  0.50400001928E-02 0. -1.
    10030    2    1    2    0    0  0.00000000000E+00  0.00000000000E+00  0.17061469951E+04  0.40953864903E+04  0.37230703641E+04 0.  0.
        2    1    3    3  502    0  0.10231745823E+02 -0.54278260161E+03 -0.11056091458E+04  0.12317017596E+04  0.25500000920E-02 0. -1.
       -2    1    3    3    0  502 -0.10231745823E+02  0.54278260161E+03  0.28117561409E+04  0.28636847307E+04  0.25500000920E-02 0.  1.
</event>
<event>
 5   0  0.3701250E-08  0.3794102E+04  0.7818609E-02  0.8047422E-01
       -1   -1    0    0    0  501  0.00000000000E+00  0.00000000000E+00  0.16557311892E+04  0.16557311892E+04  0.50400001928E-02 0.  1.
        1   -1    0    0  501    0  0.00000000000E+00  0.00000000000E+00 -0.21735427703E+04  0.21735427703E+04  0.50400001928E-02 0. -1.
    10030    2    1    2    0    0  0.00000000000E+00  0.00000000000E+00 -0.51781158106E+03  0.38292739595E+04  0.37941020312E+04 0.  0.
        4    1    3    3  502    0 -0.12598516590E+04 -0.64397662105E+03 -0.15342930006E+04  0.20871005524E+04  0.12699999809E+01 0. -1.
       -4    1    3    3    0  502  0.12598516590E+04  0.64397662105E+03  0.10164814195E+04  0.17421734071E+04  0.12699999809E+01 0.  1.
</event>
<event>
 5   0  0.7858367E-08  0.3803008E+04  0.7818609E-02  0.8045510E-01
       -2   -1    0    0    0  501  0.00000000000E+00  0.00000000000E+00  0.18590117390E+04  0.18590117390E+04  0.25500000920E-02 0. -1.
        2   -1    0    0  501    0  0.00000000000E+00  0.00000000000E+00 -0.19449677098E+04  0.19449677098E+04  0.25500000920E-02 0.  1.
    10030    2    1    2    0    0  0.00000000000E+00  0.00000000000E+00 -0.85955970789E+02  0.38039794487E+04  0.38030081800E+04 0.  0.
        2    1    3    3  502    0 -0.17005866222E+04 -0.75661438378E+03  0.34603986731E+03  0.18931993490E+04  0.25500000920E-02 0. -1.
       -2    1    3    3    0  502  0.17005866222E+04  0.75661438378E+03 -0.43199583810E+03  0.19107800997E+04  0.25500000920E-02 0.  1.
</event>
<event>
 5   0  0.3701250E-08  0.3795474E+04  0.7818609E-02  0.8047127E-01
       -1   -1    0    0    0  501  0.00000000000E+00  0.00000000000E+00  0.13776056183E+04  0.13776056183E+04  0.50400001928E-02 0. -1.
        1   -1    0    0  501    0  0.00000000000E+00  0.00000000000E+00 -0.26142506974E+04  0.26142506974E+04  0.50400001928E-02 0.  1.
    10030    2    1    2    0    0  0.00000000000E+00  0.00000000000E+00 -0.12366450791E+04  0.39918563156E+04  0.37954743831E+04 0.  0.
        3    1    3    3  502    0  0.50799578357E+03  0.16301035419E+04 -0.14894976245E+04  0.22658112139E+04  0.10100000352E+00 0.  1.
       -3    1    3    3    0  502 -0.50799578357E+03 -0.16301035419E+04  0.25285254540E+03  0.17260451018E+04  0.10100000352E+00 0. -1.
</event>
<event>
 5   0  0.3701250E-08  0.3804672E+04  0.7818609E-02  0.8045153E-01
       -1   -1    0    0    0  501  0.00000000000E+00  0.00000000000E+00  0.24107809754E+04  0.24107809754E+04  0.50400001928E-02 0.  1.
        1   -1    0    0  501    0  0.00000000000E+00  0.00000000000E+00 -0.15011241918E+04  0.15011241918E+04  0.50400001928E-02 0. -1.
    10030    2    1    2    0    0  0.00000000000E+00  0.00000000000E+00  0.90965678361E+03  0.39119051672E+04  0.38046716774E+04 0.  0.
        1    1    3    3  502    0 -0.12193694440E+04 -0.13477996918E+04  0.10323129639E+04  0.20902382413E+04  0.50400001928E-02 0.  1.
       -1    1    3    3    0  502  0.12193694440E+04  0.13477996918E+04 -0.12265618029E+03  0.18216669258E+04  0.50400001928E-02 0. -1.
</event>
<event>
 5   0  0.1143283E-07  0.3783138E+04  0.7818609E-02  0.8049783E-01
       -2   -1    0    0    0  501  0.00000000000E+00  0.00000000000E+00  0.15901517433E+04  0.15901517433E+04  0.25500000920E-02 0. -1.
        2   -1    0    0  501    0  0.00000000000E+00  0.00000000000E+00 -0.22501212142E+04  0.22501212142E+04  0.25500000920E-02 0.  1.
    10030    2    1    2    0    0  0.00000000000E+00  0.00000000000E+00 -0.65996947091E+03  0.38402729575E+04  0.37831384703E+04 0.  0.
        1    1    3    3  502    0 -0.10476929255E+04  0.65935272722E+03  0.11218699582E+04  0.16706282316E+04  0.50400001928E-02 0.  1.
       -1    1    3    3    0  502  0.10476929255E+04 -0.65935272722E+03 -0.17818394291E+04  0.21696447258E+04  0.50400001928E-02 0. -1.
</event>
<event>
 5   0  0.1143283E-07  0.3821000E+04  0.7818609E-02  0.8041663E-01
       -2   -1    0    0    0  501  0.00000000000E+00  0.00000000000E+00  0.14111425582E+04  0.14111425582E+04  0.25500000920E-02 0. -1.
        2   -1    0    0  501    0  0.00000000000E+00  0.00000000000E+00 -0.25865636801E+04  0.25865636801E+04  0.25500000920E-02 0.  1.
    10030    2    1    2    0    0  0.00000000000E+00  0.00000000000E+00 -0.11754211219E+04  0.39977062384E+04  0.38209999155E+04 0.  0.
        1    1    3    3  502    0 -0.57812180427E+03 -0.13514286601E+04 -0.18645705916E+04  0.23742804668E+04  0.50400001928E-02 0.  1.
       -1    1    3    3    0  502  0.57812180427E+03  0.13514286601E+04  0.68914946970E+03  0.16234257715E+04  0.50400001928E-02 0. -1.
</event>
<event>
 5   0  0.3701250E-08  0.3866551E+04  0.7818609E-02  0.8032022E-01
        1   -1    0    0  501    0  0.00000000000E+00  0.00000000000E+00  0.32566997015E+04  0.32566997015E+04  0.50400001928E-02 0. -1.
       -1   -1    0    0    0  501  0.00000000000E+00  0.00000000000E+00 -0.11476510894E+04  0.11476510894E+04  0.50400001928E-02 0.  1.
    10030    2    1    2    0    0  0.00000000000E+00  0.00000000000E+00  0.21090486122E+04  0.44043507909E+04  0.38665514145E+04 0.  0.
        4    1    3    3  502    0  0.14966058922E+04  0.12219690636E+04  0.97797813799E+03  0.21655208243E+04  0.12699999809E+01 0. -1.
       -4    1    3    3    0  502 -0.14966058922E+04 -0.12219690636E+04  0.11310704742E+04  0.22388299666E+04  0.12699999809E+01 0.  1.
</event>
<event>
 5   0  0.1150235E-07  0.3814957E+04  0.7818609E-02  0.8042953E-01
       -2   -1    0    0    0  501  0.00000000000E+00  0.00000000000E+00  0.19921475687E+04  0.19921475687E+04  0.25500000920E-02 0.  1.
        2   -1    0    0  501    0  0.00000000000E+00  0.00000000000E+00 -0.18264078816E+04  0.18264078816E+04  0.25500000920E-02 0. -1.
    10030    2    1    2    0    0  0.00000000000E+00  0.00000000000E+00  0.16573968713E+03  0.38185554503E+04  0.38149568914E+04 0.  0.
        4    1    3    3  502    0  0.41533131483E+03  0.16991390767E+04 -0.67870178335E+03  0.18762226485E+04  0.12699999809E+01 0. -1.
       -4    1    3    3    0  502 -0.41533131483E+03 -0.16991390767E+04  0.84444147048E+03  0.19423328018E+04  0.12699999809E+01 0.  1.
</event>
<event>
 5   0  0.3701250E-08  0.3812301E+04  0.7818609E-02  0.8043520E-01
        1   -1    0    0  501    0  0.00000000000E+00  0.00000000000E+00  0.19494042675E+04  0.19494042675E+04  0.50400001928E-02 0. -1.
       -1   -1    0    0    0  501  0.00000000000E+00  0.00000000000E+00 -0.18638567822E+04  0.18638567822E+04  0.50400001928E-02 0.  1.
    10030    2    1    2    0    0  0.00000000000E+00  0.00000000000E+00  0.85547485254E+02  0.38132610497E+04  0.38123013340E+04 0.  0.
        2    1    3    3  502    0 -0.12696183086E+04 -0.16083197716E+02 -0.13792806959E+04  0.18747278621E+04  0.25500000920E-02 0. -1.
       -2    1    3    3    0  502  0.12696183086E+04  0.16083197716E+02  0.14648281812E+04  0.19385331876E+04  0.25500000920E-02 0.  1.
</event>
<event>
 5   0  0.3701250E-08  0.3799612E+04  0.7818609E-02  0.8046238E-01
       -1   -1    0    0    0  501  0.00000000000E+00  0.00000000000E+00  0.26625884204E+04  0.26625884204E+04  0.50400001928E-02 0. -1.
        1   -1    0    0  501    0  0.00000000000E+00  0.00000000000E+00 -0.13555464491E+04  0.13555464492E+04  0.50400001928E-02 0.  1.
    10030    2    1    2    0    0  0.00000000000E+00  0.00000000000E+00  0.13070419712E+04  0.40181348695E+04  0.37996117058E+04 0.  0.
        1    1    3    3  502    0  0.10735524343E+04 -0.12480823382E+04  0.16562285689E+04  0.23352339122E+04  0.50400001928E-02 0. -1.
       -1    1    3    3    0  502 -0.10735524343E+04  0.12480823382E+04 -0.34918659769E+03  0.16829009573E+04  0.50400001928E-02 0.  1.
</event>
<event>
 5   0  0.1174870E-07  0.3834748E+04  0.7818609E-02  0.8038739E-01
       -2   -1    0    0    0  501  0.00000000000E+00  0.00000000000E+00  0.16060036156E+04  0.16060036156E+04  0.25500000920E-02 0. -1.
        2   -1    0    0  501    0  0.00000000000E+00  0.00000000000E+00 -0.22891125933E+04  0.22891125933E+04  0.25500000920E-02 0.  1.
    10030    2    1    2    0    0  0.00000000000E+00  0.00000000000E+00 -0.68310897767E+03  0.38951162089E+04  0.38347480237E+04 0.  0.
        5    1    3    3  502    0 -0.14685837041E+03  0.17125583540E+04 -0.12045635270E+04  0.20989089731E+04  0.46999998093E+01 0.  1.
       -5    1    3    3    0  502  0.14685837041E+03 -0.17125583540E+04  0.52145454929E+03  0.17962072358E+04  0.46999998093E+01 0. -1.
</event>
<event>
 5   0  0.1143283E-07  0.3801517E+04  0.7818609E-02  0.8045829E-01
       -2   -1    0    0    0  501  0.00000000000E+00  0.00000000000E+00  0.12448934469E+04  0.12448934469E+04  0.25500000920E-02 0. -1.
        2   -1    0    0  501    0  0.00000000000E+00  0.00000000000E+00 -0.29021618646E+04  0.29021618646E+04  0.25500000920E-02 0.  1.
    10030    2    1    2    0    0  0.00000000000E+00  0.00000000000E+00 -0.16572684177E+04  0.41470553115E+04  0.38015166905E+04 0.  0.
        1    1    3    3  502    0 -0.13775344433E+04  0.70193137147E+03  0.37756881867E+03  0.15914983524E+04  0.50400001928E-02 0.  1.
       -1    1    3    3    0  502  0.13775344433E+04 -0.70193137147E+03 -0.20348372363E+04  0.25555569591E+04  0.50400001928E-02 0. -1.
</event>
<event>
 5   0  0.3701250E-08  0.3824818E+04  0.7818609E-02  0.8040850E-01
        1   -1    0    0  501    0  0.00000000000E+00  0.00000000000E+00  0.22357884623E+04  0.22357884623E+04  0.50400001928E-02 0. -1.
       -1   -1    0    0    0  501  0.00000000000E+00  0.00000000000E+00 -0.16358028101E+04  0.16358028101E+04  0.50400001928E-02 0.  1.
    10030    2    1    2    0    0  0.00000000000E+00  0.00000000000E+00  0.59998565224E+03  0.38715912724E+04  0.38248184529E+04 0.  0.
        2    1    3    3  502    0 -0.26076982682E+03 -0.11239306100E+04 -0.12438097413E+04  0.16965504977E+04  0.25500000920E-02 0.  1.
       -2    1    3    3    0  502  0.26076982682E+03  0.11239306100E+04  0.18437953935E+04  0.21750407748E+04  0.25500000920E-02 0. -1.
</event>
<event>
 5   0  0.3701250E-08  0.3788917E+04  0.7818609E-02  0.8048537E-01
       -1   -1    0    0    0  501  0.00000000000E+00  0.00000000000E+00  0.19443696793E+04  0.19443696793E+04  0.50400001928E-02 0. -1.
        1   -1    0    0  501    0  0.00000000000E+00  0.00000000000E+00 -0.18458288211E+04  0.18458288211E+04  0.50400001928E-02 0.  1.
    10030    2    1    2    0    0  0.00000000000E+00  0.00000000000E+00  0.98540858210E+02  0.37901985003E+04  0.37889173086E+04 0.  0.
        2    1    3    3  502    0 -0.15336731855E+03  0.83838608117E+02  0.19362866074E+04  0.19441595286E+04  0.25500000920E-02 0. -1.
       -2    1    3    3    0  502  0.15336731855E+03 -0.83838608117E+02 -0.18377457492E+04  0.18460389718E+04  0.25500000920E-02 0.  1.
</event>
<event>
 5   0  0.7858367E-08  0.3779978E+04  0.7818609E-02  0.8050465E-01
        2   -1    0    0  501    0  0.00000000000E+00  0.00000000000E+00  0.16009576552E+04  0.16009576552E+04  0.25500000920E-02 0.  1.
       -2   -1    0    0    0  501  0.00000000000E+00  0.00000000000E+00 -0.22312013771E+04  0.22312013771E+04  0.25500000920E-02 0. -1.
    10030    2    1    2    0    0  0.00000000000E+00  0.00000000000E+00 -0.63024372190E+03  0.38321590323E+04  0.37799782671E+04 0.  0.
        2    1    3    3  502    0 -0.41278368023E+03  0.15800039833E+04 -0.12797055636E+04  0.20747166754E+04  0.25500000920E-02 0. -1.
       -2    1    3    3    0  502  0.41278368023E+03 -0.15800039833E+04  0.64946184172E+03  0.17574423569E+04  0.25500000920E-02 0.  1.
</event>
<event>
 5   0  0.3701250E-08  0.3803211E+04  0.7818609E-02  0.8045466E-01
        3   -1    0    0  501    0  0.00000000000E+00  0.00000000000E+00  0.14360483836E+04  0.14360483871E+04  0.10100000352E+00 0. -1.
       -3   -1    0    0    0  501  0.00000000000E+00  0.00000000000E+00 -0.25180925215E+04  0.25180925235E+04  0.10100000352E+00 0.  1.
    10030    2    1    2    0    0  0.00000000000E+00  0.00000000000E+00 -0.10820441379E+04  0.39541409106E+04  0.38032105943E+04 0.  0.
        4    1    3    3  502    0  0.38314114209E+03 -0.18175612477E+04 -0.11770929225E+03  0.18612316122E+04  0.12699999809E+01 0. -1.
       -4    1    3    3    0  502 -0.38314114209E+03  0.18175612477E+04 -0.96433484561E+03  0.20929092984E+04  0.12699999809E+01 0.  1.
</event>
<event>
 5   0  0.3701250E-08  0.3805573E+04  0.7818609E-02  0.8044960E-01
       -1   -1    0    0    0  501  0.00000000000E+00  0.00000000000E+00  0.20884009690E+04  0.20884009691E+04  0.50400001928E-02 0.  1.
        1   -1    0    0  501    0  0.00000000000E+00  0.00000000000E+00 -0.17336695238E+04  0.17336695238E+04  0.50400001928E-02 0. -1.
    10030    2    1    2    0    0  0.00000000000E+00  0.00000000000E+00  0.35473144526E+03  0.38220704928E+04  0.38055733410E+04 0.  0.
        1    1    3    3  502    0 -0.11194030757E+04  0.14610513342E+04  0.66201627963E+03  0.19560163091E+04  0.50400001928E-02 0.  1.
       -1    1    3    3    0  502  0.11194030757E+04 -0.14610513342E+04 -0.30728483437E+03  0.18660541837E+04  0.50400001928E-02 0. -1.
</event>
<event>
 5   0  0.1193861E-07  0.3806116E+04  0.7818609E-02  0.8044844E-01
       -2   -1    0    0    0  501  0.00000000000E+00  0.00000000000E+00  0.17339755990E+04  0.17339755990E+04  0.25500000920E-02 0.  1.
        2   -1    0    0  501    0  0.00000000000E+00  0.00000000000E+00 -0.20886274412E+04  0.20886274412E+04  0.25500000920E-02 0. -1.
    10030    2    1    2    0    0  0.00000000000E+00  0.00000000000E+00 -0.35465184223E+03  0.38226030402E+04  0.38061156149E+04 0.  0.
        3    1    3    3  502    0 -0.13018249383E+04  0.10776358754E+04 -0.10560914508E+04  0.19928312554E+04  0.10100000352E+00 0. -1.
       -3    1    3    3    0  502  0.13018249383E+04 -0.10776358754E+04  0.70143960860E+03  0.18297717848E+04  0.10100000352E+00 0.  1.
</event>
<event>
 5   0  0.3701250E-08  0.3797998E+04  0.7818609E-02  0.8046585E-01
        1   -1    0    0  501    0  0.00000000000E+00  0.00000000000E+00  0.23127077053E+04  0.23127077053E+04  0.50400001928E-02 0. -1.
       -1   -1    0    0    0  501  0.00000000000E+00  0.00000000000E+00 -0.15592968306E+04  0.15592968306E+04  0.50400001928E-02 0.  1.
    10030    2    1    2    0    0  0.00000000000E+00  0.00000000000E+00  0.75341087473E+03  0.38720045359E+04  0.37979983123E+04 0.  0.
        3    1    3    3  502    0  0.95467744464E+03 -0.10113126766E+03  0.20470949197E+04  0.22610250280E+04  0.10100000352E+00 0. -1.
       -3    1    3    3    0  502 -0.95467744464E+03  0.10113126766E+03 -0.12936840450E+04  0.16109795080E+04  0.10100000352E+00 0.  1.
</event>
<event>
 5   0  0.7858367E-08  0.3791735E+04  0.7818609E-02  0.8047931E-01
       -2   -1    0    0    0  501  0.00000000000E+00  0.00000000000E+00  0.13842133491E+04  0.13842133491E+04  0.25500000920E-02 0.  1.
        2   -1    0    0  501    0  0.00000000000E+00  0.00000000000E+00 -0.25966474637E+04  0.25966474637E+04  0.25500000920E-02 0. -1.
    10030    2    1    2    0    0  0.00000000000E+00  0.00000000000E+00 -0.12124341146E+04  0.39808608129E+04  0.37917352662E+04 0.  0.
        2    1    3    3  502    0 -0.13151880344E+04  0.26799457875E+03 -0.20119463275E+04  0.24185674861E+04  0.25500000920E-02 0. -1.
       -2    1    3    3    0  502  0.13151880344E+04 -0.26799457875E+03  0.79951221290E+03  0.15622933267E+04  0.25500000920E-02 0.  1.
</event>
<event>
 5   0  0.7858367E-08  0.3800033E+04  0.7818609E-02  0.8046148E-01
       -2   -1    0    0    0  501  0.00000000000E+00  0.00000000000E+00  0.15964603620E+04  0.15964603620E+04  0.25500000920E-02 0. -1.
        2   -1    0    0  501    0  0.00000000000E+00  0.00000000000E+00 -0.22612916483E+04  0.22612916483E+04  0.25500000920E-02 0.  1.
    10030    2    1    2    0    0  0.00000000000E+00  0.00000000000E+00 -0.66483128627E+03  0.38577520104E+04  0.38000328859E+04 0.  0.
        2    1    3    3  502    0  0.36655728963E+03 -0.17594296241E+03 -0.22166083606E+04  0.22535910891E+04  0.25500000920E-02 0.  1.
       -2    1    3    3    0  502 -0.36655728963E+03  0.17594296241E+03  0.15517770744E+04  0.16041609212E+04  0.25500000920E-02 0. -1.
</event>
<event>
 5   0  0.3701250E-08  0.3800404E+04  0.7818609E-02  0.8046068E-01
        1   -1    0    0  501    0  0.00000000000E+00  0.00000000000E+00  0.23349730194E+04  0.23349730194E+04  0.50400001928E-02 0.  1.
       -1   -1    0    0    0  501  0.00000000000E+00  0.00000000000E+00 -0.15463851520E+04  0.15463851520E+04  0.50400001928E-02 0. -1.
    10030    2    1    2    0    0  0.00000000000E+00  0.00000000000E+00  0.78858786735E+03  0.38813581714E+04  0.38004039825E+04 0.  0.
        1    1    3    3  502    0  0.45370017780E+03 -0.17900197402E+04  0.85189293875E+03  0.20336509290E+04  0.50400001928E-02 0.  1.
       -1    1    3    3    0  502 -0.45370017780E+03  0.17900197402E+04 -0.63305071395E+02  0.18477072425E+04  0.50400001928E-02 0. -1.
</event>
<event>
 5   0  0.1193861E-07  0.3806836E+04  0.7818609E-02  0.8044690E-01
        2   -1    0    0  501    0  0.00000000000E+00  0.00000000000E+00  0.15939403892E+04  0.15939403892E+04  0.25500000920E-02 0.  1.
       -2   -1    0    0    0  501  0.00000000000E+00  0.00000000000E+00 -0.22729830902E+04  0.22729830902E+04  0.25500000920E-02 0. -1.
    10030    2    1    2    0    0  0.00000000000E+00  0.00000000000E+00 -0.67904270102E+03  0.38669234794E+04  0.38068357209E+04 0.  0.
        3    1    3    3  502    0 -0.17422711244E+04 -0.43428039733E+03 -0.98106879984E+03  0.20461192865E+04  0.10100000352E+00 0. -1.
       -3    1    3    3    0  502  0.17422711244E+04  0.43428039733E+03  0.30202609882E+03  0.18208041929E+04  0.10100000352E+00 0.  1.
</event>
<event>
 5   0  0.7858367E-08  0.3804060E+04  0.7818609E-02  0.8045284E-01
        2   -1    0    0  501    0  0.00000000000E+00  0.00000000000E+00  0.23488464417E+04  0.23488464417E+04  0.25500000920E-02 0.  1.
       -2   -1    0    0    0  501  0.00000000000E+00  0.00000000000E+00 -0.15402109143E+04  0.15402109143E+04  0.25500000920E-02 0. -1.
    10030    2    1    2    0    0  0.00000000000E+00  0.00000000000E+00  0.80863552740E+03  0.38890573560E+04  0.38040604231E+04 0.  0.
        2    1    3    3  502    0 -0.31730637569E+03  0.12484571515E+04  0.18350111505E+04  0.22420068059E+04  0.25500000920E-02 0.  1.
       -2    1    3    3    0  502  0.31730637569E+03 -0.12484571515E+04 -0.10263756231E+04  0.16470505502E+04  0.25500000920E-02 0. -1.
</event>
<event>
 5   0  0.3701250E-08  0.3796938E+04  0.7818609E-02  0.8046812E-01
        1   -1    0    0  501    0  0.00000000000E+00  0.00000000000E+00  0.19381219136E+04  0.19381219136E+04  0.50400001928E-02 0.  1.
       -1   -1    0    0    0  501  0.00000000000E+00  0.00000000000E+00 -0.18596273594E+04  0.18596273594E+04  0.50400001928E-02 0. -1.
    10030    2    1    2    0    0  0.00000000000E+00  0.00000000000E+00  0.78494554205E+02  0.37977492731E+04  0.37969379961E+04 0.  0.
        3    1    3    3  502    0  0.25524246447E+03 -0.12574200832E+04  0.14388069654E+04  0.19278017210E+04  0.10100000352E+00 0.  1.
       -3    1    3    3    0  502 -0.25524246447E+03  0.12574200832E+04 -0.13603124112E+04  0.18699475521E+04  0.10100000352E+00 0. -1.
</event>
<event>
 5   0  0.3701250E-08  0.3787294E+04  0.7818609E-02  0.8048887E-01
        1   -1    0    0  501    0  0.00000000000E+00  0.00000000000E+00  0.18487046034E+04  0.18487046034E+04  0.50400001928E-02 0.  1.
       -1   -1    0    0    0  501  0.00000000000E+00  0.00000000000E+00 -0.19396817257E+04  0.19396817257E+04  0.50400001928E-02 0. -1.
    10030    2    1    2    0    0  0.00000000000E+00  0.00000000000E+00 -0.90977122331E+02  0.37883863291E+04  0.37872937755E+04 0.  0.
        3    1    3    3  502    0  0.11061081211E+04 -0.69787004816E+03  0.13243592143E+04  0.18612966229E+04  0.10100000352E+00 0.  1.
       -3    1    3    3    0  502 -0.11061081211E+04  0.69787004816E+03 -0.14153363366E+04  0.19270897062E+04  0.10100000352E+00 0. -1.
</event>
<event>
 5   0  0.3701250E-08  0.3803148E+04  0.7818609E-02  0.8045480E-01
       -1   -1    0    0    0  501  0.00000000000E+00  0.00000000000E+00  0.18671839783E+04  0.18671839783E+04  0.50400001928E-02 0. -1.
        1   -1    0    0  501    0  0.00000000000E+00  0.00000000000E+00 -0.19365978840E+04  0.19365978840E+04  0.50400001928E-02 0.  1.
    10030    2    1    2    0    0  0.00000000000E+00  0.00000000000E+00 -0.69413905667E+02  0.38037818623E+04  0.38031484543E+04 0.  0.
        4    1    3    3  502    0 -0.11229876515E+04  0.53058736677E+03 -0.14748629845E+04  0.19281718428E+04  0.12699999809E+01 0.  1.
       -4    1    3    3    0  502  0.11229876515E+04 -0.53058736677E+03  0.14054490788E+04  0.18756100195E+04  0.12699999809E+01 0. -1.
</event>
<event>
 5   0  0.1193861E-07  0.3811184E+04  0.7818609E-02  0.8043759E-01
        2   -1    0    0  501    0  0.00000000000E+00  0.00000000000E+00  0.31013160173E+04  0.31013160173E+04  0.25500000920E-02 0.  1.
       -2   -1    0    0    0  501  0.00000000000E+00  0.00000000000E+00 -0.11708836887E+04  0.11708836887E+04  0.25500000920E-02 0. -1.
    10030    2    1    2    0    0  0.00000000000E+00  0.00000000000E+00  0.19304323286E+04  0.42721997059E+04  0.38111837206E+04 0.  0.
        3    1    3    3  502    0  0.12524955776E+04  0.68569138464E+03 -0.44931535537E+03  0.14969309088E+04  0.10100000352E+00 0. -1.
       -3    1    3    3    0  502 -0.12524955776E+04 -0.68569138464E+03  0.23797476840E+04  0.27752687972E+04  0.10100000352E+00 0.  1.
</event>
<event>
 5   0  0.7858367E-08  0.3789603E+04  0.7818609E-02  0.8048390E-01
       -2   -1    0    0    0  501  0.00000000000E+00  0.00000000000E+00  0.19061037011E+04  0.19061037011E+04  0.25500000920E-02 0.  1.
        2   -1    0    0  501    0  0.00000000000E+00  0.00000000000E+00 -0.18835668015E+04  0.18835668015E+04  0.25500000920E-02 0. -1.
    10030    2    1    2    0    0  0.00000000000E+00  0.00000000000E+00  0.22536899564E+02  0.37896705026E+04  0.37896034893E+04 0.  0.
        2    1    3    3  502    0 -0.55773868584E+03 -0.18908832975E+03  0.18122574906E+04  0.19055456044E+04  0.25500000920E-02 0.  1.
       -2    1    3    3    0  502  0.55773868584E+03  0.18908832975E+03 -0.17897205910E+04  0.18841248982E+04  0.25500000920E-02 0. -1.
</event>
<event>
 5   0  0.7858367E-08  0.3815336E+04  0.7818609E-02  0.8042872E-01
        2   -1    0    0  501    0  0.00000000000E+00  0.00000000000E+00  0.21859774057E+04  0.21859774057E+04  0.25500000920E-02 0.  1.
       -2   -1    0    0    0  501  0.00000000000E+00  0.00000000000E+00 -0.16647917521E+04  0.16647917521E+04  0.25500000920E-02 0. -1.
    10030    2    1    2    0    0  0.00000000000E+00  0.00000000000E+00  0.52118565351E+03  0.38507691578E+04  0.38153359775E+04 0.  0.
        2    1    3    3  502    0 -0.17255390768E+04  0.81119832490E+03  0.32173036394E+03  0.19336592913E+04  0.25500000920E-02 0. -1.
       -2    1    3    3    0  502  0.17255390768E+04 -0.81119832490E+03  0.19945528957E+03  0.19171098665E+04  0.25500000920E-02 0.  1.
</event>
<event>
 5   0  0.3701250E-08  0.3793449E+04  0.7818609E-02  0.8047562E-01
        1   -1    0    0  501    0  0.00000000000E+00  0.00000000000E+00  0.28490627989E+04  0.28490627989E+04  0.50400001928E-02 0.  1.
       -1   -1    0    0    0  501  0.00000000000E+00  0.00000000000E+00 -0.12627182685E+04  0.12627182685E+04  0.50400001928E-02 0. -1.
    10030    2    1    2    0    0  0.00000000000E+00  0.00000000000E+00  0.15863445305E+04  0.41117810674E+04  0.37934489027E+04 0.  0.
        2    1    3    3  502    0  0.60285262940E+03 -0.17023058782E+04  0.14217381625E+04  0.22983942217E+04  0.25500000920E-02 0.  1.
       -2    1    3    3    0  502 -0.60285262940E+03  0.17023058782E+04  0.16460636799E+03  0.18133868457E+04  0.25500000920E-02 0. -1.
</event>
<event>
 5   0  0.3889225E-08  0.3806198E+04  0.7818609E-02  0.8044826E-01
        1   -1    0    0  501    0  0.00000000000E+00  0.00000000000E+00  0.17610602745E+04  0.17610602746E+04  0.50400001928E-02 0. -1.
       -1   -1    0    0    0  501  0.00000000000E+00  0.00000000000E+00 -0.20565936166E+04  0.20565936166E+04  0.50400001928E-02 0.  1.
    10030    2    1    2    0    0  0.00000000000E+00  0.00000000000E+00 -0.29553334204E+03  0.38176538911E+04  0.38061977453E+04 0.  0.
        5    1    3    3  502    0 -0.15158888965E+04  0.11056966200E+04  0.17143492251E+03  0.18841168183E+04  0.46999998093E+01 0. -1.
       -5    1    3    3    0  502  0.15158888965E+04 -0.11056966200E+04 -0.46696826455E+03  0.19335370729E+04  0.46999998093E+01 0.  1.
</event>
<event>
 5   0  0.1143283E-07  0.3794725E+04  0.7818609E-02  0.8047288E-01
        2   -1    0    0  501    0  0.00000000000E+00  0.00000000000E+00  0.20990834808E+04  0.20990834808E+04  0.25500000920E-02 0. -1.
       -2   -1    0    0    0  501  0.00000000000E+00  0.00000000000E+00 -0.17150272502E+04  0.17150272502E+04  0.25500000920E-02 0.  1.
    10030    2    1    2    0    0  0.00000000000E+00  0.00000000000E+00  0.38405623058E+03  0.38141107311E+04  0.37947254816E+04 0.  0.
        1    1    3    3  502    0  0.88436471892E+03 -0.10743710772E+04  0.14884276062E+04  0.20375943920E+04  0.50400001928E-02 0. -1.
       -1    1    3    3    0  502 -0.88436471892E+03  0.10743710772E+04 -0.11043713756E+04  0.17765163390E+04  0.50400001928E-02 0.  1.
</event>
<event>
 5   0  0.7858367E-08  0.3755802E+04  0.7818609E-02  0.8055707E-01
       -2   -1    0    0    0  501  0.00000000000E+00  0.00000000000E+00  0.17427958236E+04  0.17427958236E+04  0.25500000920E-02 0.  1.
        2   -1    0    0  501    0  0.00000000000E+00  0.00000000000E+00 -0.20234799775E+04  0.20234799775E+04  0.25500000920E-02 0. -1.
    10030    2    1    2    0    0  0.00000000000E+00  0.00000000000E+00 -0.28068415396E+03  0.37662758011E+04  0.37558021534E+04 0.  0.
        2    1    3    3  502    0  0.38922859680E+03  0.15388179515E+04  0.86597663448E+03  0.18081413440E+04  0.25500000920E-02 0.  1.
       -2    1    3    3    0  502 -0.38922859680E+03 -0.15388179515E+04 -0.11466607884E+04  0.19581344571E+04  0.25500000920E-02 0. -1.
</event>
<event>
 5   0  0.3701250E-08  0.3797688E+04  0.7818609E-02  0.8046651E-01
        1   -1    0    0  501    0  0.00000000000E+00  0.00000000000E+00  0.28649496716E+04  0.28649496716E+04  0.50400001928E-02 0.  1.
       -1   -1    0    0    0  501  0.00000000000E+00  0.00000000000E+00 -0.12585243429E+04  0.12585243429E+04  0.50400001928E-02 0. -1.
    10030    2    1    2    0    0  0.00000000000E+00  0.00000000000E+00  0.16064253287E+04  0.41234740145E+04  0.37976881931E+04 0.  0.
        1    1    3    3  502    0 -0.11791343163E+04 -0.12189864816E+04 -0.12405251116E+03  0.17004925180E+04  0.50400001928E-02 0. -1.
       -1    1    3    3    0  502  0.11791343163E+04  0.12189864816E+04  0.17304778399E+04  0.24229814965E+04  0.50400001928E-02 0.  1.
</event>
<event>
 5   0  0.3701250E-08  0.3800478E+04  0.7818609E-02  0.8046052E-01
        1   -1    0    0  501    0  0.00000000000E+00  0.00000000000E+00  0.25225264837E+04  0.25225264837E+04  0.50400001928E-02 0. -1.
       -1   -1    0    0    0  501  0.00000000000E+00  0.00000000000E+00 -0.14314649561E+04  0.14314649561E+04  0.50400001928E-02 0.  1.
    10030    2    1    2    0    0  0.00000000000E+00  0.00000000000E+00  0.10910615275E+04  0.39539914398E+04  0.38004780027E+04 0.  0.
        3    1    3    3  502    0  0.21259220171E+02  0.12117609057E+04  0.20682384553E+04  0.23971705749E+04  0.10100000352E+00 0. -1.
       -3    1    3    3    0  502 -0.21259220171E+02 -0.12117609057E+04 -0.97717692778E+03  0.15568208649E+04  0.10100000352E+00 0.  1.
</event>
<event>
 5   0  0.3701250E-08  0.3792363E+04  0.7818609E-02  0.8047796E-01
       -1   -1    0    0    0  501  0.00000000000E+00  0.00000000000E+00  0.20798628070E+04  0.20798628070E+04  0.50400001928E-02 0.  1.
        1   -1    0    0  501    0  0.00000000000E+00  0.00000000000E+00 -0.17287218749E+04  0.17287218749E+04  0.50400001928E-02 0. -1.
    10030    2    1    2    0    0  0.00000000000E+00  0.00000000000E+00  0.35114093218E+03  0.38085846819E+04  0.37923630265E+04 0.  0.
        2    1    3    3  502    0 -0.82380454366E+02  0.15338788948E+04  0.12920512028E+04  0.20072287647E+04  0.25500000920E-02 0.  1.
       -2    1    3    3    0  502  0.82380454366E+02 -0.15338788948E+04 -0.94091027066E+03  0.18013559172E+04  0.25500000920E-02 0. -1.
</event>
<event>
 5   0  0.3701250E-08  0.3797526E+04  0.7818609E-02  0.8046686E-01
        3   -1    0    0  501    0  0.00000000000E+00  0.00000000000E+00  0.14596611596E+04  0.14596611631E+04  0.10100000352E+00 0.  1.
       -3   -1    0    0    0  501  0.00000000000E+00  0.00000000000E+00 -0.24699580682E+04  0.24699580703E+04  0.10100000352E+00 0. -1.
    10030    2    1    2    0    0  0.00000000000E+00  0.00000000000E+00 -0.10102969086E+04  0.39296192334E+04  0.37975264944E+04 0.  0.
        4    1    3    3  502    0  0.27711510138E+03  0.12480730106E+04 -0.19578395515E+04  0.23382934678E+04  0.12699999809E+01 0. -1.
       -4    1    3    3    0  502 -0.27711510138E+03 -0.12480730106E+04  0.94754264292E+03  0.15913257656E+04  0.12699999809E+01 0.  1.
</event>
<event>
 5   0  0.3701250E-08  0.3799128E+04  0.7818609E-02  0.8046342E-01
        1   -1    0    0  501    0  0.00000000000E+00  0.00000000000E+00  0.18083494192E+04  0.18083494192E+04  0.50400001928E-02 0.  1.
       -1   -1    0    0    0  501  0.00000000000E+00  0.00000000000E+00 -0.19953795030E+04  0.19953795030E+04  0.50400001928E-02 0. -1.
    10030    2    1    2    0    0  0.00000000000E+00  0.00000000000E+00 -0.18703008384E+03  0.38037289222E+04  0.37991279869E+04 0.  0.
        1    1    3    3  502    0 -0.84623208092E+03  0.10590690729E+04  0.12387381305E+04  0.18363573160E+04  0.50400001928E-02 0.  1.
       -1    1    3    3    0  502  0.84623208092E+03 -0.10590690729E+04 -0.14257682143E+04  0.19673716062E+04  0.50400001928E-02 0. -1.
</event>
<event>
 5   0  0.1193861E-07  0.3771799E+04  0.7818609E-02  0.8052234E-01
        2   -1    0    0  501    0  0.00000000000E+00  0.00000000000E+00  0.13931233301E+04  0.13931233301E+04  0.25500000920E-02 0. -1.
       -2   -1    0    0    0  501  0.00000000000E+00  0.00000000000E+00 -0.25529805324E+04  0.25529805324E+04  0.25500000920E-02 0.  1.
    10030    2    1    2    0    0  0.00000000000E+00  0.00000000000E+00 -0.11598572023E+04  0.39461038625E+04  0.37717989029E+04 0.  0.
        3    1    3    3  502    0 -0.41395241359E+02 -0.90067597895E+02  0.13903960022E+04  0.13939249590E+04  0.10100000352E+00 0. -1.
       -3    1    3    3    0  502  0.41395241359E+02  0.90067597895E+02 -0.25502532045E+04  0.25521789035E+04  0.10100000352E+00 0.  1.
</event>
<event>
 5   0  0.3701250E-08  0.3795185E+04  0.7818609E-02  0.8047189E-01
        1   -1    0    0  501    0  0.00000000000E+00  0.00000000000E+00  0.19215329617E+04  0.19215329618E+04  0.50400001928E-02 0.  1.
       -1   -1    0    0    0  501  0.00000000000E+00  0.00000000000E+00 -0.18739506593E+04  0.18739506593E+04  0.50400001928E-02 0. -1.
    10030    2    1    2    0    0  0.00000000000E+00  0.00000000000E+00  0.47582302460E+02  0.37954836210E+04  0.37951853502E+04 0.  0.
        2    1    3    3  502    0 -0.58975067894E+03  0.79272630648E+03 -0.15964093509E+04  0.18774300721E+04  0.25500000920E-02 0. -1.
       -2    1    3    3    0  502  0.58975067894E+03 -0.79272630648E+03  0.16439916533E+04  0.19180535489E+04  0.25500000920E-02 0.  1.
</event>
<event>
 5   0  0.1143283E-07  0.3808433E+04  0.7818609E-02  0.8044348E-01
        2   -1    0    0  501    0  0.00000000000E+00  0.00000000000E+00  0.19771973531E+04  0.19771973531E+04  0.25500000920E-02 0. -1.
       -2   -1    0    0    0  501  0.00000000000E+00  0.00000000000E+00 -0.18339294641E+04  0.18339294641E+04  0.25500000920E-02 0.  1.
    10030    2    1    2    0    0  0.00000000000E+00  0.00000000000E+00  0.14326788899E+03  0.38111268173E+04  0.38084330018E+04 0.  0.
        1    1    3    3  502    0  0.11523045030E+04 -0.16315892577E+03 -0.14366195731E+04  0.18488651386E+04  0.50400001928E-02 0.  1.
       -1    1    3    3    0  502 -0.11523045030E+04  0.16315892577E+03  0.15798874621E+04  0.19622616787E+04  0.50400001928E-02 0. -1.
</event>
<event>
 5   0  0.3701250E-08  0.3823246E+04  0.7818609E-02  0.8041185E-01
        1   -1    0    0  501    0  0.00000000000E+00  0.00000000000E+00  0.21144336712E+04  0.21144336712E+04  0.50400001928E-02 0.  1.
       -1   -1    0    0    0  501  0.00000000000E+00  0.00000000000E+00 -0.17282651553E+04  0.17282651553E+04  0.50400001928E-02 0. -1.
    10030    2    1    2    0    0  0.00000000000E+00  0.00000000000E+00  0.38616851595E+03  0.38426988265E+04  0.38232457609E+04 0.  0.
        2    1    3    3  502    0  0.11736346393E+04  0.39211357869E+03 -0.12714262711E+04  0.17741747625E+04  0.25500000920E-02 0. -1.
       -2    1    3    3    0  502 -0.11736346393E+04 -0.39211357869E+03  0.16575947871E+04  0.20685240640E+04  0.25500000920E-02 0.  1.
</event>
<event>
 5   0  0.3701250E-08  0.3806550E+04  0.7818609E-02  0.8044751E-01
        1   -1    0    0  501    0  0.00000000000E+00  0.00000000000E+00  0.21779022628E+04  0.21779022628E+04  0.50400001928E-02 0.  1.
       -1   -1    0    0    0  501  0.00000000000E+00  0.00000000000E+00 -0.16632772553E+04  0.16632772553E+04  0.50400001928E-02 0. -1.
    10030    2    1    2    0    0  0.00000000000E+00  0.00000000000E+00  0.51462500743E+03  0.38411795181E+04  0.38065497753E+04 0.  0.
        3    1    3    3  502    0  0.85178249468E+03  0.67297812419E+03 -0.13202467290E+04  0.17092350364E+04  0.10100000352E+00 0. -1.
       -3    1    3    3    0  502 -0.85178249468E+03 -0.67297812419E+03  0.18348717365E+04  0.21319444818E+04  0.10100000352E+00 0.  1.
</event>
<event>
 5   0  0.1150235E-07  0.3801681E+04  0.7818609E-02  0.8045794E-01
       -2   -1    0    0    0  501  0.00000000000E+00  0.00000000000E+00  0.23965487774E+04  0.23965487774E+04  0.25500000920E-02 0.  1.
        2   -1    0    0  501    0  0.00000000000E+00  0.00000000000E+00 -0.15076655456E+04  0.15076655456E+04  0.25500000920E-02 0. -1.
    10030    2    1    2    0    0  0.00000000000E+00  0.00000000000E+00  0.88888323178E+03  0.39042143230E+04  0.38016806915E+04 0.  0.
        4    1    3    3  502    0 -0.13289450771E+04 -0.41817922318E+03  0.17724633355E+04  0.22544615254E+04  0.12699999809E+01 0.  1.
       -4    1    3    3    0  502  0.13289450771E+04  0.41817922318E+03 -0.88358010376E+03  0.16497527976E+04  0.12699999809E+01 0. -1.
</event>
<event>
 5   0  0.3701250E-08  0.3795261E+04  0.7818609E-02  0.8047173E-01
        1   -1    0    0  501    0  0.00000000000E+00  0.00000000000E+00  0.13690592616E+04  0.13690592617E+04  0.50400001928E-02 0.  1.
       -1   -1    0    0    0  501  0.00000000000E+00  0.00000000000E+00 -0.26302746965E+04  0.26302746965E+04  0.50400001928E-02 0. -1.
    10030    2    1    2    0    0  0.00000000000E+00  0.00000000000E+00 -0.12612154348E+04  0.39993339581E+04  0.37952612210E+04 0.  0.
        4    1    3    3  502    0  0.13272646939E+04  0.26082056182E+03 -0.20330891904E+04  0.24419484437E+04  0.12699999809E+01 0. -1.
       -4    1    3    3    0  502 -0.13272646939E+04 -0.26082056182E+03  0.77187375552E+03  0.15573855144E+04  0.12699999809E+01 0.  1.
</event>
<event>
 5   0  0.7858367E-08  0.3752294E+04  0.7818609E-02  0.8056471E-01
        2   -1    0    0  501    0  0.00000000000E+00  0.00000000000E+00  0.20851241776E+04  0.20851241776E+04  0.25500000920E-02 0.  1.
       -2   -1    0    0    0  501  0.00000000000E+00  0.00000000000E+00 -0.16881139607E+04  0.16881139607E+04  0.25500000920E-02 0. -1.
    10030    2    1    2    0    0  0.00000000000E+00  0.00000000000E+00  0.39701021694E+03  0.37732381383E+04  0.37522938232E+04 0.  0.
        2    1    3    3  502    0  0.23375729821E+03 -0.13439487781E+04 -0.10967397710E+04  0.17503368013E+04  0.25500000920E-02 0. -1.
       -2    1    3    3    0  502 -0.23375729821E+03  0.13439487781E+04  0.14937499880E+04  0.20229013370E+04  0.25500000920E-02 0.  1.
</event>
<event>
 5   0  0.3701250E-08  0.3794466E+04  0.7818609E-02  0.8047343E-01
       -1   -1    0    0    0  501  0.00000000000E+00  0.00000000000E+00  0.22010880337E+04  0.22010880337E+04  0.50400001928E-02 0. -1.
        1   -1    0    0  501    0  0.00000000000E+00  0.00000000000E+00 -0.16353248659E+04  0.16353248659E+04  0.50400001928E-02 0.  1.
    10030    2    1    2    0    0  0.00000000000E+00  0.00000000000E+00  0.56576316778E+03  0.38364128996E+04  0.37944664941E+04 0.  0.
        3    1    3    3  502    0 -0.11564324554E+04  0.14912846953E+04  0.85200580178E+02  0.18890540531E+04  0.10100000352E+00 0.  1.
       -3    1    3    3    0  502  0.11564324554E+04 -0.14912846953E+04  0.48056258760E+03  0.19473588466E+04  0.10100000352E+00 0. -1.
</event>
<event>
 5   0  0.1143283E-07  0.3780428E+04  0.7818609E-02  0.8050368E-01
        2   -1    0    0  501    0  0.00000000000E+00  0.00000000000E+00  0.25126314324E+04  0.25126314324E+04  0.25500000920E-02 0. -1.
       -2   -1    0    0    0  501  0.00000000000E+00  0.00000000000E+00 -0.14219792804E+04  0.14219792804E+04  0.25500000920E-02 0.  1.
    10030    2    1    2    0    0  0.00000000000E+00  0.00000000000E+00  0.10906521520E+04  0.39346107127E+04  0.37804284604E+04 0.  0.
        1    1    3    3  502    0  0.13364469887E+04  0.99500178165E+03 -0.38371065385E+03  0.17097815547E+04  0.50400001928E-02 0.  1.
       -1    1    3    3    0  502 -0.13364469887E+04 -0.99500178165E+03  0.14743628058E+04  0.22248291580E+04  0.50400001928E-02 0. -1.
</event>
<event>
 5   0  0.3701250E-08  0.3802023E+04  0.7818609E-02  0.8045721E-01
       -1   -1    0    0    0  501  0.00000000000E+00  0.00000000000E+00  0.17289044206E+04  0.17289044206E+04  0.50400001928E-02 0.  1.
        1   -1    0    0  501    0  0.00000000000E+00  0.00000000000E+00 -0.20902514814E+04  0.20902514814E+04  0.50400001928E-02 0. -1.
    10030    2    1    2    0    0  0.00000000000E+00  0.00000000000E+00 -0.36134706076E+03  0.38191559020E+04  0.38020231595E+04 0.  0.
        2    1    3    3  502    0 -0.26536428544E+03 -0.97416534831E+03  0.14373077729E+04  0.17564936561E+04  0.25500000920E-02 0.  1.
       -2    1    3    3    0  502  0.26536428544E+03  0.97416534831E+03 -0.17986548337E+04  0.20626622459E+04  0.25500000920E-02 0. -1.
</event>
<event>
 5   0  0.7858367E-08  0.3798503E+04  0.7818609E-02  0.8046476E-01
        2   -1    0    0  501    0  0.00000000000E+00  0.00000000000E+00  0.20727886723E+04  0.20727886723E+04  0.25500000920E-02 0.  1.
       -2   -1    0    0    0  501  0.00000000000E+00  0.00000000000E+00 -0.17402432905E+04  0.17402432905E+04  0.25500000920E-02 0. -1.
    10030    2    1    2    0    0  0.00000000000E+00  0.00000000000E+00  0.33254538175E+03  0.38130319628E+04  0.37985031681E+04 0.  0.
        2    1    3    3  502    0  0.35235373647E+02 -0.19151125151E+03  0.20627416407E+04  0.20719124420E+04  0.25500000920E-02 0.  1.
       -2    1    3    3    0  502 -0.35235373647E+02  0.19151125151E+03 -0.17301962590E+04  0.17411195208E+04  0.25500000920E-02 0. -1.
</event>
<event>
 5   0  0.1143283E-07  0.3844346E+04  0.7818609E-02  0.8036705E-01
        2   -1    0    0  501    0  0.00000000000E+00  0.00000000000E+00  0.11182327929E+04  0.11182327929E+04  0.25500000920E-02 0. -1.
       -2   -1    0    0    0  501  0.00000000000E+00  0.00000000000E+00 -0.33040962116E+04  0.33040962116E+04  0.25500000920E-02 0.  1.
    10030    2    1    2    0    0  0.00000000000E+00  0.00000000000E+00 -0.21858634187E+04  0.44223290045E+04  0.38443458402E+04 0.  0.
        1    1    3    3  502    0  0.39010058129E+03 -0.66195699125E+03 -0.31197567549E+04  0.32129811285E+04  0.50400001928E-02 0.  1.
       -1    1    3    3    0  502 -0.39010058129E+03  0.66195699125E+03  0.93389333626E+03  0.12093478761E+04  0.50400001928E-02 0. -1.
</event>
<event>
 5   0  0.3701250E-08  0.3805320E+04  0.7818609E-02  0.8045014E-01
       -1   -1    0    0    0  501  0.00000000000E+00  0.00000000000E+00  0.19809229992E+04  0.19809229992E+04  0.50400001928E-02 0.  1.
        1   -1    0    0  501    0  0.00000000000E+00  0.00000000000E+00 -0.18274885845E+04  0.18274885845E+04  0.50400001928E-02 0. -1.
    10030    2    1    2    0    0  0.00000000000E+00  0.00000000000E+00  0.15343441473E+03  0.38084115837E+04  0.38053195229E+04 0.  0.
        1    1    3    3  502    0 -0.10501060593E+04  0.14473662427E+04 -0.57382819637E+03  0.18779964258E+04  0.50400001928E-02 0. -1.
       -1    1    3    3    0  502  0.10501060593E+04 -0.14473662427E+04  0.72726261110E+03  0.19304151579E+04  0.50400001928E-02 0.  1.
</event>
<event>
 5   0  0.3701250E-08  0.3732864E+04  0.7818609E-02  0.8060718E-01
        1   -1    0    0  501    0  0.00000000000E+00  0.00000000000E+00  0.21458644849E+04  0.21458644849E+04  0.50400001928E-02 0.  1.
       -1   -1    0    0    0  501  0.00000000000E+00  0.00000000000E+00 -0.16233866257E+04  0.16233866258E+04  0.50400001928E-02 0. -1.
    10030    2    1    2    0    0  0.00000000000E+00  0.00000000000E+00  0.52247785919E+03  0.37692511107E+04  0.37328636222E+04 0.  0.
        2    1    3    3  502    0  0.43741419930E+03 -0.33529956360E+03  0.20618237433E+04  0.21342151080E+04  0.25500000920E-02 0.  1.
       -2    1    3    3    0  502 -0.43741419930E+03  0.33529956360E+03 -0.15393458841E+04  0.16350360026E+04  0.25500000920E-02 0. -1.
</event>
<event>
 5   0  0.7858367E-08  0.3779408E+04  0.7818609E-02  0.8050588E-01
        2   -1    0    0  501    0  0.00000000000E+00  0.00000000000E+00  0.22361508671E+04  0.22361508671E+04  0.25500000920E-02 0.  1.
       -2   -1    0    0    0  501  0.00000000000E+00  0.00000000000E+00 -0.15969317989E+04  0.15969317989E+04  0.25500000920E-02 0. -1.
    10030    2    1    2    0    0  0.00000000000E+00  0.00000000000E+00  0.63921906827E+03  0.38330826660E+04  0.37794075868E+04 0.  0.
        2    1    3    3  502    0  0.15364906723E+04  0.33501023967E+03  0.13823194765E+04  0.20937627807E+04  0.25500000920E-02 0. -1.
       -2    1    3    3    0  502 -0.15364906723E+04 -0.33501023967E+03 -0.74310040824E+03  0.17393198853E+04  0.25500000920E-02 0.  1.
</event>
<event>
 5   0  0.1150235E-07  0.3806671E+04  0.7818609E-02  0.8044725E-01
        2   -1    0    0  501    0  0.00000000000E+00  0.00000000000E+00  0.28876337327E+04  0.28876337327E+04  0.25500000920E-02 0.  1.
       -2   -1    0    0    0  501  0.00000000000E+00  0.00000000000E+00 -0.12545516784E+04  0.12545516784E+04  0.25500000920E-02 0. -1.
    10030    2    1    2    0    0  0.00000000000E+00  0.00000000000E+00  0.16330820543E+04  0.41421854111E+04  0.38066708531E+04 0.  0.
        4    1    3    3  502    0  0.88149017269E+03 -0.55833687663E+03 -0.91558937313E+03  0.13881896504E+04  0.12699999809E+01 0. -1.
       -4    1    3    3    0  502 -0.88149017269E+03  0.55833687663E+03  0.25486714274E+04  0.27539957607E+04  0.12699999809E+01 0.  1.
</event>
<event>
 5   0  0.1193861E-07  0.3768408E+04  0.7818609E-02  0.8052969E-01
        2   -1    0    0  501    0  0.00000000000E+00  0.00000000000E+00  0.19436627717E+04  0.19436627717E+04  0.25500000920E-02 0. -1.
       -2   -1    0    0    0  501  0.00000000000E+00  0.00000000000E+00 -0.18265639615E+04  0.18265639615E+04  0.25500000920E-02 0.  1.
    10030    2    1    2    0    0  0.00000000000E+00  0.00000000000E+00  0.11709881017E+03  0.37702267333E+04  0.37684078188E+04 0.  0.
        3    1    3    3  502    0  0.17733128914E+03 -0.49665691042E+03 -0.17512211273E+04  0.18289040214E+04  0.10100000352E+00 0.  1.
       -3    1    3    3    0  502 -0.17733128914E+03  0.49665691042E+03  0.18683199374E+04  0.19413227119E+04  0.10100000352E+00 0. -1.
</event>
<event>
 5   0  0.1193861E-07  0.3788830E+04  0.7818609E-02  0.8048556E-01
       -2   -1    0    0    0  501  0.00000000000E+00  0.00000000000E+00  0.17508240233E+04  0.17508240233E+04  0.25500000920E-02 0. -1.
        2   -1    0    0  501    0  0.00000000000E+00  0.00000000000E+00 -0.20497821995E+04  0.20497821995E+04  0.25500000920E-02 0.  1.
    10030    2    1    2    0    0  0.00000000000E+00  0.00000000000E+00 -0.29895817622E+03  0.38006062228E+04  0.37888298549E+04 0.  0.
        3    1    3    3  502    0  0.66706559129E+03  0.42690135668E+03  0.15767959595E+04  0.17645131848E+04  0.10100000352E+00 0. -1.
       -3    1    3    3    0  502 -0.66706559129E+03 -0.42690135668E+03 -0.18757541357E+04  0.20360930380E+04  0.10100000352E+00 0.  1.
</event>
<event>
 5   0  0.3701250E-08  0.3795491E+04  0.7818609E-02  0.8047123E-01
        1   -1    0    0  501    0  0.00000000000E+00  0.00000000000E+00  0.15482583134E+04  0.15482583134E+04  0.50400001928E-02 0. -1.
       -1   -1    0    0    0  501  0.00000000000E+00  0.00000000000E+00 -0.23261219015E+04  0.23261219015E+04  0.50400001928E-02 0.  1.
    10030    2    1    2    0    0  0.00000000000E+00  0.00000000000E+00 -0.77786358809E+03  0.38743802149E+04  0.37954907835E+04 0.  0.
        4    1    3    3  502    0  0.24615775877E+03 -0.17910492082E+04  0.20011075299E+03  0.18189273857E+04  0.12699999809E+01 0. -1.
       -4    1    3    3    0  502 -0.24615775877E+03  0.17910492082E+04 -0.97797434108E+03  0.20554528292E+04  0.12699999809E+01 0.  1.
</event>
<event>
 5   0  0.3701250E-08  0.3810236E+04  0.7818609E-02  0.8043962E-01
        1   -1    0    0  501    0  0.00000000000E+00  0.00000000000E+00  0.26064437365E+04  0.26064437365E+04  0.50400001928E-02 0.  1.
       -1   -1    0    0    0  501  0.00000000000E+00  0.00000000000E+00 -0.13925007785E+04  0.13925007785E+04  0.50400001928E-02 0. -1.
    10030    2    1    2    0    0  0.00000000000E+00  0.00000000000E+00  0.12139429580E+04  0.39989445150E+04  0.38102361775E+04 0.  0.
        3    1    3    3  502    0  0.15962837335E+04 -0.30313429605E+03 -0.43701099852E+03  0.16825548379E+04  0.10100000352E+00 0. -1.
       -3    1    3    3    0  502 -0.15962837335E+04  0.30313429605E+03  0.16509539566E+04  0.23163896771E+04  0.10100000352E+00 0.  1.
</event>
<event>
 5   0  0.3701250E-08  0.3800755E+04  0.7818609E-02  0.8045993E-01
       -1   -1    0    0    0  501  0.00000000000E+00  0.00000000000E+00  0.27689677544E+04  0.27689677544E+04  0.50400001928E-02 0. -1.
        1   -1    0    0  501    0  0.00000000000E+00  0.00000000000E+00 -0.13042527408E+04  0.13042527408E+04  0.50400001928E-02 0.  1.
    10030    2    1    2    0    0  0.00000000000E+00  0.00000000000E+00  0.14647150136E+04  0.40732204952E+04  0.38007545477E+04 0.  0.
        4    1    3    3  502    0 -0.10433261974E+04 -0.14879772580E+03 -0.96238711535E+03  0.14271863543E+04  0.12699999809E+01 0.  1.
       -4    1    3    3    0  502  0.10433261974E+04  0.14879772580E+03  0.24271021290E+04  0.26460341409E+04  0.12699999809E+01 0. -1.
</event>
<event>
 5   0  0.7858367E-08  0.3806880E+04  0.7818609E-02  0.8044680E-01
        2   -1    0    0  501    0  0.00000000000E+00  0.00000000000E+00  0.16908767125E+04  0.16908767125E+04  0.25500000920E-02 0.  1.
       -2   -1    0    0    0  501  0.00000000000E+00  0.00000000000E+00 -0.21427247451E+04  0.21427247451E+04  0.25500000920E-02 0. -1.
    10030    2    1    2    0    0  0.00000000000E+00  0.00000000000E+00 -0.45184803261E+03  0.38336014577E+04  0.38068797580E+04 0.  0.
        2    1    3    3  502    0  0.50199763950E+03  0.16704455440E+04 -0.99330539632E+03  0.20072482546E+04  0.25500000920E-02 0.  1.
       -2    1    3    3    0  502 -0.50199763950E+03 -0.16704455440E+04  0.54145736371E+03  0.18263532030E+04  0.25500000920E-02 0. -1.
</event>
<event>
 5   0  0.1150235E-07  0.3805334E+04  0.7818609E-02  0.8045011E-01
       -2   -1    0    0    0  501  0.00000000000E+00  0.00000000000E+00  0.16694345867E+04  0.16694345867E+04  0.25500000920E-02 0. -1.
        2   -1    0    0  501    0  0.00000000000E+00  0.00000000000E+00 -0.21684842729E+04  0.21684842729E+04  0.25500000920E-02 0.  1.
    10030    2    1    2    0    0  0.00000000000E+00  0.00000000000E+00 -0.49904968617E+03  0.38379188596E+04  0.38053344904E+04 0.  0.
        4    1    3    3  502    0 -0.12538626571E+04 -0.42007947424E+03  0.11302180983E+04  0.17395496228E+04  0.12699999809E+01 0. -1.
       -4    1    3    3    0  502  0.12538626571E+04  0.42007947424E+03 -0.16292677845E+04  0.20983692368E+04  0.12699999809E+01 0.  1.
</event>
<event>
 5   0  0.3889225E-08  0.3710129E+04  0.7818609E-02  0.8065721E-01
       -1   -1    0    0    0  501  0.00000000000E+00  0.00000000000E+00  0.21339393908E+04  0.21339393908E+04  0.50400001928E-02 0. -1.
        1   -1    0    0  501    0  0.00000000000E+00  0.00000000000E+00 -0.16126341737E+04  0.16126341737E+04  0.50400001928E-02 0.  1.
    10030    2    1    2    0    0  0.00000000000E+00  0.00000000000E+00  0.52130521714E+03  0.37465735645E+04  0.37101286156E+04 0.  0.
        5    1    3    3  502    0  0.11371101493E+04 -0.59879898578E+03 -0.10902709672E+04  0.16853167622E+04  0.46999998093E+01 0.  1.
       -5    1    3    3    0  502 -0.11371101493E+04  0.59879898578E+03  0.16115761843E+04  0.20612568023E+04  0.46999998093E+01 0. -1.
</event>
<event>
 5   0  0.7858367E-08  0.3786417E+04  0.7818609E-02  0.8049076E-01
       -2   -1    0    0    0  501  0.00000000000E+00  0.00000000000E+00  0.26583264977E+04  0.26583264977E+04  0.25500000920E-02 0. -1.
        2   -1    0    0  501    0  0.00000000000E+00  0.00000000000E+00 -0.13483061057E+04  0.13483061057E+04  0.25500000920E-02 0.  1.
    10030    2    1    2    0    0  0.00000000000E+00  0.00000000000E+00  0.13100203921E+04  0.40066326034E+04  0.37864166954E+04 0.  0.
        2    1    3    3  502    0  0.17947317554E+04  0.39944059230E+02  0.12912977998E+04  0.22113587700E+04  0.25500000920E-02 0. -1.
       -2    1    3    3    0  502 -0.17947317554E+04 -0.39944059230E+02  0.18722592233E+02  0.17952738335E+04  0.25500000920E-02 0.  1.
</event>
<event>
 5   0  0.1174870E-07  0.3809812E+04  0.7818609E-02  0.8044053E-01
       -2   -1    0    0    0  501  0.00000000000E+00  0.00000000000E+00  0.18710469525E+04  0.18710469525E+04  0.25500000920E-02 0.  1.
        2   -1    0    0  501    0  0.00000000000E+00  0.00000000000E+00 -0.19393776170E+04  0.19393776170E+04  0.25500000920E-02 0. -1.
    10030    2    1    2    0    0  0.00000000000E+00  0.00000000000E+00 -0.68330664504E+02  0.38104245695E+04  0.38098118484E+04 0.  0.
        5    1    3    3  502    0  0.94295572463E+03 -0.80367305734E+03  0.14129912157E+04  0.18792610642E+04  0.46999998093E+01 0.  1.
       -5    1    3    3    0  502 -0.94295572463E+03  0.80367305734E+03 -0.14813218802E+04  0.19311635054E+04  0.46999998093E+01 0. -1.
</event>
<event>
 5   0  0.3701250E-08  0.3815483E+04  0.7818609E-02  0.8042840E-01
        1   -1    0    0  501    0  0.00000000000E+00  0.00000000000E+00  0.13688643719E+04  0.13688643719E+04  0.50400001928E-02 0.  1.
       -1   -1    0    0    0  501  0.00000000000E+00  0.00000000000E+00 -0.26587574328E+04  0.26587574328E+04  0.50400001928E-02 0. -1.
    10030    2    1    2    0    0  0.00000000000E+00  0.00000000000E+00 -0.12898930609E+04  0.40276218047E+04  0.38154833630E+04 0.  0.
        3    1    3    3  502    0  0.11354342255E+04 -0.10760718869E+04  0.50770645626E+03  0.16446602817E+04  0.10100000352E+00 0.  1.
       -3    1    3    3    0  502 -0.11354342255E+04  0.10760718869E+04 -0.17975995172E+04  0.23829615231E+04  0.10100000352E+00 0. -1.
</event>
<event>
 5   0  0.1193861E-07  0.3781073E+04  0.7818609E-02  0.8050229E-01
        2   -1    0    0  501    0  0.00000000000E+00  0.00000000000E+00  0.27643038300E+04  0.27643038300E+04  0.25500000920E-02 0.  1.
       -2   -1    0    0    0  501  0.00000000000E+00  0.00000000000E+00 -0.12929579893E+04  0.12929579893E+04  0.25500000920E-02 0. -1.
    10030    2    1    2    0    0  0.00000000000E+00  0.00000000000E+00  0.14713458407E+04  0.40572618193E+04  0.37810732454E+04 0.  0.
        3    1    3    3  502    0  0.10734987648E+04  0.99230358010E+02 -0.93079137173E+03  0.14242959138E+04  0.10100000352E+00 0. -1.
       -3    1    3    3    0  502 -0.10734987648E+04 -0.99230358010E+02  0.24021372124E+04  0.26329659055E+04  0.10100000352E+00 0.  1.
</event>
<event>
 5   0  0.1143283E-07  0.3798794E+04  0.7818609E-02  0.8046414E-01
       -2   -1    0    0    0  501  0.00000000000E+00  0.00000000000E+00  0.25218666757E+04  0.25218666757E+04  0.25500000920E-02 0. -1.
        2   -1    0    0  501    0  0.00000000000E+00  0.00000000000E+00 -0.14305709930E+04  0.14305709930E+04  0.25500000920E-02 0.  1.
    10030    2    1    2    0    0  0.00000000000E+00  0.00000000000E+00  0.10912956826E+04  0.39524376687E+04  0.37987941847E+04 0.  0.
        1    1    3    3  502    0 -0.58240913618E+03 -0.12481184016E+04 -0.81519314804E+03  0.16004811198E+04  0.50400001928E-02 0.  1.
       -1    1    3    3    0  502  0.58240913618E+03  0.12481184016E+04  0.19064888307E+04  0.23519565489E+04  0.50400001928E-02 0. -1.
</event>
<event>
 5   0  0.3701250E-08  0.3823285E+04  0.7818609E-02  0.8041176E-01
        1   -1    0    0  501    0  0.00000000000E+00  0.00000000000E+00  0.27047899188E+04  0.27047899188E+04  0.50400001928E-02 0. -1.
       -1   -1    0    0    0  501  0.00000000000E+00  0.00000000000E+00 -0.13510759788E+04  0.13510759788E+04  0.50400001928E-02 0.  1.
    10030    2    1    2    0    0  0.00000000000E+00  0.00000000000E+00  0.13537139400E+04  0.40558658976E+04  0.38232848113E+04 0.  0.
        4    1    3    3  502    0 -0.16861313749E+04 -0.41887722264E+03  0.15227857732E+04  0.23102760149E+04  0.12699999809E+01 0. -1.
       -4    1    3    3    0  502  0.16861313749E+04  0.41887722264E+03 -0.16907183324E+03  0.17455898827E+04  0.12699999809E+01 0.  1.
</event>
<event>
 5   0  0.3701250E-08  0.3780032E+04  0.7818609E-02  0.8050453E-01
        1   -1    0    0  501    0  0.00000000000E+00  0.00000000000E+00  0.25545260060E+04  0.25545260060E+04  0.50400001928E-02 0.  1.
       -1   -1    0    0    0  501  0.00000000000E+00  0.00000000000E+00 -0.13983656196E+04  0.13983656196E+04  0.50400001928E-02 0. -1.
    10030    2    1    2    0    0  0.00000000000E+00  0.00000000000E+00  0.11561603864E+04  0.39528916256E+04  0.37800324555E+04 0.  0.
        2    1    3    3  502    0 -0.16548170076E+04 -0.89078508583E+03  0.36829750676E+03  0.19150875832E+04  0.25500000920E-02 0. -1.
       -2    1    3    3    0  502  0.16548170076E+04  0.89078508583E+03  0.78786287959E+03  0.20378040423E+04  0.25500000920E-02 0.  1.
</event>
<event>
 5   0  0.3701250E-08  0.3787499E+04  0.7818609E-02  0.8048843E-01
       -1   -1    0    0    0  501  0.00000000000E+00  0.00000000000E+00  0.17150242322E+04  0.17150242323E+04  0.50400001928E-02 0.  1.
        1   -1    0    0  501    0  0.00000000000E+00  0.00000000000E+00 -0.20911002723E+04  0.20911002723E+04  0.50400001928E-02 0. -1.
    10030    2    1    2    0    0  0.00000000000E+00  0.00000000000E+00 -0.37607604003E+03  0.38061245045E+04  0.37874992483E+04 0.  0.
        3    1    3    3  502    0 -0.39692123457E+02 -0.13202010311E+04  0.11757581828E+04  0.17683081015E+04  0.10100000352E+00 0.  1.
       -3    1    3    3    0  502  0.39692123457E+02  0.13202010311E+04 -0.15518342228E+04  0.20378164030E+04  0.10100000352E+00 0. -1.
</event>
<event>
 5   0  0.7858367E-08  0.3800968E+04  0.7818609E-02  0.8045947E-01
       -2   -1    0    0    0  501  0.00000000000E+00  0.00000000000E+00  0.14425092194E+04  0.14425092194E+04  0.25500000920E-02 0. -1.
        2   -1    0    0  501    0  0.00000000000E+00  0.00000000000E+00 -0.25038583001E+04  0.25038583001E+04  0.25500000920E-02 0.  1.
    10030    2    1    2    0    0  0.00000000000E+00  0.00000000000E+00 -0.10613490808E+04  0.39463675195E+04  0.38009676042E+04 0.  0.
        2    1    3    3  502    0  0.16066281269E+04 -0.42274258112E+03  0.42760210169E+03  0.17154616829E+04  0.25500000920E-02 0. -1.
       -2    1    3    3    0  502 -0.16066281269E+04  0.42274258112E+03 -0.14889511825E+04  0.22309058366E+04  0.25500000920E-02 0.  1.
</event>
<event>
 5   0  0.3889225E-08  0.3805794E+04  0.7818609E-02  0.8044913E-01
       -1   -1    0    0    0  501  0.00000000000E+00  0.00000000000E+00  0.18574415453E+04  0.18574415454E+04  0.50400001928E-02 0.  1.
        1   -1    0    0  501    0  0.00000000000E+00  0.00000000000E+00 -0.19494647719E+04  0.19494647719E+04  0.50400001928E-02 0. -1.
    10030    2    1    2    0    0  0.00000000000E+00  0.00000000000E+00 -0.92023226549E+02  0.38069063173E+04  0.38057939295E+04 0.  0.
        5    1    3    3  502    0  0.32384595425E+03  0.14622739250E+04 -0.12201832890E+04  0.19318360651E+04  0.46999998093E+01 0. -1.
       -5    1    3    3    0  502 -0.32384595425E+03 -0.14622739250E+04  0.11281600625E+04  0.18750702521E+04  0.46999998093E+01 0.  1.
</event>
<event>
 5   0  0.1143283E-07  0.3771445E+04  0.7818609E-02  0.8052311E-01
       -2   -1    0    0    0  501  0.00000000000E+00  0.00000000000E+00  0.12685866060E+04  0.12685866061E+04  0.25500000920E-02 0. -1.
        2   -1    0    0  501    0  0.00000000000E+00  0.00000000000E+00 -0.28030801093E+04  0.28030801093E+04  0.25500000920E-02 0.  1.
    10030    2    1    2    0    0  0.00000000000E+00  0.00000000000E+00 -0.15344935032E+04  0.40716667153E+04  0.37714452839E+04 0.  0.
        1    1    3    3  502    0  0.10490318335E+04 -0.15580437321E+04 -0.94784037658E+03  0.21038938753E+04  0.50400001928E-02 0. -1.
       -1    1    3    3    0  502 -0.10490318335E+04  0.15580437321E+04 -0.58665312664E+03  0.19677728400E+04  0.50400001928E-02 0.  1.
</event>
<event>
 5   0  0.1193861E-07  0.3758508E+04  0.7818609E-02  0.8055118E-01
        2   -1    0    0  501    0  0.00000000000E+00  0.00000000000E+00  0.27135531279E+04  0.27135531279E+04  0.25500000920E-02 0.  1.
       -2   -1    0    0    0  501  0.00000000000E+00  0.00000000000E+00 -0.13014652508E+04  0.13014652508E+04  0.25500000920E-02 0. -1.
    10030    2    1    2    0    0  0.00000000000E+00  0.00000000000E+00  0.14120878770E+04  0.40150183787E+04  0.37585077370E+04 0.  0.
        3    1    3    3  502    0  0.13759376413E+04  0.28579320640E+03 -0.62679096445E+03  0.15387491910E+04  0.10100000352E+00 0. -1.
       -3    1    3    3    0  502 -0.13759376413E+04 -0.28579320640E+03  0.20388788415E+04  0.24762691877E+04  0.10100000352E+00 0.  1.
</event>
<event>
 5   0  0.3889225E-08  0.3805645E+04  0.7818609E-02  0.8044945E-01
       -1   -1    0    0    0  501  0.00000000000E+00  0.00000000000E+00  0.16382848037E+04  0.16382848037E+04  0.50400001928E-02 0. -1.
        1   -1    0    0  501    0  0.00000000000E+00  0.00000000000E+00 -0.22100752815E+04  0.22100752815E+04  0.50400001928E-02 0.  1.
    10030    2    1    2    0    0  0.00000000000E+00  0.00000000000E+00 -0.57179047782E+03  0.38483600851E+04  0.38056446227E+04 0.  0.
        5    1    3    3  502    0  0.12600797976E+01  0.18658628982E+04 -0.66326580152E+03  0.19802498722E+04  0.46999998093E+01 0. -1.
       -5    1    3    3    0  502 -0.12600797976E+01 -0.18658628982E+04  0.91475323706E+02  0.18681102129E+04  0.46999998093E+01 0.  1.
</event>
<event>
 5   0  0.3889225E-08  0.3794779E+04  0.7818609E-02  0.8047276E-01
        1   -1    0    0  501    0  0.00000000000E+00  0.00000000000E+00  0.14292460652E+04  0.14292460652E+04  0.50400001928E-02 0. -1.
       -1   -1    0    0    0  501  0.00000000000E+00  0.00000000000E+00 -0.25188717072E+04  0.25188717072E+04  0.50400001928E-02 0.  1.
    10030    2    1    2    0    0  0.00000000000E+00  0.00000000000E+00 -0.10896256420E+04  0.39481177724E+04  0.37947792960E+04 0.  0.
        5    1    3    3  502    0  0.87320607809E+03 -0.89903577864E+03 -0.20269141713E+04  0.23830982636E+04  0.46999998093E+01 0.  1.
       -5    1    3    3    0  502 -0.87320607809E+03  0.89903577864E+03  0.93728852925E+03  0.15650195089E+04  0.46999998093E+01 0. -1.
</event>
<event>
 5   0  0.1143283E-07  0.3804948E+04  0.7818609E-02  0.8045094E-01
       -2   -1    0    0    0  501  0.00000000000E+00  0.00000000000E+00  0.27228040487E+04  0.27228040487E+04  0.25500000920E-02 0.  1.
        2   -1    0    0  501    0  0.00000000000E+00  0.00000000000E+00 -0.13292938498E+04  0.13292938498E+04  0.25500000920E-02 0. -1.
    10030    2    1    2    0    0  0.00000000000E+00  0.00000000000E+00  0.13935101989E+04  0.40520978985E+04  0.38049476612E+04 0.  0.
        1    1    3    3  502    0  0.24901801816E+03  0.55662856540E+03 -0.12223993344E+04  0.13660547083E+04  0.50400001928E-02 0. -1.
       -1    1    3    3    0  502 -0.24901801816E+03 -0.55662856540E+03  0.26159095333E+04  0.26860431902E+04  0.50400001928E-02 0.  1.
</event>
<event>
 5   0  0.3889225E-08  0.3796382E+04  0.7818609E-02  0.8046932E-01
        1   -1    0    0  501    0  0.00000000000E+00  0.00000000000E+00  0.22956871982E+04  0.22956871982E+04  0.50400001928E-02 0. -1.
       -1   -1    0    0    0  501  0.00000000000E+00  0.00000000000E+00 -0.15695211889E+04  0.15695211889E+04  0.50400001928E-02 0.  1.
    10030    2    1    2    0    0  0.00000000000E+00  0.00000000000E+00  0.72616600926E+03  0.38652083871E+04  0.37963823309E+04 0.  0.
        5    1    3    3  502    0  0.44297025393E+03  0.12427696052E+04  0.17525251325E+04  0.21936420327E+04  0.46999998093E+01 0.  1.
       -5    1    3    3    0  502 -0.44297025393E+03 -0.12427696052E+04 -0.10263591232E+04  0.16715663544E+04  0.46999998093E+01 0. -1.
</event>
<event>
 5   0  0.7858367E-08  0.3802722E+04  0.7818609E-02  0.8045571E-01
        2   -1    0    0  501    0  0.00000000000E+00  0.00000000000E+00  0.18837405462E+04  0.18837405462E+04  0.25500000920E-02 0.  1.
       -2   -1    0    0    0  501  0.00000000000E+00  0.00000000000E+00 -0.19191461473E+04  0.19191461473E+04  0.25500000920E-02 0. -1.
    10030    2    1    2    0    0  0.00000000000E+00  0.00000000000E+00 -0.35405601152E+02  0.38028866935E+04  0.38027218735E+04 0.  0.
        2    1    3    3  502    0 -0.12072991231E+04  0.13043849134E+04  0.65773911563E+03  0.18951548536E+04  0.25500000920E-02 0.  1.
       -2    1    3    3    0  502  0.12072991231E+04 -0.13043849134E+04 -0.69314471678E+03  0.19077318400E+04  0.25500000920E-02 0. -1.
</event>
<event>
 5   0  0.1150235E-07  0.3766263E+04  0.7818609E-02  0.8053434E-01
        2   -1    0    0  501    0  0.00000000000E+00  0.00000000000E+00  0.20211890296E+04  0.20211890296E+04  0.25500000920E-02 0.  1.
       -2   -1    0    0    0  501  0.00000000000E+00  0.00000000000E+00 -0.17545040691E+04  0.17545040691E+04  0.25500000920E-02 0. -1.
    10030    2    1    2    0    0  0.00000000000E+00  0.00000000000E+00  0.26668496050E+03  0.37756930987E+04  0.37662630694E+04 0.  0.
        4    1    3    3  502    0 -0.18776531823E+04 -0.11193610055E+03  0.43275445775E+02  0.18814849297E+04  0.12699999809E+01 0. -1.
       -4    1    3    3    0  502  0.18776531823E+04  0.11193610055E+03  0.22340951473E+03  0.18942081691E+04  0.12699999809E+01 0.  1.
</event>
<event>
 5   0  0.3701250E-08  0.3758510E+04  0.7818609E-02  0.8055118E-01
        1   -1    0    0  501    0  0.00000000000E+00  0.00000000000E+00  0.14204347932E+04  0.14204347932E+04  0.50400001928E-02 0. -1.
       -1   -1    0    0    0  501  0.00000000000E+00  0.00000000000E+00 -0.24862810316E+04  0.24862810316E+04  0.50400001928E-02 0.  1.
    10030    2    1    2    0    0  0.00000000000E+00  0.00000000000E+00 -0.10658462384E+04  0.39067158248E+04  0.37585103874E+04 0.  0.
        1    1    3    3  502    0  0.11568617716E+04 -0.67095854336E+03  0.83939696425E+03  0.15789559174E+04  0.50400001928E-02 0. -1.
       -1    1    3    3    0  502 -0.11568617716E+04  0.67095854336E+03 -0.19052432026E+04  0.23277599074E+04  0.50400001928E-02 0.  1.
</event>
<event>
 5   0  0.7858367E-08  0.3785244E+04  0.7818609E-02  0.8049329E-01
        2   -1    0    0  501    0  0.00000000000E+00  0.00000000000E+00  0.23528018152E+04  0.23528018152E+04  0.25500000920E-02 0.  1.
       -2   -1    0    0    0  501  0.00000000000E+00  0.00000000000E+00 -0.15224481237E+04  0.15224481238E+04  0.25500000920E-02 0. -1.
    10030    2    1    2    0    0  0.00000000000E+00  0.00000000000E+00  0.83035369142E+03  0.38752499389E+04  0.37852443562E+04 0.  0.
        2    1    3    3  502    0 -0.70107545904E+03 -0.17434970690E+04  0.64576538388E+03  0.19870334068E+04  0.25500000920E-02 0.  1.
       -2    1    3    3    0  502  0.70107545904E+03  0.17434970690E+04  0.18458830754E+03  0.18882165321E+04  0.25500000920E-02 0. -1.
</event>
<event>
 5   0  0.1150235E-07  0.3809955E+04  0.7818609E-02  0.8044022E-01
       -2   -1    0    0    0  501  0.00000000000E+00  0.00000000000E+00  0.13358699173E+04  0.13358699173E+04  0.25500000920E-02 0. -1.
        2   -1    0    0  501    0  0.00000000000E+00  0.00000000000E+00 -0.27165357958E+04  0.27165357958E+04  0.25500000920E-02 0.  1.
    10030    2    1    2    0    0  0.00000000000E+00  0.00000000000E+00 -0.13806658785E+04  0.40524057131E+04  0.38099545661E+04 0.  0.
        4    1    3    3  502    0 -0.12871275106E+04 -0.26680678693E+03 -0.21568608062E+04  0.25258529728E+04  0.12699999809E+01 0.  1.
       -4    1    3    3    0  502  0.12871275106E+04  0.26680678693E+03  0.77619492772E+03  0.15265527403E+04  0.12699999809E+01 0. -1.
</event>
<event>
 5   0  0.1193861E-07  0.3787941E+04  0.7818609E-02  0.8048748E-01
       -2   -1    0    0    0  501  0.00000000000E+00  0.00000000000E+00  0.26912201045E+04  0.26912201045E+04  0.25500000920E-02 0. -1.
        2   -1    0    0  501    0  0.00000000000E+00  0.00000000000E+00 -0.13328988958E+04  0.13328988958E+04  0.25500000920E-02 0.  1.
    10030    2    1    2    0    0  0.00000000000E+00  0.00000000000E+00  0.13583212087E+04  0.40241190004E+04  0.37879410269E+04 0.  0.
        3    1    3    3  502    0 -0.13390655632E+04 -0.10996430503E+04 -0.13325090757E+03  0.17378340643E+04  0.10100000352E+00 0.  1.
       -3    1    3    3    0  502  0.13390655632E+04  0.10996430503E+04  0.14915721163E+04  0.22862849360E+04  0.10100000352E+00 0. -1.
</event>
<event>
 5   0  0.3701250E-08  0.3806722E+04  0.7818609E-02  0.8044714E-01
       -1   -1    0    0    0  501  0.00000000000E+00  0.00000000000E+00  0.14534601358E+04  0.14534601358E+04  0.50400001928E-02 0.  1.
        1   -1    0    0  501    0  0.00000000000E+00  0.00000000000E+00 -0.24925232208E+04  0.24925232209E+04  0.50400001928E-02 0. -1.
    10030    2    1    2    0    0  0.00000000000E+00  0.00000000000E+00 -0.10390630851E+04  0.39459833566E+04  0.38067220224E+04 0.  0.
        4    1    3    3  502    0  0.28227032075E+03 -0.10707718467E+04  0.10851821980E+04  0.15504357121E+04  0.12699999809E+01 0.  1.
       -4    1    3    3    0  502 -0.28227032075E+03  0.10707718467E+04 -0.21242452830E+04  0.23955476445E+04  0.12699999809E+01 0. -1.
</event>
<event>
 5   0  0.1174870E-07  0.3792263E+04  0.7818609E-02  0.8047817E-01
        2   -1    0    0  501    0  0.00000000000E+00  0.00000000000E+00  0.21487642966E+04  0.21487642966E+04  0.25500000920E-02 0. -1.
       -2   -1    0    0    0  501  0.00000000000E+00  0.00000000000E+00 -0.16732011053E+04  0.16732011053E+04  0.25500000920E-02 0.  1.
    10030    2    1    2    0    0  0.00000000000E+00  0.00000000000E+00  0.47556319138E+03  0.38219654019E+04  0.37922630690E+04 0.  0.
        5    1    3    3  502    0  0.69502806940E+03  0.10493038799E+04 -0.11914902905E+04  0.17331398824E+04  0.46999998093E+01 0.  1.
       -5    1    3    3    0  502 -0.69502806940E+03 -0.10493038799E+04  0.16670534819E+04  0.20888255195E+04  0.46999998093E+01 0. -1.
</event>
<event>
 5   0  0.1143283E-07  0.3813086E+04  0.7818609E-02  0.8043352E-01
       -2   -1    0    0    0  501  0.00000000000E+00  0.00000000000E+00  0.15879043230E+04  0.15879043230E+04  0.25500000920E-02 0.  1.
        2   -1    0    0  501    0  0.00000000000E+00  0.00000000000E+00 -0.22891220146E+04  0.22891220146E+04  0.25500000920E-02 0. -1.
    10030    2    1    2    0    0  0.00000000000E+00  0.00000000000E+00 -0.70121769159E+03  0.38770263376E+04  0.38130862791E+04 0.  0.
        1    1    3    3  502    0 -0.10744138112E+04 -0.11677079364E+04 -0.14252134139E+04  0.21328713364E+04  0.50400001928E-02 0. -1.
       -1    1    3    3    0  502  0.10744138112E+04  0.11677079364E+04  0.72399572231E+03  0.17441550013E+04  0.50400001928E-02 0.  1.
</event>
<event>
 5   0  0.1150235E-07  0.3827065E+04  0.7818609E-02  0.8040372E-01
       -2   -1    0    0    0  501  0.00000000000E+00  0.00000000000E+00  0.13298095346E+04  0.13298095346E+04  0.25500000920E-02 0.  1.
        2   -1    0    0  501    0  0.00000000000E+00  0.00000000000E+00 -0.27534814901E+04  0.27534814901E+04  0.25500000920E-02 0. -1.
    10030    2    1    2    0    0  0.00000000000E+00  0.00000000000E+00 -0.14236719555E+04  0.40832910247E+04  0.38270646396E+04 0.  0.
        4    1    3    3  502    0  0.10594864618E+04  0.62705038272E+03  0.85112931864E+03  0.14967052065E+04  0.12699999809E+01 0.  1.
       -4    1    3    3    0  502 -0.10594864618E+04 -0.62705038272E+03 -0.22748012742E+04  0.25865858182E+04  0.12699999809E+01 0. -1.
</event>
<event>
 5   0  0.1150235E-07  0.3750632E+04  0.7818609E-02  0.8056833E-01
       -2   -1    0    0    0  501  0.00000000000E+00  0.00000000000E+00  0.15444707848E+04  0.15444707848E+04  0.25500000920E-02 0. -1.
        2   -1    0    0  501    0  0.00000000000E+00  0.00000000000E+00 -0.22770318471E+04  0.22770318471E+04  0.25500000920E-02 0.  1.
    10030    2    1    2    0    0  0.00000000000E+00  0.00000000000E+00 -0.73256106228E+03  0.38215026320E+04  0.37506315010E+04 0.  0.
        4    1    3    3  502    0 -0.12311607832E+04 -0.35551373496E+03 -0.17613347897E+04  0.21781755540E+04  0.12699999809E+01 0.  1.
       -4    1    3    3    0  502  0.12311607832E+04  0.35551373496E+03  0.10287737274E+04  0.16433270779E+04  0.12699999809E+01 0. -1.
</event>
<event>
 5   0  0.3701250E-08  0.3803699E+04  0.7818609E-02  0.8045361E-01
        1   -1    0    0  501    0  0.00000000000E+00  0.00000000000E+00  0.17044005691E+04  0.17044005692E+04  0.50400001928E-02 0.  1.
       -1   -1    0    0    0  501  0.00000000000E+00  0.00000000000E+00 -0.21221725515E+04  0.21221725515E+04  0.50400001928E-02 0. -1.
    10030    2    1    2    0    0  0.00000000000E+00  0.00000000000E+00 -0.41777198236E+03  0.38265731207E+04  0.38036993071E+04 0.  0.
        3    1    3    3  502    0  0.10529845471E+04 -0.15108385548E+04 -0.68673978906E+03  0.19654569807E+04  0.10100000352E+00 0.  1.
       -3    1    3    3    0  502 -0.10529845471E+04  0.15108385548E+04  0.26896780670E+03  0.18611161399E+04  0.10100000352E+00 0. -1.
</event>
<event>
 5   0  0.3701250E-08  0.3751125E+04  0.7818609E-02  0.8056725E-01
       -1   -1    0    0    0  501  0.00000000000E+00  0.00000000000E+00  0.19356387390E+04  0.19356387390E+04  0.50400001928E-02 0. -1.
        1   -1    0    0  501    0  0.00000000000E+00  0.00000000000E+00 -0.18173508028E+04  0.18173508028E+04  0.50400001928E-02 0.  1.
    10030    2    1    2    0    0  0.00000000000E+00  0.00000000000E+00  0.11828793623E+03  0.37529895419E+04  0.37511249600E+04 0.  0.
        1    1    3    3  502    0  0.11154622336E+04 -0.12706908580E+04  0.87122678054E+03  0.19020902592E+04  0.50400001928E-02 0. -1.
       -1    1    3    3    0  502 -0.11154622336E+04  0.12706908580E+04 -0.75293884432E+03  0.18508992826E+04  0.50400001928E-02 0.  1.
</event>
<event>
 5   0  0.3701250E-08  0.3800768E+04  0.7818609E-02  0.8045990E-01
       -1   -1    0    0    0  501  0.00000000000E+00  0.00000000000E+00  0.26120105238E+04  0.26120105238E+04  0.50400001928E-02 0.  1.
        1   -1    0    0  501    0  0.00000000000E+00  0.00000000000E+00 -0.13826360664E+04  0.13826360664E+04  0.50400001928E-02 0. -1.
    10030    2    1    2    0    0  0.00000000000E+00  0.00000000000E+00  0.12293744573E+04  0.39946465902E+04  0.38007683203E+04 0.  0.
        2    1    3    3  502    0 -0.60922236023E+02  0.12460016724E+04 -0.89204819214E+03  0.15336171828E+04  0.25500000920E-02 0. -1.
       -2    1    3    3    0  502  0.60922236023E+02 -0.12460016724E+04  0.21214226495E+04  0.24610294074E+04  0.25500000920E-02 0.  1.
</event>
<event>
 5   0  0.1150235E-07  0.3783767E+04  0.7818609E-02  0.8049647E-01
       -2   -1    0    0    0  501  0.00000000000E+00  0.00000000000E+00  0.16955664447E+04  0.16955664447E+04  0.25500000920E-02 0. -1.
        2   -1    0    0  501    0  0.00000000000E+00  0.00000000000E+00 -0.21109306813E+04  0.21109306813E+04  0.25500000920E-02 0.  1.
    10030    2    1    2    0    0  0.00000000000E+00  0.00000000000E+00 -0.41536423664E+03  0.38064971260E+04  0.37837670279E+04 0.  0.
        4    1    3    3  502    0 -0.54705025283E+03  0.11623714045E+04  0.11894915290E+04  0.17507892425E+04  0.12699999809E+01 0. -1.
       -4    1    3    3    0  502  0.54705025283E+03 -0.11623714045E+04 -0.16048557657E+04  0.20557078836E+04  0.12699999809E+01 0.  1.
</event>
<event>
 5   0  0.1150235E-07  0.3800501E+04  0.7818609E-02  0.8046047E-01
        2   -1    0    0  501    0  0.00000000000E+00  0.00000000000E+00  0.12128488798E+04  0.12128488798E+04  0.25500000920E-02 0.  1.
       -2   -1    0    0    0  501  0.00000000000E+00  0.00000000000E+00 -0.29772482300E+04  0.29772482300E+04  0.25500000920E-02 0. -1.
    10030    2    1    2    0    0  0.00000000000E+00  0.00000000000E+00 -0.17643993502E+04  0.41900971098E+04  0.38005011147E+04 0.  0.
        4    1    3    3  502    0  0.25637317200E+03  0.11377656704E+04 -0.25362291689E+04  0.27915404231E+04  0.12699999809E+01 0. -1.
       -4    1    3    3    0  502 -0.25637317200E+03 -0.11377656704E+04  0.77182981867E+03  0.13985566867E+04  0.12699999809E+01 0.  1.
</event>
<event>
 5   0  0.3889225E-08  0.3794150E+04  0.7818609E-02  0.8047411E-01
       -1   -1    0    0    0  501  0.00000000000E+00  0.00000000000E+00  0.17775865318E+04  0.17775865318E+04  0.50400001928E-02 0.  1.
        1   -1    0    0  501    0  0.00000000000E+00  0.00000000000E+00 -0.20245951792E+04  0.20245951793E+04  0.50400001928E-02 0. -1.
    10030    2    1    2    0    0  0.00000000000E+00  0.00000000000E+00 -0.24700864742E+03  0.38021817111E+04  0.37941497720E+04 0.  0.
        5    1    3    3  502    0  0.18702225214E+04 -0.30712891010E+03 -0.40803345783E+02  0.18957181884E+04  0.46999998093E+01 0. -1.
       -5    1    3    3    0  502 -0.18702225214E+04  0.30712891010E+03 -0.20620530163E+03  0.19064635227E+04  0.46999998093E+01 0.  1.
</event>
<event>
 5   0  0.1150235E-07  0.3803798E+04  0.7818609E-02  0.8045340E-01
       -2   -1    0    0    0  501  0.00000000000E+00  0.00000000000E+00  0.12420689227E+04  0.12420689227E+04  0.25500000920E-02 0.  1.
        2   -1    0    0  501    0  0.00000000000E+00  0.00000000000E+00 -0.29122536943E+04  0.29122536943E+04  0.25500000920E-02 0. -1.
    10030    2    1    2    0    0  0.00000000000E+00  0.00000000000E+00 -0.16701847716E+04  0.41543226170E+04  0.38037980013E+04 0.  0.
        4    1    3    3  502    0 -0.75793750048E+03  0.52527281040E+03 -0.26517563191E+04  0.28075245268E+04  0.12699999809E+01 0. -1.
       -4    1    3    3    0  502  0.75793750048E+03 -0.52527281040E+03  0.98157154746E+03  0.13467980902E+04  0.12699999809E+01 0.  1.
</event>
<event>
 5   0  0.3701250E-08  0.3779038E+04  0.7818609E-02  0.8050668E-01
       -1   -1    0    0    0  501  0.00000000000E+00  0.00000000000E+00  0.12245757482E+04  0.12245757482E+04  0.50400001928E-02 0. -1.
        1   -1    0    0  501    0  0.00000000000E+00  0.00000000000E+00 -0.29155256382E+04  0.29155256382E+04  0.50400001928E-02 0.  1.
    10030    2    1    2    0    0  0.00000000000E+00  0.00000000000E+00 -0.16909498900E+04  0.41401013865E+04  0.37790379675E+04 0.  0.
        1    1    3    3  502    0 -0.14432103359E+04 -0.82303270493E+03 -0.18314905320E+04  0.24727710116E+04  0.50400001928E-02 0.  1.
       -1    1    3    3    0  502  0.14432103359E+04  0.82303270493E+03  0.14054064196E+03  0.16673303749E+04  0.50400001928E-02 0. -1.
</event>
<event>
 5   0  0.3889225E-08  0.3795316E+04  0.7818609E-02  0.8047161E-01
       -1   -1    0    0    0  501  0.00000000000E+00  0.00000000000E+00  0.21436241340E+04  0.21436241340E+04  0.50400001928E-02 0. -1.
        1   -1    0    0  501    0  0.00000000000E+00  0.00000000000E+00 -0.16799145661E+04  0.16799145661E+04  0.50400001928E-02 0.  1.
    10030    2    1    2    0    0  0.00000000000E+00  0.00000000000E+00  0.46370956795E+03  0.38235387001E+04  0.37953157481E+04 0.  0.
        5    1    3    3  502    0  0.60396982640E+03  0.10080228793E+04  0.17329664667E+04  0.20938205609E+04  0.46999998093E+01 0.  1.
       -5    1    3    3    0  502 -0.60396982640E+03 -0.10080228793E+04 -0.12692568987E+04  0.17297181393E+04  0.46999998093E+01 0. -1.
</event>
<event>
 5   0  0.3889225E-08  0.3786169E+04  0.7818609E-02  0.8049130E-01
       -1   -1    0    0    0  501  0.00000000000E+00  0.00000000000E+00  0.35793110733E+04  0.35793110733E+04  0.50400001928E-02 0.  1.
        1   -1    0    0  501    0  0.00000000000E+00  0.00000000000E+00 -0.10012454375E+04  0.10012454375E+04  0.50400001928E-02 0. -1.
    10030    2    1    2    0    0  0.00000000000E+00  0.00000000000E+00  0.25780656358E+04  0.45805565108E+04  0.37861689774E+04 0.  0.
        5    1    3    3  502    0 -0.38715111217E+03 -0.77058243365E+02 -0.95089369994E+03  0.10295848071E+04  0.46999998093E+01 0. -1.
       -5    1    3    3    0  502  0.38715111217E+03  0.77058243365E+02  0.35289593358E+04  0.35509717036E+04  0.46999998093E+01 0.  1.
</event>
<event>
 5   0  0.1174870E-07  0.3816624E+04  0.7818609E-02  0.8042597E-01
        2   -1    0    0  501    0  0.00000000000E+00  0.00000000000E+00  0.19594118243E+04  0.19594118243E+04  0.25500000920E-02 0. -1.
       -2   -1    0    0    0  501  0.00000000000E+00  0.00000000000E+00 -0.18585445931E+04  0.18585445931E+04  0.25500000920E-02 0.  1.
    10030    2    1    2    0    0  0.00000000000E+00  0.00000000000E+00  0.10086723115E+03  0.38179564174E+04  0.38166237706E+04 0.  0.
        5    1    3    3  502    0  0.15301346468E+04  0.39347788377E+03 -0.10202182242E+04  0.18806924781E+04  0.46999998093E+01 0.  1.
       -5    1    3    3    0  502 -0.15301346468E+04 -0.39347788377E+03  0.11210854553E+04  0.19372639393E+04  0.46999998093E+01 0. -1.
</event>
<event>
 5   0  0.1174870E-07  0.3819835E+04  0.7818609E-02  0.8041912E-01
        2   -1    0    0  501    0  0.00000000000E+00  0.00000000000E+00  0.25177616263E+04  0.25177616263E+04  0.25500000920E-02 0. -1.
       -2   -1    0    0    0  501  0.00000000000E+00  0.00000000000E+00 -0.14488205068E+04  0.14488205068E+04  0.25500000920E-02 0.  1.
    10030    2    1    2    0    0  0.00000000000E+00  0.00000000000E+00  0.10689411195E+04  0.39665821331E+04  0.38198349050E+04 0.  0.
        5    1    3    3  502    0 -0.13939036408E+03 -0.19324576602E+03  0.25022612200E+04  0.25135844730E+04  0.46999998093E+01 0. -1.
       -5    1    3    3    0  502  0.13939036408E+03  0.19324576602E+03 -0.14333201005E+04  0.14529976601E+04  0.46999998093E+01 0.  1.
</event>
<event>
 5   0  0.7858367E-08  0.3825120E+04  0.7818609E-02  0.8040786E-01
       -2   -1    0    0    0  501  0.00000000000E+00  0.00000000000E+00  0.14893130976E+04  0.14893130976E+04  0.25500000920E-02 0. -1.
        2   -1    0    0  501    0  0.00000000000E+00  0.00000000000E+00 -0.24560890420E+04  0.24560890420E+04  0.25500000920E-02 0.  1.
    10030    2    1    2    0    0  0.00000000000E+00  0.00000000000E+00 -0.96677594443E+03  0.39454021396E+04  0.38251199087E+04 0.  0.
        2    1    3    3  502    0 -0.92381774429E+03  0.75161723624E+03 -0.20269478789E+04  0.23509328783E+04  0.25500000920E-02 0.  1.
       -2    1    3    3    0  502  0.92381774429E+03 -0.75161723624E+03  0.10601719345E+04  0.15944692613E+04  0.25500000920E-02 0. -1.
</event>
<event>
 5   0  0.3701250E-08  0.3805826E+04  0.7818609E-02  0.8044906E-01
       -1   -1    0    0    0  501  0.00000000000E+00  0.00000000000E+00  0.13025446260E+04  0.13025446260E+04  0.50400001928E-02 0.  1.
        1   -1    0    0  501    0  0.00000000000E+00  0.00000000000E+00 -0.27800031679E+04  0.27800031679E+04  0.50400001928E-02 0. -1.
    10030    2    1    2    0    0  0.00000000000E+00  0.00000000000E+00 -0.14774585419E+04  0.40825477939E+04  0.38058261582E+04 0.  0.
        1    1    3    3  502    0 -0.21315930833E+03  0.36187145013E+03  0.12522073044E+04  0.13207615115E+04  0.50400001928E-02 0.  1.
       -1    1    3    3    0  502  0.21315930833E+03 -0.36187145013E+03 -0.27296658463E+04  0.27617862823E+04  0.50400001928E-02 0. -1.
</event>
<event>
 5   0  0.1174870E-07  0.3797381E+04  0.7818609E-02  0.8046717E-01
       -2   -1    0    0    0  501  0.00000000000E+00  0.00000000000E+00  0.29459718552E+04  0.29459718552E+04  0.25500000920E-02 0. -1.
        2   -1    0    0  501    0  0.00000000000E+00  0.00000000000E+00 -0.12237135165E+04  0.12237135165E+04  0.25500000920E-02 0.  1.
    10030    2    1    2    0    0  0.00000000000E+00  0.00000000000E+00  0.17222583387E+04  0.41696853717E+04  0.37973809809E+04 0.  0.
        5    1    3    3  502    0 -0.16146132537E+04  0.40132340720E+03 -0.14342485114E+03  0.16699189244E+04  0.46999998093E+01 0.  1.
       -5    1    3    3    0  502  0.16146132537E+04 -0.40132340720E+03  0.18656831898E+04  0.24997664473E+04  0.46999998093E+01 0. -1.
</event>
<event>
 5   0  0.3701250E-08  0.3834454E+04  0.7818609E-02  0.8038801E-01
       -1   -1    0    0    0  501  0.00000000000E+00  0.00000000000E+00  0.14959063190E+04  0.14959063190E+04  0.50400001928E-02 0.  1.
        1   -1    0    0  501    0  0.00000000000E+00  0.00000000000E+00 -0.24572125857E+04  0.24572125857E+04  0.50400001928E-02 0. -1.
    10030    2    1    2    0    0  0.00000000000E+00  0.00000000000E+00 -0.96130626670E+03  0.39531189047E+04  0.38344542423E+04 0.  0.
        3    1    3    3  502    0  0.85397373860E+03  0.15805757354E+04  0.20959570117E+03  0.18087070436E+04  0.10100000352E+00 0.  1.
       -3    1    3    3    0  502 -0.85397373860E+03 -0.15805757354E+04 -0.11709019679E+04  0.21444118611E+04  0.10100000352E+00 0. -1.
</event>
<event>
 5   0  0.1143283E-07  0.3898657E+04  0.7818609E-02  0.8025309E-01
       -2   -1    0    0    0  501  0.00000000000E+00  0.00000000000E+00  0.13007018186E+04  0.13007018186E+04  0.25500000920E-02 0. -1.
        2   -1    0    0  501    0  0.00000000000E+00  0.00000000000E+00 -0.29214092825E+04  0.29214092825E+04  0.25500000920E-02 0.  1.
    10030    2    1    2    0    0  0.00000000000E+00  0.00000000000E+00 -0.16207074639E+04  0.42221111012E+04  0.38986573929E+04 0.  0.
        1    1    3    3  502    0  0.16597846108E+04  0.36938677946E+02  0.29598591432E+03  0.16863739448E+04  0.50400001928E-02 0. -1.
       -1    1    3    3    0  502 -0.16597846108E+04 -0.36938677946E+02 -0.19166933782E+04  0.25357371564E+04  0.50400001928E-02 0.  1.
</event>
<event>
 5   0  0.1193861E-07  0.3793520E+04  0.7818609E-02  0.8047547E-01
       -2   -1    0    0    0  501  0.00000000000E+00  0.00000000000E+00  0.18446212837E+04  0.18446212837E+04  0.25500000920E-02 0. -1.
        2   -1    0    0  501    0  0.00000000000E+00  0.00000000000E+00 -0.19503727213E+04  0.19503727213E+04  0.25500000920E-02 0.  1.
    10030    2    1    2    0    0  0.00000000000E+00  0.00000000000E+00 -0.10575143763E+03  0.37949940050E+04  0.37935202822E+04 0.  0.
        3    1    3    3  502    0 -0.46824917342E+02  0.60058179139E+02 -0.19488427015E+04  0.19503300857E+04  0.10100000352E+00 0.  1.
       -3    1    3    3    0  502  0.46824917342E+02 -0.60058179139E+02  0.18430912639E+04  0.18446639193E+04  0.10100000352E+00 0. -1.
</event>
<event>
 5   0  0.3701250E-08  0.3825034E+04  0.7818609E-02  0.8040804E-01
       -1   -1    0    0    0  501  0.00000000000E+00  0.00000000000E+00  0.16495933661E+04  0.16495933661E+04  0.50400001928E-02 0.  1.
        1   -1    0    0  501    0  0.00000000000E+00  0.00000000000E+00 -0.22173474038E+04  0.22173474038E+04  0.50400001928E-02 0. -1.
    10030    2    1    2    0    0  0.00000000000E+00  0.00000000000E+00 -0.56775403774E+03  0.38669407700E+04  0.38250341529E+04 0.  0.
        4    1    3    3  502    0  0.30699109014E+03  0.13420692453E+04  0.10581936868E+04  0.17364241649E+04  0.12699999809E+01 0.  1.
       -4    1    3    3    0  502 -0.30699109014E+03 -0.13420692453E+04 -0.16259477245E+04  0.21305166051E+04  0.12699999809E+01 0. -1.
</event>
<event>
 5   0  0.1193861E-07  0.3821038E+04  0.7818609E-02  0.8041655E-01
       -2   -1    0    0    0  501  0.00000000000E+00  0.00000000000E+00  0.19364145720E+04  0.19364145720E+04  0.25500000920E-02 0. -1.
        2   -1    0    0  501    0  0.00000000000E+00  0.00000000000E+00 -0.18849694622E+04  0.18849694622E+04  0.25500000920E-02 0.  1.
    10030    2    1    2    0    0  0.00000000000E+00  0.00000000000E+00  0.51445109784E+02  0.38213840341E+04  0.38210377304E+04 0.  0.
        3    1    3    3  502    0 -0.24828760580E+03  0.10200605867E+04 -0.15706401382E+04  0.18892010983E+04  0.10100000352E+00 0.  1.
       -3    1    3    3    0  502  0.24828760580E+03 -0.10200605867E+04  0.16220852480E+04  0.19321829359E+04  0.10100000352E+00 0. -1.
</event>
<event>
 5   0  0.7858367E-08  0.3797287E+04  0.7818609E-02  0.8046737E-01
       -2   -1    0    0    0  501  0.00000000000E+00  0.00000000000E+00  0.23026044311E+04  0.23026044311E+04  0.25500000920E-02 0.  1.
        2   -1    0    0  501    0  0.00000000000E+00  0.00000000000E+00 -0.15655519208E+04  0.15655519208E+04  0.25500000920E-02 0. -1.
    10030    2    1    2    0    0  0.00000000000E+00  0.00000000000E+00  0.73705251025E+03  0.38681563519E+04  0.37972868156E+04 0.  0.
        2    1    3    3  502    0  0.10817134823E+04  0.58131154009E+03  0.18435912442E+04  0.22151423973E+04  0.25500000920E-02 0.  1.
       -2    1    3    3    0  502 -0.10817134823E+04 -0.58131154009E+03 -0.11065387340E+04  0.16530139546E+04  0.25500000920E-02 0. -1.
</event>
<event>
 5   0  0.1150235E-07  0.3832809E+04  0.7818609E-02  0.8039151E-01
       -2   -1    0    0    0  501  0.00000000000E+00  0.00000000000E+00  0.22004635067E+04  0.22004635067E+04  0.25500000920E-02 0.  1.
        2   -1    0    0  501    0  0.00000000000E+00  0.00000000000E+00 -0.16690144961E+04  0.16690144961E+04  0.25500000920E-02 0. -1.
    10030    2    1    2    0    0  0.00000000000E+00  0.00000000000E+00  0.53144901058E+03  0.38694780027E+04  0.38328086259E+04 0.  0.
        4    1    3    3  502    0  0.14131398712E+03  0.11764923418E+03  0.21915366260E+04  0.21992374545E+04  0.12699999809E+01 0.  1.
       -4    1    3    3    0  502 -0.14131398712E+03 -0.11764923418E+03 -0.16600876154E+04  0.16702405483E+04  0.12699999809E+01 0. -1.
</event>
<event>
 5   0  0.1193861E-07  0.3802843E+04  0.7818609E-02  0.8045545E-01
        2   -1    0    0  501    0  0.00000000000E+00  0.00000000000E+00  0.25560817536E+04  0.25560817536E+04  0.25500000920E-02 0. -1.
       -2   -1    0    0    0  501  0.00000000000E+00  0.00000000000E+00 -0.14144320904E+04  0.14144320904E+04  0.25500000920E-02 0.  1.
    10030    2    1    2    0    0  0.00000000000E+00  0.00000000000E+00  0.11416496633E+04  0.39705138440E+04  0.38028431774E+04 0.  0.
        3    1    3    3  502    0 -0.17088700291E+04 -0.73569861973E+03  0.16120732767E+03  0.18674787946E+04  0.10100000352E+00 0. -1.
       -3    1    3    3    0  502  0.17088700291E+04  0.73569861973E+03  0.98044233560E+03  0.21030350494E+04  0.10100000352E+00 0.  1.
</event>
<event>
 5   0  0.1150235E-07  0.3792733E+04  0.7818609E-02  0.8047716E-01
        2   -1    0    0  501    0  0.00000000000E+00  0.00000000000E+00  0.16804955594E+04  0.16804955594E+04  0.25500000920E-02 0. -1.
       -2   -1    0    0    0  501  0.00000000000E+00  0.00000000000E+00 -0.21399672558E+04  0.21399672558E+04  0.25500000920E-02 0.  1.
    10030    2    1    2    0    0  0.00000000000E+00  0.00000000000E+00 -0.45947169648E+03  0.38204628152E+04  0.37927327724E+04 0.  0.
        4    1    3    3  502    0  0.19130750445E+03 -0.83419059054E+03  0.14748931416E+04  0.17052225352E+04  0.12699999809E+01 0. -1.
       -4    1    3    3    0  502 -0.19130750445E+03  0.83419059054E+03 -0.19343648380E+04  0.21152402800E+04  0.12699999809E+01 0.  1.
</event>
<event>
 5   0  0.1150235E-07  0.3795826E+04  0.7818609E-02  0.8047051E-01
        2   -1    0    0  501    0  0.00000000000E+00  0.00000000000E+00  0.23694280156E+04  0.23694280156E+04  0.25500000920E-02 0. -1.
       -2   -1    0    0    0  501  0.00000000000E+00  0.00000000000E+00 -0.15202291061E+04  0.15202291061E+04  0.25500000920E-02 0.  1.
    10030    2    1    2    0    0  0.00000000000E+00  0.00000000000E+00  0.84919890951E+03  0.38896571217E+04  0.37958258306E+04 0.  0.
        4    1    3    3  502    0 -0.18338452361E+04 -0.33635602495E+03  0.78826390207E+03  0.20242246213E+04  0.12699999809E+01 0.  1.
       -4    1    3    3    0  502  0.18338452361E+04  0.33635602495E+03  0.60935007440E+02  0.18654325004E+04  0.12699999809E+01 0. -1.
</event>
<event>
 5   0  0.3701250E-08  0.3817284E+04  0.7818609E-02  0.8042456E-01
       -1   -1    0    0    0  501  0.00000000000E+00  0.00000000000E+00  0.13845472506E+04  0.13845472506E+04  0.50400001928E-02 0.  1.
        1   -1    0    0  501    0  0.00000000000E+00  0.00000000000E+00 -0.26311234548E+04  0.26311234548E+04  0.50400001928E-02 0. -1.
    10030    2    1    2    0    0  0.00000000000E+00  0.00000000000E+00 -0.12465762042E+04  0.40156707054E+04  0.38172842416E+04 0.  0.
        4    1    3    3  502    0 -0.11765726549E+03  0.71067790945E+03  0.12360551794E+04  0.14306433317E+04  0.12699999809E+01 0.  1.
       -4    1    3    3    0  502  0.11765726549E+03 -0.71067790945E+03 -0.24826313836E+04  0.25850273737E+04  0.12699999809E+01 0. -1.
</event>
<event>
 5   0  0.1174870E-07  0.3789572E+04  0.7818609E-02  0.8048396E-01
        2   -1    0    0  501    0  0.00000000000E+00  0.00000000000E+00  0.23783109383E+04  0.23783109383E+04  0.25500000920E-02 0.  1.
       -2   -1    0    0    0  501  0.00000000000E+00  0.00000000000E+00 -0.15095646531E+04  0.15095646531E+04  0.25500000920E-02 0. -1.
    10030    2    1    2    0    0  0.00000000000E+00  0.00000000000E+00  0.86874628514E+03  0.38878755914E+04  0.37895720743E+04 0.  0.
        5    1    3    3  502    0  0.76808355466E+03 -0.15779469218E+04 -0.29852706543E+03  0.17801711529E+04  0.46999998093E+01 0. -1.
       -5    1    3    3    0  502 -0.76808355466E+03  0.15779469218E+04  0.11672733506E+04  0.21077044385E+04  0.46999998093E+01 0.  1.
</event>
<event>
 5   0  0.1150235E-07  0.3822768E+04  0.7818609E-02  0.8041286E-01
       -2   -1    0    0    0  501  0.00000000000E+00  0.00000000000E+00  0.17558672238E+04  0.17558672238E+04  0.25500000920E-02 0. -1.
        2   -1    0    0  501    0  0.00000000000E+00  0.00000000000E+00 -0.20806751293E+04  0.20806751293E+04  0.25500000920E-02 0.  1.
    10030    2    1    2    0    0  0.00000000000E+00  0.00000000000E+00 -0.32480790549E+03  0.38365423531E+04  0.38227682446E+04 0.  0.
        4    1    3    3  502    0 -0.77846373976E+03  0.14209928437E+04 -0.11800403490E+04  0.20044259263E+04  0.12699999809E+01 0.  1.
       -4    1    3    3    0  502  0.77846373976E+03 -0.14209928437E+04  0.85523244354E+03  0.18321164268E+04  0.12699999809E+01 0. -1.
</event>
<event>
 5   0  0.3701250E-08  0.3824637E+04  0.7818609E-02  0.8040888E-01
        1   -1    0    0  501    0  0.00000000000E+00  0.00000000000E+00  0.13698106117E+04  0.13698106117E+04  0.50400001928E-02 0.  1.
       -1   -1    0    0    0  501  0.00000000000E+00  0.00000000000E+00 -0.26696848247E+04  0.26696848247E+04  0.50400001928E-02 0. -1.
    10030    2    1    2    0    0  0.00000000000E+00  0.00000000000E+00 -0.12998742129E+04  0.40394954364E+04  0.38246372915E+04 0.  0.
        3    1    3    3  502    0  0.74525937159E+03 -0.14583409699E+04 -0.16927178330E+04  0.23553054129E+04  0.10100000352E+00 0. -1.
       -3    1    3    3    0  502 -0.74525937159E+03  0.14583409699E+04  0.39284362008E+03  0.16841900235E+04  0.10100000352E+00 0.  1.
</event>
<event>
 5   0  0.1193861E-07  0.3798823E+04  0.7818609E-02  0.8046408E-01
        2   -1    0    0  501    0  0.00000000000E+00  0.00000000000E+00  0.26941867745E+04  0.26941867745E+04  0.25500000920E-02 0. -1.
       -2   -1    0    0    0  501  0.00000000000E+00  0.00000000000E+00 -0.13390917937E+04  0.13390917937E+04  0.25500000920E-02 0.  1.
    10030    2    1    2    0    0  0.00000000000E+00  0.00000000000E+00  0.13550949808E+04  0.40332785682E+04  0.37988226599E+04 0.  0.
        3    1    3    3  502    0 -0.77580750853E+03  0.55905874569E+03  0.24199750933E+04  0.26020575386E+04  0.10100000352E+00 0. -1.
       -3    1    3    3    0  502  0.77580750853E+03 -0.55905874569E+03 -0.10648801125E+04  0.14312210296E+04  0.10100000352E+00 0.  1.
</event>
<event>
 5   0  0.3701250E-08  0.3798087E+04  0.7818609E-02  0.8046566E-01
        1   -1    0    0  501    0  0.00000000000E+00  0.00000000000E+00  0.18162807199E+04  0.18162807199E+04  0.50400001928E-02 0. -1.
       -1   -1    0    0    0  501  0.00000000000E+00  0.00000000000E+00 -0.19855776261E+04  0.19855776261E+04  0.50400001928E-02 0.  1.
    10030    2    1    2    0    0  0.00000000000E+00  0.00000000000E+00 -0.16929690627E+03  0.38018583460E+04  0.37980870765E+04 0.  0.
        3    1    3    3  502    0  0.12382219132E+04  0.10225800511E+04 -0.10993131226E+04  0.19461122319E+04  0.10100000352E+00 0.  1.
       -3    1    3    3    0  502 -0.12382219132E+04 -0.10225800511E+04  0.93001621634E+03  0.18557461141E+04  0.10100000352E+00 0. -1.
</event>
<event>
 5   0  0.7858367E-08  0.3760772E+04  0.7818609E-02  0.8054626E-01
        2   -1    0    0  501    0  0.00000000000E+00  0.00000000000E+00  0.23002038796E+04  0.23002038796E+04  0.25500000920E-02 0. -1.
       -2   -1    0    0    0  501  0.00000000000E+00  0.00000000000E+00 -0.15371904297E+04  0.15371904297E+04  0.25500000920E-02 0.  1.
    10030    2    1    2    0    0  0.00000000000E+00  0.00000000000E+00  0.76301344991E+03  0.38373943094E+04  0.37607719368E+04 0.  0.
        2    1    3    3  502    0 -0.94440651195E+03  0.96089325390E+03 -0.95694716120E+03  0.16525638791E+04  0.25500000920E-02 0.  1.
       -2    1    3    3    0  502  0.94440651195E+03 -0.96089325390E+03  0.17199606111E+04  0.21848304303E+04  0.25500000920E-02 0. -1.
</event>
<event>
 5   0  0.3701250E-08  0.3821771E+04  0.7818609E-02  0.8041499E-01
       -1   -1    0    0    0  501  0.00000000000E+00  0.00000000000E+00  0.25586330384E+04  0.25586330384E+04  0.50400001928E-02 0. -1.
        1   -1    0    0  501    0  0.00000000000E+00  0.00000000000E+00 -0.14271230632E+04  0.14271230632E+04  0.50400001928E-02 0.  1.
    10030    2    1    2    0    0  0.00000000000E+00  0.00000000000E+00  0.11315099752E+04  0.39857561015E+04  0.38217714318E+04 0.  0.
        2    1    3    3  502    0 -0.17918842243E+04 -0.25665051787E+03  0.12042035349E+04  0.21741261958E+04  0.25500000920E-02 0. -1.
       -2    1    3    3    0  502  0.17918842243E+04  0.25665051787E+03 -0.72693559706E+02  0.18116299057E+04  0.25500000920E-02 0.  1.
</event>
<event>
 5   0  0.3889225E-08  0.3802959E+04  0.7818609E-02  0.8045520E-01
       -1   -1    0    0    0  501  0.00000000000E+00  0.00000000000E+00  0.28677853812E+04  0.28677853812E+04  0.50400001928E-02 0.  1.
        1   -1    0    0  501    0  0.00000000000E+00  0.00000000000E+00 -0.12607724380E+04  0.12607724380E+04  0.50400001928E-02 0. -1.
    10030    2    1    2    0    0  0.00000000000E+00  0.00000000000E+00  0.16070129432E+04  0.41285578192E+04  0.38029592513E+04 0.  0.
        5    1    3    3  502    0 -0.40024005475E+03 -0.37912774322E+03 -0.11720998406E+04  0.12952876412E+04  0.46999998093E+01 0. -1.
       -5    1    3    3    0  502  0.40024005475E+03  0.37912774322E+03  0.27791127837E+04  0.28332701780E+04  0.46999998093E+01 0.  1.
</event>
<event>
 5   0  0.3701250E-08  0.3783816E+04  0.7818609E-02  0.8049637E-01
        1   -1    0    0  501    0  0.00000000000E+00  0.00000000000E+00  0.11978117173E+04  0.11978117173E+04  0.50400001928E-02 0. -1.
       -1   -1    0    0    0  501  0.00000000000E+00  0.00000000000E+00 -0.29882123072E+04  0.29882123072E+04  0.50400001928E-02 0.  1.
    10030    2    1    2    0    0  0.00000000000E+00  0.00000000000E+00 -0.17904005899E+04  0.41860240245E+04  0.37838159128E+04 0.  0.
        1    1    3    3  502    0 -0.18860419091E+04  0.14485811932E+03 -0.93316672173E+03  0.21092505987E+04  0.50400001928E-02 0. -1.
       -1    1    3    3    0  502  0.18860419091E+04 -0.14485811932E+03 -0.85723386816E+03  0.20767734258E+04  0.50400001928E-02 0.  1.
</event>
<event>
 5   0  0.3701250E-08  0.3794211E+04  0.7818609E-02  0.8047398E-01
        1   -1    0    0  501    0  0.00000000000E+00  0.00000000000E+00  0.22195290072E+04  0.22195290072E+04  0.50400001928E-02 0. -1.
       -1   -1    0    0    0  501  0.00000000000E+00  0.00000000000E+00 -0.16215196081E+04  0.16215196081E+04  0.50400001928E-02 0.  1.
    10030    2    1    2    0    0  0.00000000000E+00  0.00000000000E+00  0.59800939910E+03  0.38410486152E+04  0.37942112781E+04 0.  0.
        2    1    3    3  502    0 -0.11772431102E+03  0.61870572371E+03 -0.15125980204E+04  0.16384775119E+04  0.25500000920E-02 0.  1.
       -2    1    3    3    0  502  0.11772431102E+03 -0.61870572371E+03  0.21106074195E+04  0.22025711033E+04  0.25500000920E-02 0. -1.
</event>
<event>
 5   0  0.1143283E-07  0.3802703E+04  0.7818609E-02  0.8045575E-01
       -2   -1    0    0    0  501  0.00000000000E+00  0.00000000000E+00  0.16760469504E+04  0.16760469504E+04  0.25500000920E-02 0.  1.
        2   -1    0    0  501    0  0.00000000000E+00  0.00000000000E+00 -0.21569428048E+04  0.21569428048E+04  0.25500000920E-02 0. -1.
    10030    2    1    2    0    0  0.00000000000E+00  0.00000000000E+00 -0.48089585441E+03  0.38329897551E+04  0.38027029387E+04 0.  0.
        1    1    3    3  502    0  0.31753145822E+03 -0.58492563265E+03 -0.20356928333E+04  0.21417304999E+04  0.50400001928E-02 0. -1.
       -1    1    3    3    0  502 -0.31753145822E+03  0.58492563265E+03  0.15547969789E+04  0.16912592552E+04  0.50400001928E-02 0.  1.
</event>
<event>
 5   0  0.1150235E-07  0.3798582E+04  0.7818609E-02  0.8046459E-01
       -2   -1    0    0    0  501  0.00000000000E+00  0.00000000000E+00  0.20062925161E+04  0.20062925161E+04  0.25500000920E-02 0. -1.
        2   -1    0    0  501    0  0.00000000000E+00  0.00000000000E+00 -0.17979966453E+04  0.17979966453E+04  0.25500000920E-02 0.  1.
    10030    2    1    2    0    0  0.00000000000E+00  0.00000000000E+00  0.20829587084E+03  0.38042891614E+04  0.37985824796E+04 0.  0.
        4    1    3    3  502    0  0.18726135475E+04 -0.31142459969E+03  0.43734669298E+02  0.18988367791E+04  0.12699999809E+01 0. -1.
       -4    1    3    3    0  502 -0.18726135475E+04  0.31142459969E+03  0.16456120155E+03  0.19054523823E+04  0.12699999809E+01 0.  1.
</event>
<event>
 5   0  0.1174870E-07  0.3776179E+04  0.7818609E-02  0.8051286E-01
       -2   -1    0    0    0  501  0.00000000000E+00  0.00000000000E+00  0.10779149275E+04  0.10779149275E+04  0.25500000920E-02 0. -1.
        2   -1    0    0  501    0  0.00000000000E+00  0.00000000000E+00 -0.33072007398E+04  0.33072007398E+04  0.25500000920E-02 0.  1.
    10030    2    1    2    0    0  0.00000000000E+00  0.00000000000E+00 -0.22292858123E+04  0.43851156674E+04  0.37761785158E+04 0.  0.
        5    1    3    3  502    0  0.17771788953E+04 -0.62196705554E+03 -0.95185501479E+03  0.21098004416E+04  0.46999998093E+01 0.  1.
       -5    1    3    3    0  502 -0.17771788953E+04  0.62196705554E+03 -0.12774307975E+04  0.22753152258E+04  0.46999998093E+01 0. -1.
</event>
<event>
 5   0  0.3701250E-08  0.3818901E+04  0.7818609E-02  0.8042111E-01
       -1   -1    0    0    0  501  0.00000000000E+00  0.00000000000E+00  0.15601458206E+04  0.15601458206E+04  0.50400001928E-02 0.  1.
        1   -1    0    0  501    0  0.00000000000E+00  0.00000000000E+00 -0.23369621779E+04  0.23369621779E+04  0.50400001928E-02 0. -1.
    10030    2    1    2    0    0  0.00000000000E+00  0.00000000000E+00 -0.77681635730E+03  0.38971079985E+04  0.38189012948E+04 0.  0.
        2    1    3    3  502    0 -0.37184336206E+03 -0.12744613808E+04 -0.17889136181E+04  0.22277188400E+04  0.25500000920E-02 0. -1.
       -2    1    3    3    0  502  0.37184336206E+03  0.12744613808E+04  0.10120972608E+04  0.16693891585E+04  0.25500000920E-02 0.  1.
</event>
<event>
 5   0  0.3701250E-08  0.3789648E+04  0.7818609E-02  0.8048380E-01
        1   -1    0    0  501    0  0.00000000000E+00  0.00000000000E+00  0.11796761352E+04  0.11796761352E+04  0.50400001928E-02 0.  1.
       -1   -1    0    0    0  501  0.00000000000E+00  0.00000000000E+00 -0.30435109926E+04  0.30435109926E+04  0.50400001928E-02 0. -1.
    10030    2    1    2    0    0  0.00000000000E+00  0.00000000000E+00 -0.18638348574E+04  0.42231871278E+04  0.37896476275E+04 0.  0.
        3    1    3    3  502    0  0.12910320594E+04  0.24727303513E+03  0.58892336530E+03  0.14403952488E+04  0.10100000352E+00 0.  1.
       -3    1    3    3    0  502 -0.12910320594E+04 -0.24727303513E+03 -0.24527582227E+04  0.27827918790E+04  0.10100000352E+00 0. -1.
</event>
<event>
 5   0  0.3701250E-08  0.3795683E+04  0.7818609E-02  0.8047082E-01
        1   -1    0    0  501    0  0.00000000000E+00  0.00000000000E+00  0.16472230141E+04  0.16472230141E+04  0.50400001928E-02 0.  1.
       -1   -1    0    0    0  501  0.00000000000E+00  0.00000000000E+00 -0.21865905266E+04  0.21865905266E+04  0.50400001928E-02 0. -1.
    10030    2    1    2    0    0  0.00000000000E+00  0.00000000000E+00 -0.53936751249E+03  0.38338135408E+04  0.37956829362E+04 0.  0.
        4    1    3    3  502    0  0.26495040779E+03 -0.14591947437E+04 -0.14657897661E+04  0.20851832701E+04  0.12699999809E+01 0. -1.
       -4    1    3    3    0  502 -0.26495040779E+03  0.14591947437E+04  0.92642225363E+03  0.17486302707E+04  0.12699999809E+01 0.  1.
</event>
<event>
 5   0  0.7858367E-08  0.3796163E+04  0.7818609E-02  0.8046979E-01
        2   -1    0    0  501    0  0.00000000000E+00  0.00000000000E+00  0.22435519332E+04  0.22435519332E+04  0.25500000920E-02 0. -1.
       -2   -1    0    0    0  501  0.00000000000E+00  0.00000000000E+00 -0.16058077522E+04  0.16058077522E+04  0.25500000920E-02 0.  1.
    10030    2    1    2    0    0  0.00000000000E+00  0.00000000000E+00  0.63774418096E+03  0.38493596855E+04  0.37961628453E+04 0.  0.
        2    1    3    3  502    0  0.16534229635E+03 -0.18679794066E+04  0.61628748366E+03  0.19739542551E+04  0.25500000920E-02 0. -1.
       -2    1    3    3    0  502 -0.16534229635E+03  0.18679794066E+04  0.21456697300E+02  0.18754054304E+04  0.25500000920E-02 0.  1.
</event>
<event>
 5   0  0.1150235E-07  0.3803673E+04  0.7818609E-02  0.8045367E-01
       -2   -1    0    0    0  501  0.00000000000E+00  0.00000000000E+00  0.16729287574E+04  0.16729287574E+04  0.25500000920E-02 0.  1.
        2   -1    0    0  501    0  0.00000000000E+00  0.00000000000E+00 -0.21620653052E+04  0.21620653052E+04  0.25500000920E-02 0. -1.
    10030    2    1    2    0    0  0.00000000000E+00  0.00000000000E+00 -0.48913654773E+03  0.38349940626E+04  0.38036725540E+04 0.  0.
        4    1    3    3  502    0  0.30446745768E+03  0.75394820768E+02  0.16466697953E+04  0.16762779720E+04  0.12699999809E+01 0.  1.
       -4    1    3    3    0  502 -0.30446745768E+03 -0.75394820768E+02 -0.21358063431E+04  0.21587160906E+04  0.12699999809E+01 0. -1.
</event>
<event>
 5   0  0.3701250E-08  0.3747756E+04  0.7818609E-02  0.8057460E-01
       -3   -1    0    0    0  501  0.00000000000E+00  0.00000000000E+00  0.19892129768E+04  0.19892129793E+04  0.10100000352E+00 0. -1.
        3   -1    0    0  501    0  0.00000000000E+00  0.00000000000E+00 -0.17652298036E+04  0.17652298065E+04  0.10100000352E+00 0.  1.
    10030    2    1    2    0    0  0.00000000000E+00  0.00000000000E+00  0.22398317316E+03  0.37544427858E+04  0.37477556177E+04 0.  0.
        3    1    3    3  502    0  0.10033677887E+04 -0.44601041686E+02 -0.14728178538E+04  0.17826745673E+04  0.10100000352E+00 0.  1.
       -3    1    3    3    0  502 -0.10033677887E+04  0.44601041686E+02  0.16968010269E+04  0.19717682185E+04  0.10100000352E+00 0. -1.
</event>
<event>
 5   0  0.3701250E-08  0.3769509E+04  0.7818609E-02  0.8052730E-01
       -1   -1    0    0    0  501  0.00000000000E+00  0.00000000000E+00  0.15726830519E+04  0.15726830519E+04  0.50400001928E-02 0. -1.
        1   -1    0    0  501    0  0.00000000000E+00  0.00000000000E+00 -0.22587509061E+04  0.22587509061E+04  0.50400001928E-02 0.  1.
    10030    2    1    2    0    0  0.00000000000E+00  0.00000000000E+00 -0.68606785422E+03  0.38314339580E+04  0.37695088638E+04 0.  0.
        1    1    3    3  502    0  0.15673761354E+04  0.34700009346E+03  0.66072258693E+03  0.17359813800E+04  0.50400001928E-02 0. -1.
       -1    1    3    3    0  502 -0.15673761354E+04 -0.34700009346E+03 -0.13467904412E+04  0.20954525781E+04  0.50400001928E-02 0.  1.
</event>
<event>
 5   0  0.7858367E-08  0.3801394E+04  0.7818609E-02  0.8045856E-01
        2   -1    0    0  501    0  0.00000000000E+00  0.00000000000E+00  0.15955725991E+04  0.15955725991E+04  0.25500000920E-02 0.  1.
       -2   -1    0    0    0  501  0.00000000000E+00  0.00000000000E+00 -0.22641706627E+04  0.22641706627E+04  0.25500000920E-02 0. -1.
    10030    2    1    2    0    0  0.00000000000E+00  0.00000000000E+00 -0.66859806365E+03  0.38597432618E+04  0.38013937808E+04 0.  0.
        2    1    3    3  502    0 -0.16599610795E+04  0.89802028678E+03 -0.56300624822E+03  0.19694890851E+04  0.25500000920E-02 0. -1.
       -2    1    3    3    0  502  0.16599610795E+04 -0.89802028678E+03 -0.10559181543E+03  0.18902541767E+04  0.25500000920E-02 0.  1.
</event>
<event>
 5   0  0.3701250E-08  0.3816372E+04  0.7818609E-02  0.8042651E-01
        1   -1    0    0  501    0  0.00000000000E+00  0.00000000000E+00  0.21408926036E+04  0.21408926036E+04  0.50400001928E-02 0.  1.
       -1   -1    0    0    0  501  0.00000000000E+00  0.00000000000E+00 -0.17007733585E+04  0.17007733585E+04  0.50400001928E-02 0. -1.
    10030    2    1    2    0    0  0.00000000000E+00  0.00000000000E+00  0.44011924507E+03  0.38416659621E+04  0.38163716295E+04 0.  0.
        1    1    3    3  502    0 -0.91696128855E+03  0.13251998306E+04  0.12486936601E+04  0.20386781140E+04  0.50400001928E-02 0.  1.
       -1    1    3    3    0  502  0.91696128855E+03 -0.13251998306E+04 -0.80857441503E+03  0.18029878481E+04  0.50400001928E-02 0. -1.
</event>
<event>
 5   0  0.1150235E-07  0.3800204E+04  0.7818609E-02  0.8046111E-01
        2   -1    0    0  501    0  0.00000000000E+00  0.00000000000E+00  0.22016494324E+04  0.22016494324E+04  0.25500000920E-02 0.  1.
       -2   -1    0    0    0  501  0.00000000000E+00  0.00000000000E+00 -0.16398560609E+04  0.16398560609E+04  0.25500000920E-02 0. -1.
    10030    2    1    2    0    0  0.00000000000E+00  0.00000000000E+00  0.56179337151E+03  0.38415054933E+04  0.38002042922E+04 0.  0.
        4    1    3    3  502    0 -0.19396847707E+03  0.18083302710E+04 -0.27526861662E+03  0.18394174522E+04  0.12699999809E+01 0.  1.
       -4    1    3    3    0  502  0.19396847707E+03 -0.18083302710E+04  0.83706198814E+03  0.20020880411E+04  0.12699999809E+01 0. -1.
</event>
<event>
 5   0  0.3701250E-08  0.3811630E+04  0.7818609E-02  0.8043664E-01
       -1   -1    0    0    0  501  0.00000000000E+00  0.00000000000E+00  0.13424864136E+04  0.13424864136E+04  0.50400001928E-02 0. -1.
        1   -1    0    0  501    0  0.00000000000E+00  0.00000000000E+00 -0.27055250466E+04  0.27055250466E+04  0.50400001928E-02 0.  1.
    10030    2    1    2    0    0  0.00000000000E+00  0.00000000000E+00 -0.13630386330E+04  0.40480114602E+04  0.38116298964E+04 0.  0.
        3    1    3    3  502    0 -0.17168921203E+04  0.50601216527E+03 -0.13766034271E+04  0.22580531149E+04  0.10100000352E+00 0. -1.
       -3    1    3    3    0  502  0.17168921203E+04 -0.50601216527E+03  0.13564794129E+02  0.17899583453E+04  0.10100000352E+00 0.  1.
</event>
<event>
 5   0  0.1174870E-07  0.3794912E+04  0.7818609E-02  0.8047248E-01
       -2   -1    0    0    0  501  0.00000000000E+00  0.00000000000E+00  0.17082351488E+04  0.17082351488E+04  0.25500000920E-02 0.  1.
        2   -1    0    0  501    0  0.00000000000E+00  0.00000000000E+00 -0.21076370588E+04  0.21076370588E+04  0.25500000920E-02 0. -1.
    10030    2    1    2    0    0  0.00000000000E+00  0.00000000000E+00 -0.39940190998E+03  0.38158722077E+04  0.37949122282E+04 0.  0.
        5    1    3    3  502    0  0.12986788791E+04 -0.30018030132E+03  0.11581807816E+04  0.17658085562E+04  0.46999998093E+01 0.  1.
       -5    1    3    3    0  502 -0.12986788791E+04  0.30018030132E+03 -0.15575826915E+04  0.20500636515E+04  0.46999998093E+01 0. -1.
</event>
<event>
 5   0  0.1143283E-07  0.3806212E+04  0.7818609E-02  0.8044823E-01
       -2   -1    0    0    0  501  0.00000000000E+00  0.00000000000E+00  0.29086399050E+04  0.29086399050E+04  0.25500000920E-02 0.  1.
        2   -1    0    0  501    0  0.00000000000E+00  0.00000000000E+00 -0.12451911408E+04  0.12451911408E+04  0.25500000920E-02 0. -1.
    10030    2    1    2    0    0  0.00000000000E+00  0.00000000000E+00  0.16634487641E+04  0.41538310458E+04  0.38062121021E+04 0.  0.
        1    1    3    3  502    0 -0.10145434891E+04  0.10909811371E+04  0.21240511228E+04  0.25944424266E+04  0.50400001928E-02 0.  1.
       -1    1    3    3    0  502  0.10145434891E+04 -0.10909811371E+04 -0.46060235864E+03  0.15593886192E+04  0.50400001928E-02 0. -1.
</event>
<event>
 5   0  0.3701250E-08  0.3798491E+04  0.7818609E-02  0.8046479E-01
        1   -1    0    0  501    0  0.00000000000E+00  0.00000000000E+00  0.18315846325E+04  0.18315846326E+04  0.50400001928E-02 0.  1.
       -1   -1    0    0    0  501  0.00000000000E+00  0.00000000000E+00 -0.19694058378E+04  0.19694058379E+04  0.50400001928E-02 0. -1.
    10030    2    1    2    0    0  0.00000000000E+00  0.00000000000E+00 -0.13782120530E+03  0.38009904704E+04  0.37984909993E+04 0.  0.
        2    1    3    3  502    0  0.11434013255E+04  0.80679010268E+03 -0.13538336632E+04  0.19470856295E+04  0.25500000920E-02 0. -1.
       -2    1    3    3    0  502 -0.11434013255E+04 -0.80679010268E+03  0.12160124580E+04  0.18539048409E+04  0.25500000920E-02 0.  1.
</event>
<event>
 5   0  0.7858367E-08  0.3770307E+04  0.7818609E-02  0.8052557E-01
        2   -1    0    0  501    0  0.00000000000E+00  0.00000000000E+00  0.18821789772E+04  0.18821789772E+04  0.25500000920E-02 0.  1.
       -2   -1    0    0    0  501  0.00000000000E+00  0.00000000000E+00 -0.18881329083E+04  0.18881329083E+04  0.25500000920E-02 0. -1.
    10030    2    1    2    0    0  0.00000000000E+00  0.00000000000E+00 -0.59539310387E+01  0.37703118855E+04  0.37703071844E+04 0.  0.
        2    1    3    3  502    0 -0.13100914799E+04  0.10375466561E+04  0.86935508962E+03  0.18837783896E+04  0.25500000920E-02 0.  1.
       -2    1    3    3    0  502  0.13100914799E+04 -0.10375466561E+04 -0.87530902066E+03  0.18865334959E+04  0.25500000920E-02 0. -1.
</event>
<event>
 5   0  0.1150235E-07  0.3701786E+04  0.7818609E-02  0.8067566E-01
        2   -1    0    0  501    0  0.00000000000E+00  0.00000000000E+00  0.15594346734E+04  0.15594346734E+04  0.25500000920E-02 0. -1.
       -2   -1    0    0    0  501  0.00000000000E+00  0.00000000000E+00 -0.21968244186E+04  0.21968244186E+04  0.25500000920E-02 0.  1.
    10030    2    1    2    0    0  0.00000000000E+00  0.00000000000E+00 -0.63738974512E+03  0.37562590920E+04  0.37017856068E+04 0.  0.
        4    1    3    3  502    0 -0.27626520684E+03 -0.71516979395E+03 -0.20281252273E+04  0.21681982956E+04  0.12699999809E+01 0.  1.
       -4    1    3    3    0  502  0.27626520684E+03  0.71516979395E+03  0.13907354822E+04  0.15880607964E+04  0.12699999809E+01 0. -1.
</event>
<event>
 5   0  0.1174870E-07  0.3717639E+04  0.7818609E-02  0.8064064E-01
        2   -1    0    0  501    0  0.00000000000E+00  0.00000000000E+00  0.15176952276E+04  0.15176952276E+04  0.25500000920E-02 0.  1.
       -2   -1    0    0    0  501  0.00000000000E+00  0.00000000000E+00 -0.22766167439E+04  0.22766167439E+04  0.25500000920E-02 0. -1.
    10030    2    1    2    0    0  0.00000000000E+00  0.00000000000E+00 -0.75892151626E+03  0.37943119715E+04  0.37176392334E+04 0.  0.
        5    1    3    3  502    0 -0.19379991127E+03  0.16240319770E+04 -0.12809381767E+04  0.20774655161E+04  0.46999998093E+01 0. -1.
       -5    1    3    3    0  502  0.19379991127E+03 -0.16240319770E+04  0.52201666042E+03  0.17168464555E+04  0.46999998093E+01 0.  1.
</event>
<event>
 5   0  0.3701250E-08  0.3795240E+04  0.7818609E-02  0.8047177E-01
        1   -1    0    0  501    0  0.00000000000E+00  0.00000000000E+00  0.28748567498E+04  0.28748567498E+04  0.50400001928E-02 0.  1.
       -1   -1    0    0    0  501  0.00000000000E+00  0.00000000000E+00 -0.12525710779E+04  0.12525710779E+04  0.50400001928E-02 0. -1.
    10030    2    1    2    0    0  0.00000000000E+00  0.00000000000E+00  0.16222856719E+04  0.41274278277E+04  0.37952403971E+04 0.  0.
        2    1    3    3  502    0  0.10049131855E+04  0.31769489453E+03 -0.90500908414E+03  0.13891803334E+04  0.25500000920E-02 0. -1.
       -2    1    3    3    0  502 -0.10049131855E+04 -0.31769489453E+03  0.25272947560E+04  0.27382474943E+04  0.25500000920E-02 0.  1.
</event>
<event>
 5   0  0.1174870E-07  0.3803047E+04  0.7818609E-02  0.8045501E-01
       -2   -1    0    0    0  501  0.00000000000E+00  0.00000000000E+00  0.13697458896E+04  0.13697458896E+04  0.25500000920E-02 0.  1.
        2   -1    0    0  501    0  0.00000000000E+00  0.00000000000E+00 -0.26397530239E+04  0.26397530239E+04  0.25500000920E-02 0. -1.
    10030    2    1    2    0    0  0.00000000000E+00  0.00000000000E+00 -0.12700071342E+04  0.40094989135E+04  0.38030465967E+04 0.  0.
        5    1    3    3  502    0  0.16134732430E+04 -0.96810367094E+03 -0.34579820596E+03  0.19131437774E+04  0.46999998093E+01 0.  1.
       -5    1    3    3    0  502 -0.16134732430E+04  0.96810367094E+03 -0.92420892829E+03  0.20963551361E+04  0.46999998093E+01 0. -1.
</event>
<event>
 5   0  0.3701250E-08  0.3799717E+04  0.7818609E-02  0.8046216E-01
       -1   -1    0    0    0  501  0.00000000000E+00  0.00000000000E+00  0.13961325439E+04  0.13961325439E+04  0.50400001928E-02 0.  1.
        1   -1    0    0  501    0  0.00000000000E+00  0.00000000000E+00 -0.25853292363E+04  0.25853292363E+04  0.50400001928E-02 0. -1.
    10030    2    1    2    0    0  0.00000000000E+00  0.00000000000E+00 -0.11891966924E+04  0.39814617802E+04  0.37997169808E+04 0.  0.
        3    1    3    3  502    0  0.12291098316E+04 -0.13791438943E+04 -0.12986023439E+03  0.18519213132E+04  0.10100000352E+00 0. -1.
       -3    1    3    3    0  502 -0.12291098316E+04  0.13791438943E+04 -0.10593364580E+04  0.21295404671E+04  0.10100000352E+00 0.  1.
</event>
<event>
 5   0  0.3701250E-08  0.3792662E+04  0.7818609E-02  0.8047732E-01
       -1   -1    0    0    0  501  0.00000000000E+00  0.00000000000E+00  0.20866825134E+04  0.20866825134E+04  0.50400001928E-02 0. -1.
        1   -1    0    0  501    0  0.00000000000E+00  0.00000000000E+00 -0.17233433598E+04  0.17233433598E+04  0.50400001928E-02 0.  1.
    10030    2    1    2    0    0  0.00000000000E+00  0.00000000000E+00  0.36333915357E+03  0.38100258732E+04  0.37926615739E+04 0.  0.
        1    1    3    3  502    0  0.89063649744E+03  0.16596660698E+04  0.40255263116E+03  0.19260772193E+04  0.50400001928E-02 0.  1.
       -1    1    3    3    0  502 -0.89063649744E+03 -0.16596660698E+04 -0.39213477589E+02  0.18839486539E+04  0.50400001928E-02 0. -1.
</event>
<event>
 5   0  0.1193861E-07  0.3794785E+04  0.7818609E-02  0.8047275E-01
        2   -1    0    0  501    0  0.00000000000E+00  0.00000000000E+00  0.18029073465E+04  0.18029073465E+04  0.25500000920E-02 0.  1.
       -2   -1    0    0    0  501  0.00000000000E+00  0.00000000000E+00 -0.19968294483E+04  0.19968294483E+04  0.25500000920E-02 0. -1.
    10030    2    1    2    0    0  0.00000000000E+00  0.00000000000E+00 -0.19392210181E+03  0.37997367949E+04  0.37947850965E+04 0.  0.
        3    1    3    3  502    0  0.63433360669E+03 -0.49350980535E+03 -0.18179729782E+04  0.19877013891E+04  0.10100000352E+00 0. -1.
       -3    1    3    3    0  502 -0.63433360669E+03  0.49350980535E+03  0.16240508764E+04  0.18120354058E+04  0.10100000352E+00 0.  1.
</event>
<event>
 5   0  0.1174870E-07  0.3784479E+04  0.7818609E-02  0.8049494E-01
        2   -1    0    0  501    0  0.00000000000E+00  0.00000000000E+00  0.16108810230E+04  0.16108810230E+04  0.25500000920E-02 0.  1.
       -2   -1    0    0    0  501  0.00000000000E+00  0.00000000000E+00 -0.22227409330E+04  0.22227409330E+04  0.25500000920E-02 0. -1.
    10030    2    1    2    0    0  0.00000000000E+00  0.00000000000E+00 -0.61185991001E+03  0.38336219561E+04  0.37844794560E+04 0.  0.
        5    1    3    3  502    0 -0.53952971253E+03  0.16825316277E+04  0.38002198850E+03  0.18073305704E+04  0.46999998093E+01 0.  1.
       -5    1    3    3    0  502  0.53952971253E+03 -0.16825316277E+04 -0.99188189851E+03  0.20262913857E+04  0.46999998093E+01 0. -1.
</event>
<event>
 5   0  0.3889225E-08  0.3834772E+04  0.7818609E-02  0.8038734E-01
        1   -1    0    0  501    0  0.00000000000E+00  0.00000000000E+00  0.23709818942E+04  0.23709818942E+04  0.50400001928E-02 0.  1.
       -1   -1    0    0    0  501  0.00000000000E+00  0.00000000000E+00 -0.15505683136E+04  0.15505683136E+04  0.50400001928E-02 0. -1.
    10030    2    1    2    0    0  0.00000000000E+00  0.00000000000E+00  0.82041358058E+03  0.39215502078E+04  0.38347721692E+04 0.  0.
        5    1    3    3  502    0 -0.11436432611E+04 -0.59713871580E+03 -0.10402884521E+04  0.16573221498E+04  0.46999998093E+01 0. -1.
       -5    1    3    3    0  502  0.11436432611E+04  0.59713871580E+03  0.18607020327E+04  0.22642280581E+04  0.46999998093E+01 0.  1.
</event>
<event>
 5   0  0.3701250E-08  0.3805659E+04  0.7818609E-02  0.8044942E-01
        1   -1    0    0  501    0  0.00000000000E+00  0.00000000000E+00  0.12482157005E+04  0.12482157005E+04  0.50400001928E-02 0.  1.
       -1   -1    0    0    0  501  0.00000000000E+00  0.00000000000E+00 -0.29007489570E+04  0.29007489570E+04  0.50400001928E-02 0. -1.
    10030    2    1    2    0    0  0.00000000000E+00  0.00000000000E+00 -0.16525332565E+04  0.41489646576E+04  0.38056591500E+04 0.  0.
        2    1    3    3  502    0 -0.19696247517E+03  0.95884776706E+02 -0.28869559241E+04  0.28952551899E+04  0.25500000920E-02 0. -1.
       -2    1    3    3    0  502  0.19696247517E+03 -0.95884776706E+02  0.12344226676E+04  0.12537094677E+04  0.25500000920E-02 0.  1.
</event>
<event>
 5   0  0.1150235E-07  0.3796119E+04  0.7818609E-02  0.8046988E-01
       -2   -1    0    0    0  501  0.00000000000E+00  0.00000000000E+00  0.15352037677E+04  0.15352037677E+04  0.25500000920E-02 0.  1.
        2   -1    0    0  501    0  0.00000000000E+00  0.00000000000E+00 -0.23466785337E+04  0.23466785337E+04  0.25500000920E-02 0. -1.
    10030    2    1    2    0    0  0.00000000000E+00  0.00000000000E+00 -0.81147476603E+03  0.38818823015E+04  0.37961189268E+04 0.  0.
        4    1    3    3  502    0 -0.78254470516E+03  0.17289982829E+04 -0.43496342418E+03  0.19470506082E+04  0.12699999809E+01 0. -1.
       -4    1    3    3    0  502  0.78254470516E+03 -0.17289982829E+04 -0.37651134185E+03  0.19348316932E+04  0.12699999809E+01 0.  1.
</event>
<event>
 5   0  0.1174870E-07  0.3811421E+04  0.7818609E-02  0.8043708E-01
       -2   -1    0    0    0  501  0.00000000000E+00  0.00000000000E+00  0.17047964884E+04  0.17047964884E+04  0.25500000920E-02 0.  1.
        2   -1    0    0  501    0  0.00000000000E+00  0.00000000000E+00 -0.21303025710E+04  0.21303025710E+04  0.25500000920E-02 0. -1.
    10030    2    1    2    0    0  0.00000000000E+00  0.00000000000E+00 -0.42550608254E+03  0.38350990594E+04  0.38114209121E+04 0.  0.
        5    1    3    3  502    0 -0.11357259980E+04 -0.12367543706E+04  0.69410917349E+03  0.18169327314E+04  0.46999998093E+01 0. -1.
       -5    1    3    3    0  502  0.11357259980E+04  0.12367543706E+04 -0.11196152560E+04  0.20181663280E+04  0.46999998093E+01 0.  1.
</event>
<event>
 5   0  0.3701250E-08  0.3807514E+04  0.7818609E-02  0.8044544E-01
       -1   -1    0    0    0  501  0.00000000000E+00  0.00000000000E+00  0.15528613723E+04  0.15528613723E+04  0.50400001928E-02 0. -1.
        1   -1    0    0  501    0  0.00000000000E+00  0.00000000000E+00 -0.23339440720E+04  0.23339440720E+04  0.50400001928E-02 0.  1.
    10030    2    1    2    0    0  0.00000000000E+00  0.00000000000E+00 -0.78108269969E+03  0.38868054443E+04  0.38075144620E+04 0.  0.
        4    1    3    3  502    0  0.13557718148E+04  0.60019868712E+03 -0.16095337537E+04  0.21883683865E+04  0.12699999809E+01 0.  1.
       -4    1    3    3    0  502 -0.13557718148E+04 -0.60019868712E+03  0.82845105399E+03  0.16984370578E+04  0.12699999809E+01 0. -1.
</event>
<event>
 5   0  0.7858367E-08  0.3799744E+04  0.7818609E-02  0.8046210E-01
       -2   -1    0    0    0  501  0.00000000000E+00  0.00000000000E+00  0.34021648003E+04  0.34021648003E+04  0.25500000920E-02 0.  1.
        2   -1    0    0  501    0  0.00000000000E+00  0.00000000000E+00 -0.10609461226E+04  0.10609461226E+04  0.25500000920E-02 0. -1.
    10030    2    1    2    0    0  0.00000000000E+00  0.00000000000E+00  0.23412186777E+04  0.44631109230E+04  0.37997439669E+04 0.  0.
        2    1    3    3  502    0 -0.15966937588E+02 -0.23700637470E+03 -0.10434346345E+04  0.10701321419E+04  0.25500000920E-02 0. -1.
       -2    1    3    3    0  502  0.15966937588E+02  0.23700637470E+03  0.33846533122E+04  0.33929787810E+04  0.25500000920E-02 0.  1.
</event>
<event>
 5   0  0.3701250E-08  0.3709687E+04  0.7818609E-02  0.8065818E-01
        1   -1    0    0  501    0  0.00000000000E+00  0.00000000000E+00  0.16404611144E+04  0.16404611144E+04  0.50400001928E-02 0. -1.
       -1   -1    0    0    0  501  0.00000000000E+00  0.00000000000E+00 -0.20972422453E+04  0.20972422453E+04  0.50400001928E-02 0.  1.
    10030    2    1    2    0    0  0.00000000000E+00  0.00000000000E+00 -0.45678113095E+03  0.37377033597E+04  0.37096869684E+04 0.  0.
        2    1    3    3  502    0 -0.12399012301E+04  0.98324654994E+03  0.74655120072E+03  0.17497049848E+04  0.25500000920E-02 0. -1.
       -2    1    3    3    0  502  0.12399012301E+04 -0.98324654994E+03 -0.12033323317E+04  0.19879983750E+04  0.25500000920E-02 0.  1.
</event>
<event>
 5   0  0.1150235E-07  0.3775200E+04  0.7818609E-02  0.8051498E-01
        2   -1    0    0  501    0  0.00000000000E+00  0.00000000000E+00  0.34782586002E+04  0.34782586002E+04  0.25500000920E-02 0. -1.
       -2   -1    0    0    0  501  0.00000000000E+00  0.00000000000E+00 -0.10243731402E+04  0.10243731402E+04  0.25500000920E-02 0.  1.
    10030    2    1    2    0    0  0.00000000000E+00  0.00000000000E+00  0.24538854600E+04  0.45026317404E+04  0.37752004899E+04 0.  0.
        4    1    3    3  502    0  0.68205556367E+03  0.44297942959E+02  0.33254855433E+04  0.33949989412E+04  0.12699999809E+01 0. -1.
       -4    1    3    3    0  502 -0.68205556367E+03 -0.44297942959E+02 -0.87160008328E+03  0.11076327991E+04  0.12699999809E+01 0.  1.
</event>
<event>
 5   0  0.3701250E-08  0.3803887E+04  0.7818609E-02  0.8045321E-01
       -1   -1    0    0    0  501  0.00000000000E+00  0.00000000000E+00  0.25761666258E+04  0.25761666258E+04  0.50400001928E-02 0.  1.
        1   -1    0    0  501    0  0.00000000000E+00  0.00000000000E+00 -0.14041750127E+04  0.14041750127E+04  0.50400001928E-02 0. -1.
    10030    2    1    2    0    0  0.00000000000E+00  0.00000000000E+00  0.11719916131E+04  0.39803416385E+04  0.38038868567E+04 0.  0.
        1    1    3    3  502    0  0.18913323376E+03  0.79000278085E+03 -0.12135217680E+04  0.14603119035E+04  0.50400001928E-02 0. -1.
       -1    1    3    3    0  502 -0.18913323376E+03 -0.79000278085E+03  0.23855133812E+04  0.25200297351E+04  0.50400001928E-02 0.  1.
</event>
<event>
 5   0  0.3701250E-08  0.3808114E+04  0.7818609E-02  0.8044416E-01
       -1   -1    0    0    0  501  0.00000000000E+00  0.00000000000E+00  0.11716378314E+04  0.11716378314E+04  0.50400001928E-02 0.  1.
        1   -1    0    0  501    0  0.00000000000E+00  0.00000000000E+00 -0.30943293604E+04  0.30943293604E+04  0.50400001928E-02 0. -1.
    10030    2    1    2    0    0  0.00000000000E+00  0.00000000000E+00 -0.19226915290E+04  0.42659671918E+04  0.38081141482E+04 0.  0.
        3    1    3    3  502    0 -0.50821340197E+03 -0.97276838967E+03 -0.27043307978E+04  0.29185551692E+04  0.10100000352E+00 0. -1.
       -3    1    3    3    0  502  0.50821340197E+03  0.97276838967E+03  0.78163926878E+03  0.13474120226E+04  0.10100000352E+00 0.  1.
</event>
<event>
 5   0  0.7858367E-08  0.3766127E+04  0.7818609E-02  0.8053463E-01
        2   -1    0    0  501    0  0.00000000000E+00  0.00000000000E+00  0.26765921420E+04  0.26765921420E+04  0.25500000920E-02 0.  1.
       -2   -1    0    0    0  501  0.00000000000E+00  0.00000000000E+00 -0.13247920421E+04  0.13247920421E+04  0.25500000920E-02 0. -1.
    10030    2    1    2    0    0  0.00000000000E+00  0.00000000000E+00  0.13518000999E+04  0.40013841842E+04  0.37661269069E+04 0.  0.
        2    1    3    3  502    0 -0.87555870645E+03  0.16244177905E+04  0.27752214852E+03  0.18661068430E+04  0.25500000920E-02 0.  1.
       -2    1    3    3    0  502  0.87555870645E+03 -0.16244177905E+04  0.10742779514E+04  0.21352773411E+04  0.25500000920E-02 0. -1.
</event>
<event>
 5   0  0.1143283E-07  0.3796274E+04  0.7818609E-02  0.8046955E-01
       -2   -1    0    0    0  501  0.00000000000E+00  0.00000000000E+00  0.16651651868E+04  0.16651651868E+04  0.25500000920E-02 0.  1.
        2   -1    0    0  501    0  0.00000000000E+00  0.00000000000E+00 -0.21637040325E+04  0.21637040325E+04  0.25500000920E-02 0. -1.
    10030    2    1    2    0    0  0.00000000000E+00  0.00000000000E+00 -0.49853884571E+03  0.38288692194E+04  0.37962742944E+04 0.  0.
        1    1    3    3  502    0 -0.45701801789E+03  0.22434051739E+03 -0.20935567468E+04  0.21545704882E+04  0.50400001928E-02 0. -1.
       -1    1    3    3    0  502  0.45701801789E+03 -0.22434051739E+03  0.15950179011E+04  0.16742987312E+04  0.50400001928E-02 0.  1.
</event>
<event>
 5   0  0.1174870E-07  0.3808646E+04  0.7818609E-02  0.8044302E-01
       -2   -1    0    0    0  501  0.00000000000E+00  0.00000000000E+00  0.30247417728E+04  0.30247417728E+04  0.25500000920E-02 0. -1.
        2   -1    0    0  501    0  0.00000000000E+00  0.00000000000E+00 -0.11989273113E+04  0.11989273114E+04  0.25500000920E-02 0.  1.
    10030    2    1    2    0    0  0.00000000000E+00  0.00000000000E+00  0.18258144614E+04  0.42236690841E+04  0.38086457022E+04 0.  0.
        5    1    3    3  502    0 -0.84116616750E+03  0.60944517934E+03 -0.85708454404E+03  0.13466996523E+04  0.46999998093E+01 0.  1.
       -5    1    3    3    0  502  0.84116616750E+03 -0.60944517934E+03  0.26828990055E+04  0.28769694318E+04  0.46999998093E+01 0. -1.
</event>
<event>
 5   0  0.3701250E-08  0.3813398E+04  0.7818609E-02  0.8043286E-01
       -1   -1    0    0    0  501  0.00000000000E+00  0.00000000000E+00  0.14734627475E+04  0.14734627475E+04  0.50400001928E-02 0.  1.
        1   -1    0    0  501    0  0.00000000000E+00  0.00000000000E+00 -0.24673178425E+04  0.24673178425E+04  0.50400001928E-02 0. -1.
    10030    2    1    2    0    0  0.00000000000E+00  0.00000000000E+00 -0.99385509507E+03  0.39407805900E+04  0.38133979216E+04 0.  0.
        4    1    3    3  502    0 -0.13317143977E+03 -0.16028426850E+04 -0.15551756125E+04  0.22372778335E+04  0.12699999809E+01 0. -1.
       -4    1    3    3    0  502  0.13317143977E+03  0.16028426850E+04  0.56132051747E+03  0.17035027566E+04  0.12699999809E+01 0.  1.
</event>
<event>
 5   0  0.3889225E-08  0.3795885E+04  0.7818609E-02  0.8047039E-01
       -1   -1    0    0    0  501  0.00000000000E+00  0.00000000000E+00  0.13985072684E+04  0.13985072684E+04  0.50400001928E-02 0. -1.
        1   -1    0    0  501    0  0.00000000000E+00  0.00000000000E+00 -0.25757355152E+04  0.25757355152E+04  0.50400001928E-02 0.  1.
    10030    2    1    2    0    0  0.00000000000E+00  0.00000000000E+00 -0.11772282468E+04  0.39742427836E+04  0.37958845291E+04 0.  0.
        5    1    3    3  502    0 -0.17133878107E+03 -0.18833671936E+04 -0.75656924071E+03  0.20368721290E+04  0.46999998093E+01 0. -1.
       -5    1    3    3    0  502  0.17133878107E+03  0.18833671936E+04 -0.42065900613E+03  0.19373706546E+04  0.46999998093E+01 0.  1.
</event>
<event>
 5   0  0.7858367E-08  0.3797120E+04  0.7818609E-02  0.8046773E-01
        2   -1    0    0  501    0  0.00000000000E+00  0.00000000000E+00  0.21123496104E+04  0.21123496104E+04  0.25500000920E-02 0. -1.
       -2   -1    0    0    0  501  0.00000000000E+00  0.00000000000E+00 -0.17064075987E+04  0.17064075987E+04  0.25500000920E-02 0.  1.
    10030    2    1    2    0    0  0.00000000000E+00  0.00000000000E+00  0.40594201162E+03  0.38187572091E+04  0.37971196591E+04 0.  0.
        2    1    3    3  502    0  0.15196042403E+04  0.11379624047E+04  0.18352316313E+03  0.19073112575E+04  0.25500000920E-02 0. -1.
       -2    1    3    3    0  502 -0.15196042403E+04 -0.11379624047E+04  0.22241884849E+03  0.19114459516E+04  0.25500000920E-02 0.  1.
</event>
<event>
 5   0  0.3701250E-08  0.3772861E+04  0.7818609E-02  0.8052004E-01
       -1   -1    0    0    0  501  0.00000000000E+00  0.00000000000E+00  0.17082140110E+04  0.17082140110E+04  0.50400001928E-02 0.  1.
        1   -1    0    0  501    0  0.00000000000E+00  0.00000000000E+00 -0.20832399228E+04  0.20832399228E+04  0.50400001928E-02 0. -1.
    10030    2    1    2    0    0  0.00000000000E+00  0.00000000000E+00 -0.37502591176E+03  0.37914539338E+04  0.37728607843E+04 0.  0.
        4    1    3    3  502    0 -0.49010653951E+03 -0.16932438905E+04 -0.86264123406E+03  0.19625062559E+04  0.12699999809E+01 0. -1.
       -4    1    3    3    0  502  0.49010653951E+03  0.16932438905E+04  0.48761532231E+03  0.18289476779E+04  0.12699999809E+01 0.  1.
</event>
<event>
 5   0  0.1174870E-07  0.3679539E+04  0.7818609E-02  0.8072511E-01
        2   -1    0    0  501    0  0.00000000000E+00  0.00000000000E+00  0.18979472452E+04  0.18979472452E+04  0.25500000920E-02 0.  1.
       -2   -1    0    0    0  501  0.00000000000E+00  0.00000000000E+00 -0.17833749729E+04  0.17833749729E+04  0.25500000920E-02 0. -1.
    10030    2    1    2    0    0  0.00000000000E+00  0.00000000000E+00  0.11457227232E+03  0.36813222182E+04  0.36795388934E+04 0.  0.
        5    1    3    3  502    0 -0.43780213959E+03 -0.98462817258E+01  0.18450382485E+04  0.18963005804E+04  0.46999998093E+01 0.  1.
       -5    1    3    3    0  502  0.43780213959E+03  0.98462817258E+01 -0.17304659762E+04  0.17850216378E+04  0.46999998093E+01 0. -1.
</event>
<event>
 5   0  0.3889225E-08  0.3789471E+04  0.7818609E-02  0.8048418E-01
       -1   -1    0    0    0  501  0.00000000000E+00  0.00000000000E+00  0.18117581356E+04  0.18117581356E+04  0.50400001928E-02 0.  1.
        1   -1    0    0  501    0  0.00000000000E+00  0.00000000000E+00 -0.19815133193E+04  0.19815133193E+04  0.50400001928E-02 0. -1.
    10030    2    1    2    0    0  0.00000000000E+00  0.00000000000E+00 -0.16975518366E+03  0.37932714549E+04  0.37894711383E+04 0.  0.
        5    1    3    3  502    0  0.13127960739E+04  0.14085553991E+03 -0.14451837538E+04  0.19575116824E+04  0.46999998093E+01 0. -1.
       -5    1    3    3    0  502 -0.13127960739E+04 -0.14085553991E+03  0.12754285701E+04  0.18357597725E+04  0.46999998093E+01 0.  1.
</event>
<event>
 5   0  0.3701250E-08  0.3789791E+04  0.7818609E-02  0.8048349E-01
        1   -1    0    0  501    0  0.00000000000E+00  0.00000000000E+00  0.19161643014E+04  0.19161643014E+04  0.50400001928E-02 0. -1.
       -1   -1    0    0    0  501  0.00000000000E+00  0.00000000000E+00 -0.18738629624E+04  0.18738629624E+04  0.50400001928E-02 0.  1.
    10030    2    1    2    0    0  0.00000000000E+00  0.00000000000E+00  0.42301339025E+02  0.37900272638E+04  0.37897911891E+04 0.  0.
        4    1    3    3  502    0 -0.25349951803E+03 -0.18202604794E+04  0.48271759036E+03  0.19001652832E+04  0.12699999809E+01 0. -1.
       -4    1    3    3    0  502  0.25349951803E+03  0.18202604794E+04 -0.44041625134E+03  0.18898619806E+04  0.12699999809E+01 0.  1.
</event>
<event>
 5   0  0.7858367E-08  0.3781754E+04  0.7818609E-02  0.8050082E-01
       -2   -1    0    0    0  501  0.00000000000E+00  0.00000000000E+00  0.18451732146E+04  0.18451732146E+04  0.25500000920E-02 0. -1.
        2   -1    0    0  501    0  0.00000000000E+00  0.00000000000E+00 -0.19377128221E+04  0.19377128221E+04  0.25500000920E-02 0.  1.
    10030    2    1    2    0    0  0.00000000000E+00  0.00000000000E+00 -0.92539607509E+02  0.37828860367E+04  0.37817539830E+04 0.  0.
        2    1    3    3  502    0  0.15201280206E+04  0.73976834331E+03  0.80096035627E+03  0.18707174808E+04  0.25500000920E-02 0.  1.
       -2    1    3    3    0  502 -0.15201280206E+04 -0.73976834331E+03 -0.89349996377E+03  0.19121685559E+04  0.25500000920E-02 0. -1.
</event>
<event>
 5   0  0.3889225E-08  0.3806115E+04  0.7818609E-02  0.8044844E-01
       -1   -1    0    0    0  501  0.00000000000E+00  0.00000000000E+00  0.16660080130E+04  0.16660080130E+04  0.50400001928E-02 0.  1.
        1   -1    0    0  501    0  0.00000000000E+00  0.00000000000E+00 -0.21738353403E+04  0.21738353403E+04  0.50400001928E-02 0. -1.
    10030    2    1    2    0    0  0.00000000000E+00  0.00000000000E+00 -0.50782732728E+03  0.38398433534E+04  0.38061146047E+04 0.  0.
        5    1    3    3  502    0  0.33589720921E+03 -0.46396201336E+03 -0.20848010071E+04  0.21620603632E+04  0.46999998093E+01 0. -1.
       -5    1    3    3    0  502 -0.33589720921E+03  0.46396201336E+03  0.15769736798E+04  0.16777829901E+04  0.46999998093E+01 0.  1.
</event>
<event>
 5   0  0.1150235E-07  0.3792433E+04  0.7818609E-02  0.8047781E-01
       -2   -1    0    0    0  501  0.00000000000E+00  0.00000000000E+00  0.18693044304E+04  0.18693044304E+04  0.25500000920E-02 0. -1.
        2   -1    0    0  501    0  0.00000000000E+00  0.00000000000E+00 -0.19235158680E+04  0.19235158680E+04  0.25500000920E-02 0.  1.
    10030    2    1    2    0    0  0.00000000000E+00  0.00000000000E+00 -0.54211437592E+02  0.37928202984E+04  0.37924328519E+04 0.  0.
        4    1    3    3  502    0 -0.87158863847E+03  0.14180519366E+04 -0.93554705912E+03  0.19093946586E+04  0.12699999809E+01 0.  1.
       -4    1    3    3    0  502  0.87158863847E+03 -0.14180519366E+04  0.88133562153E+03  0.18834256397E+04  0.12699999809E+01 0. -1.
</event>
<event>
 5   0  0.3701250E-08  0.3806981E+04  0.7818609E-02  0.8044658E-01
       -1   -1    0    0    0  501  0.00000000000E+00  0.00000000000E+00  0.20328903089E+04  0.20328903089E+04  0.50400001928E-02 0. -1.
        1   -1    0    0  501    0  0.00000000000E+00  0.00000000000E+00 -0.17823278024E+04  0.17823278024E+04  0.50400001928E-02 0.  1.
    10030    2    1    2    0    0  0.00000000000E+00  0.00000000000E+00  0.25056250653E+03  0.38152181114E+04  0.38069814378E+04 0.  0.
        4    1    3    3  502    0 -0.19044444163E+03  0.23164809418E+03  0.20090676541E+04  0.20313257682E+04  0.12699999809E+01 0. -1.
       -4    1    3    3    0  502  0.19044444163E+03 -0.23164809418E+03 -0.17585051476E+04  0.17838923431E+04  0.12699999809E+01 0.  1.
</event>
<event>
 5   0  0.1174870E-07  0.3810647E+04  0.7818609E-02  0.8043874E-01
       -2   -1    0    0    0  501  0.00000000000E+00  0.00000000000E+00  0.18282222147E+04  0.18282222147E+04  0.25500000920E-02 0. -1.
        2   -1    0    0  501    0  0.00000000000E+00  0.00000000000E+00 -0.19856766523E+04  0.19856766523E+04  0.25500000920E-02 0.  1.
    10030    2    1    2    0    0  0.00000000000E+00  0.00000000000E+00 -0.15745443757E+03  0.38138988670E+04  0.38106472768E+04 0.  0.
        5    1    3    3  502    0 -0.12019200418E+04 -0.58676790348E+03  0.12793859703E+04  0.18508805770E+04  0.46999998093E+01 0. -1.
       -5    1    3    3    0  502  0.12019200418E+04  0.58676790348E+03 -0.14368404079E+04  0.19630182900E+04  0.46999998093E+01 0.  1.
</event>
<event>
 5   0  0.7858367E-08  0.3798396E+04  0.7818609E-02  0.8046499E-01
       -2   -1    0    0    0  501  0.00000000000E+00  0.00000000000E+00  0.14811611152E+04  0.14811611152E+04  0.25500000920E-02 0. -1.
        2   -1    0    0  501    0  0.00000000000E+00  0.00000000000E+00 -0.24352202465E+04  0.24352202465E+04  0.25500000920E-02 0.  1.
    10030    2    1    2    0    0  0.00000000000E+00  0.00000000000E+00 -0.95405913127E+03  0.39163813617E+04  0.37983962595E+04 0.  0.
        2    1    3    3  502    0 -0.13873283698E+03 -0.16671083822E+04 -0.14041005770E+04  0.21840319568E+04  0.25500000920E-02 0.  1.
       -2    1    3    3    0  502  0.13873283698E+03  0.16671083822E+04  0.45004144568E+03  0.17323494049E+04  0.25500000920E-02 0. -1.
</event>
<event>
 5   0  0.7858367E-08  0.3809943E+04  0.7818609E-02  0.8044025E-01
       -2   -1    0    0    0  501  0.00000000000E+00  0.00000000000E+00  0.14894669882E+04  0.14894669882E+04  0.25500000920E-02 0. -1.
        2   -1    0    0  501    0  0.00000000000E+00  0.00000000000E+00 -0.24363855834E+04  0.24363855834E+04  0.25500000920E-02 0.  1.
    10030    2    1    2    0    0  0.00000000000E+00  0.00000000000E+00 -0.94691859518E+03  0.39258525716E+04  0.38099427277E+04 0.  0.
        2    1    3    3  502    0 -0.17427923862E+04  0.24045980531E+03  0.27936302564E+03  0.17813449748E+04  0.25500000920E-02 0. -1.
       -2    1    3    3    0  502  0.17427923862E+04 -0.24045980531E+03 -0.12262816208E+04  0.21445075968E+04  0.25500000920E-02 0.  1.
</event>
<event>
 5   0  0.1150235E-07  0.3807023E+04  0.7818609E-02  0.8044649E-01
        2   -1    0    0  501    0  0.00000000000E+00  0.00000000000E+00  0.17260494996E+04  0.17260494996E+04  0.25500000920E-02 0. -1.
       -2   -1    0    0    0  501  0.00000000000E+00  0.00000000000E+00 -0.20992193698E+04  0.20992193698E+04  0.25500000920E-02 0.  1.
    10030    2    1    2    0    0  0.00000000000E+00  0.00000000000E+00 -0.37316987023E+03  0.38252688694E+04  0.38070232691E+04 0.  0.
        4    1    3    3  502    0 -0.95225263864E+03  0.16230960670E+04 -0.47453998633E+03  0.19407255710E+04  0.12699999809E+01 0.  1.
       -4    1    3    3    0  502  0.95225263864E+03 -0.16230960670E+04  0.10137011610E+03  0.18845432984E+04  0.12699999809E+01 0. -1.
</event>
<event>
 5   0  0.1174870E-07  0.3820827E+04  0.7818609E-02  0.8041700E-01
       -2   -1    0    0    0  501  0.00000000000E+00  0.00000000000E+00  0.14184695056E+04  0.14184695056E+04  0.25500000920E-02 0.  1.
        2   -1    0    0  501    0  0.00000000000E+00  0.00000000000E+00 -0.25729700503E+04  0.25729700503E+04  0.25500000920E-02 0. -1.
    10030    2    1    2    0    0  0.00000000000E+00  0.00000000000E+00 -0.11545005447E+04  0.39914395559E+04  0.38208269027E+04 0.  0.
        5    1    3    3  502    0 -0.23162124621E+03  0.18496854971E+04 -0.14064938146E+03  0.18694355240E+04  0.46999998093E+01 0.  1.
       -5    1    3    3    0  502  0.23162124621E+03 -0.18496854971E+04 -0.10138511633E+04  0.21220040318E+04  0.46999998093E+01 0. -1.
</event>
<event>
 5   0  0.1150235E-07  0.3771785E+04  0.7818609E-02  0.8052237E-01
        2   -1    0    0  501    0  0.00000000000E+00  0.00000000000E+00  0.21400867771E+04  0.21400867771E+04  0.25500000920E-02 0. -1.
       -2   -1    0    0    0  501  0.00000000000E+00  0.00000000000E+00 -0.16618910090E+04  0.16618910090E+04  0.25500000920E-02 0.  1.
    10030    2    1    2    0    0  0.00000000000E+00  0.00000000000E+00  0.47819576813E+03  0.38019777861E+04  0.37717852396E+04 0.  0.
        4    1    3    3  502    0 -0.17780670200E+04 -0.58433259133E+03  0.56790113198E+01  0.18716305108E+04  0.12699999809E+01 0.  1.
       -4    1    3    3    0  502  0.17780670200E+04  0.58433259133E+03  0.47251675681E+03  0.19303472753E+04  0.12699999809E+01 0. -1.
</event>
<event>
 5   0  0.3701250E-08  0.3734270E+04  0.7818609E-02  0.8060409E-01
       -1   -1    0    0    0  501  0.00000000000E+00  0.00000000000E+00  0.13615671096E+04  0.13615671097E+04  0.50400001928E-02 0.  1.
        1   -1    0    0  501    0  0.00000000000E+00  0.00000000000E+00 -0.25604271819E+04  0.25604271819E+04  0.50400001928E-02 0. -1.
    10030    2    1    2    0    0  0.00000000000E+00  0.00000000000E+00 -0.11988600723E+04  0.39219942916E+04  0.37342701764E+04 0.  0.
        4    1    3    3  502    0  0.36200358596E+02  0.11186247221E+04  0.97020990580E+03  0.14811956687E+04  0.12699999809E+01 0.  1.
       -4    1    3    3    0  502 -0.36200358596E+02 -0.11186247221E+04 -0.21690699781E+04  0.24407986229E+04  0.12699999809E+01 0. -1.
</event>
<event>
 5   0  0.3701250E-08  0.3791289E+04  0.7818609E-02  0.8048027E-01
        1   -1    0    0  501    0  0.00000000000E+00  0.00000000000E+00  0.18656300891E+04  0.18656300891E+04  0.50400001928E-02 0.  1.
       -1   -1    0    0    0  501  0.00000000000E+00  0.00000000000E+00 -0.19261418134E+04  0.19261418134E+04  0.50400001928E-02 0. -1.
    10030    2    1    2    0    0  0.00000000000E+00  0.00000000000E+00 -0.60511724311E+02  0.37917719026E+04  0.37912890278E+04 0.  0.
        2    1    3    3  502    0 -0.47854173389E+03 -0.14756573459E+04 -0.11198446316E+04  0.19132743641E+04  0.25500000920E-02 0. -1.
       -2    1    3    3    0  502  0.47854173389E+03  0.14756573459E+04  0.10593329073E+04  0.18784975384E+04  0.25500000920E-02 0.  1.
</event>
<event>
 5   0  0.3701250E-08  0.3803110E+04  0.7818609E-02  0.8045488E-01
        1   -1    0    0  501    0  0.00000000000E+00  0.00000000000E+00  0.14593214611E+04  0.14593214611E+04  0.50400001928E-02 0. -1.
       -1   -1    0    0    0  501  0.00000000000E+00  0.00000000000E+00 -0.24778031756E+04  0.24778031757E+04  0.50400001928E-02 0.  1.
    10030    2    1    2    0    0  0.00000000000E+00  0.00000000000E+00 -0.10184817146E+04  0.39371246367E+04  0.38031099645E+04 0.  0.
        4    1    3    3  502    0 -0.46139440455E+03  0.89696700235E+03  0.11595409763E+04  0.15368706805E+04  0.12699999809E+01 0. -1.
       -4    1    3    3    0  502  0.46139440455E+03 -0.89696700235E+03 -0.21780226909E+04  0.24002539563E+04  0.12699999809E+01 0.  1.
</event>
<event>
 5   0  0.1150235E-07  0.3806208E+04  0.7818609E-02  0.8044824E-01
        2   -1    0    0  501    0  0.00000000000E+00  0.00000000000E+00  0.20265114476E+04  0.20265114476E+04  0.25500000920E-02 0.  1.
       -2   -1    0    0    0  501  0.00000000000E+00  0.00000000000E+00 -0.17872116423E+04  0.17872116423E+04  0.25500000920E-02 0. -1.
    10030    2    1    2    0    0  0.00000000000E+00  0.00000000000E+00  0.23929980534E+03  0.38137230898E+04  0.38062080092E+04 0.  0.
        4    1    3    3  502    0  0.45718439836E+03  0.61510579910E+03 -0.16257511615E+04  0.17973428082E+04  0.12699999809E+01 0. -1.
       -4    1    3    3    0  502 -0.45718439836E+03 -0.61510579910E+03  0.18650509669E+04  0.20163802816E+04  0.12699999809E+01 0.  1.
</event>
<event>
 5   0  0.3701250E-08  0.3804592E+04  0.7818609E-02  0.8045170E-01
       -1   -1    0    0    0  501  0.00000000000E+00  0.00000000000E+00  0.25690864118E+04  0.25690864118E+04  0.50400001928E-02 0.  1.
        1   -1    0    0  501    0  0.00000000000E+00  0.00000000000E+00 -0.14085666838E+04  0.14085666838E+04  0.50400001928E-02 0. -1.
    10030    2    1    2    0    0  0.00000000000E+00  0.00000000000E+00  0.11605197280E+04  0.39776530956E+04  0.38045917139E+04 0.  0.
        1    1    3    3  502    0 -0.77053301177E+03 -0.16851400490E+04  0.10303193698E+04  0.21201358708E+04  0.50400001928E-02 0.  1.
       -1    1    3    3    0  502  0.77053301177E+03  0.16851400490E+04  0.13020035821E+03  0.18575172248E+04  0.50400001928E-02 0. -1.
</event>
<event>
 5   0  0.3889225E-08  0.3815238E+04  0.7818609E-02  0.8042893E-01
        1   -1    0    0  501    0  0.00000000000E+00  0.00000000000E+00  0.27157202447E+04  0.27157202447E+04  0.50400001928E-02 0. -1.
       -1   -1    0    0    0  501  0.00000000000E+00  0.00000000000E+00 -0.13399797403E+04  0.13399797403E+04  0.50400001928E-02 0.  1.
    10030    2    1    2    0    0  0.00000000000E+00  0.00000000000E+00  0.13757405044E+04  0.40556999850E+04  0.38152379261E+04 0.  0.
        5    1    3    3  502    0  0.11976509150E+04 -0.75007875515E+03 -0.67429895097E+03  0.15657863898E+04  0.46999998093E+01 0.  1.
       -5    1    3    3    0  502 -0.11976509150E+04  0.75007875515E+03  0.20500394554E+04  0.24899135952E+04  0.46999998093E+01 0. -1.
</event>
<event>
 5   0  0.3701250E-08  0.3811440E+04  0.7818609E-02  0.8043704E-01
        1   -1    0    0  501    0  0.00000000000E+00  0.00000000000E+00  0.20445268951E+04  0.20445268951E+04  0.50400001928E-02 0.  1.
       -1   -1    0    0    0  501  0.00000000000E+00  0.00000000000E+00 -0.17763370158E+04  0.17763370158E+04  0.50400001928E-02 0. -1.
    10030    2    1    2    0    0  0.00000000000E+00  0.00000000000E+00  0.26818987924E+03  0.38208639109E+04  0.38114400447E+04 0.  0.
        3    1    3    3  502    0  0.91124191295E+03  0.22804042264E+03 -0.15281376750E+04  0.17937583511E+04  0.10100000352E+00 0. -1.
       -3    1    3    3    0  502 -0.91124191295E+03 -0.22804042264E+03  0.17963275542E+04  0.20271055598E+04  0.10100000352E+00 0.  1.
</event>
<event>
 5   0  0.7858367E-08  0.3820755E+04  0.7818609E-02  0.8041716E-01
        2   -1    0    0  501    0  0.00000000000E+00  0.00000000000E+00  0.27265481622E+04  0.27265481622E+04  0.25500000920E-02 0. -1.
       -2   -1    0    0    0  501  0.00000000000E+00  0.00000000000E+00 -0.13385209104E+04  0.13385209104E+04  0.25500000920E-02 0.  1.
    10030    2    1    2    0    0  0.00000000000E+00  0.00000000000E+00  0.13880272518E+04  0.40650690726E+04  0.38207547571E+04 0.  0.
        2    1    3    3  502    0  0.72692388151E+02  0.17846794058E+04  0.14149697129E+04  0.22787066624E+04  0.25500000920E-02 0. -1.
       -2    1    3    3    0  502 -0.72692388151E+02 -0.17846794058E+04 -0.26942461044E+02  0.17863624103E+04  0.25500000920E-02 0.  1.
</event>
<event>
 5   0  0.7858367E-08  0.3833908E+04  0.7818609E-02  0.8038917E-01
        2   -1    0    0  501    0  0.00000000000E+00  0.00000000000E+00  0.28313766976E+04  0.28313766976E+04  0.25500000920E-02 0. -1.
       -2   -1    0    0    0  501  0.00000000000E+00  0.00000000000E+00 -0.12978534927E+04  0.12978534927E+04  0.25500000920E-02 0.  1.
    10030    2    1    2    0    0  0.00000000000E+00  0.00000000000E+00  0.15335232049E+04  0.41292301904E+04  0.38339077382E+04 0.  0.
        2    1    3    3  502    0  0.71920036260E+03  0.84246484838E+02  0.26784095206E+04  0.27745673882E+04  0.25500000920E-02 0. -1.
       -2    1    3    3    0  502 -0.71920036260E+03 -0.84246484838E+02 -0.11448863157E+04  0.13546628022E+04  0.25500000920E-02 0.  1.
</event>
<event>
 5   0  0.1150235E-07  0.3802681E+04  0.7818609E-02  0.8045580E-01
        2   -1    0    0  501    0  0.00000000000E+00  0.00000000000E+00  0.31371495875E+04  0.31371495875E+04  0.25500000920E-02 0.  1.
       -2   -1    0    0    0  501  0.00000000000E+00  0.00000000000E+00 -0.11523505340E+04  0.11523505340E+04  0.25500000920E-02 0. -1.
    10030    2    1    2    0    0  0.00000000000E+00  0.00000000000E+00  0.19847990535E+04  0.42895001215E+04  0.38026811606E+04 0.  0.
        4    1    3    3  502    0  0.17901190602E+04  0.30061071722E+03  0.35409438689E+03  0.18493992269E+04  0.12699999809E+01 0.  1.
       -4    1    3    3    0  502 -0.17901190602E+04 -0.30061071722E+03  0.16307046666E+04  0.24401008945E+04  0.12699999809E+01 0. -1.
</event>
<event>
 5   0  0.3889225E-08  0.3800716E+04  0.7818609E-02  0.8046001E-01
       -1   -1    0    0    0  501  0.00000000000E+00  0.00000000000E+00  0.18382526405E+04  0.18382526405E+04  0.50400001928E-02 0.  1.
        1   -1    0    0  501    0  0.00000000000E+00  0.00000000000E+00 -0.19645617271E+04  0.19645617271E+04  0.50400001928E-02 0. -1.
    10030    2    1    2    0    0  0.00000000000E+00  0.00000000000E+00 -0.12630908657E+03  0.38028143676E+04  0.38007161337E+04 0.  0.
        5    1    3    3  502    0  0.16925999410E+04  0.77565424132E+03 -0.44389665599E+03  0.19140533936E+04  0.46999998093E+01 0. -1.
       -5    1    3    3    0  502 -0.16925999410E+04 -0.77565424132E+03  0.31758756943E+03  0.18887609740E+04  0.46999998093E+01 0.  1.
</event>
<event>
 5   0  0.3701250E-08  0.3797403E+04  0.7818609E-02  0.8046712E-01
       -1   -1    0    0    0  501  0.00000000000E+00  0.00000000000E+00  0.12107796943E+04  0.12107796943E+04  0.50400001928E-02 0. -1.
        1   -1    0    0  501    0  0.00000000000E+00  0.00000000000E+00 -0.29774763202E+04  0.29774763202E+04  0.50400001928E-02 0.  1.
    10030    2    1    2    0    0  0.00000000000E+00  0.00000000000E+00 -0.17666966259E+04  0.41882560145E+04  0.37974032542E+04 0.  0.
        1    1    3    3  502    0  0.89481969980E+02 -0.15760456882E+04  0.28029950636E+03  0.16032762854E+04  0.50400001928E-02 0. -1.
       -1    1    3    3    0  502 -0.89481969980E+02  0.15760456882E+04 -0.20469961322E+04  0.25849797290E+04  0.50400001928E-02 0.  1.
</event>
<event>
 5   0  0.3701250E-08  0.3765593E+04  0.7818609E-02  0.8053579E-01
        1   -1    0    0  501    0  0.00000000000E+00  0.00000000000E+00  0.12344156898E+04  0.12344156898E+04  0.50400001928E-02 0.  1.
       -1   -1    0    0    0  501  0.00000000000E+00  0.00000000000E+00 -0.28717416671E+04  0.28717416672E+04  0.50400001928E-02 0. -1.
    10030    2    1    2    0    0  0.00000000000E+00  0.00000000000E+00 -0.16373259774E+04  0.41061573569E+04  0.37655931649E+04 0.  0.
        2    1    3    3  502    0  0.20646296939E+03  0.12461736190E+03  0.12175050938E+04  0.12411587723E+04  0.25500000920E-02 0.  1.
       -2    1    3    3    0  502 -0.20646296939E+03 -0.12461736190E+03 -0.28548310712E+04  0.28649985846E+04  0.25500000920E-02 0. -1.
</event>
<event>
 5   0  0.1174870E-07  0.3876573E+04  0.7818609E-02  0.8029919E-01
        2   -1    0    0  501    0  0.00000000000E+00  0.00000000000E+00  0.22221015028E+04  0.22221015028E+04  0.25500000920E-02 0.  1.
       -2   -1    0    0    0  501  0.00000000000E+00  0.00000000000E+00 -0.16907211662E+04  0.16907211662E+04  0.25500000920E-02 0. -1.
    10030    2    1    2    0    0  0.00000000000E+00  0.00000000000E+00  0.53138033658E+03  0.39128226689E+04  0.38765727359E+04 0.  0.
        5    1    3    3  502    0 -0.15506834636E+04  0.84975676440E+03 -0.53560117854E+03  0.18475920749E+04  0.46999998093E+01 0. -1.
       -5    1    3    3    0  502  0.15506834636E+04 -0.84975676440E+03  0.10669815151E+04  0.20652305940E+04  0.46999998093E+01 0.  1.
</event>
<event>
 5   0  0.3701250E-08  0.3799645E+04  0.7818609E-02  0.8046231E-01
       -1   -1    0    0    0  501  0.00000000000E+00  0.00000000000E+00  0.22982800207E+04  0.22982800207E+04  0.50400001928E-02 0. -1.
        1   -1    0    0  501    0  0.00000000000E+00  0.00000000000E+00 -0.15704460299E+04  0.15704460299E+04  0.50400001928E-02 0.  1.
    10030    2    1    2    0    0  0.00000000000E+00  0.00000000000E+00  0.72783399073E+03  0.38687260506E+04  0.37996445803E+04 0.  0.
        3    1    3    3  502    0 -0.95854806673E+03  0.89675568071E+03 -0.10344943595E+04  0.16712760805E+04  0.10100000352E+00 0.  1.
       -3    1    3    3    0  502  0.95854806673E+03 -0.89675568071E+03  0.17623283502E+04  0.21974499701E+04  0.10100000352E+00 0. -1.
</event>
<event>
 5   0  0.3701250E-08  0.3779557E+04  0.7818609E-02  0.8050556E-01
        1   -1    0    0  501    0  0.00000000000E+00  0.00000000000E+00  0.13651822262E+04  0.13651822262E+04  0.50400001928E-02 0.  1.
       -1   -1    0    0    0  501  0.00000000000E+00  0.00000000000E+00 -0.26159605679E+04  0.26159605679E+04  0.50400001928E-02 0. -1.
    10030    2    1    2    0    0  0.00000000000E+00  0.00000000000E+00 -0.12507783417E+04  0.39811427941E+04  0.37795570490E+04 0.  0.
        2    1    3    3  502    0  0.15370432189E+04 -0.10994355511E+04 -0.62372910188E+03  0.19900498437E+04  0.25500000920E-02 0.  1.
       -2    1    3    3    0  502 -0.15370432189E+04  0.10994355511E+04 -0.62704923982E+03  0.19910929504E+04  0.25500000920E-02 0. -1.
</event>
<event>
 5   0  0.1193861E-07  0.3811251E+04  0.7818609E-02  0.8043745E-01
        2   -1    0    0  501    0  0.00000000000E+00  0.00000000000E+00  0.23085956600E+04  0.23085956601E+04  0.25500000920E-02 0. -1.
       -2   -1    0    0    0  501  0.00000000000E+00  0.00000000000E+00 -0.15729943947E+04  0.15729943947E+04  0.25500000920E-02 0.  1.
    10030    2    1    2    0    0  0.00000000000E+00  0.00000000000E+00  0.73560126530E+03  0.38815900548E+04  0.38112507307E+04 0.  0.
        3    1    3    3  502    0  0.11145501666E+04 -0.88123627754E+03 -0.92552125619E+03  0.16956972184E+04  0.10100000352E+00 0.  1.
       -3    1    3    3    0  502 -0.11145501666E+04  0.88123627754E+03  0.16611225215E+04  0.21858928364E+04  0.10100000352E+00 0. -1.
</event>
<event>
 5   0  0.3701250E-08  0.3807547E+04  0.7818609E-02  0.8044537E-01
        1   -1    0    0  501    0  0.00000000000E+00  0.00000000000E+00  0.26862643600E+04  0.26862643600E+04  0.50400001928E-02 0.  1.
       -1   -1    0    0    0  501  0.00000000000E+00  0.00000000000E+00 -0.13492168090E+04  0.13492168090E+04  0.50400001928E-02 0. -1.
    10030    2    1    2    0    0  0.00000000000E+00  0.00000000000E+00  0.13370475510E+04  0.40354811689E+04  0.38075467313E+04 0.  0.
        3    1    3    3  502    0  0.64222223921E+03 -0.15395721389E+04  0.16408420022E+04  0.23398919338E+04  0.10100000352E+00 0.  1.
       -3    1    3    3    0  502 -0.64222223921E+03  0.15395721389E+04 -0.30379445119E+03  0.16955892351E+04  0.10100000352E+00 0. -1.
</event>
<event>
 5   0  0.3701250E-08  0.3803527E+04  0.7818609E-02  0.8045398E-01
        1   -1    0    0  501    0  0.00000000000E+00  0.00000000000E+00  0.24969884516E+04  0.24969884516E+04  0.50400001928E-02 0. -1.
       -1   -1    0    0    0  501  0.00000000000E+00  0.00000000000E+00 -0.14484263713E+04  0.14484263713E+04  0.50400001928E-02 0.  1.
    10030    2    1    2    0    0  0.00000000000E+00  0.00000000000E+00  0.10485620803E+04  0.39454148230E+04  0.38035267436E+04 0.  0.
        3    1    3    3  502    0  0.86658783553E+03  0.71827390465E+03 -0.10658128154E+04  0.15501125271E+04  0.10100000352E+00 0.  1.
       -3    1    3    3    0  502 -0.86658783553E+03 -0.71827390465E+03  0.21143748958E+04  0.23953022959E+04  0.10100000352E+00 0. -1.
</event>
<event>
 5   0  0.3701250E-08  0.3795958E+04  0.7818609E-02  0.8047023E-01
       -1   -1    0    0    0  501  0.00000000000E+00  0.00000000000E+00  0.17143416575E+04  0.17143416575E+04  0.50400001928E-02 0. -1.
        1   -1    0    0  501    0  0.00000000000E+00  0.00000000000E+00 -0.21012876501E+04  0.21012876501E+04  0.50400001928E-02 0.  1.
    10030    2    1    2    0    0  0.00000000000E+00  0.00000000000E+00 -0.38694599261E+03  0.38156293075E+04  0.37959583522E+04 0.  0.
        1    1    3    3  502    0  0.13284364656E+04  0.35734909532E+03 -0.15078742094E+04  0.20411091227E+04  0.50400001928E-02 0.  1.
       -1    1    3    3    0  502 -0.13284364656E+04 -0.35734909532E+03  0.11209282168E+04  0.17745201849E+04  0.50400001928E-02 0. -1.
</event>
<event>
 5   0  0.1174870E-07  0.3808725E+04  0.7818609E-02  0.8044285E-01
        2   -1    0    0  501    0  0.00000000000E+00  0.00000000000E+00  0.12236315244E+04  0.12236315244E+04  0.25500000920E-02 0.  1.
       -2   -1    0    0    0  501  0.00000000000E+00  0.00000000000E+00 -0.29637982386E+04  0.29637982386E+04  0.25500000920E-02 0. -1.
    10030    2    1    2    0    0  0.00000000000E+00  0.00000000000E+00 -0.17401667142E+04  0.41874297630E+04  0.38087252233E+04 0.  0.
        5    1    3    3  502    0  0.12911603207E+04 -0.11961746251E+04 -0.70708592308E+02  0.17615193733E+04  0.46999998093E+01 0.  1.
       -5    1    3    3    0  502 -0.12911603207E+04  0.11961746251E+04 -0.16694581219E+04  0.24259103896E+04  0.46999998093E+01 0. -1.
</event>
<event>
 5   0  0.3701250E-08  0.3805169E+04  0.7818609E-02  0.8045047E-01
        1   -1    0    0  501    0  0.00000000000E+00  0.00000000000E+00  0.19202192846E+04  0.19202192847E+04  0.50400001928E-02 0. -1.
       -1   -1    0    0    0  501  0.00000000000E+00  0.00000000000E+00 -0.18851115532E+04  0.18851115532E+04  0.50400001928E-02 0.  1.
    10030    2    1    2    0    0  0.00000000000E+00  0.00000000000E+00  0.35107731411E+02  0.38053308379E+04  0.38051688836E+04 0.  0.
        2    1    3    3  502    0 -0.16849127101E+04 -0.78325132991E+03  0.42673392732E+03  0.19064404872E+04  0.25500000920E-02 0.  1.
       -2    1    3    3    0  502  0.16849127101E+04  0.78325132991E+03 -0.39162619591E+03  0.18988903507E+04  0.25500000920E-02 0. -1.
</event>
<event>
 5   0  0.3701250E-08  0.3798639E+04  0.7818609E-02  0.8046447E-01
        1   -1    0    0  501    0  0.00000000000E+00  0.00000000000E+00  0.12202137351E+04  0.12202137351E+04  0.50400001928E-02 0.  1.
       -1   -1    0    0    0  501  0.00000000000E+00  0.00000000000E+00 -0.29563791179E+04  0.29563791179E+04  0.50400001928E-02 0. -1.
    10030    2    1    2    0    0  0.00000000000E+00  0.00000000000E+00 -0.17361653828E+04  0.41765928530E+04  0.37986389172E+04 0.  0.
        2    1    3    3  502    0 -0.16700869457E+04  0.82368613819E+02  0.12234363621E+03  0.16765866993E+04  0.25500000920E-02 0. -1.
       -2    1    3    3    0  502  0.16700869457E+04 -0.82368613819E+02 -0.18585090190E+04  0.25000061537E+04  0.25500000920E-02 0.  1.
</event>
<event>
 5   0  0.1193861E-07  0.3792868E+04  0.7818609E-02  0.8047687E-01
       -2   -1    0    0    0  501  0.00000000000E+00  0.00000000000E+00  0.12465580831E+04  0.12465580831E+04  0.25500000920E-02 0.  1.
        2   -1    0    0  501    0  0.00000000000E+00  0.00000000000E+00 -0.28851132585E+04  0.28851132585E+04  0.25500000920E-02 0. -1.
    10030    2    1    2    0    0  0.00000000000E+00  0.00000000000E+00 -0.16385551753E+04  0.41316713416E+04  0.37928676503E+04 0.  0.
        3    1    3    3  502    0  0.16256727132E+04 -0.91156146346E+03 -0.43769415444E+03  0.19145057470E+04  0.10100000352E+00 0.  1.
       -3    1    3    3    0  502 -0.16256727132E+04  0.91156146346E+03 -0.12008610209E+04  0.22171655946E+04  0.10100000352E+00 0. -1.
</event>
<event>
 5   0  0.7858367E-08  0.3795484E+04  0.7818609E-02  0.8047125E-01
        2   -1    0    0  501    0  0.00000000000E+00  0.00000000000E+00  0.29835891060E+04  0.29835891060E+04  0.25500000920E-02 0.  1.
       -2   -1    0    0    0  501  0.00000000000E+00  0.00000000000E+00 -0.12070780848E+04  0.12070780848E+04  0.25500000920E-02 0. -1.
    10030    2    1    2    0    0  0.00000000000E+00  0.00000000000E+00  0.17765110212E+04  0.41906671909E+04  0.37954841715E+04 0.  0.
        2    1    3    3  502    0  0.34884521299E+02  0.46952723585E+03  0.29180796897E+04  0.29558183013E+04  0.25500000920E-02 0.  1.
       -2    1    3    3    0  502 -0.34884521299E+02 -0.46952723585E+03 -0.11415686685E+04  0.12348488895E+04  0.25500000920E-02 0. -1.
</event>
<event>
 5   0  0.1150235E-07  0.3796238E+04  0.7818609E-02  0.8046963E-01
        2   -1    0    0  501    0  0.00000000000E+00  0.00000000000E+00  0.26616557498E+04  0.26616557498E+04  0.25500000920E-02 0.  1.
       -2   -1    0    0    0  501  0.00000000000E+00  0.00000000000E+00 -0.13536147168E+04  0.13536147168E+04  0.25500000920E-02 0. -1.
    10030    2    1    2    0    0  0.00000000000E+00  0.00000000000E+00  0.13080410330E+04  0.40152704666E+04  0.37962383455E+04 0.  0.
        4    1    3    3  502    0  0.63844456707E+03  0.16296135067E+03  0.25368066798E+04  0.26209840920E+04  0.12699999809E+01 0.  1.
       -4    1    3    3    0  502 -0.63844456707E+03 -0.16296135067E+03 -0.12287656467E+04  0.13942863746E+04  0.12699999809E+01 0. -1.
</event>
<event>
 5   0  0.3889225E-08  0.3789732E+04  0.7818609E-02  0.8048362E-01
        1   -1    0    0  501    0  0.00000000000E+00  0.00000000000E+00  0.21077985956E+04  0.21077985956E+04  0.50400001928E-02 0. -1.
       -1   -1    0    0    0  501  0.00000000000E+00  0.00000000000E+00 -0.17034437492E+04  0.17034437492E+04  0.50400001928E-02 0.  1.
    10030    2    1    2    0    0  0.00000000000E+00  0.00000000000E+00  0.40435484635E+03  0.38112423448E+04  0.37897315695E+04 0.  0.
        5    1    3    3  502    0  0.11502144204E+04  0.14610566053E+04 -0.16432857207E+03  0.18667366140E+04  0.46999998093E+01 0. -1.
       -5    1    3    3    0  502 -0.11502144204E+04 -0.14610566053E+04  0.56868341841E+03  0.19445057308E+04  0.46999998093E+01 0.  1.
</event>
<event>
 5   0  0.3701250E-08  0.3736064E+04  0.7818609E-02  0.8060016E-01
        1   -1    0    0  501    0  0.00000000000E+00  0.00000000000E+00  0.17845823373E+04  0.17845823373E+04  0.50400001928E-02 0. -1.
       -1   -1    0    0    0  501  0.00000000000E+00  0.00000000000E+00 -0.19553837362E+04  0.19553837362E+04  0.50400001928E-02 0.  1.
    10030    2    1    2    0    0  0.00000000000E+00  0.00000000000E+00 -0.17080139894E+03  0.37399660735E+04  0.37360638529E+04 0.  0.
        3    1    3    3  502    0 -0.48297736841E+03 -0.15120325790E+04  0.90053084849E+03  0.18249562947E+04  0.10100000352E+00 0. -1.
       -3    1    3    3    0  502  0.48297736841E+03  0.15120325790E+04 -0.10713322474E+04  0.19150097788E+04  0.10100000352E+00 0.  1.
</event>
<event>
 5   0  0.1150235E-07  0.3819656E+04  0.7818609E-02  0.8041950E-01
       -2   -1    0    0    0  501  0.00000000000E+00  0.00000000000E+00  0.21048379050E+04  0.21048379050E+04  0.25500000920E-02 0.  1.
        2   -1    0    0  501    0  0.00000000000E+00  0.00000000000E+00 -0.17328853468E+04  0.17328853468E+04  0.25500000920E-02 0. -1.
    10030    2    1    2    0    0  0.00000000000E+00  0.00000000000E+00  0.37195255822E+03  0.38377232518E+04  0.38196558813E+04 0.  0.
        4    1    3    3  502    0 -0.97870374420E+02  0.19071040019E+04  0.15726022644E+03  0.19160784629E+04  0.12699999809E+01 0. -1.
       -4    1    3    3    0  502  0.97870374420E+02 -0.19071040019E+04  0.21469233177E+03  0.19216447889E+04  0.12699999809E+01 0.  1.
</event>
<event>
 5   0  0.1174870E-07  0.3789601E+04  0.7818609E-02  0.8048390E-01
        2   -1    0    0  501    0  0.00000000000E+00  0.00000000000E+00  0.24210877057E+04  0.24210877057E+04  0.25500000920E-02 0. -1.
       -2   -1    0    0    0  501  0.00000000000E+00  0.00000000000E+00 -0.14829160078E+04  0.14829160078E+04  0.25500000920E-02 0.  1.
    10030    2    1    2    0    0  0.00000000000E+00  0.00000000000E+00  0.93817169796E+03  0.39040037135E+04  0.37896014118E+04 0.  0.
        5    1    3    3  502    0  0.96713904089E+02 -0.75995462034E+03  0.22544244835E+04  0.23810368426E+04  0.46999998093E+01 0. -1.
       -5    1    3    3    0  502 -0.96713904089E+02  0.75995462034E+03 -0.13162527855E+04  0.15229668708E+04  0.46999998093E+01 0.  1.
</event>
<event>
 5   0  0.3889225E-08  0.3792827E+04  0.7818609E-02  0.8047696E-01
       -1   -1    0    0    0  501  0.00000000000E+00  0.00000000000E+00  0.19689998452E+04  0.19689998452E+04  0.50400001928E-02 0.  1.
        1   -1    0    0  501    0  0.00000000000E+00  0.00000000000E+00 -0.18265027613E+04  0.18265027613E+04  0.50400001928E-02 0. -1.
    10030    2    1    2    0    0  0.00000000000E+00  0.00000000000E+00  0.14249708390E+03  0.37955026065E+04  0.37928267317E+04 0.  0.
        5    1    3    3  502    0  0.17053032157E+04  0.80486554870E+03 -0.13012452737E+03  0.18901910199E+04  0.46999998093E+01 0. -1.
       -5    1    3    3    0  502 -0.17053032157E+04 -0.80486554870E+03  0.27262161127E+03  0.19053115866E+04  0.46999998093E+01 0.  1.
</event>
<event>
 5   0  0.3701250E-08  0.3791705E+04  0.7818609E-02  0.8047937E-01
        1   -1    0    0  501    0  0.00000000000E+00  0.00000000000E+00  0.27189831869E+04  0.27189831869E+04  0.50400001928E-02 0. -1.
       -1   -1    0    0    0  501  0.00000000000E+00  0.00000000000E+00 -0.13219119878E+04  0.13219119879E+04  0.50400001928E-02 0.  1.
    10030    2    1    2    0    0  0.00000000000E+00  0.00000000000E+00  0.13970711991E+04  0.40408951748E+04  0.37917048775E+04 0.  0.
        1    1    3    3  502    0 -0.15133781478E+04  0.93995156948E+03  0.75133629960E+01  0.17815383302E+04  0.50400001928E-02 0.  1.
       -1    1    3    3    0  502  0.15133781478E+04 -0.93995156948E+03  0.13895578361E+04  0.22593568446E+04  0.50400001928E-02 0. -1.
</event>
<event>
 5   0  0.7858367E-08  0.3845396E+04  0.7818609E-02  0.8036483E-01
       -2   -1    0    0    0  501  0.00000000000E+00  0.00000000000E+00  0.13699461527E+04  0.13699461527E+04  0.25500000920E-02 0.  1.
        2   -1    0    0  501    0  0.00000000000E+00  0.00000000000E+00 -0.26984769148E+04  0.26984769148E+04  0.25500000920E-02 0. -1.
    10030    2    1    2    0    0  0.00000000000E+00  0.00000000000E+00 -0.13285307621E+04  0.40684230675E+04  0.38453962436E+04 0.  0.
        2    1    3    3  502    0 -0.10883116282E+04  0.15745096236E+04 -0.85723138999E+03  0.20972239773E+04  0.25500000920E-02 0. -1.
       -2    1    3    3    0  502  0.10883116282E+04 -0.15745096236E+04 -0.47129937215E+03  0.19711990902E+04  0.25500000920E-02 0.  1.
</event>
<event>
 5   0  0.1193861E-07  0.3793035E+04  0.7818609E-02  0.8047651E-01
       -2   -1    0    0    0  501  0.00000000000E+00  0.00000000000E+00  0.29586292843E+04  0.29586292843E+04  0.25500000920E-02 0.  1.
        2   -1    0    0  501    0  0.00000000000E+00  0.00000000000E+00 -0.12156910339E+04  0.12156910339E+04  0.25500000920E-02 0. -1.
    10030    2    1    2    0    0  0.00000000000E+00  0.00000000000E+00  0.17429382504E+04  0.41743203183E+04  0.37930352456E+04 0.  0.
        3    1    3    3  502    0 -0.16807732407E+04 -0.73869092499E+03  0.13947858930E+04  0.23056649077E+04  0.10100000352E+00 0.  1.
       -3    1    3    3    0  502  0.16807732407E+04  0.73869092499E+03  0.34815235738E+03  0.18686554105E+04  0.10100000352E+00 0. -1.
</event>
<event>
 5   0  0.1150235E-07  0.3811184E+04  0.7818609E-02  0.8043759E-01
        2   -1    0    0  501    0  0.00000000000E+00  0.00000000000E+00  0.16186355744E+04  0.16186355744E+04  0.25500000920E-02 0.  1.
       -2   -1    0    0    0  501  0.00000000000E+00  0.00000000000E+00 -0.22434209065E+04  0.22434209065E+04  0.25500000920E-02 0. -1.
    10030    2    1    2    0    0  0.00000000000E+00  0.00000000000E+00 -0.62478533211E+03  0.38620564809E+04  0.38111840090E+04 0.  0.
        4    1    3    3  502    0 -0.16083694076E+03  0.13119396428E+04  0.10786008281E+04  0.17059998556E+04  0.12699999809E+01 0.  1.
       -4    1    3    3    0  502  0.16083694076E+03 -0.13119396428E+04 -0.17033861602E+04  0.21560566253E+04  0.12699999809E+01 0. -1.
</event>
<event>
 5   0  0.7858367E-08  0.3785064E+04  0.7818609E-02  0.8049368E-01
        2   -1    0    0  501    0  0.00000000000E+00  0.00000000000E+00  0.18371709964E+04  0.18371709964E+04  0.25500000920E-02 0. -1.
       -2   -1    0    0    0  501  0.00000000000E+00  0.00000000000E+00 -0.19495613250E+04  0.19495613250E+04  0.25500000920E-02 0.  1.
    10030    2    1    2    0    0  0.00000000000E+00  0.00000000000E+00 -0.11239032856E+03  0.37867323214E+04  0.37850640798E+04 0.  0.
        2    1    3    3  502    0 -0.10554622012E+04  0.27131459786E+03  0.14917635737E+04  0.18474226991E+04  0.25500000920E-02 0. -1.
       -2    1    3    3    0  502  0.10554622012E+04 -0.27131459786E+03 -0.16041539022E+04  0.19393096224E+04  0.25500000920E-02 0.  1.
</event>
<event>
 5   0  0.1174870E-07  0.3798508E+04  0.7818609E-02  0.8046475E-01
        2   -1    0    0  501    0  0.00000000000E+00  0.00000000000E+00  0.17692521418E+04  0.17692521418E+04  0.25500000920E-02 0.  1.
       -2   -1    0    0    0  501  0.00000000000E+00  0.00000000000E+00 -0.20388084127E+04  0.20388084127E+04  0.25500000920E-02 0. -1.
    10030    2    1    2    0    0  0.00000000000E+00  0.00000000000E+00 -0.26955627086E+03  0.38080605545E+04  0.37985082077E+04 0.  0.
        5    1    3    3  502    0 -0.36642856475E+03  0.39944130374E+02  0.17330439843E+04  0.17718151620E+04  0.46999998093E+01 0.  1.
       -5    1    3    3    0  502  0.36642856475E+03 -0.39944130374E+02 -0.20026002552E+04  0.20362453925E+04  0.46999998093E+01 0. -1.
</event>
<event>
 5   0  0.1143283E-07  0.3812940E+04  0.7818609E-02  0.8043384E-01
       -2   -1    0    0    0  501  0.00000000000E+00  0.00000000000E+00  0.16278955278E+04  0.16278955278E+04  0.25500000920E-02 0. -1.
        2   -1    0    0  501    0  0.00000000000E+00  0.00000000000E+00 -0.22327156885E+04  0.22327156885E+04  0.25500000920E-02 0.  1.
    10030    2    1    2    0    0  0.00000000000E+00  0.00000000000E+00 -0.60482016079E+03  0.38606112163E+04  0.38129400122E+04 0.  0.
        1    1    3    3  502    0 -0.96424506988E+03  0.16297739016E+04 -0.78978611736E+02  0.18953018615E+04  0.50400001928E-02 0. -1.
       -1    1    3    3    0  502  0.96424506988E+03 -0.16297739016E+04 -0.52584154905E+03  0.19653093548E+04  0.50400001928E-02 0.  1.
</event>
<event>
 5   0  0.3701250E-08  0.4063015E+04  0.7818609E-02  0.7991954E-01
        1   -1    0    0  501    0  0.00000000000E+00  0.00000000000E+00  0.22143769753E+04  0.22143769753E+04  0.50400001928E-02 0. -1.
       -1   -1    0    0    0  501  0.00000000000E+00  0.00000000000E+00 -0.18637400726E+04  0.18637400726E+04  0.50400001928E-02 0.  1.
    10030    2    1    2    0    0  0.00000000000E+00  0.00000000000E+00  0.35063690266E+03  0.40781170479E+04  0.40630151881E+04 0.  0.
        2    1    3    3  502    0 -0.59008128964E+03  0.11903803951E+04  0.17178526247E+04  0.21716857630E+04  0.25500000920E-02 0. -1.
       -2    1    3    3    0  502  0.59008128964E+03 -0.11903803951E+04 -0.13672157220E+04  0.19064312848E+04  0.25500000920E-02 0.  1.
</event>
<event>
 5   0  0.1174870E-07  0.3746639E+04  0.7818609E-02  0.8057704E-01
        2   -1    0    0  501    0  0.00000000000E+00  0.00000000000E+00  0.11655442996E+04  0.11655442996E+04  0.25500000920E-02 0. -1.
       -2   -1    0    0    0  501  0.00000000000E+00  0.00000000000E+00 -0.30108910093E+04  0.30108910093E+04  0.25500000920E-02 0.  1.
    10030    2    1    2    0    0  0.00000000000E+00  0.00000000000E+00 -0.18453467097E+04  0.41764353090E+04  0.37466394824E+04 0.  0.
        5    1    3    3  502    0  0.17967242021E+04 -0.52088115520E+03 -0.10328539349E+04  0.21369006475E+04  0.46999998093E+01 0.  1.
       -5    1    3    3    0  502 -0.17967242021E+04  0.52088115520E+03 -0.81249277485E+03  0.20395346615E+04  0.46999998093E+01 0. -1.
</event>
<event>
 5   0  0.3889225E-08  0.3806762E+04  0.7818609E-02  0.8044705E-01
       -1   -1    0    0    0  501  0.00000000000E+00  0.00000000000E+00  0.20445211241E+04  0.20445211241E+04  0.50400001928E-02 0. -1.
        1   -1    0    0  501    0  0.00000000000E+00  0.00000000000E+00 -0.17719846399E+04  0.17719846400E+04  0.50400001928E-02 0.  1.
    10030    2    1    2    0    0  0.00000000000E+00  0.00000000000E+00  0.27253648418E+03  0.38165057641E+04  0.38067624187E+04 0.  0.
        5    1    3    3  502    0  0.64427723618E+03  0.29193427496E+03  0.19078561422E+04  0.20347618847E+04  0.46999998093E+01 0. -1.
       -5    1    3    3    0  502 -0.64427723618E+03 -0.29193427496E+03 -0.16353196580E+04  0.17817438794E+04  0.46999998093E+01 0.  1.
</event>
<event>
 5   0  0.3701250E-08  0.3824531E+04  0.7818609E-02  0.8040911E-01
       -1   -1    0    0    0  501  0.00000000000E+00  0.00000000000E+00  0.17412259611E+04  0.17412259611E+04  0.50400001928E-02 0.  1.
        1   -1    0    0  501    0  0.00000000000E+00  0.00000000000E+00 -0.21001065996E+04  0.21001065996E+04  0.50400001928E-02 0. -1.
    10030    2    1    2    0    0  0.00000000000E+00  0.00000000000E+00 -0.35888063858E+03  0.38413325607E+04  0.38245314130E+04 0.  0.
        3    1    3    3  502    0 -0.79073430938E+03 -0.40442540647E+03 -0.18803790305E+04  0.20795783145E+04  0.10100000352E+00 0. -1.
       -3    1    3    3    0  502  0.79073430938E+03  0.40442540647E+03  0.15214983919E+04  0.17617542463E+04  0.10100000352E+00 0.  1.
</event>
<event>
 5   0  0.3889225E-08  0.3799817E+04  0.7818609E-02  0.8046194E-01
        1   -1    0    0  501    0  0.00000000000E+00  0.00000000000E+00  0.16523146037E+04  0.16523146037E+04  0.50400001928E-02 0. -1.
       -1   -1    0    0    0  501  0.00000000000E+00  0.00000000000E+00 -0.21846036916E+04  0.21846036916E+04  0.50400001928E-02 0.  1.
    10030    2    1    2    0    0  0.00000000000E+00  0.00000000000E+00 -0.53228908789E+03  0.38369182953E+04  0.37998171445E+04 0.  0.
        5    1    3    3  502    0  0.38923256394E+03  0.13345176014E+04  0.10415645705E+04  0.17370429073E+04  0.46999998093E+01 0. -1.
       -5    1    3    3    0  502 -0.38923256394E+03 -0.13345176014E+04 -0.15738536584E+04  0.20998753880E+04  0.46999998093E+01 0.  1.
</event>
<event>
 5   0  0.3701250E-08  0.3814774E+04  0.7818609E-02  0.8042992E-01
       -1   -1    0    0    0  501  0.00000000000E+00  0.00000000000E+00  0.20317640708E+04  0.20317640708E+04  0.50400001928E-02 0.  1.
        1   -1    0    0  501    0  0.00000000000E+00  0.00000000000E+00 -0.17906242029E+04  0.17906242029E+04  0.50400001928E-02 0. -1.
    10030    2    1    2    0    0  0.00000000000E+00  0.00000000000E+00  0.24113986786E+03  0.38223882737E+04  0.38147743942E+04 0.  0.
        4    1    3    3  502    0 -0.38112361578E+03 -0.17526270964E+04  0.77083929709E+03  0.19522171458E+04  0.12699999809E+01 0.  1.
       -4    1    3    3    0  502  0.38112361578E+03  0.17526270964E+04 -0.52969942923E+03  0.18701711279E+04  0.12699999809E+01 0. -1.
</event>
<event>
 5   0  0.1143283E-07  0.3803387E+04  0.7818609E-02  0.8045428E-01
       -2   -1    0    0    0  501  0.00000000000E+00  0.00000000000E+00  0.20462262824E+04  0.20462262824E+04  0.25500000920E-02 0. -1.
        2   -1    0    0  501    0  0.00000000000E+00  0.00000000000E+00 -0.17673698714E+04  0.17673698714E+04  0.25500000920E-02 0.  1.
    10030    2    1    2    0    0  0.00000000000E+00  0.00000000000E+00  0.27885641106E+03  0.38135961538E+04  0.38033872701E+04 0.  0.
        1    1    3    3  502    0  0.20568121927E+03  0.95837852576E+03 -0.14945607721E+04  0.17873181206E+04  0.50400001928E-02 0.  1.
       -1    1    3    3    0  502 -0.20568121927E+03 -0.95837852576E+03  0.17734171831E+04  0.20262780333E+04  0.50400001928E-02 0. -1.
</event>
<event>
 5   0  0.1174870E-07  0.3789386E+04  0.7818609E-02  0.8048437E-01
       -2   -1    0    0    0  501  0.00000000000E+00  0.00000000000E+00  0.16057803074E+04  0.16057803074E+04  0.25500000920E-02 0. -1.
        2   -1    0    0  501    0  0.00000000000E+00  0.00000000000E+00 -0.22355864138E+04  0.22355864138E+04  0.25500000920E-02 0.  1.
    10030    2    1    2    0    0  0.00000000000E+00  0.00000000000E+00 -0.62980610641E+03  0.38413667211E+04  0.37893855115E+04 0.  0.
        5    1    3    3  502    0 -0.21346265658E+03 -0.11109443066E+03 -0.22200261393E+04  0.22330352499E+04  0.46999998093E+01 0.  1.
       -5    1    3    3    0  502  0.21346265658E+03  0.11109443066E+03  0.15902200329E+04  0.16083314712E+04  0.46999998093E+01 0. -1.
</event>
<event>
 5   0  0.3701250E-08  0.3807966E+04  0.7818609E-02  0.8044448E-01
        1   -1    0    0  501    0  0.00000000000E+00  0.00000000000E+00  0.16877907856E+04  0.16877907856E+04  0.50400001928E-02 0. -1.
       -1   -1    0    0    0  501  0.00000000000E+00  0.00000000000E+00 -0.21478678417E+04  0.21478678417E+04  0.50400001928E-02 0.  1.
    10030    2    1    2    0    0  0.00000000000E+00  0.00000000000E+00 -0.46007705616E+03  0.38356586273E+04  0.38079661511E+04 0.  0.
        4    1    3    3  502    0 -0.60201336188E+03 -0.45614483132E+03  0.15304306737E+04  0.17066657127E+04  0.12699999809E+01 0. -1.
       -4    1    3    3    0  502  0.60201336188E+03  0.45614483132E+03 -0.19905077298E+04  0.21289929146E+04  0.12699999809E+01 0.  1.
</event>
<event>
 5   0  0.7858367E-08  0.3812669E+04  0.7818609E-02  0.8043442E-01
        2   -1    0    0  501    0  0.00000000000E+00  0.00000000000E+00  0.28968090085E+04  0.28968090085E+04  0.25500000920E-02 0. -1.
       -2   -1    0    0    0  501  0.00000000000E+00  0.00000000000E+00 -0.12545223745E+04  0.12545223745E+04  0.25500000920E-02 0.  1.
    10030    2    1    2    0    0  0.00000000000E+00  0.00000000000E+00  0.16422866340E+04  0.41513313831E+04  0.38126692571E+04 0.  0.
        2    1    3    3  502    0 -0.12645702032E+04  0.10819002879E+04  0.18334967249E+04  0.24761575620E+04  0.25500000920E-02 0. -1.
       -2    1    3    3    0  502  0.12645702032E+04 -0.10819002879E+04 -0.19121009091E+03  0.16751738210E+04  0.25500000920E-02 0.  1.
</event>
<event>
 5   0  0.7858367E-08  0.3885677E+04  0.7818609E-02  0.8028015E-01
       -2   -1    0    0    0  501  0.00000000000E+00  0.00000000000E+00  0.28385931722E+04  0.28385931722E+04  0.25500000920E-02 0.  1.
        2   -1    0    0  501    0  0.00000000000E+00  0.00000000000E+00 -0.13297510789E+04  0.13297510789E+04  0.25500000920E-02 0. -1.
    10030    2    1    2    0    0  0.00000000000E+00  0.00000000000E+00  0.15088420933E+04  0.41683442511E+04  0.38856774612E+04 0.  0.
        2    1    3    3  502    0 -0.17533508547E+04  0.69171574218E+03  0.24907641036E+03  0.19012493118E+04  0.25500000920E-02 0.  1.
       -2    1    3    3    0  502  0.17533508547E+04 -0.69171574218E+03  0.12597656830E+04  0.22670949392E+04  0.25500000920E-02 0. -1.
</event>
<event>
 5   0  0.3701250E-08  0.3803477E+04  0.7818609E-02  0.8045409E-01
       -1   -1    0    0    0  501  0.00000000000E+00  0.00000000000E+00  0.14325624242E+04  0.14325624243E+04  0.50400001928E-02 0.  1.
        1   -1    0    0  501    0  0.00000000000E+00  0.00000000000E+00 -0.25245737896E+04  0.25245737896E+04  0.50400001928E-02 0. -1.
    10030    2    1    2    0    0  0.00000000000E+00  0.00000000000E+00 -0.10920113654E+04  0.39571362139E+04  0.38034771188E+04 0.  0.
        4    1    3    3  502    0  0.46370589303E+03  0.10488223626E+04 -0.21243836354E+04  0.24141373090E+04  0.12699999809E+01 0. -1.
       -4    1    3    3    0  502 -0.46370589303E+03 -0.10488223626E+04  0.10323722701E+04  0.15429989048E+04  0.12699999809E+01 0.  1.
</event>
<event>
 5   0  0.1193861E-07  0.3800895E+04  0.7818609E-02  0.8045963E-01
        2   -1    0    0  501    0  0.00000000000E+00  0.00000000000E+00  0.24160279892E+04  0.24160279892E+04  0.25500000920E-02 0. -1.
       -2   -1    0    0    0  501  0.00000000000E+00  0.00000000000E+00 -0.14948916698E+04  0.14948916698E+04  0.25500000920E-02 0.  1.
    10030    2    1    2    0    0  0.00000000000E+00  0.00000000000E+00  0.92113631941E+03  0.39109196589E+04  0.38008946920E+04 0.  0.
        3    1    3    3  502    0 -0.79284180312E+03  0.94631771975E+03 -0.10261036809E+04  0.16053049946E+04  0.10100000352E+00 0.  1.
       -3    1    3    3    0  502  0.79284180312E+03 -0.94631771975E+03  0.19472400003E+04  0.23056146644E+04  0.10100000352E+00 0. -1.
</event>
<event>
 5   0  0.3701250E-08  0.3746495E+04  0.7818609E-02  0.8057735E-01
       -1   -1    0    0    0  501  0.00000000000E+00  0.00000000000E+00  0.13385592984E+04  0.13385592984E+04  0.50400001928E-02 0.  1.
        1   -1    0    0  501    0  0.00000000000E+00  0.00000000000E+00 -0.26215176112E+04  0.26215176112E+04  0.50400001928E-02 0. -1.
    10030    2    1    2    0    0  0.00000000000E+00  0.00000000000E+00 -0.12829583128E+04  0.39600769097E+04  0.37464953087E+04 0.  0.
        1    1    3    3  502    0 -0.23391045226E+03 -0.95556637727E+03  0.10435246665E+04  0.14341425768E+04  0.50400001928E-02 0.  1.
       -1    1    3    3    0  502  0.23391045226E+03  0.95556637727E+03 -0.23264829793E+04  0.25259343329E+04  0.50400001928E-02 0. -1.
</event>
<event>
 5   0  0.7858367E-08  0.3819365E+04  0.7818609E-02  0.8042012E-01
       -2   -1    0    0    0  501  0.00000000000E+00  0.00000000000E+00  0.19854596571E+04  0.19854596571E+04  0.25500000920E-02 0. -1.
        2   -1    0    0  501    0  0.00000000000E+00  0.00000000000E+00 -0.18367977415E+04  0.18367977415E+04  0.25500000920E-02 0.  1.
    10030    2    1    2    0    0  0.00000000000E+00  0.00000000000E+00  0.14866191556E+03  0.38222573986E+04  0.38193652949E+04 0.  0.
        2    1    3    3  502    0  0.16820222076E+04  0.82731357267E+03 -0.29096785478E+03  0.18969208594E+04  0.25500000920E-02 0.  1.
       -2    1    3    3    0  502 -0.16820222076E+04 -0.82731357267E+03  0.43962977034E+03  0.19253365392E+04  0.25500000920E-02 0. -1.
</event>
<event>
 5   0  0.3701250E-08  0.3800413E+04  0.7818609E-02  0.8046066E-01
       -3   -1    0    0    0  501  0.00000000000E+00  0.00000000000E+00  0.22930869888E+04  0.22930869910E+04  0.10100000352E+00 0. -1.
        3   -1    0    0  501    0  0.00000000000E+00  0.00000000000E+00 -0.15746393752E+04  0.15746393785E+04  0.10100000352E+00 0.  1.
    10030    2    1    2    0    0  0.00000000000E+00  0.00000000000E+00  0.71844761360E+03  0.38677263695E+04  0.38004131744E+04 0.  0.
        2    1    3    3  502    0 -0.15691969277E+04 -0.55156606049E+03  0.12942907460E+04  0.21075560851E+04  0.25500000920E-02 0.  1.
       -2    1    3    3    0  502  0.15691969277E+04  0.55156606049E+03 -0.57584313239E+03  0.17601702844E+04  0.25500000920E-02 0. -1.
</event>
<event>
 5   0  0.1174870E-07  0.3793559E+04  0.7818609E-02  0.8047538E-01
       -2   -1    0    0    0  501  0.00000000000E+00  0.00000000000E+00  0.26161070805E+04  0.26161070805E+04  0.25500000920E-02 0.  1.
        2   -1    0    0  501    0  0.00000000000E+00  0.00000000000E+00 -0.13752393543E+04  0.13752393543E+04  0.25500000920E-02 0. -1.
    10030    2    1    2    0    0  0.00000000000E+00  0.00000000000E+00  0.12408677262E+04  0.39913464348E+04  0.37935594958E+04 0.  0.
        5    1    3    3  502    0  0.13998319632E+04  0.12407497455E+04  0.95108282880E+03  0.20984685114E+04  0.46999998093E+01 0.  1.
       -5    1    3    3    0  502 -0.13998319632E+04 -0.12407497455E+04  0.28978489740E+03  0.18928779234E+04  0.46999998093E+01 0. -1.
</event>
<event>
 5   0  0.3701250E-08  0.3801109E+04  0.7818609E-02  0.8045917E-01
        1   -1    0    0  501    0  0.00000000000E+00  0.00000000000E+00  0.19063835875E+04  0.19063835875E+04  0.50400001928E-02 0. -1.
       -1   -1    0    0    0  501  0.00000000000E+00  0.00000000000E+00 -0.18947436122E+04  0.18947436122E+04  0.50400001928E-02 0.  1.
    10030    2    1    2    0    0  0.00000000000E+00  0.00000000000E+00  0.11639975310E+02  0.38011271997E+04  0.38011093775E+04 0.  0.
        1    1    3    3  502    0 -0.22544010272E+03 -0.77785488000E+03  0.17251961514E+04  0.19058287475E+04  0.50400001928E-02 0. -1.
       -1    1    3    3    0  502  0.22544010272E+03  0.77785488000E+03 -0.17135561761E+04  0.18952984522E+04  0.50400001928E-02 0.  1.
</event>
<event>
 5   0  0.3701250E-08  0.3786697E+04  0.7818609E-02  0.8049016E-01
       -1   -1    0    0    0  501  0.00000000000E+00  0.00000000000E+00  0.28800928689E+04  0.28800928689E+04  0.50400001928E-02 0.  1.
        1   -1    0    0  501    0  0.00000000000E+00  0.00000000000E+00 -0.12446710707E+04  0.12446710707E+04  0.50400001928E-02 0. -1.
    10030    2    1    2    0    0  0.00000000000E+00  0.00000000000E+00  0.16354217982E+04  0.41247639396E+04  0.37866968587E+04 0.  0.
        4    1    3    3  502    0 -0.13634526687E+04  0.18629826232E+03 -0.59879246684E+03  0.15007545614E+04  0.12699999809E+01 0. -1.
       -4    1    3    3    0  502  0.13634526687E+04 -0.18629826232E+03  0.22342142650E+04  0.26240093782E+04  0.12699999809E+01 0.  1.
</event>
<event>
 5   0  0.3701250E-08  0.3786384E+04  0.7818609E-02  0.8049083E-01
       -1   -1    0    0    0  501  0.00000000000E+00  0.00000000000E+00  0.22335098714E+04  0.22335098714E+04  0.50400001928E-02 0.  1.
        1   -1    0    0  501    0  0.00000000000E+00  0.00000000000E+00 -0.16047284188E+04  0.16047284188E+04  0.50400001928E-02 0. -1.
    10030    2    1    2    0    0  0.00000000000E+00  0.00000000000E+00  0.62878145259E+03  0.38382382903E+04  0.37863844308E+04 0.  0.
        3    1    3    3  502    0 -0.14337945082E+04  0.30446921008E+03  0.15290105732E+04  0.21180985659E+04  0.10100000352E+00 0.  1.
       -3    1    3    3    0  502  0.14337945082E+04 -0.30446921008E+03 -0.90022912059E+03  0.17201397244E+04  0.10100000352E+00 0. -1.
</event>
<event>
 5   0  0.7858367E-08  0.3802850E+04  0.7818609E-02  0.8045544E-01
        2   -1    0    0  501    0  0.00000000000E+00  0.00000000000E+00  0.14382960927E+04  0.14382960927E+04  0.25500000920E-02 0. -1.
       -2   -1    0    0    0  501  0.00000000000E+00  0.00000000000E+00 -0.25136806060E+04  0.25136806060E+04  0.25500000920E-02 0.  1.
    10030    2    1    2    0    0  0.00000000000E+00  0.00000000000E+00 -0.10753845134E+04  0.39519766987E+04  0.38028499807E+04 0.  0.
        2    1    3    3  502    0  0.27971099946E+03  0.18720213083E+04 -0.34972662110E+03  0.19248404431E+04  0.25500000920E-02 0. -1.
       -2    1    3    3    0  502 -0.27971099946E+03 -0.18720213083E+04 -0.72565789226E+03  0.20271362556E+04  0.25500000920E-02 0.  1.
</event>
<event>
 5   0  0.1143283E-07  0.3800738E+04  0.7818609E-02  0.8045997E-01
        2   -1    0    0  501    0  0.00000000000E+00  0.00000000000E+00  0.24325009856E+04  0.24325009856E+04  0.25500000920E-02 0.  1.
       -2   -1    0    0    0  501  0.00000000000E+00  0.00000000000E+00 -0.14846457243E+04  0.14846457243E+04  0.25500000920E-02 0. -1.
    10030    2    1    2    0    0  0.00000000000E+00  0.00000000000E+00  0.94785526128E+03  0.39171467098E+04  0.38007379218E+04 0.  0.
        1    1    3    3  502    0  0.10517739515E+04  0.81403039682E+02 -0.11551647040E+04  0.15643722042E+04  0.50400001928E-02 0. -1.
       -1    1    3    3    0  502 -0.10517739515E+04 -0.81403039682E+02  0.21030199653E+04  0.23527745056E+04  0.50400001928E-02 0.  1.
</event>
<event>
 5   0  0.1174870E-07  0.3650465E+04  0.7818609E-02  0.8079029E-01
        2   -1    0    0  501    0  0.00000000000E+00  0.00000000000E+00  0.24219628674E+04  0.24219628674E+04  0.25500000920E-02 0.  1.
       -2   -1    0    0    0  501  0.00000000000E+00  0.00000000000E+00 -0.13755265440E+04  0.13755265440E+04  0.25500000920E-02 0. -1.
    10030    2    1    2    0    0  0.00000000000E+00  0.00000000000E+00  0.10464363235E+04  0.37974894114E+04  0.36504652924E+04 0.  0.
        5    1    3    3  502    0 -0.53837460896E+03  0.56016270494E+02 -0.12901066986E+04  0.13990648398E+04  0.46999998093E+01 0. -1.
       -5    1    3    3    0  502  0.53837460896E+03 -0.56016270494E+02  0.23365430220E+04  0.23984245717E+04  0.46999998093E+01 0.  1.
</event>
<event>
 5   0  0.1174870E-07  0.3769212E+04  0.7818609E-02  0.8052794E-01
        2   -1    0    0  501    0  0.00000000000E+00  0.00000000000E+00  0.34294614433E+04  0.34294614433E+04  0.25500000920E-02 0. -1.
       -2   -1    0    0    0  501  0.00000000000E+00  0.00000000000E+00 -0.10356555118E+04  0.10356555118E+04  0.25500000920E-02 0.  1.
    10030    2    1    2    0    0  0.00000000000E+00  0.00000000000E+00  0.23938059315E+04  0.44651169550E+04  0.37692124621E+04 0.  0.
        5    1    3    3  502    0  0.14845665153E+03  0.98829239188E+03 -0.69589385710E+03  0.12178060517E+04  0.46999998093E+01 0.  1.
       -5    1    3    3    0  502 -0.14845665153E+03 -0.98829239188E+03  0.30896997886E+04  0.32473109033E+04  0.46999998093E+01 0. -1.
</event>
<event>
 5   0  0.3889225E-08  0.3778884E+04  0.7818609E-02  0.8050702E-01
       -1   -1    0    0    0  501  0.00000000000E+00  0.00000000000E+00  0.25378491733E+04  0.25378491734E+04  0.50400001928E-02 0. -1.
        1   -1    0    0  501    0  0.00000000000E+00  0.00000000000E+00 -0.14066994312E+04  0.14066994312E+04  0.50400001928E-02 0.  1.
    10030    2    1    2    0    0  0.00000000000E+00  0.00000000000E+00  0.11311497422E+04  0.39445486045E+04  0.37788839562E+04 0.  0.
        5    1    3    3  502    0  0.63337034710E+03 -0.89295581888E+03  0.21730338565E+04  0.24332337172E+04  0.46999998093E+01 0. -1.
       -5    1    3    3    0  502 -0.63337034710E+03  0.89295581888E+03 -0.10418841143E+04  0.15113148874E+04  0.46999998093E+01 0.  1.
</event>
<event>
 5   0  0.7858367E-08  0.3801989E+04  0.7818609E-02  0.8045728E-01
        2   -1    0    0  501    0  0.00000000000E+00  0.00000000000E+00  0.19130757347E+04  0.19130757347E+04  0.25500000920E-02 0. -1.
       -2   -1    0    0    0  501  0.00000000000E+00  0.00000000000E+00 -0.18889892795E+04  0.18889892795E+04  0.25500000920E-02 0.  1.
    10030    2    1    2    0    0  0.00000000000E+00  0.00000000000E+00  0.24086455211E+02  0.38020650142E+04  0.38019887184E+04 0.  0.
        2    1    3    3  502    0  0.15271963394E+04  0.82640703708E+03  0.78568805859E+03  0.19059336231E+04  0.25500000920E-02 0.  1.
       -2    1    3    3    0  502 -0.15271963394E+04 -0.82640703708E+03 -0.76160160338E+03  0.18961313911E+04  0.25500000920E-02 0. -1.
</event>
<event>
 5   0  0.3701250E-08  0.3793163E+04  0.7818609E-02  0.8047624E-01
        1   -1    0    0  501    0  0.00000000000E+00  0.00000000000E+00  0.22351158346E+04  0.22351158346E+04  0.50400001928E-02 0. -1.
       -1   -1    0    0    0  501  0.00000000000E+00  0.00000000000E+00 -0.16093219846E+04  0.16093219846E+04  0.50400001928E-02 0.  1.
    10030    2    1    2    0    0  0.00000000000E+00  0.00000000000E+00  0.62579384997E+03  0.38444378193E+04  0.37931628232E+04 0.  0.
        3    1    3    3  502    0  0.95194932317E+03 -0.16401510848E+04  0.28574021490E+03  0.19177983668E+04  0.10100000352E+00 0. -1.
       -3    1    3    3    0  502 -0.95194932317E+03  0.16401510848E+04  0.34005363506E+03  0.19266394525E+04  0.10100000352E+00 0.  1.
</event>
<event>
 5   0  0.1150235E-07  0.3776202E+04  0.7818609E-02  0.8051281E-01
       -2   -1    0    0    0  501  0.00000000000E+00  0.00000000000E+00  0.17082010040E+04  0.17082010040E+04  0.25500000920E-02 0.  1.
        2   -1    0    0  501    0  0.00000000000E+00  0.00000000000E+00 -0.20869474272E+04  0.20869474272E+04  0.25500000920E-02 0. -1.
    10030    2    1    2    0    0  0.00000000000E+00  0.00000000000E+00 -0.37874642319E+03  0.37951484312E+04  0.37762021611E+04 0.  0.
        4    1    3    3  502    0 -0.33660486736E+03 -0.44905671464E+03 -0.20011853274E+04  0.20783885818E+04  0.12699999809E+01 0. -1.
       -4    1    3    3    0  502  0.33660486736E+03  0.44905671464E+03  0.16224389042E+04  0.17167598494E+04  0.12699999809E+01 0.  1.
</event>
<event>
 5   0  0.3701250E-08  0.3796498E+04  0.7818609E-02  0.8046907E-01
        1   -1    0    0  501    0  0.00000000000E+00  0.00000000000E+00  0.12820147586E+04  0.12820147586E+04  0.50400001928E-02 0.  1.
       -1   -1    0    0    0  501  0.00000000000E+00  0.00000000000E+00 -0.28106927786E+04  0.28106927786E+04  0.50400001928E-02 0. -1.
    10030    2    1    2    0    0  0.00000000000E+00  0.00000000000E+00 -0.15286780200E+04  0.40927075373E+04  0.37964981887E+04 0.  0.
        1    1    3    3  502    0 -0.20497729923E+03 -0.55059967020E+02 -0.27978612984E+04  0.28059000585E+04  0.50400001928E-02 0. -1.
       -1    1    3    3    0  502  0.20497729923E+03  0.55059967020E+02  0.12691832784E+04  0.12868074788E+04  0.50400001928E-02 0.  1.
</event>
<event>
 5   0  0.3701250E-08  0.3567653E+04  0.7818609E-02  0.8097942E-01
        1   -1    0    0  501    0  0.00000000000E+00  0.00000000000E+00  0.19781557215E+04  0.19781557215E+04  0.50400001928E-02 0. -1.
       -1   -1    0    0    0  501  0.00000000000E+00  0.00000000000E+00 -0.16085877087E+04  0.16085877087E+04  0.50400001928E-02 0.  1.
    10030    2    1    2    0    0  0.00000000000E+00  0.00000000000E+00  0.36956801278E+03  0.35867434302E+04  0.35676529985E+04 0.  0.
        1    1    3    3  502    0 -0.11169235265E+04 -0.28219752163E+03  0.15540127544E+04  0.19344532163E+04  0.50400001928E-02 0. -1.
       -1    1    3    3    0  502  0.11169235265E+04  0.28219752163E+03 -0.11844447416E+04  0.16522902139E+04  0.50400001928E-02 0.  1.
</event>
<event>
 5   0  0.1150235E-07  0.3820448E+04  0.7818609E-02  0.8041781E-01
        2   -1    0    0  501    0  0.00000000000E+00  0.00000000000E+00  0.14842696070E+04  0.14842696070E+04  0.25500000920E-02 0.  1.
       -2   -1    0    0    0  501  0.00000000000E+00  0.00000000000E+00 -0.24584186643E+04  0.24584186643E+04  0.25500000920E-02 0. -1.
    10030    2    1    2    0    0  0.00000000000E+00  0.00000000000E+00 -0.97414905736E+03  0.39426882713E+04  0.38204481961E+04 0.  0.
        4    1    3    3  502    0  0.17020228530E+04  0.78999769975E+03 -0.85625860329E+03  0.20625611667E+04  0.12699999809E+01 0. -1.
       -4    1    3    3    0  502 -0.17020228530E+04 -0.78999769975E+03 -0.11789045407E+03  0.18801271047E+04  0.12699999809E+01 0.  1.
</event>
<event>
 5   0  0.1143283E-07  0.3794225E+04  0.7818609E-02  0.8047395E-01
        2   -1    0    0  501    0  0.00000000000E+00  0.00000000000E+00  0.18953890660E+04  0.18953890660E+04  0.25500000920E-02 0.  1.
       -2   -1    0    0    0  501  0.00000000000E+00  0.00000000000E+00 -0.18988371926E+04  0.18988371926E+04  0.25500000920E-02 0. -1.
    10030    2    1    2    0    0  0.00000000000E+00  0.00000000000E+00 -0.34481265352E+01  0.37942262586E+04  0.37942246918E+04 0.  0.
        1    1    3    3  502    0 -0.10961573278E+03 -0.18913318916E+04 -0.10113899147E+03  0.18972034759E+04  0.50400001928E-02 0. -1.
       -1    1    3    3    0  502  0.10961573278E+03  0.18913318916E+04  0.97690864937E+02  0.18970227828E+04  0.50400001928E-02 0.  1.
</event>
<event>
 5   0  0.7858367E-08  0.3802708E+04  0.7818609E-02  0.8045574E-01
        2   -1    0    0  501    0  0.00000000000E+00  0.00000000000E+00  0.27714541563E+04  0.27714541563E+04  0.25500000920E-02 0. -1.
       -2   -1    0    0    0  501  0.00000000000E+00  0.00000000000E+00 -0.13044225641E+04  0.13044225641E+04  0.25500000920E-02 0.  1.
    10030    2    1    2    0    0  0.00000000000E+00  0.00000000000E+00  0.14670315921E+04  0.40758767204E+04  0.38027081597E+04 0.  0.
        2    1    3    3  502    0  0.10805248124E+04 -0.15554811383E+04  0.55386937850E+03  0.19732781685E+04  0.25500000920E-02 0. -1.
       -2    1    3    3    0  502 -0.10805248124E+04  0.15554811383E+04  0.91316221362E+03  0.21025985519E+04  0.25500000920E-02 0.  1.
</event>
<event>
 5   0  0.7858367E-08  0.3775192E+04  0.7818609E-02  0.8051500E-01
        2   -1    0    0  501    0  0.00000000000E+00  0.00000000000E+00  0.28979086566E+04  0.28979086566E+04  0.25500000920E-02 0.  1.
       -2   -1    0    0    0  501  0.00000000000E+00  0.00000000000E+00 -0.12295140346E+04  0.12295140346E+04  0.25500000920E-02 0. -1.
    10030    2    1    2    0    0  0.00000000000E+00  0.00000000000E+00  0.16683946220E+04  0.41274226912E+04  0.37751923735E+04 0.  0.
        2    1    3    3  502    0  0.11196078198E+04 -0.13269153571E+04  0.16441213183E+04  0.23911003627E+04  0.25500000920E-02 0.  1.
       -2    1    3    3    0  502 -0.11196078198E+04  0.13269153571E+04  0.24273303732E+02  0.17363223285E+04  0.25500000920E-02 0. -1.
</event>
<event>
 5   0  0.3701250E-08  0.3767388E+04  0.7818609E-02  0.8053190E-01
       -1   -1    0    0    0  501  0.00000000000E+00  0.00000000000E+00  0.13652360665E+04  0.13652360665E+04  0.50400001928E-02 0. -1.
        1   -1    0    0  501    0  0.00000000000E+00  0.00000000000E+00 -0.25990393904E+04  0.25990393905E+04  0.50400001928E-02 0.  1.
    10030    2    1    2    0    0  0.00000000000E+00  0.00000000000E+00 -0.12338033239E+04  0.39642754570E+04  0.37673875905E+04 0.  0.
        1    1    3    3  502    0  0.16144249846E+04  0.63060502747E+03  0.15940149204E+03  0.17405285310E+04  0.50400001928E-02 0.  1.
       -1    1    3    3    0  502 -0.16144249846E+04 -0.63060502747E+03 -0.13932048159E+04  0.22237469260E+04  0.50400001928E-02 0. -1.
</event>
<event>
 5   0  0.3701250E-08  0.3799623E+04  0.7818609E-02  0.8046236E-01
       -1   -1    0    0    0  501  0.00000000000E+00  0.00000000000E+00  0.22112375832E+04  0.22112375832E+04  0.50400001928E-02 0.  1.
        1   -1    0    0  501    0  0.00000000000E+00  0.00000000000E+00 -0.16322458139E+04  0.16322458139E+04  0.50400001928E-02 0. -1.
    10030    2    1    2    0    0  0.00000000000E+00  0.00000000000E+00  0.57899176929E+03  0.38434833971E+04  0.37996227648E+04 0.  0.
        3    1    3    3  502    0 -0.22330864827E+03 -0.26017627410E+02  0.21977342995E+04  0.22092034154E+04  0.10100000352E+00 0.  1.
       -3    1    3    3    0  502  0.22330864827E+03  0.26017627410E+02 -0.16187425302E+04  0.16342799817E+04  0.10100000352E+00 0. -1.
</event>
<event>
 5   0  0.7858367E-08  0.3863618E+04  0.7818609E-02  0.8032639E-01
       -2   -1    0    0    0  501  0.00000000000E+00  0.00000000000E+00  0.19109204453E+04  0.19109204453E+04  0.25500000920E-02 0.  1.
        2   -1    0    0  501    0  0.00000000000E+00  0.00000000000E+00 -0.19529261422E+04  0.19529261422E+04  0.25500000920E-02 0. -1.
    10030    2    1    2    0    0  0.00000000000E+00  0.00000000000E+00 -0.42005696815E+02  0.38638465875E+04  0.38636182489E+04 0.  0.
        2    1    3    3  502    0 -0.78733428431E+03 -0.17457309081E+04  0.23281288931E+03  0.19291639433E+04  0.25500000920E-02 0. -1.
       -2    1    3    3    0  502  0.78733428431E+03  0.17457309081E+04 -0.27481858612E+03  0.19346826442E+04  0.25500000920E-02 0.  1.
</event>
<event>
 5   0  0.3701250E-08  0.3794562E+04  0.7818609E-02  0.8047323E-01
        1   -1    0    0  501    0  0.00000000000E+00  0.00000000000E+00  0.13075034671E+04  0.13075034671E+04  0.50400001928E-02 0. -1.
       -1   -1    0    0    0  501  0.00000000000E+00  0.00000000000E+00 -0.27530904361E+04  0.27530904361E+04  0.50400001928E-02 0.  1.
    10030    2    1    2    0    0  0.00000000000E+00  0.00000000000E+00 -0.14455869689E+04  0.40605939032E+04  0.37945620514E+04 0.  0.
        2    1    3    3  502    0  0.12842256130E+04 -0.12561532274E+03  0.76564297296E+03  0.15004078767E+04  0.25500000920E-02 0. -1.
       -2    1    3    3    0  502 -0.12842256130E+04  0.12561532274E+03 -0.22112299419E+04  0.25601860265E+04  0.25500000920E-02 0.  1.
</event>
<event>
 5   0  0.3701250E-08  0.3823093E+04  0.7818609E-02  0.8041217E-01
       -1   -1    0    0    0  501  0.00000000000E+00  0.00000000000E+00  0.22658253395E+04  0.22658253395E+04  0.50400001928E-02 0. -1.
        1   -1    0    0  501    0  0.00000000000E+00  0.00000000000E+00 -0.16126618950E+04  0.16126618950E+04  0.50400001928E-02 0.  1.
    10030    2    1    2    0    0  0.00000000000E+00  0.00000000000E+00  0.65316344450E+03  0.38784872346E+04  0.38230930859E+04 0.  0.
        2    1    3    3  502    0  0.92570443701E+03  0.13547419546E+04 -0.66831931186E+03  0.17716955639E+04  0.25500000920E-02 0.  1.
       -2    1    3    3    0  502 -0.92570443701E+03 -0.13547419546E+04  0.13214827564E+04  0.21067916707E+04  0.25500000920E-02 0. -1.
</event>
<event>
 5   0  0.3701250E-08  0.3792612E+04  0.7818609E-02  0.8047742E-01
       -1   -1    0    0    0  501  0.00000000000E+00  0.00000000000E+00  0.20523204014E+04  0.20523204014E+04  0.50400001928E-02 0. -1.
        1   -1    0    0  501    0  0.00000000000E+00  0.00000000000E+00 -0.17521518066E+04  0.17521518066E+04  0.50400001928E-02 0.  1.
    10030    2    1    2    0    0  0.00000000000E+00  0.00000000000E+00  0.30016859475E+03  0.38044722080E+04  0.37926122391E+04 0.  0.
        4    1    3    3  502    0 -0.12271657852E+04  0.13378032536E+04 -0.39964572787E+03  0.18588630209E+04  0.12699999809E+01 0.  1.
       -4    1    3    3    0  502  0.12271657852E+04 -0.13378032536E+04  0.69981432262E+03  0.19456091871E+04  0.12699999809E+01 0. -1.
</event>
<event>
 5   0  0.7858367E-08  0.3802872E+04  0.7818609E-02  0.8045539E-01
        2   -1    0    0  501    0  0.00000000000E+00  0.00000000000E+00  0.11854302941E+04  0.11854302941E+04  0.25500000920E-02 0.  1.
       -2   -1    0    0    0  501  0.00000000000E+00  0.00000000000E+00 -0.30499134180E+04  0.30499134180E+04  0.25500000920E-02 0. -1.
    10030    2    1    2    0    0  0.00000000000E+00  0.00000000000E+00 -0.18644831239E+04  0.42353437121E+04  0.38028724722E+04 0.  0.
        2    1    3    3  502    0  0.12826112089E+04  0.12130055850E+04 -0.14552019130E+03  0.17713413529E+04  0.25500000920E-02 0.  1.
       -2    1    3    3    0  502 -0.12826112089E+04 -0.12130055850E+04 -0.17189629326E+04  0.24640023592E+04  0.25500000920E-02 0. -1.
</event>
<event>
 5   0  0.3701250E-08  0.3779753E+04  0.7818609E-02  0.8050514E-01
        1   -1    0    0  501    0  0.00000000000E+00  0.00000000000E+00  0.30247955693E+04  0.30247955693E+04  0.50400001928E-02 0.  1.
       -1   -1    0    0    0  501  0.00000000000E+00  0.00000000000E+00 -0.11807850696E+04  0.11807850696E+04  0.50400001928E-02 0. -1.
    10030    2    1    2    0    0  0.00000000000E+00  0.00000000000E+00  0.18440104996E+04  0.42055806389E+04  0.37797531385E+04 0.  0.
        1    1    3    3  502    0  0.17391497282E+03  0.50066026514E+02  0.30151317321E+04  0.30205582906E+04  0.50400001928E-02 0.  1.
       -1    1    3    3    0  502 -0.17391497282E+03 -0.50066026514E+02 -0.11711212325E+04  0.11850223483E+04  0.50400001928E-02 0. -1.
</event>
<event>
 5   0  0.7858367E-08  0.3783747E+04  0.7818609E-02  0.8049652E-01
       -2   -1    0    0    0  501  0.00000000000E+00  0.00000000000E+00  0.14665031251E+04  0.14665031251E+04  0.25500000920E-02 0. -1.
        2   -1    0    0  501    0  0.00000000000E+00  0.00000000000E+00 -0.24406261609E+04  0.24406261609E+04  0.25500000920E-02 0.  1.
    10030    2    1    2    0    0  0.00000000000E+00  0.00000000000E+00 -0.97412303581E+03  0.39071292860E+04  0.37837472919E+04 0.  0.
        2    1    3    3  502    0 -0.15773901246E+04  0.10420002829E+04 -0.56196440972E+03  0.19722393853E+04  0.25500000920E-02 0. -1.
       -2    1    3    3    0  502  0.15773901246E+04 -0.10420002829E+04 -0.41215862609E+03  0.19348899008E+04  0.25500000920E-02 0.  1.
</event>
<event>
 5   0  0.7858367E-08  0.3808083E+04  0.7818609E-02  0.8044422E-01
        2   -1    0    0  501    0  0.00000000000E+00  0.00000000000E+00  0.20869464548E+04  0.20869464548E+04  0.25500000920E-02 0. -1.
       -2   -1    0    0    0  501  0.00000000000E+00  0.00000000000E+00 -0.17371670518E+04  0.17371670518E+04  0.25500000920E-02 0.  1.
    10030    2    1    2    0    0  0.00000000000E+00  0.00000000000E+00  0.34977940307E+03  0.38241135066E+04  0.38080833080E+04 0.  0.
        2    1    3    3  502    0  0.10163524310E+03  0.18895990890E+04 -0.36853727918E+02  0.18926892606E+04  0.25500000920E-02 0. -1.
       -2    1    3    3    0  502 -0.10163524310E+03 -0.18895990890E+04  0.38663313099E+03  0.19314242460E+04  0.25500000920E-02 0.  1.
</event>
<event>
 5   0  0.7858367E-08  0.3807165E+04  0.7818609E-02  0.8044619E-01
       -2   -1    0    0    0  501  0.00000000000E+00  0.00000000000E+00  0.21157000183E+04  0.21157000183E+04  0.25500000920E-02 0. -1.
        2   -1    0    0  501    0  0.00000000000E+00  0.00000000000E+00 -0.17127312429E+04  0.17127312429E+04  0.25500000920E-02 0.  1.
    10030    2    1    2    0    0  0.00000000000E+00  0.00000000000E+00  0.40296877542E+03  0.38284312612E+04  0.38071645733E+04 0.  0.
        2    1    3    3  502    0  0.10464013994E+04  0.12606424383E+04  0.11761510294E+04  0.20168060120E+04  0.25500000920E-02 0. -1.
       -2    1    3    3    0  502 -0.10464013994E+04 -0.12606424383E+04 -0.77318225400E+03  0.18116252493E+04  0.25500000920E-02 0.  1.
</event>
<event>
 5   0  0.1150235E-07  0.3623891E+04  0.7818609E-02  0.8085041E-01
        2   -1    0    0  501    0  0.00000000000E+00  0.00000000000E+00  0.27940950106E+04  0.27940950106E+04  0.25500000920E-02 0.  1.
       -2   -1    0    0    0  501  0.00000000000E+00  0.00000000000E+00 -0.11750304095E+04  0.11750304095E+04  0.25500000920E-02 0. -1.
    10030    2    1    2    0    0  0.00000000000E+00  0.00000000000E+00  0.16190646010E+04  0.39691254201E+04  0.36238910605E+04 0.  0.
        4    1    3    3  502    0 -0.16948465215E+04 -0.59716034044E+03  0.55492168505E+03  0.18807032975E+04  0.12699999809E+01 0. -1.
       -4    1    3    3    0  502  0.16948465215E+04  0.59716034044E+03  0.10641429160E+04  0.20884221226E+04  0.12699999809E+01 0.  1.
</event>
<event>
 5   0  0.3701250E-08  0.3781702E+04  0.7818609E-02  0.8050093E-01
        1   -1    0    0  501    0  0.00000000000E+00  0.00000000000E+00  0.16373198128E+04  0.16373198128E+04  0.50400001928E-02 0.  1.
       -1   -1    0    0    0  501  0.00000000000E+00  0.00000000000E+00 -0.21836404174E+04  0.21836404174E+04  0.50400001928E-02 0. -1.
    10030    2    1    2    0    0  0.00000000000E+00  0.00000000000E+00 -0.54632060454E+03  0.38209602302E+04  0.37817021138E+04 0.  0.
        2    1    3    3  502    0 -0.18755342965E+04  0.22632605132E+03 -0.19191824735E+03  0.18988641322E+04  0.25500000920E-02 0.  1.
       -2    1    3    3    0  502  0.18755342965E+04 -0.22632605132E+03 -0.35440235719E+03  0.19220960980E+04  0.25500000920E-02 0. -1.
</event>
<event>
 5   0  0.1150235E-07  0.3802219E+04  0.7818609E-02  0.8045679E-01
       -2   -1    0    0    0  501  0.00000000000E+00  0.00000000000E+00  0.26229275016E+04  0.26229275016E+04  0.25500000920E-02 0. -1.
        2   -1    0    0  501    0  0.00000000000E+00  0.00000000000E+00 -0.13779327276E+04  0.13779327276E+04  0.25500000920E-02 0.  1.
    10030    2    1    2    0    0  0.00000000000E+00  0.00000000000E+00  0.12449947740E+04  0.40008602292E+04  0.38022191660E+04 0.  0.
        4    1    3    3  502    0  0.10582097786E+04  0.11115106149E+04 -0.55815177213E+03  0.16330336176E+04  0.12699999809E+01 0.  1.
       -4    1    3    3    0  502 -0.10582097786E+04 -0.11115106149E+04  0.18031465461E+04  0.23678266116E+04  0.12699999809E+01 0. -1.
</event>
<event>
 5   0  0.1174870E-07  0.3809939E+04  0.7818609E-02  0.8044025E-01
        2   -1    0    0  501    0  0.00000000000E+00  0.00000000000E+00  0.23613292644E+04  0.23613292644E+04  0.25500000920E-02 0. -1.
       -2   -1    0    0    0  501  0.00000000000E+00  0.00000000000E+00 -0.15368079782E+04  0.15368079783E+04  0.25500000920E-02 0.  1.
    10030    2    1    2    0    0  0.00000000000E+00  0.00000000000E+00  0.82452128617E+03  0.38981372427E+04  0.38099394498E+04 0.  0.
        5    1    3    3  502    0  0.13351875081E+04  0.13361979852E+03 -0.97119005753E+03  0.16564456376E+04  0.46999998093E+01 0.  1.
       -5    1    3    3    0  502 -0.13351875081E+04 -0.13361979852E+03  0.17957113437E+04  0.22416916051E+04  0.46999998093E+01 0. -1.
</event>
<event>
 5   0  0.3701250E-08  0.3828208E+04  0.7818609E-02  0.8040128E-01
        1   -1    0    0  501    0  0.00000000000E+00  0.00000000000E+00  0.19448398033E+04  0.19448398033E+04  0.50400001928E-02 0. -1.
       -1   -1    0    0    0  501  0.00000000000E+00  0.00000000000E+00 -0.18838541350E+04  0.18838541350E+04  0.50400001928E-02 0.  1.
    10030    2    1    2    0    0  0.00000000000E+00  0.00000000000E+00  0.60985668366E+02  0.38286939383E+04  0.38282081999E+04 0.  0.
        3    1    3    3  502    0 -0.66638150353E+03 -0.13782779640E+04 -0.11186003110E+04  0.18960435439E+04  0.10100000352E+00 0. -1.
       -3    1    3    3    0  502  0.66638150353E+03  0.13782779640E+04  0.11795859794E+04  0.19326503945E+04  0.10100000352E+00 0.  1.
</event>
<event>
 5   0  0.1193861E-07  0.3766148E+04  0.7818609E-02  0.8053459E-01
        2   -1    0    0  501    0  0.00000000000E+00  0.00000000000E+00  0.16615809836E+04  0.16615809836E+04  0.25500000920E-02 0.  1.
       -2   -1    0    0    0  501  0.00000000000E+00  0.00000000000E+00 -0.21340922685E+04  0.21340922685E+04  0.25500000920E-02 0. -1.
    10030    2    1    2    0    0  0.00000000000E+00  0.00000000000E+00 -0.47251128490E+03  0.37956732520E+04  0.37661477031E+04 0.  0.
        3    1    3    3  502    0  0.18447144112E+04  0.30581354402E+03 -0.46042678761E+03  0.19257429785E+04  0.10100000352E+00 0. -1.
       -3    1    3    3    0  502 -0.18447144112E+04 -0.30581354402E+03 -0.12084497287E+02  0.18699302735E+04  0.10100000352E+00 0.  1.
</event>
<event>
 5   0  0.3701250E-08  0.3837881E+04  0.7818609E-02  0.8038074E-01
       -1   -1    0    0    0  501  0.00000000000E+00  0.00000000000E+00  0.22202424226E+04  0.22202424226E+04  0.50400001928E-02 0.  1.
        1   -1    0    0  501    0  0.00000000000E+00  0.00000000000E+00 -0.16585270156E+04  0.16585270156E+04  0.50400001928E-02 0. -1.
    10030    2    1    2    0    0  0.00000000000E+00  0.00000000000E+00  0.56171540701E+03  0.38787694382E+04  0.38378806855E+04 0.  0.
        3    1    3    3  502    0  0.15507546936E+04  0.89285559707E+03  0.98127868538E+03  0.20408182441E+04  0.10100000352E+00 0.  1.
       -3    1    3    3    0  502 -0.15507546936E+04 -0.89285559707E+03 -0.41956327837E+03  0.18379511941E+04  0.10100000352E+00 0. -1.
</event>
<event>
 5   0  0.1193861E-07  0.3787175E+04  0.7818609E-02  0.8048913E-01
       -2   -1    0    0    0  501  0.00000000000E+00  0.00000000000E+00  0.12263895900E+04  0.12263895900E+04  0.25500000920E-02 0. -1.
        2   -1    0    0  501    0  0.00000000000E+00  0.00000000000E+00 -0.29237643436E+04  0.29237643436E+04  0.25500000920E-02 0.  1.
    10030    2    1    2    0    0  0.00000000000E+00  0.00000000000E+00 -0.16973747536E+04  0.41501539336E+04  0.37871752823E+04 0.  0.
        3    1    3    3  502    0  0.68639675193E+03 -0.24168581290E+03 -0.27644165611E+04  0.28585925675E+04  0.10100000352E+00 0.  1.
       -3    1    3    3    0  502 -0.68639675193E+03  0.24168581290E+03  0.10670418075E+04  0.12915613661E+04  0.10100000352E+00 0. -1.
</event>
<event>
 5   0  0.7858367E-08  0.3942375E+04  0.7818609E-02  0.8016273E-01
        2   -1    0    0  501    0  0.00000000000E+00  0.00000000000E+00  0.22954761771E+04  0.22954761771E+04  0.25500000920E-02 0.  1.
       -2   -1    0    0    0  501  0.00000000000E+00  0.00000000000E+00 -0.16927122538E+04  0.16927122538E+04  0.25500000920E-02 0. -1.
    10030    2    1    2    0    0  0.00000000000E+00  0.00000000000E+00  0.60276392336E+03  0.39881884309E+04  0.39423752502E+04 0.  0.
        2    1    3    3  502    0  0.65127029252E+03 -0.96507087651E+03 -0.13077202178E+04  0.17508989002E+04  0.25500000920E-02 0. -1.
       -2    1    3    3    0  502 -0.65127029252E+03  0.96507087651E+03  0.19104841412E+04  0.22372895307E+04  0.25500000920E-02 0.  1.
</event>
<event>
 5   0  0.3701250E-08  0.3872399E+04  0.7818609E-02  0.8030794E-01
       -1   -1    0    0    0  501  0.00000000000E+00  0.00000000000E+00  0.11033458439E+04  0.11033458439E+04  0.50400001928E-02 0.  1.
        1   -1    0    0  501    0  0.00000000000E+00  0.00000000000E+00 -0.33977266860E+04  0.33977266860E+04  0.50400001928E-02 0. -1.
    10030    2    1    2    0    0  0.00000000000E+00  0.00000000000E+00 -0.22943808421E+04  0.45010725299E+04  0.38723985424E+04 0.  0.
        4    1    3    3  502    0 -0.16355509804E+04 -0.41275321651E+03 -0.42364794284E+02  0.16873614361E+04  0.12699999809E+01 0.  1.
       -4    1    3    3    0  502  0.16355509804E+04  0.41275321651E+03 -0.22520160478E+04  0.28137110939E+04  0.12699999809E+01 0. -1.
</event>
<event>
 5   0  0.3701250E-08  0.3795162E+04  0.7818609E-02  0.8047194E-01
        1   -1    0    0  501    0  0.00000000000E+00  0.00000000000E+00  0.19894732736E+04  0.19894732736E+04  0.50400001928E-02 0. -1.
       -1   -1    0    0    0  501  0.00000000000E+00  0.00000000000E+00 -0.18099329765E+04  0.18099329765E+04  0.50400001928E-02 0.  1.
    10030    2    1    2    0    0  0.00000000000E+00  0.00000000000E+00  0.17954029715E+03  0.37994062501E+04  0.37951618061E+04 0.  0.
        1    1    3    3  502    0 -0.90818693881E+03 -0.15583855860E+04  0.67987329123E+03  0.19275883488E+04  0.50400001928E-02 0. -1.
       -1    1    3    3    0  502  0.90818693881E+03  0.15583855860E+04 -0.50033299408E+03  0.18718179012E+04  0.50400001928E-02 0.  1.
</event>
<event>
 5   0  0.7858367E-08  0.3814005E+04  0.7818609E-02  0.8043156E-01
        2   -1    0    0  501    0  0.00000000000E+00  0.00000000000E+00  0.14182755261E+04  0.14182755261E+04  0.25500000920E-02 0.  1.
       -2   -1    0    0    0  501  0.00000000000E+00  0.00000000000E+00 -0.25641413156E+04  0.25641413156E+04  0.25500000920E-02 0. -1.
    10030    2    1    2    0    0  0.00000000000E+00  0.00000000000E+00 -0.11458657894E+04  0.39824168417E+04  0.38140051774E+04 0.  0.
        2    1    3    3  502    0 -0.11139307431E+04  0.11512703447E+04 -0.16532151024E+04  0.23020393745E+04  0.25500000920E-02 0. -1.
       -2    1    3    3    0  502  0.11139307431E+04 -0.11512703447E+04  0.50734931299E+03  0.16803774672E+04  0.25500000920E-02 0.  1.
</event>
<event>
 5   0  0.7858367E-08  0.3790589E+04  0.7818609E-02  0.8048177E-01
        2   -1    0    0  501    0  0.00000000000E+00  0.00000000000E+00  0.30285968710E+04  0.30285968711E+04  0.25500000920E-02 0. -1.
       -2   -1    0    0    0  501  0.00000000000E+00  0.00000000000E+00 -0.11860743658E+04  0.11860743658E+04  0.25500000920E-02 0.  1.
    10030    2    1    2    0    0  0.00000000000E+00  0.00000000000E+00  0.18425225052E+04  0.42146712369E+04  0.37905889322E+04 0.  0.
        2    1    3    3  502    0 -0.30650945187E+03  0.57143072142E+03 -0.10588989403E+04  0.12416714861E+04  0.25500000920E-02 0.  1.
       -2    1    3    3    0  502  0.30650945187E+03 -0.57143072142E+03  0.29014214456E+04  0.29729997508E+04  0.25500000920E-02 0. -1.
</event>
<event>
 5   0  0.1143283E-07  0.3800619E+04  0.7818609E-02  0.8046022E-01
       -2   -1    0    0    0  501  0.00000000000E+00  0.00000000000E+00  0.15980125354E+04  0.15980125354E+04  0.25500000920E-02 0. -1.
        2   -1    0    0  501    0  0.00000000000E+00  0.00000000000E+00 -0.22597926440E+04  0.22597926440E+04  0.25500000920E-02 0.  1.
    10030    2    1    2    0    0  0.00000000000E+00  0.00000000000E+00 -0.66178010863E+03  0.38578051794E+04  0.38006194087E+04 0.  0.
        1    1    3    3  502    0  0.10185691014E+04 -0.71972028500E+03  0.11244531628E+04  0.16792484088E+04  0.50400001928E-02 0. -1.
       -1    1    3    3    0  502 -0.10185691014E+04  0.71972028500E+03 -0.17862332714E+04  0.21785567706E+04  0.50400001928E-02 0.  1.
</event>
<event>
 5   0  0.1174870E-07  0.3796369E+04  0.7818609E-02  0.8046934E-01
        2   -1    0    0  501    0  0.00000000000E+00  0.00000000000E+00  0.15814412995E+04  0.15814412995E+04  0.25500000920E-02 0.  1.
       -2   -1    0    0    0  501  0.00000000000E+00  0.00000000000E+00 -0.22783679485E+04  0.22783679485E+04  0.25500000920E-02 0. -1.
    10030    2    1    2    0    0  0.00000000000E+00  0.00000000000E+00 -0.69692664906E+03  0.38598092480E+04  0.37963694073E+04 0.  0.
        5    1    3    3  502    0  0.97241218949E+03 -0.29684597184E+03 -0.19781779156E+04  0.22241656757E+04  0.46999998093E+01 0. -1.
       -5    1    3    3    0  502 -0.97241218949E+03  0.29684597184E+03  0.12812512666E+04  0.16356435722E+04  0.46999998093E+01 0.  1.
</event>
<event>
 5   0  0.3701250E-08  0.3792698E+04  0.7818609E-02  0.8047724E-01
        1   -1    0    0  501    0  0.00000000000E+00  0.00000000000E+00  0.22757833656E+04  0.22757833656E+04  0.50400001928E-02 0. -1.
       -1   -1    0    0    0  501  0.00000000000E+00  0.00000000000E+00 -0.15801762094E+04  0.15801762094E+04  0.50400001928E-02 0.  1.
    10030    2    1    2    0    0  0.00000000000E+00  0.00000000000E+00  0.69560715615E+03  0.38559595750E+04  0.37926975793E+04 0.  0.
        3    1    3    3  502    0  0.11114585131E+04  0.14634762727E+04 -0.12801555708E+03  0.18421429967E+04  0.10100000352E+00 0. -1.
       -3    1    3    3    0  502 -0.11114585131E+04 -0.14634762727E+04  0.82362271323E+03  0.20138165783E+04  0.10100000352E+00 0.  1.
</event>
<event>
 5   0  0.3701250E-08  0.3820628E+04  0.7818609E-02  0.8041743E-01
        1   -1    0    0  501    0  0.00000000000E+00  0.00000000000E+00  0.18441457587E+04  0.18441457587E+04  0.50400001928E-02 0. -1.
       -1   -1    0    0    0  501  0.00000000000E+00  0.00000000000E+00 -0.19788563186E+04  0.19788563186E+04  0.50400001928E-02 0.  1.
    10030    2    1    2    0    0  0.00000000000E+00  0.00000000000E+00 -0.13471055994E+03  0.38230020773E+04  0.38206279521E+04 0.  0.
        1    1    3    3  502    0 -0.17497096952E+04 -0.34411535500E+03  0.61819824859E+03  0.18873442902E+04  0.50400001928E-02 0. -1.
       -1    1    3    3    0  502  0.17497096952E+04  0.34411535500E+03 -0.75290880852E+03  0.19356577872E+04  0.50400001928E-02 0.  1.
</event>
<event>
 5   0  0.7858367E-08  0.3826173E+04  0.7818609E-02  0.8040562E-01
       -2   -1    0    0    0  501  0.00000000000E+00  0.00000000000E+00  0.12589727029E+04  0.12589727029E+04  0.25500000920E-02 0.  1.
        2   -1    0    0  501    0  0.00000000000E+00  0.00000000000E+00 -0.29070522486E+04  0.29070522486E+04  0.25500000920E-02 0. -1.
    10030    2    1    2    0    0  0.00000000000E+00  0.00000000000E+00 -0.16480795457E+04  0.41660249514E+04  0.38261727231E+04 0.  0.
        2    1    3    3  502    0  0.51205689881E+02 -0.30353068634E+03 -0.28799113739E+04  0.28963153181E+04  0.25500000920E-02 0. -1.
       -2    1    3    3    0  502 -0.51205689881E+02  0.30353068634E+03  0.12318318282E+04  0.12697096334E+04  0.25500000920E-02 0.  1.
</event>
<event>
 5   0  0.3889225E-08  0.3807866E+04  0.7818609E-02  0.8044469E-01
       -1   -1    0    0    0  501  0.00000000000E+00  0.00000000000E+00  0.31907285912E+04  0.31907285912E+04  0.50400001928E-02 0. -1.
        1   -1    0    0  501    0  0.00000000000E+00  0.00000000000E+00 -0.11360921518E+04  0.11360921518E+04  0.50400001928E-02 0.  1.
    10030    2    1    2    0    0  0.00000000000E+00  0.00000000000E+00  0.20546364394E+04  0.43268207430E+04  0.38078664425E+04 0.  0.
        5    1    3    3  502    0  0.50706097753E+03 -0.78842086000E+02 -0.10560260107E+04  0.11741124029E+04  0.46999998093E+01 0.  1.
       -5    1    3    3    0  502 -0.50706097753E+03  0.78842086000E+02  0.31106624500E+04  0.31527083401E+04  0.46999998093E+01 0. -1.
</event>
<event>
 5   0  0.3701250E-08  0.3804621E+04  0.7818609E-02  0.8045164E-01
        1   -1    0    0  501    0  0.00000000000E+00  0.00000000000E+00  0.13297259400E+04  0.13297259400E+04  0.50400001928E-02 0.  1.
       -1   -1    0    0    0  501  0.00000000000E+00  0.00000000000E+00 -0.27214513826E+04  0.27214513826E+04  0.50400001928E-02 0. -1.
    10030    2    1    2    0    0  0.00000000000E+00  0.00000000000E+00 -0.13917254426E+04  0.40511773226E+04  0.38046206107E+04 0.  0.
        1    1    3    3  502    0  0.14941209142E+04 -0.23124917063E+02  0.55764897453E+03  0.15949622086E+04  0.50400001928E-02 0.  1.
       -1    1    3    3    0  502 -0.14941209142E+04  0.23124917063E+02 -0.19493744172E+04  0.24562151140E+04  0.50400001928E-02 0. -1.
</event>
<event>
 5   0  0.3701250E-08  0.3851707E+04  0.7818609E-02  0.8035149E-01
       -1   -1    0    0    0  501  0.00000000000E+00  0.00000000000E+00  0.16947662615E+04  0.16947662615E+04  0.50400001928E-02 0. -1.
        1   -1    0    0  501    0  0.00000000000E+00  0.00000000000E+00 -0.21884504919E+04  0.21884504919E+04  0.50400001928E-02 0.  1.
    10030    2    1    2    0    0  0.00000000000E+00  0.00000000000E+00 -0.49368423039E+03  0.38832167535E+04  0.38517071845E+04 0.  0.
        2    1    3    3  502    0  0.50505410549E+03 -0.18924141788E+03 -0.21107552761E+04  0.21785728814E+04  0.25500000920E-02 0.  1.
       -2    1    3    3    0  502 -0.50505410549E+03  0.18924141788E+03  0.16170710457E+04  0.17046438721E+04  0.25500000920E-02 0. -1.
</event>
<event>
 5   0  0.7858367E-08  0.3819780E+04  0.7818609E-02  0.8041923E-01
       -2   -1    0    0    0  501  0.00000000000E+00  0.00000000000E+00  0.20667077752E+04  0.20667077752E+04  0.25500000920E-02 0.  1.
        2   -1    0    0  501    0  0.00000000000E+00  0.00000000000E+00 -0.17649715939E+04  0.17649715939E+04  0.25500000920E-02 0. -1.
    10030    2    1    2    0    0  0.00000000000E+00  0.00000000000E+00  0.30173618136E+03  0.38316793691E+04  0.38197803686E+04 0.  0.
        2    1    3    3  502    0 -0.18901084332E+04  0.26909467578E+03  0.98181316146E+02  0.19116907189E+04  0.25500000920E-02 0. -1.
       -2    1    3    3    0  502  0.18901084332E+04 -0.26909467578E+03  0.20355486521E+03  0.19199886502E+04  0.25500000920E-02 0.  1.
</event>
<event>
 5   0  0.1193861E-07  0.3710985E+04  0.7818609E-02  0.8065532E-01
        2   -1    0    0  501    0  0.00000000000E+00  0.00000000000E+00  0.17136942732E+04  0.17136942732E+04  0.25500000920E-02 0. -1.
       -2   -1    0    0    0  501  0.00000000000E+00  0.00000000000E+00 -0.20090240061E+04  0.20090240061E+04  0.25500000920E-02 0.  1.
    10030    2    1    2    0    0  0.00000000000E+00  0.00000000000E+00 -0.29532973284E+03  0.37227182793E+04  0.37109852783E+04 0.  0.
        3    1    3    3  502    0 -0.77726665404E+03 -0.16096190970E+04  0.35174025436E+03  0.18217404605E+04  0.10100000352E+00 0. -1.
       -3    1    3    3    0  502  0.77726665404E+03  0.16096190970E+04 -0.64706998720E+03  0.19009778187E+04  0.10100000352E+00 0.  1.
</event>
<event>
 5   0  0.3889225E-08  0.3792152E+04  0.7818609E-02  0.8047841E-01
        1   -1    0    0  501    0  0.00000000000E+00  0.00000000000E+00  0.16236878015E+04  0.16236878016E+04  0.50400001928E-02 0.  1.
       -1   -1    0    0    0  501  0.00000000000E+00  0.00000000000E+00 -0.22141597185E+04  0.22141597185E+04  0.50400001928E-02 0. -1.
    10030    2    1    2    0    0  0.00000000000E+00  0.00000000000E+00 -0.59047191696E+03  0.38378475201E+04  0.37921519620E+04 0.  0.
        5    1    3    3  502    0  0.10209557553E+04  0.14739938375E+04  0.32869395271E+03  0.18229290420E+04  0.46999998093E+01 0.  1.
       -5    1    3    3    0  502 -0.10209557553E+04 -0.14739938375E+04 -0.91916586966E+03  0.20149184781E+04  0.46999998093E+01 0. -1.
</event>
<event>
 5   0  0.3701250E-08  0.3803927E+04  0.7818609E-02  0.8045313E-01
        1   -1    0    0  501    0  0.00000000000E+00  0.00000000000E+00  0.14044284989E+04  0.14044284990E+04  0.50400001928E-02 0.  1.
       -1   -1    0    0    0  501  0.00000000000E+00  0.00000000000E+00 -0.25757561516E+04  0.25757561516E+04  0.50400001928E-02 0. -1.
    10030    2    1    2    0    0  0.00000000000E+00  0.00000000000E+00 -0.11713276527E+04  0.39801846506E+04  0.38039271001E+04 0.  0.
        1    1    3    3  502    0 -0.12962783359E+04 -0.89796362082E+03  0.52699457870E+03  0.16626483315E+04  0.50400001928E-02 0.  1.
       -1    1    3    3    0  502  0.12962783359E+04  0.89796362082E+03 -0.16983222314E+04  0.23175363190E+04  0.50400001928E-02 0. -1.
</event>
<event>
 5   0  0.3701250E-08  0.3799951E+04  0.7818609E-02  0.8046165E-01
       -1   -1    0    0    0  501  0.00000000000E+00  0.00000000000E+00  0.16873290058E+04  0.16873290058E+04  0.50400001928E-02 0.  1.
        1   -1    0    0  501    0  0.00000000000E+00  0.00000000000E+00 -0.21394209673E+04  0.21394209673E+04  0.50400001928E-02 0. -1.
    10030    2    1    2    0    0  0.00000000000E+00  0.00000000000E+00 -0.45209196154E+03  0.38267499731E+04  0.37999510806E+04 0.  0.
        3    1    3    3  502    0  0.65470979252E+03  0.15847655769E+04 -0.10502186977E+04  0.20107426910E+04  0.10100000352E+00 0. -1.
       -3    1    3    3    0  502 -0.65470979252E+03 -0.15847655769E+04  0.59812673617E+03  0.18160072821E+04  0.10100000352E+00 0.  1.
</event>
<event>
 5   0  0.1193861E-07  0.3803013E+04  0.7818609E-02  0.8045509E-01
        2   -1    0    0  501    0  0.00000000000E+00  0.00000000000E+00  0.19176081442E+04  0.19176081442E+04  0.25500000920E-02 0.  1.
       -2   -1    0    0    0  501  0.00000000000E+00  0.00000000000E+00 -0.18855404680E+04  0.18855404680E+04  0.25500000920E-02 0. -1.
    10030    2    1    2    0    0  0.00000000000E+00  0.00000000000E+00  0.32067676165E+02  0.38031486122E+04  0.38030134145E+04 0.  0.
        3    1    3    3  502    0  0.18214556844E+04  0.29578459075E+03  0.47489480028E+03  0.19054433647E+04  0.10100000352E+00 0.  1.
       -3    1    3    3    0  502 -0.18214556844E+04 -0.29578459075E+03 -0.44282712411E+03  0.18977052475E+04  0.10100000352E+00 0. -1.
</event>
<event>
 5   0  0.3889225E-08  0.3801099E+04  0.7818609E-02  0.8045919E-01
        1   -1    0    0  501    0  0.00000000000E+00  0.00000000000E+00  0.26853437086E+04  0.26853437086E+04  0.50400001928E-02 0. -1.
       -1   -1    0    0    0  501  0.00000000000E+00  0.00000000000E+00 -0.13451119976E+04  0.13451119976E+04  0.50400001928E-02 0.  1.
    10030    2    1    2    0    0  0.00000000000E+00  0.00000000000E+00  0.13402317110E+04  0.40304557062E+04  0.38010988097E+04 0.  0.
        5    1    3    3  502    0 -0.50147868902E+03 -0.48786645874E+03  0.25438207093E+04  0.26382836178E+04  0.46999998093E+01 0. -1.
       -5    1    3    3    0  502  0.50147868902E+03  0.48786645874E+03 -0.12035889983E+04  0.13921720884E+04  0.46999998093E+01 0.  1.
</event>
<event>
 5   0  0.7858367E-08  0.3817932E+04  0.7818609E-02  0.8042318E-01
       -2   -1    0    0    0  501  0.00000000000E+00  0.00000000000E+00  0.12909294136E+04  0.12909294136E+04  0.25500000920E-02 0. -1.
        2   -1    0    0  501    0  0.00000000000E+00  0.00000000000E+00 -0.28228901260E+04  0.28228901260E+04  0.25500000920E-02 0.  1.
    10030    2    1    2    0    0  0.00000000000E+00  0.00000000000E+00 -0.15319607124E+04  0.41138195396E+04  0.38179323697E+04 0.  0.
        2    1    3    3  502    0 -0.14318157961E+04 -0.59272475465E+03 -0.19671542471E+04  0.25042194274E+04  0.25500000920E-02 0.  1.
       -2    1    3    3    0  502  0.14318157961E+04  0.59272475465E+03  0.43519353464E+03  0.16096001122E+04  0.25500000920E-02 0. -1.
</event>
<event>
 5   0  0.7858367E-08  0.3769412E+04  0.7818609E-02  0.8052751E-01
       -2   -1    0    0    0  501  0.00000000000E+00  0.00000000000E+00  0.20518273653E+04  0.20518273653E+04  0.25500000920E-02 0.  1.
        2   -1    0    0  501    0  0.00000000000E+00  0.00000000000E+00 -0.17311963108E+04  0.17311963108E+04  0.25500000920E-02 0. -1.
    10030    2    1    2    0    0  0.00000000000E+00  0.00000000000E+00  0.32063105454E+03  0.37830236761E+04  0.37694116068E+04 0.  0.
        2    1    3    3  502    0 -0.16714266782E+04 -0.29512672870E+03 -0.66200225446E+03  0.18218161026E+04  0.25500000920E-02 0. -1.
       -2    1    3    3    0  502  0.16714266782E+04  0.29512672870E+03  0.98263330900E+03  0.19612075736E+04  0.25500000920E-02 0.  1.
</event>
<event>
 5   0  0.1193861E-07  0.3763916E+04  0.7818609E-02  0.8053943E-01
        2   -1    0    0  501    0  0.00000000000E+00  0.00000000000E+00  0.12390055232E+04  0.12390055232E+04  0.25500000920E-02 0.  1.
       -2   -1    0    0    0  501  0.00000000000E+00  0.00000000000E+00 -0.28585551358E+04  0.28585551358E+04  0.25500000920E-02 0. -1.
    10030    2    1    2    0    0  0.00000000000E+00  0.00000000000E+00 -0.16195496125E+04  0.40975606590E+04  0.37639158342E+04 0.  0.
        3    1    3    3  502    0  0.15815987248E+04 -0.36849885659E+03 -0.18451422215E+04  0.24580064608E+04  0.10100000352E+00 0. -1.
       -3    1    3    3    0  502 -0.15815987248E+04  0.36849885659E+03  0.22559260895E+03  0.16395541982E+04  0.10100000352E+00 0.  1.
</event>
<event>
 5   0  0.1150235E-07  0.3793477E+04  0.7818609E-02  0.8047556E-01
       -2   -1    0    0    0  501  0.00000000000E+00  0.00000000000E+00  0.26579003912E+04  0.26579003912E+04  0.25500000920E-02 0. -1.
        2   -1    0    0  501    0  0.00000000000E+00  0.00000000000E+00 -0.13535560091E+04  0.13535560091E+04  0.25500000920E-02 0.  1.
    10030    2    1    2    0    0  0.00000000000E+00  0.00000000000E+00  0.13043443821E+04  0.40114564003E+04  0.37934770573E+04 0.  0.
        4    1    3    3  502    0 -0.13814376160E+04 -0.86792762683E+03 -0.37086232064E+03  0.16730835981E+04  0.12699999809E+01 0.  1.
       -4    1    3    3    0  502  0.13814376160E+04  0.86792762683E+03  0.16752067027E+04  0.23383728022E+04  0.12699999809E+01 0. -1.
</event>
<event>
 5   0  0.7858367E-08  0.3801657E+04  0.7818609E-02  0.8045799E-01
       -2   -1    0    0    0  501  0.00000000000E+00  0.00000000000E+00  0.16325365858E+04  0.16325365858E+04  0.25500000920E-02 0.  1.
        2   -1    0    0  501    0  0.00000000000E+00  0.00000000000E+00 -0.22132119165E+04  0.22132119165E+04  0.25500000920E-02 0. -1.
    10030    2    1    2    0    0  0.00000000000E+00  0.00000000000E+00 -0.58067533070E+03  0.38457485023E+04  0.38016572311E+04 0.  0.
        2    1    3    3  502    0  0.93148732776E+03  0.12887831725E+04  0.76314270711E+03  0.17638076706E+04  0.25500000920E-02 0. -1.
       -2    1    3    3    0  502 -0.93148732776E+03 -0.12887831725E+04 -0.13438180378E+04  0.20819408316E+04  0.25500000920E-02 0.  1.
</event>
<event>
 5   0  0.1150235E-07  0.3776241E+04  0.7818609E-02  0.8051273E-01
        2   -1    0    0  501    0  0.00000000000E+00  0.00000000000E+00  0.16003541110E+04  0.16003541110E+04  0.25500000920E-02 0.  1.
       -2   -1    0    0    0  501  0.00000000000E+00  0.00000000000E+00 -0.22276312676E+04  0.22276312676E+04  0.25500000920E-02 0. -1.
    10030    2    1    2    0    0  0.00000000000E+00  0.00000000000E+00 -0.62727715665E+03  0.38279853786E+04  0.37762409123E+04 0.  0.
        4    1    3    3  502    0 -0.18403146314E+04  0.16930327908E+02 -0.74126332080E+03  0.19840659017E+04  0.12699999809E+01 0. -1.
       -4    1    3    3    0  502  0.18403146314E+04 -0.16930327908E+02  0.11398616415E+03  0.18439194769E+04  0.12699999809E+01 0.  1.
</event>
<event>
 5   0  0.3701250E-08  0.3790702E+04  0.7818609E-02  0.8048153E-01
        1   -1    0    0  501    0  0.00000000000E+00  0.00000000000E+00  0.15931069312E+04  0.15931069312E+04  0.50400001928E-02 0. -1.
       -1   -1    0    0    0  501  0.00000000000E+00  0.00000000000E+00 -0.22549363715E+04  0.22549363715E+04  0.50400001928E-02 0.  1.
    10030    2    1    2    0    0  0.00000000000E+00  0.00000000000E+00 -0.66182944032E+03  0.38480433027E+04  0.37907016569E+04 0.  0.
        2    1    3    3  502    0 -0.63780250932E+03  0.46409714004E+03 -0.20804047796E+04  0.22249184802E+04  0.25500000920E-02 0.  1.
       -2    1    3    3    0  502  0.63780250932E+03 -0.46409714004E+03  0.14185753393E+04  0.16231248225E+04  0.25500000920E-02 0. -1.
</event>
<event>
 5   0  0.3701250E-08  0.3794894E+04  0.7818609E-02  0.8047251E-01
        1   -1    0    0  501    0  0.00000000000E+00  0.00000000000E+00  0.13644556435E+04  0.13644556435E+04  0.50400001928E-02 0. -1.
       -1   -1    0    0    0  501  0.00000000000E+00  0.00000000000E+00 -0.26386390442E+04  0.26386390442E+04  0.50400001928E-02 0.  1.
    10030    2    1    2    0    0  0.00000000000E+00  0.00000000000E+00 -0.12741834007E+04  0.40030946877E+04  0.37948944307E+04 0.  0.
        4    1    3    3  502    0  0.10213137914E+04 -0.96519573368E+03 -0.19820401390E+04  0.24296438814E+04  0.12699999809E+01 0.  1.
       -4    1    3    3    0  502 -0.10213137914E+04  0.96519573368E+03  0.70785673834E+03  0.15734508063E+04  0.12699999809E+01 0. -1.
</event>
<event>
 5   0  0.3701250E-08  0.3817907E+04  0.7818609E-02  0.8042323E-01
        1   -1    0    0  501    0  0.00000000000E+00  0.00000000000E+00  0.21571374324E+04  0.21571374324E+04  0.50400001928E-02 0.  1.
       -1   -1    0    0    0  501  0.00000000000E+00  0.00000000000E+00 -0.16893237220E+04  0.16893237220E+04  0.50400001928E-02 0. -1.
    10030    2    1    2    0    0  0.00000000000E+00  0.00000000000E+00  0.46781371042E+03  0.38464611544E+04  0.38179069848E+04 0.  0.
        4    1    3    3  502    0  0.18653928346E+04 -0.25524500959E+03 -0.83507207464E+02  0.18846260926E+04  0.12699999809E+01 0.  1.
       -4    1    3    3    0  502 -0.18653928346E+04  0.25524500959E+03  0.55132091789E+03  0.19618350618E+04  0.12699999809E+01 0. -1.
</event>
<event>
 5   0  0.7858367E-08  0.3795501E+04  0.7818609E-02  0.8047121E-01
        2   -1    0    0  501    0  0.00000000000E+00  0.00000000000E+00  0.17957974502E+04  0.17957974502E+04  0.25500000920E-02 0. -1.
       -2   -1    0    0    0  501  0.00000000000E+00  0.00000000000E+00 -0.20054914774E+04  0.20054914774E+04  0.25500000920E-02 0.  1.
    10030    2    1    2    0    0  0.00000000000E+00  0.00000000000E+00 -0.20969402716E+03  0.38012889276E+04  0.37955007478E+04 0.  0.
        2    1    3    3  502    0 -0.83869972484E+03 -0.44371567569E+03  0.15411786599E+04  0.18098432228E+04  0.25500000920E-02 0. -1.
       -2    1    3    3    0  502  0.83869972484E+03  0.44371567569E+03 -0.17508726870E+04  0.19914457049E+04  0.25500000920E-02 0.  1.
</event>
<event>
 5   0  0.3889225E-08  0.3817780E+04  0.7818609E-02  0.8042350E-01
        1   -1    0    0  501    0  0.00000000000E+00  0.00000000000E+00  0.20802910817E+04  0.20802910817E+04  0.50400001928E-02 0.  1.
       -1   -1    0    0    0  501  0.00000000000E+00  0.00000000000E+00 -0.17516109477E+04  0.17516109477E+04  0.50400001928E-02 0. -1.
    10030    2    1    2    0    0  0.00000000000E+00  0.00000000000E+00  0.32868013399E+03  0.38319020295E+04  0.38177797910E+04 0.  0.
        5    1    3    3  502    0 -0.15761038914E+04  0.10342865767E+04  0.46542694330E+03  0.19417766423E+04  0.46999998093E+01 0.  1.
       -5    1    3    3    0  502  0.15761038914E+04 -0.10342865767E+04 -0.13674680930E+03  0.18901253871E+04  0.46999998093E+01 0. -1.
</event>
<event>
 5   0  0.1174870E-07  0.3799765E+04  0.7818609E-02  0.8046205E-01
        2   -1    0    0  501    0  0.00000000000E+00  0.00000000000E+00  0.22218687843E+04  0.22218687843E+04  0.25500000920E-02 0. -1.
       -2   -1    0    0    0  501  0.00000000000E+00  0.00000000000E+00 -0.16245571161E+04  0.16245571161E+04  0.25500000920E-02 0.  1.
    10030    2    1    2    0    0  0.00000000000E+00  0.00000000000E+00  0.59731166826E+03  0.38464259004E+04  0.37997645951E+04 0.  0.
        5    1    3    3  502    0 -0.91836951168E+03 -0.16220306648E+04 -0.73478768447E+02  0.18654241494E+04  0.46999998093E+01 0.  1.
       -5    1    3    3    0  502  0.91836951168E+03  0.16220306648E+04  0.67079043670E+03  0.19810017510E+04  0.46999998093E+01 0. -1.
</event>
<event>
 5   0  0.3701250E-08  0.3800742E+04  0.7818609E-02  0.8045996E-01
        1   -1    0    0  501    0  0.00000000000E+00  0.00000000000E+00  0.18719063676E+04  0.18719063676E+04  0.50400001928E-02 0. -1.
       -1   -1    0    0    0  501  0.00000000000E+00  0.00000000000E+00 -0.19292682248E+04  0.19292682248E+04  0.50400001928E-02 0.  1.
    10030    2    1    2    0    0  0.00000000000E+00  0.00000000000E+00 -0.57361857149E+02  0.38011745924E+04  0.38007417565E+04 0.  0.
        4    1    3    3  502    0  0.44867371371E+03  0.13097129883E+04 -0.13306554576E+04  0.19202348223E+04  0.12699999809E+01 0.  1.
       -4    1    3    3    0  502 -0.44867371371E+03 -0.13097129883E+04  0.12732936004E+04  0.18809397701E+04  0.12699999809E+01 0. -1.
</event>
<event>
 5   0  0.3701250E-08  0.3790912E+04  0.7818609E-02  0.8048108E-01
       -1   -1    0    0    0  501  0.00000000000E+00  0.00000000000E+00  0.17135135983E+04  0.17135135983E+04  0.50400001928E-02 0. -1.
        1   -1    0    0  501    0  0.00000000000E+00  0.00000000000E+00 -0.20967170003E+04  0.20967170003E+04  0.50400001928E-02 0.  1.
    10030    2    1    2    0    0  0.00000000000E+00  0.00000000000E+00 -0.38320340202E+03  0.38102305986E+04  0.37909118121E+04 0.  0.
        4    1    3    3  502    0  0.16047536377E+04  0.97140969356E+03  0.81593043047E+02  0.18776394937E+04  0.12699999809E+01 0.  1.
       -4    1    3    3    0  502 -0.16047536377E+04 -0.97140969356E+03 -0.46479644507E+03  0.19325911049E+04  0.12699999809E+01 0. -1.
</event>
<event>
 5   0  0.1193861E-07  0.3796993E+04  0.7818609E-02  0.8046800E-01
       -2   -1    0    0    0  501  0.00000000000E+00  0.00000000000E+00  0.17892281737E+04  0.17892281737E+04  0.25500000920E-02 0.  1.
        2   -1    0    0  501    0  0.00000000000E+00  0.00000000000E+00 -0.20144379629E+04  0.20144379629E+04  0.25500000920E-02 0. -1.
    10030    2    1    2    0    0  0.00000000000E+00  0.00000000000E+00 -0.22520978924E+03  0.38036661366E+04  0.37969931037E+04 0.  0.
        3    1    3    3  502    0 -0.85345805259E+03 -0.16800646478E+04  0.11862815234E+03  0.18881420807E+04  0.10100000352E+00 0. -1.
       -3    1    3    3    0  502  0.85345805259E+03  0.16800646478E+04 -0.34383794158E+03  0.19155240558E+04  0.10100000352E+00 0.  1.
</event>
<event>
 5   0  0.3701250E-08  0.3801044E+04  0.7818609E-02  0.8045931E-01
        4   -1    0    0  501    0  0.00000000000E+00  0.00000000000E+00  0.22544604131E+04  0.22544607709E+04  0.12699999809E+01 0. -1.
       -4   -1    0    0    0  501  0.00000000000E+00  0.00000000000E+00 -0.16021494419E+04  0.16021499453E+04  0.12699999809E+01 0.  1.
    10030    2    1    2    0    0  0.00000000000E+00  0.00000000000E+00  0.65231097121E+03  0.38566107161E+04  0.38010441477E+04 0.  0.
        4    1    3    3  502    0 -0.16936741389E+04  0.25047354706E+03 -0.51095938505E+03  0.17867149165E+04  0.12699999809E+01 0.  1.
       -4    1    3    3    0  502  0.16936741389E+04 -0.25047354706E+03  0.11632703563E+04  0.20698957996E+04  0.12699999809E+01 0. -1.
</event>
<event>
 5   0  0.1143283E-07  0.3799179E+04  0.7818609E-02  0.8046331E-01
       -2   -1    0    0    0  501  0.00000000000E+00  0.00000000000E+00  0.15370015996E+04  0.15370015996E+04  0.25500000920E-02 0. -1.
        2   -1    0    0  501    0  0.00000000000E+00  0.00000000000E+00 -0.23477144479E+04  0.23477144479E+04  0.25500000920E-02 0.  1.
    10030    2    1    2    0    0  0.00000000000E+00  0.00000000000E+00 -0.81071284829E+03  0.38847160474E+04  0.37991793123E+04 0.  0.
        1    1    3    3  502    0  0.15477441861E+04  0.10334023815E+04 -0.79472951930E+03  0.20236174432E+04  0.50400001928E-02 0.  1.
       -1    1    3    3    0  502 -0.15477441861E+04 -0.10334023815E+04 -0.15983328984E+02  0.18610986042E+04  0.50400001928E-02 0. -1.
</event>
<event>
 5   0  0.3889225E-08  0.3772477E+04  0.7818609E-02  0.8052087E-01
        1   -1    0    0  501    0  0.00000000000E+00  0.00000000000E+00  0.15015708280E+04  0.15015708281E+04  0.50400001928E-02 0.  1.
       -1   -1    0    0    0  501  0.00000000000E+00  0.00000000000E+00 -0.23694496419E+04  0.23694496419E+04  0.50400001928E-02 0. -1.
    10030    2    1    2    0    0  0.00000000000E+00  0.00000000000E+00 -0.86787881389E+03  0.38710204700E+04  0.37724774146E+04 0.  0.
        5    1    3    3  502    0 -0.13029851987E+04 -0.12586105376E+04 -0.97302295836E+03  0.20563722136E+04  0.46999998093E+01 0. -1.
       -5    1    3    3    0  502  0.13029851987E+04  0.12586105376E+04  0.10514414447E+03  0.18146482564E+04  0.46999998093E+01 0.  1.
</event>
<event>
 5   0  0.1193861E-07  0.3794751E+04  0.7818609E-02  0.8047282E-01
        2   -1    0    0  501    0  0.00000000000E+00  0.00000000000E+00  0.27982677139E+04  0.27982677139E+04  0.25500000920E-02 0.  1.
       -2   -1    0    0    0  501  0.00000000000E+00  0.00000000000E+00 -0.12865224810E+04  0.12865224810E+04  0.25500000920E-02 0. -1.
    10030    2    1    2    0    0  0.00000000000E+00  0.00000000000E+00  0.15117452329E+04  0.40847901949E+04  0.37947512814E+04 0.  0.
        3    1    3    3  502    0 -0.11098638622E+04  0.22016725147E+03 -0.88361536742E+03  0.14356348905E+04  0.10100000352E+00 0. -1.
       -3    1    3    3    0  502  0.11098638622E+04 -0.22016725147E+03  0.23953606003E+04  0.26491553044E+04  0.10100000352E+00 0.  1.
</event>
<event>
 5   0  0.3701250E-08  0.3746900E+04  0.7818609E-02  0.8057647E-01
        1   -1    0    0  501    0  0.00000000000E+00  0.00000000000E+00  0.12998636635E+04  0.12998636635E+04  0.50400001928E-02 0. -1.
       -1   -1    0    0    0  501  0.00000000000E+00  0.00000000000E+00 -0.27001405869E+04  0.27001405869E+04  0.50400001928E-02 0.  1.
    10030    2    1    2    0    0  0.00000000000E+00  0.00000000000E+00 -0.14002769234E+04  0.40000042504E+04  0.37468998574E+04 0.  0.
        1    1    3    3  502    0 -0.30640208547E+03 -0.82284815910E+03  0.10666019893E+04  0.13815213116E+04  0.50400001928E-02 0. -1.
       -1    1    3    3    0  502  0.30640208547E+03  0.82284815910E+03 -0.24668789127E+04  0.26184829388E+04  0.50400001928E-02 0.  1.
</event>
<event>
 5   0  0.3889225E-08  0.3803793E+04  0.7818609E-02  0.8045341E-01
       -1   -1    0    0    0  501  0.00000000000E+00  0.00000000000E+00  0.17603902339E+04  0.17603902339E+04  0.50400001928E-02 0. -1.
        1   -1    0    0  501    0  0.00000000000E+00  0.00000000000E+00 -0.20547780214E+04  0.20547780214E+04  0.50400001928E-02 0.  1.
    10030    2    1    2    0    0  0.00000000000E+00  0.00000000000E+00 -0.29438778751E+03  0.38151682553E+04  0.38037934548E+04 0.  0.
        5    1    3    3  502    0  0.63183464061E+03 -0.15971346241E+04  0.67203195777E+03  0.18443706414E+04  0.46999998093E+01 0.  1.
       -5    1    3    3    0  502 -0.63183464061E+03  0.15971346241E+04 -0.96641974528E+03  0.19707976139E+04  0.46999998093E+01 0. -1.
</event>
<event>
 5   0  0.1193861E-07  0.3799402E+04  0.7818609E-02  0.8046283E-01
       -2   -1    0    0    0  501  0.00000000000E+00  0.00000000000E+00  0.16363489722E+04  0.16363489722E+04  0.25500000920E-02 0. -1.
        2   -1    0    0  501    0  0.00000000000E+00  0.00000000000E+00 -0.22054364339E+04  0.22054364339E+04  0.25500000920E-02 0.  1.
    10030    2    1    2    0    0  0.00000000000E+00  0.00000000000E+00 -0.56908746175E+03  0.38417854061E+04  0.37994018697E+04 0.  0.
        3    1    3    3  502    0  0.18282860674E+02 -0.77680145363E+03 -0.20374067375E+04  0.21805460293E+04  0.10100000352E+00 0.  1.
       -3    1    3    3    0  502 -0.18282860674E+02  0.77680145363E+03  0.14683192758E+04  0.16612393769E+04  0.10100000352E+00 0. -1.
</event>
<event>
 5   0  0.3701250E-08  0.3787563E+04  0.7818609E-02  0.8048829E-01
       -1   -1    0    0    0  501  0.00000000000E+00  0.00000000000E+00  0.13215026070E+04  0.13215026070E+04  0.50400001928E-02 0. -1.
        1   -1    0    0  501    0  0.00000000000E+00  0.00000000000E+00 -0.27138871398E+04  0.27138871398E+04  0.50400001928E-02 0.  1.
    10030    2    1    2    0    0  0.00000000000E+00  0.00000000000E+00 -0.13923845328E+04  0.40353897468E+04  0.37875632960E+04 0.  0.
        1    1    3    3  502    0  0.33659139093E+03  0.18598295342E+04 -0.82292610779E+03  0.20614235468E+04  0.50400001928E-02 0. -1.
       -1    1    3    3    0  502 -0.33659139093E+03 -0.18598295342E+04 -0.56945842498E+03  0.19739661999E+04  0.50400001928E-02 0.  1.
</event>
<event>
 5   0  0.3701250E-08  0.3700344E+04  0.7818609E-02  0.8067886E-01
       -1   -1    0    0    0  501  0.00000000000E+00  0.00000000000E+00  0.15374479304E+04  0.15374479304E+04  0.50400001928E-02 0.  1.
        1   -1    0    0  501    0  0.00000000000E+00  0.00000000000E+00 -0.22265054489E+04  0.22265054489E+04  0.50400001928E-02 0. -1.
    10030    2    1    2    0    0  0.00000000000E+00  0.00000000000E+00 -0.68905751852E+03  0.37639533792E+04  0.37003438728E+04 0.  0.
        2    1    3    3  502    0 -0.20076206724E+03  0.13361344130E+04  0.94115116474E+03  0.16466104858E+04  0.25500000920E-02 0.  1.
       -2    1    3    3    0  502  0.20076206724E+03 -0.13361344130E+04 -0.16302086833E+04  0.21173428934E+04  0.25500000920E-02 0. -1.
</event>
<event>
 5   0  0.7858367E-08  0.3792312E+04  0.7818609E-02  0.8047807E-01
        2   -1    0    0  501    0  0.00000000000E+00  0.00000000000E+00  0.26664372378E+04  0.26664372378E+04  0.25500000920E-02 0. -1.
       -2   -1    0    0    0  501  0.00000000000E+00  0.00000000000E+00 -0.13483939509E+04  0.13483939509E+04  0.25500000920E-02 0.  1.
    10030    2    1    2    0    0  0.00000000000E+00  0.00000000000E+00  0.13180432869E+04  0.40148311887E+04  0.37923121401E+04 0.  0.
        2    1    3    3  502    0 -0.16918461570E+04  0.58007289122E+03  0.13257187074E+04  0.22262879574E+04  0.25500000920E-02 0. -1.
       -2    1    3    3    0  502  0.16918461570E+04 -0.58007289122E+03 -0.76754205008E+01  0.17885432313E+04  0.25500000920E-02 0.  1.
</event>
<event>
 5   0  0.7858367E-08  0.3789196E+04  0.7818609E-02  0.8048477E-01
       -2   -1    0    0    0  501  0.00000000000E+00  0.00000000000E+00  0.14236588200E+04  0.14236588200E+04  0.25500000920E-02 0.  1.
        2   -1    0    0  501    0  0.00000000000E+00  0.00000000000E+00 -0.25213213742E+04  0.25213213742E+04  0.25500000920E-02 0. -1.
    10030    2    1    2    0    0  0.00000000000E+00  0.00000000000E+00 -0.10976625541E+04  0.39449801942E+04  0.37891959107E+04 0.  0.
        2    1    3    3  502    0 -0.37546972880E+03  0.81077133079E+03  0.11905356293E+04  0.14885236823E+04  0.25500000920E-02 0.  1.
       -2    1    3    3    0  502  0.37546972880E+03 -0.81077133079E+03 -0.22881981835E+04  0.24564565119E+04  0.25500000920E-02 0. -1.
</event>
<event>
 5   0  0.1150235E-07  0.3826885E+04  0.7818609E-02  0.8040410E-01
        2   -1    0    0  501    0  0.00000000000E+00  0.00000000000E+00  0.19439615348E+04  0.19439615348E+04  0.25500000920E-02 0.  1.
       -2   -1    0    0    0  501  0.00000000000E+00  0.00000000000E+00 -0.18834024497E+04  0.18834024497E+04  0.25500000920E-02 0. -1.
    10030    2    1    2    0    0  0.00000000000E+00  0.00000000000E+00  0.60559085179E+02  0.38273639845E+04  0.38268848516E+04 0.  0.
        4    1    3    3  502    0 -0.17804454161E+04 -0.43464177583E+03 -0.51966287976E+03  0.19049804394E+04  0.12699999809E+01 0. -1.
       -4    1    3    3    0  502  0.17804454161E+04  0.43464177583E+03  0.58022196494E+03  0.19223835451E+04  0.12699999809E+01 0.  1.
</event>
<event>
 5   0  0.1143283E-07  0.3838708E+04  0.7818609E-02  0.8037899E-01
        2   -1    0    0  501    0  0.00000000000E+00  0.00000000000E+00  0.28598048649E+04  0.28598048649E+04  0.25500000920E-02 0.  1.
       -2   -1    0    0    0  501  0.00000000000E+00  0.00000000000E+00 -0.12881716762E+04  0.12881716762E+04  0.25500000920E-02 0. -1.
    10030    2    1    2    0    0  0.00000000000E+00  0.00000000000E+00  0.15716331887E+04  0.41479765411E+04  0.38387079214E+04 0.  0.
        1    1    3    3  502    0  0.65107835489E+03 -0.11708759350E+04  0.22709819344E+04  0.26367048424E+04  0.50400001928E-02 0.  1.
       -1    1    3    3    0  502 -0.65107835489E+03  0.11708759350E+04 -0.69934874567E+03  0.15112716988E+04  0.50400001928E-02 0. -1.
</event>
<event>
 5   0  0.1174870E-07  0.3801279E+04  0.7818609E-02  0.8045880E-01
        2   -1    0    0  501    0  0.00000000000E+00  0.00000000000E+00  0.22521556200E+04  0.22521556200E+04  0.25500000920E-02 0. -1.
       -2   -1    0    0    0  501  0.00000000000E+00  0.00000000000E+00 -0.16039882046E+04  0.16039882046E+04  0.25500000920E-02 0.  1.
    10030    2    1    2    0    0  0.00000000000E+00  0.00000000000E+00  0.64816741533E+03  0.38561438246E+04  0.38012792844E+04 0.  0.
        5    1    3    3  502    0 -0.67689818320E+03 -0.16058426008E+04  0.10936416695E+04  0.20574245552E+04  0.46999998093E+01 0. -1.
       -5    1    3    3    0  502  0.67689818320E+03  0.16058426008E+04 -0.44547425414E+03  0.17987192694E+04  0.46999998093E+01 0.  1.
</event>
<event>
 5   0  0.7858367E-08  0.3831329E+04  0.7818609E-02  0.8039465E-01
        2   -1    0    0  501    0  0.00000000000E+00  0.00000000000E+00  0.30635983668E+04  0.30635983668E+04  0.25500000920E-02 0.  1.
       -2   -1    0    0    0  501  0.00000000000E+00  0.00000000000E+00 -0.11978628267E+04  0.11978628267E+04  0.25500000920E-02 0. -1.
    10030    2    1    2    0    0  0.00000000000E+00  0.00000000000E+00  0.18657355400E+04  0.42614611935E+04  0.38313290642E+04 0.  0.
        2    1    3    3  502    0 -0.38733490306E+02 -0.19152661089E+04  0.93854453000E+03  0.21332159726E+04  0.25500000920E-02 0.  1.
       -2    1    3    3    0  502  0.38733490306E+02  0.19152661089E+04  0.92719101005E+03  0.21282452209E+04  0.25500000920E-02 0. -1.
</event>
<event>
 5   0  0.1143283E-07  0.3801132E+04  0.7818609E-02  0.8045912E-01
        2   -1    0    0  501    0  0.00000000000E+00  0.00000000000E+00  0.24643640153E+04  0.24643640153E+04  0.25500000920E-02 0. -1.
       -2   -1    0    0    0  501  0.00000000000E+00  0.00000000000E+00 -0.14657542005E+04  0.14657542005E+04  0.25500000920E-02 0.  1.
    10030    2    1    2    0    0  0.00000000000E+00  0.00000000000E+00  0.99860981473E+03  0.39301182158E+04  0.38011324139E+04 0.  0.
        1    1    3    3  502    0  0.84060789702E+03  0.92644531095E+03 -0.98006188396E+03  0.15891645123E+04  0.50400001928E-02 0.  1.
       -1    1    3    3    0  502 -0.84060789702E+03 -0.92644531095E+03  0.19786716987E+04  0.23409537035E+04  0.50400001928E-02 0. -1.
</event>
<event>
 5   0  0.3889225E-08  0.3820542E+04  0.7818609E-02  0.8041761E-01
        1   -1    0    0  501    0  0.00000000000E+00  0.00000000000E+00  0.24083905563E+04  0.24083905563E+04  0.50400001928E-02 0.  1.
       -1   -1    0    0    0  501  0.00000000000E+00  0.00000000000E+00 -0.15151755983E+04  0.15151755983E+04  0.50400001928E-02 0. -1.
    10030    2    1    2    0    0  0.00000000000E+00  0.00000000000E+00  0.89321495804E+03  0.39235661546E+04  0.38205416380E+04 0.  0.
        5    1    3    3  502    0  0.18445355578E+03  0.99795848695E+03  0.21086332044E+04  0.23401496398E+04  0.46999998093E+01 0.  1.
       -5    1    3    3    0  502 -0.18445355578E+03 -0.99795848695E+03 -0.12154182463E+04  0.15834165148E+04  0.46999998093E+01 0. -1.
</event>
<event>
 5   0  0.3889225E-08  0.3816480E+04  0.7818609E-02  0.8042627E-01
        1   -1    0    0  501    0  0.00000000000E+00  0.00000000000E+00  0.25333059125E+04  0.25333059125E+04  0.50400001928E-02 0. -1.
       -1   -1    0    0    0  501  0.00000000000E+00  0.00000000000E+00 -0.14374026078E+04  0.14374026078E+04  0.50400001928E-02 0.  1.
    10030    2    1    2    0    0  0.00000000000E+00  0.00000000000E+00  0.10959033046E+04  0.39707085203E+04  0.38164803288E+04 0.  0.
        5    1    3    3  502    0 -0.13075015284E+04 -0.55202291369E+03 -0.77916149104E+03  0.16190751258E+04  0.46999998093E+01 0.  1.
       -5    1    3    3    0  502  0.13075015284E+04  0.55202291369E+03  0.18750647957E+04  0.23516333945E+04  0.46999998093E+01 0. -1.
</event>
<event>
 5   0  0.3701250E-08  0.3814445E+04  0.7818609E-02  0.8043062E-01
        1   -1    0    0  501    0  0.00000000000E+00  0.00000000000E+00  0.24179244167E+04  0.24179244167E+04  0.50400001928E-02 0.  1.
       -1   -1    0    0    0  501  0.00000000000E+00  0.00000000000E+00 -0.15043887047E+04  0.15043887047E+04  0.50400001928E-02 0. -1.
    10030    2    1    2    0    0  0.00000000000E+00  0.00000000000E+00  0.91353571198E+03  0.39223131214E+04  0.38144452710E+04 0.  0.
        1    1    3    3  502    0 -0.18170032902E+04  0.29790921468E+01 -0.13926881736E+03  0.18223352148E+04  0.50400001928E-02 0. -1.
       -1    1    3    3    0  502  0.18170032902E+04 -0.29790921468E+01  0.10528045293E+04  0.20999779067E+04  0.50400001928E-02 0.  1.
</event>
<event>
 5   0  0.1174870E-07  0.3773726E+04  0.7818609E-02  0.8051817E-01
        2   -1    0    0  501    0  0.00000000000E+00  0.00000000000E+00  0.21976346506E+04  0.21976346506E+04  0.25500000920E-02 0. -1.
       -2   -1    0    0    0  501  0.00000000000E+00  0.00000000000E+00 -0.16200383778E+04  0.16200383778E+04  0.25500000920E-02 0.  1.
    10030    2    1    2    0    0  0.00000000000E+00  0.00000000000E+00  0.57759627277E+03  0.38176730283E+04  0.37737262615E+04 0.  0.
        5    1    3    3  502    0 -0.19950458330E+03  0.88144859059E+03 -0.13868351255E+04  0.16553209513E+04  0.46999998093E+01 0.  1.
       -5    1    3    3    0  502  0.19950458330E+03 -0.88144859059E+03  0.19644313983E+04  0.21623520770E+04  0.46999998093E+01 0. -1.
</event>
<event>
 5   0  0.3701250E-08  0.3763605E+04  0.7818609E-02  0.8054010E-01
        1   -1    0    0  501    0  0.00000000000E+00  0.00000000000E+00  0.25199416025E+04  0.25199416025E+04  0.50400001928E-02 0. -1.
       -1   -1    0    0    0  501  0.00000000000E+00  0.00000000000E+00 -0.14052631987E+04  0.14052631987E+04  0.50400001928E-02 0.  1.
    10030    2    1    2    0    0  0.00000000000E+00  0.00000000000E+00  0.11146784038E+04  0.39252048012E+04  0.37636052911E+04 0.  0.
        4    1    3    3  502    0 -0.14808032937E+04 -0.11077951058E+04  0.19426634630E+03  0.18594970872E+04  0.12699999809E+01 0.  1.
       -4    1    3    3    0  502  0.14808032937E+04  0.11077951058E+04  0.92041205755E+03  0.20657077140E+04  0.12699999809E+01 0. -1.
</event>
<event>
 5   0  0.1143283E-07  0.3667265E+04  0.7818609E-02  0.8075255E-01
        2   -1    0    0  501    0  0.00000000000E+00  0.00000000000E+00  0.12641346686E+04  0.12641346687E+04  0.25500000920E-02 0. -1.
       -2   -1    0    0    0  501  0.00000000000E+00  0.00000000000E+00 -0.26596909527E+04  0.26596909527E+04  0.25500000920E-02 0.  1.
    10030    2    1    2    0    0  0.00000000000E+00  0.00000000000E+00 -0.13955562841E+04  0.39238256214E+04  0.36672646707E+04 0.  0.
        1    1    3    3  502    0 -0.77654196599E+03  0.13548449576E+04  0.33048895661E+03  0.15961971164E+04  0.50400001928E-02 0. -1.
       -1    1    3    3    0  502  0.77654196599E+03 -0.13548449576E+04 -0.17260452407E+04  0.23276285049E+04  0.50400001928E-02 0.  1.
</event>
<event>
 5   0  0.3701250E-08  0.3801425E+04  0.7818609E-02  0.8045849E-01
        3   -1    0    0  501    0  0.00000000000E+00  0.00000000000E+00  0.17545158602E+04  0.17545158631E+04  0.10100000352E+00 0.  1.
       -3   -1    0    0    0  501  0.00000000000E+00  0.00000000000E+00 -0.20590908540E+04  0.20590908565E+04  0.10100000352E+00 0. -1.
    10030    2    1    2    0    0  0.00000000000E+00  0.00000000000E+00 -0.30457499387E+03  0.38136067196E+04  0.38014247704E+04 0.  0.
        1    1    3    3  502    0  0.12539442156E+04  0.79395208396E+02 -0.15830513322E+04  0.20210717987E+04  0.50400001928E-02 0. -1.
       -1    1    3    3    0  502 -0.12539442156E+04 -0.79395208396E+02  0.12784763383E+04  0.17925349209E+04  0.50400001928E-02 0.  1.
</event>
<event>
 5   0  0.7858367E-08  0.3783972E+04  0.7818609E-02  0.8049603E-01
        2   -1    0    0  501    0  0.00000000000E+00  0.00000000000E+00  0.19475473511E+04  0.19475473511E+04  0.25500000920E-02 0.  1.
       -2   -1    0    0    0  501  0.00000000000E+00  0.00000000000E+00 -0.18380096417E+04  0.18380096417E+04  0.25500000920E-02 0. -1.
    10030    2    1    2    0    0  0.00000000000E+00  0.00000000000E+00  0.10953770938E+03  0.37855569928E+04  0.37839718862E+04 0.  0.
        2    1    3    3  502    0  0.78584380664E+03  0.13551406179E+04  0.11161818267E+04  0.19234912147E+04  0.25500000920E-02 0.  1.
       -2    1    3    3    0  502 -0.78584380664E+03 -0.13551406179E+04 -0.10066441173E+04  0.18620657781E+04  0.25500000920E-02 0. -1.
</event>
<event>
 5   0  0.3889225E-08  0.3829997E+04  0.7818609E-02  0.8039748E-01
       -1   -1    0    0    0  501  0.00000000000E+00  0.00000000000E+00  0.15797048486E+04  0.15797048486E+04  0.50400001928E-02 0. -1.
        1   -1    0    0  501    0  0.00000000000E+00  0.00000000000E+00 -0.23214588002E+04  0.23214588002E+04  0.50400001928E-02 0.  1.
    10030    2    1    2    0    0  0.00000000000E+00  0.00000000000E+00 -0.74175395163E+03  0.39011636488E+04  0.38299972441E+04 0.  0.
        5    1    3    3  502    0 -0.87654687982E+03 -0.85518898696E+03  0.11287276202E+04  0.16654521208E+04  0.46999998093E+01 0. -1.
       -5    1    3    3    0  502  0.87654687982E+03  0.85518898696E+03 -0.18704815718E+04  0.22357115280E+04  0.46999998093E+01 0.  1.
</event>
<event>
 5   0  0.7858367E-08  0.3816398E+04  0.7818609E-02  0.8042645E-01
       -2   -1    0    0    0  501  0.00000000000E+00  0.00000000000E+00  0.17979897397E+04  0.17979897397E+04  0.25500000920E-02 0.  1.
        2   -1    0    0  501    0  0.00000000000E+00  0.00000000000E+00 -0.20251640689E+04  0.20251640689E+04  0.25500000920E-02 0. -1.
    10030    2    1    2    0    0  0.00000000000E+00  0.00000000000E+00 -0.22717432912E+03  0.38231538086E+04  0.38163984158E+04 0.  0.
        2    1    3    3  502    0 -0.66768181148E+03 -0.88284957698E+03 -0.16706878427E+04  0.20041008569E+04  0.25500000920E-02 0. -1.
       -2    1    3    3    0  502  0.66768181148E+03  0.88284957698E+03  0.14435135136E+04  0.18190529516E+04  0.25500000920E-02 0.  1.
</event>
<event>
 5   0  0.1193861E-07  0.3610536E+04  0.7818609E-02  0.8088082E-01
        2   -1    0    0  501    0  0.00000000000E+00  0.00000000000E+00  0.25245213385E+04  0.25245213385E+04  0.25500000920E-02 0. -1.
       -2   -1    0    0    0  501  0.00000000000E+00  0.00000000000E+00 -0.12909351344E+04  0.12909351344E+04  0.25500000920E-02 0.  1.
    10030    2    1    2    0    0  0.00000000000E+00  0.00000000000E+00  0.12335862042E+04  0.38154564729E+04  0.36105364108E+04 0.  0.
        3    1    3    3  502    0  0.16444795129E+04 -0.63427745184E+03  0.10292970525E+04  0.20410960749E+04  0.10100000352E+00 0. -1.
       -3    1    3    3    0  502 -0.16444795129E+04  0.63427745184E+03  0.20428915162E+03  0.17743603980E+04  0.10100000352E+00 0.  1.
</event>
<event>
 5   0  0.3701250E-08  0.3818909E+04  0.7818609E-02  0.8042109E-01
       -1   -1    0    0    0  501  0.00000000000E+00  0.00000000000E+00  0.14638344483E+04  0.14638344483E+04  0.50400001928E-02 0. -1.
        1   -1    0    0  501    0  0.00000000000E+00  0.00000000000E+00 -0.24907301478E+04  0.24907301479E+04  0.50400001928E-02 0.  1.
    10030    2    1    2    0    0  0.00000000000E+00  0.00000000000E+00 -0.10268956996E+04  0.39545645961E+04  0.38189090546E+04 0.  0.
        2    1    3    3  502    0  0.60995407697E+03  0.61221639132E+03  0.12497284014E+04  0.15194321186E+04  0.25500000920E-02 0. -1.
       -2    1    3    3    0  502 -0.60995407697E+03 -0.61221639132E+03 -0.22766241010E+04  0.24351324775E+04  0.25500000920E-02 0.  1.
</event>
<event>
 5   0  0.1143283E-07  0.3833521E+04  0.7818609E-02  0.8038999E-01
       -2   -1    0    0    0  501  0.00000000000E+00  0.00000000000E+00  0.17945943607E+04  0.17945943607E+04  0.25500000920E-02 0.  1.
        2   -1    0    0  501    0  0.00000000000E+00  0.00000000000E+00 -0.20472428147E+04  0.20472428147E+04  0.25500000920E-02 0. -1.
    10030    2    1    2    0    0  0.00000000000E+00  0.00000000000E+00 -0.25264845395E+03  0.38418371754E+04  0.38335207892E+04 0.  0.
        1    1    3    3  502    0  0.12660964529E+04  0.33976064218E+03 -0.15277615972E+04  0.20130804802E+04  0.50400001928E-02 0. -1.
       -1    1    3    3    0  502 -0.12660964529E+04 -0.33976064218E+03  0.12751131433E+04  0.18287566952E+04  0.50400001928E-02 0.  1.
</event>
<event>
 5   0  0.3889225E-08  0.3754002E+04  0.7818609E-02  0.8056099E-01
       -1   -1    0    0    0  501  0.00000000000E+00  0.00000000000E+00  0.14855864557E+04  0.14855864557E+04  0.50400001928E-02 0.  1.
        1   -1    0    0  501    0  0.00000000000E+00  0.00000000000E+00 -0.23715434029E+04  0.23715434029E+04  0.50400001928E-02 0. -1.
    10030    2    1    2    0    0  0.00000000000E+00  0.00000000000E+00 -0.88595694717E+03  0.38571298586E+04  0.37540020024E+04 0.  0.
        5    1    3    3  502    0  0.68686466666E+03 -0.17398712061E+04 -0.28322141860E+03  0.18918698016E+04  0.46999998093E+01 0.  1.
       -5    1    3    3    0  502 -0.68686466666E+03  0.17398712061E+04 -0.60273552857E+03  0.19652600570E+04  0.46999998093E+01 0. -1.
</event>
<event>
 5   0  0.3701250E-08  0.3805122E+04  0.7818609E-02  0.8045057E-01
       -1   -1    0    0    0  501  0.00000000000E+00  0.00000000000E+00  0.18181626513E+04  0.18181626513E+04  0.50400001928E-02 0. -1.
        1   -1    0    0  501    0  0.00000000000E+00  0.00000000000E+00 -0.19908772424E+04  0.19908772424E+04  0.50400001928E-02 0.  1.
    10030    2    1    2    0    0  0.00000000000E+00  0.00000000000E+00 -0.17271459111E+03  0.38090398937E+04  0.38051221507E+04 0.  0.
        1    1    3    3  502    0  0.62557905619E+02 -0.18147931011E+04  0.48198703608E+03  0.18787493166E+04  0.50400001928E-02 0. -1.
       -1    1    3    3    0  502 -0.62557905619E+02  0.18147931011E+04 -0.65470162719E+03  0.19302905771E+04  0.50400001928E-02 0.  1.
</event>
<event>
 5   0  0.3701250E-08  0.3815160E+04  0.7818609E-02  0.8042909E-01
        1   -1    0    0  501    0  0.00000000000E+00  0.00000000000E+00  0.21370636802E+04  0.21370636802E+04  0.50400001928E-02 0. -1.
       -1   -1    0    0    0  501  0.00000000000E+00  0.00000000000E+00 -0.17027389387E+04  0.17027389387E+04  0.50400001928E-02 0.  1.
    10030    2    1    2    0    0  0.00000000000E+00  0.00000000000E+00  0.43432474152E+03  0.38398026189E+04  0.38151600453E+04 0.  0.
        3    1    3    3  502    0 -0.72587612444E+03  0.17552782169E+04  0.39426419149E+03  0.19399335117E+04  0.10100000352E+00 0. -1.
       -3    1    3    3    0  502  0.72587612444E+03 -0.17552782169E+04  0.40060550032E+02  0.18998691072E+04  0.10100000352E+00 0.  1.
</event>
<event>
 5   0  0.3701250E-08  0.3788903E+04  0.7818609E-02  0.8048540E-01
        1   -1    0    0  501    0  0.00000000000E+00  0.00000000000E+00  0.26211771077E+04  0.26211771077E+04  0.50400001928E-02 0.  1.
       -1   -1    0    0    0  501  0.00000000000E+00  0.00000000000E+00 -0.13692119829E+04  0.13692119829E+04  0.50400001928E-02 0. -1.
    10030    2    1    2    0    0  0.00000000000E+00  0.00000000000E+00  0.12519651248E+04  0.39903890906E+04  0.37889033269E+04 0.  0.
        4    1    3    3  502    0  0.51036299379E+03 -0.34359902805E+03 -0.12610626052E+04  0.14031433229E+04  0.12699999809E+01 0. -1.
       -4    1    3    3    0  502 -0.51036299379E+03  0.34359902805E+03  0.25130277300E+04  0.25872457677E+04  0.12699999809E+01 0.  1.
</event>
<event>
 5   0  0.1143283E-07  0.3799257E+04  0.7818609E-02  0.8046314E-01
       -2   -1    0    0    0  501  0.00000000000E+00  0.00000000000E+00  0.17189292508E+04  0.17189292508E+04  0.25500000920E-02 0. -1.
        2   -1    0    0  501    0  0.00000000000E+00  0.00000000000E+00 -0.20993237028E+04  0.20993237028E+04  0.25500000920E-02 0.  1.
    10030    2    1    2    0    0  0.00000000000E+00  0.00000000000E+00 -0.38039445199E+03  0.38182529536E+04  0.37992572535E+04 0.  0.
        1    1    3    3  502    0  0.85838113194E+03  0.10241647063E+04  0.11666855938E+04  0.17739466700E+04  0.50400001928E-02 0. -1.
       -1    1    3    3    0  502 -0.85838113194E+03 -0.10241647063E+04 -0.15470800458E+04  0.20443062836E+04  0.50400001928E-02 0.  1.
</event>
<event>
 5   0  0.3889225E-08  0.3802744E+04  0.7818609E-02  0.8045566E-01
        1   -1    0    0  501    0  0.00000000000E+00  0.00000000000E+00  0.22115014464E+04  0.22115014464E+04  0.50400001928E-02 0.  1.
       -1   -1    0    0    0  501  0.00000000000E+00  0.00000000000E+00 -0.16347331288E+04  0.16347331288E+04  0.50400001928E-02 0. -1.
    10030    2    1    2    0    0  0.00000000000E+00  0.00000000000E+00  0.57676831756E+03  0.38462345752E+04  0.38027435774E+04 0.  0.
        5    1    3    3  502    0  0.15937301694E+03 -0.11184176053E+04  0.18352327007E+04  0.21550774589E+04  0.46999998093E+01 0.  1.
       -5    1    3    3    0  502 -0.15937301694E+03  0.11184176053E+04 -0.12584643831E+04  0.16911571163E+04  0.46999998093E+01 0. -1.
</event>
<event>
 5   0  0.1143283E-07  0.3803087E+04  0.7818609E-02  0.8045493E-01
        2   -1    0    0  501    0  0.00000000000E+00  0.00000000000E+00  0.22450725500E+04  0.22450725500E+04  0.25500000920E-02 0. -1.
       -2   -1    0    0    0  501  0.00000000000E+00  0.00000000000E+00 -0.16105796513E+04  0.16105796513E+04  0.25500000920E-02 0.  1.
    10030    2    1    2    0    0  0.00000000000E+00  0.00000000000E+00  0.63449289870E+03  0.38556522013E+04  0.38030872536E+04 0.  0.
        1    1    3    3  502    0 -0.55537927382E+03 -0.14459433520E+04 -0.80102679709E+03  0.17438010909E+04  0.50400001928E-02 0.  1.
       -1    1    3    3    0  502  0.55537927382E+03  0.14459433520E+04  0.14355196958E+04  0.21118511103E+04  0.50400001928E-02 0. -1.
</event>
<event>
 5   0  0.1174870E-07  0.3800970E+04  0.7818609E-02  0.8045947E-01
        2   -1    0    0  501    0  0.00000000000E+00  0.00000000000E+00  0.22618597265E+04  0.22618597265E+04  0.25500000920E-02 0. -1.
       -2   -1    0    0    0  501  0.00000000000E+00  0.00000000000E+00 -0.15968464014E+04  0.15968464014E+04  0.25500000920E-02 0.  1.
    10030    2    1    2    0    0  0.00000000000E+00  0.00000000000E+00  0.66501332516E+03  0.38587061279E+04  0.38009696472E+04 0.  0.
        5    1    3    3  502    0  0.15360479027E+03  0.18607234352E+04 -0.27756112273E+02  0.18672650122E+04  0.46999998093E+01 0.  1.
       -5    1    3    3    0  502 -0.15360479027E+03 -0.18607234352E+04  0.69276943743E+03  0.19914411157E+04  0.46999998093E+01 0. -1.
</event>
<event>
 5   0  0.3701250E-08  0.3795656E+04  0.7818609E-02  0.8047088E-01
        1   -1    0    0  501    0  0.00000000000E+00  0.00000000000E+00  0.21118416594E+04  0.21118416594E+04  0.50400001928E-02 0. -1.
       -1   -1    0    0    0  501  0.00000000000E+00  0.00000000000E+00 -0.17055021958E+04  0.17055021958E+04  0.50400001928E-02 0.  1.
    10030    2    1    2    0    0  0.00000000000E+00  0.00000000000E+00  0.40633946357E+03  0.38173438552E+04  0.37956557206E+04 0.  0.
        2    1    3    3  502    0  0.11512737162E+04  0.41004466079E+03  0.16634243904E+04  0.20641096134E+04  0.25500000920E-02 0. -1.
       -2    1    3    3    0  502 -0.11512737162E+04 -0.41004466079E+03 -0.12570849268E+04  0.17532342418E+04  0.25500000920E-02 0.  1.
</event>
<event>
 5   0  0.3701250E-08  0.3809363E+04  0.7818609E-02  0.8044149E-01
        1   -1    0    0  501    0  0.00000000000E+00  0.00000000000E+00  0.15288332860E+04  0.15288332860E+04  0.50400001928E-02 0. -1.
       -1   -1    0    0    0  501  0.00000000000E+00  0.00000000000E+00 -0.23729281067E+04  0.23729281067E+04  0.50400001928E-02 0.  1.
    10030    2    1    2    0    0  0.00000000000E+00  0.00000000000E+00 -0.84409482075E+03  0.39017613927E+04  0.38093629256E+04 0.  0.
        4    1    3    3  502    0 -0.13985858306E+04  0.11041021887E+04 -0.11112168699E+04  0.20999734554E+04  0.12699999809E+01 0.  1.
       -4    1    3    3    0  502  0.13985858306E+04 -0.11041021887E+04  0.26712204918E+03  0.18017879372E+04  0.12699999809E+01 0. -1.
</event>
<event>
 5   0  0.7858367E-08  0.3711759E+04  0.7818609E-02  0.8065361E-01
        2   -1    0    0  501    0  0.00000000000E+00  0.00000000000E+00  0.15781578221E+04  0.15781578221E+04  0.25500000920E-02 0. -1.
       -2   -1    0    0    0  501  0.00000000000E+00  0.00000000000E+00 -0.21824741089E+04  0.21824741089E+04  0.25500000920E-02 0.  1.
    10030    2    1    2    0    0  0.00000000000E+00  0.00000000000E+00 -0.60431628675E+03  0.37606319310E+04  0.37117589289E+04 0.  0.
        2    1    3    3  502    0  0.16829692099E+04  0.60198057148E+03 -0.80825777970E+03  0.19616438536E+04  0.25500000920E-02 0.  1.
       -2    1    3    3    0  502 -0.16829692099E+04 -0.60198057148E+03  0.20394149295E+03  0.17989880774E+04  0.25500000920E-02 0. -1.
</event>
<event>
 5   0  0.1143283E-07  0.3792168E+04  0.7818609E-02  0.8047838E-01
        2   -1    0    0  501    0  0.00000000000E+00  0.00000000000E+00  0.18242920222E+04  0.18242920222E+04  0.25500000920E-02 0.  1.
       -2   -1    0    0    0  501  0.00000000000E+00  0.00000000000E+00 -0.19707009449E+04  0.19707009449E+04  0.25500000920E-02 0. -1.
    10030    2    1    2    0    0  0.00000000000E+00  0.00000000000E+00 -0.14640892271E+03  0.37949929672E+04  0.37921677242E+04 0.  0.
        1    1    3    3  502    0  0.53420472111E+03 -0.17236786031E+04  0.50920111315E+03  0.18750275690E+04  0.50400001928E-02 0. -1.
       -1    1    3    3    0  502 -0.53420472111E+03  0.17236786031E+04 -0.65561003587E+03  0.19199653982E+04  0.50400001928E-02 0.  1.
</event>
<event>
 5   0  0.3701250E-08  0.3787611E+04  0.7818609E-02  0.8048819E-01
        1   -1    0    0  501    0  0.00000000000E+00  0.00000000000E+00  0.23866790745E+04  0.23866790745E+04  0.50400001928E-02 0.  1.
       -1   -1    0    0    0  501  0.00000000000E+00  0.00000000000E+00 -0.15027153591E+04  0.15027153591E+04  0.50400001928E-02 0. -1.
    10030    2    1    2    0    0  0.00000000000E+00  0.00000000000E+00  0.88396371535E+03  0.38893944336E+04  0.37876110162E+04 0.  0.
        1    1    3    3  502    0  0.63723261297E+03 -0.17753533318E+04  0.61550343706E+03  0.19841344049E+04  0.50400001928E-02 0.  1.
       -1    1    3    3    0  502 -0.63723261297E+03  0.17753533318E+04  0.26846027829E+03  0.19052600287E+04  0.50400001928E-02 0. -1.
</event>
<event>
 5   0  0.1193861E-07  0.3795055E+04  0.7818609E-02  0.8047217E-01
       -2   -1    0    0    0  501  0.00000000000E+00  0.00000000000E+00  0.14540778775E+04  0.14540778775E+04  0.25500000920E-02 0. -1.
        2   -1    0    0  501    0  0.00000000000E+00  0.00000000000E+00 -0.24762156913E+04  0.24762156913E+04  0.25500000920E-02 0.  1.
    10030    2    1    2    0    0  0.00000000000E+00  0.00000000000E+00 -0.10221378138E+04  0.39302935688E+04  0.37950549175E+04 0.  0.
        3    1    3    3  502    0  0.31738675021E+03  0.24506708003E+03 -0.24318358480E+04  0.24646739794E+04  0.10100000352E+00 0.  1.
       -3    1    3    3    0  502 -0.31738675021E+03 -0.24506708003E+03  0.14096980342E+04  0.14656195894E+04  0.10100000352E+00 0. -1.
</event>
<event>
 5   0  0.3701250E-08  0.3785167E+04  0.7818609E-02  0.8049346E-01
       -1   -1    0    0    0  501  0.00000000000E+00  0.00000000000E+00  0.19839612793E+04  0.19839612793E+04  0.50400001928E-02 0. -1.
        1   -1    0    0  501    0  0.00000000000E+00  0.00000000000E+00 -0.18054140413E+04  0.18054140413E+04  0.50400001928E-02 0.  1.
    10030    2    1    2    0    0  0.00000000000E+00  0.00000000000E+00  0.17854723806E+03  0.37893753206E+04  0.37851666019E+04 0.  0.
        4    1    3    3  502    0 -0.22686797554E+03  0.10156000145E+03  0.19675490863E+04  0.19831879720E+04  0.12699999809E+01 0. -1.
       -4    1    3    3    0  502  0.22686797554E+03 -0.10156000145E+03 -0.17890018483E+04  0.18061873486E+04  0.12699999809E+01 0.  1.
</event>
<event>
 5   0  0.3889225E-08  0.3817621E+04  0.7818609E-02  0.8042384E-01
        1   -1    0    0  501    0  0.00000000000E+00  0.00000000000E+00  0.22403626978E+04  0.22403626978E+04  0.50400001928E-02 0.  1.
       -1   -1    0    0    0  501  0.00000000000E+00  0.00000000000E+00 -0.16263245455E+04  0.16263245455E+04  0.50400001928E-02 0. -1.
    10030    2    1    2    0    0  0.00000000000E+00  0.00000000000E+00  0.61403815234E+03  0.38666872433E+04  0.38176206444E+04 0.  0.
        5    1    3    3  502    0 -0.12984920650E+04  0.13682485485E+04  0.11118676654E+02  0.18863540093E+04  0.46999998093E+01 0.  1.
       -5    1    3    3    0  502  0.12984920650E+04 -0.13682485485E+04  0.60291947569E+03  0.19803332340E+04  0.46999998093E+01 0. -1.
</event>
<event>
 5   0  0.7858367E-08  0.3867868E+04  0.7818609E-02  0.8031745E-01
       -2   -1    0    0    0  501  0.00000000000E+00  0.00000000000E+00  0.12997201026E+04  0.12997201026E+04  0.25500000920E-02 0. -1.
        2   -1    0    0  501    0  0.00000000000E+00  0.00000000000E+00 -0.28776206194E+04  0.28776206194E+04  0.25500000920E-02 0.  1.
    10030    2    1    2    0    0  0.00000000000E+00  0.00000000000E+00 -0.15779005168E+04  0.41773407220E+04  0.38678683363E+04 0.  0.
        2    1    3    3  502    0  0.11286726533E+04  0.91851382042E+03  0.58675317825E+03  0.15690280076E+04  0.25500000920E-02 0. -1.
       -2    1    3    3    0  502 -0.11286726533E+04 -0.91851382042E+03 -0.21646536951E+04  0.26083127144E+04  0.25500000920E-02 0.  1.
</event>
<event>
 5   0  0.3701250E-08  0.3810787E+04  0.7818609E-02  0.8043844E-01
        1   -1    0    0  501    0  0.00000000000E+00  0.00000000000E+00  0.12362568335E+04  0.12362568336E+04  0.50400001928E-02 0. -1.
       -1   -1    0    0    0  501  0.00000000000E+00  0.00000000000E+00 -0.29367074612E+04  0.29367074612E+04  0.50400001928E-02 0.  1.
    10030    2    1    2    0    0  0.00000000000E+00  0.00000000000E+00 -0.17004506276E+04  0.41729642947E+04  0.38107871455E+04 0.  0.
        1    1    3    3  502    0  0.82346635193E+03  0.39585084561E+03 -0.26811799573E+04  0.28325819826E+04  0.50400001928E-02 0.  1.
       -1    1    3    3    0  502 -0.82346635193E+03 -0.39585084561E+03  0.98072932963E+03  0.13403823122E+04  0.50400001928E-02 0. -1.
</event>
<event>
 5   0  0.1174870E-07  0.3819970E+04  0.7818609E-02  0.8041883E-01
        2   -1    0    0  501    0  0.00000000000E+00  0.00000000000E+00  0.13925431100E+04  0.13925431100E+04  0.25500000920E-02 0.  1.
       -2   -1    0    0    0  501  0.00000000000E+00  0.00000000000E+00 -0.26196976440E+04  0.26196976440E+04  0.25500000920E-02 0. -1.
    10030    2    1    2    0    0  0.00000000000E+00  0.00000000000E+00 -0.12271545340E+04  0.40122407541E+04  0.38199695834E+04 0.  0.
        5    1    3    3  502    0  0.10182631590E+04  0.15076952126E+04 -0.29233733608E+01  0.18193502552E+04  0.46999998093E+01 0.  1.
       -5    1    3    3    0  502 -0.10182631590E+04 -0.15076952126E+04 -0.12242311606E+04  0.21928904988E+04  0.46999998093E+01 0. -1.
</event>
<event>
 5   0  0.1174870E-07  0.3815889E+04  0.7818609E-02  0.8042754E-01
        2   -1    0    0  501    0  0.00000000000E+00  0.00000000000E+00  0.25509172998E+04  0.25509172998E+04  0.25500000920E-02 0. -1.
       -2   -1    0    0    0  501  0.00000000000E+00  0.00000000000E+00 -0.14270364531E+04  0.14270364531E+04  0.25500000920E-02 0.  1.
    10030    2    1    2    0    0  0.00000000000E+00  0.00000000000E+00  0.11238808467E+04  0.39779537529E+04  0.38158888746E+04 0.  0.
        5    1    3    3  502    0  0.22210027380E+03 -0.70254333554E+03  0.23966107888E+04  0.25073214857E+04  0.46999998093E+01 0. -1.
       -5    1    3    3    0  502 -0.22210027380E+03  0.70254333554E+03 -0.12727299421E+04  0.14706322672E+04  0.46999998093E+01 0.  1.
</event>
<event>
 5   0  0.1150235E-07  0.3821831E+04  0.7818609E-02  0.8041486E-01
       -2   -1    0    0    0  501  0.00000000000E+00  0.00000000000E+00  0.14086612611E+04  0.14086612611E+04  0.25500000920E-02 0. -1.
        2   -1    0    0  501    0  0.00000000000E+00  0.00000000000E+00 -0.25922471084E+04  0.25922471084E+04  0.25500000920E-02 0.  1.
    10030    2    1    2    0    0  0.00000000000E+00  0.00000000000E+00 -0.11835858473E+04  0.40009083695E+04  0.38218310171E+04 0.  0.
        4    1    3    3  502    0  0.86385421935E+03  0.16746652988E+04 -0.92423947302E+03  0.20988016085E+04  0.12699999809E+01 0. -1.
       -4    1    3    3    0  502 -0.86385421935E+03 -0.16746652988E+04 -0.25934637423E+03  0.19021067610E+04  0.12699999809E+01 0.  1.
</event>
<event>
 5   0  0.1174870E-07  0.3799505E+04  0.7818609E-02  0.8046261E-01
        2   -1    0    0  501    0  0.00000000000E+00  0.00000000000E+00  0.25217883357E+04  0.25217883357E+04  0.25500000920E-02 0. -1.
       -2   -1    0    0    0  501  0.00000000000E+00  0.00000000000E+00 -0.14311505498E+04  0.14311505498E+04  0.25500000920E-02 0.  1.
    10030    2    1    2    0    0  0.00000000000E+00  0.00000000000E+00  0.10906377859E+04  0.39529388855E+04  0.37995045798E+04 0.  0.
        5    1    3    3  502    0 -0.44991472331E+03  0.20194363612E+03 -0.13633885057E+04  0.14498464739E+04  0.46999998093E+01 0.  1.
       -5    1    3    3    0  502  0.44991472331E+03 -0.20194363612E+03  0.24540262916E+04  0.25030924115E+04  0.46999998093E+01 0. -1.
</event>
<event>
 5   0  0.3701250E-08  0.3875701E+04  0.7818609E-02  0.8030102E-01
       -1   -1    0    0    0  501  0.00000000000E+00  0.00000000000E+00  0.15137907071E+04  0.15137907071E+04  0.50400001928E-02 0.  1.
        1   -1    0    0  501    0  0.00000000000E+00  0.00000000000E+00 -0.24807031766E+04  0.24807031766E+04  0.50400001928E-02 0. -1.
    10030    2    1    2    0    0  0.00000000000E+00  0.00000000000E+00 -0.96691246953E+03  0.39944938837E+04  0.38757014414E+04 0.  0.
        3    1    3    3  502    0 -0.18108940394E+04 -0.18214758726E+03  0.20233344725E+03  0.18312437849E+04  0.10100000352E+00 0.  1.
       -3    1    3    3    0  502  0.18108940394E+04  0.18214758726E+03 -0.11692459168E+04  0.21632500988E+04  0.10100000352E+00 0. -1.
</event>
<event>
 5   0  0.3701250E-08  0.3785769E+04  0.7818609E-02  0.8049216E-01
        1   -1    0    0  501    0  0.00000000000E+00  0.00000000000E+00  0.24395203398E+04  0.24395203398E+04  0.50400001928E-02 0.  1.
       -1   -1    0    0    0  501  0.00000000000E+00  0.00000000000E+00 -0.14687363333E+04  0.14687363333E+04  0.50400001928E-02 0. -1.
    10030    2    1    2    0    0  0.00000000000E+00  0.00000000000E+00  0.97078400652E+03  0.39082566731E+04  0.37857692264E+04 0.  0.
        2    1    3    3  502    0  0.15138240718E+04 -0.10114954144E+04  0.10200539421E+04  0.20869346752E+04  0.25500000920E-02 0.  1.
       -2    1    3    3    0  502 -0.15138240718E+04  0.10114954144E+04 -0.49269935563E+02  0.18213219979E+04  0.25500000920E-02 0. -1.
</event>
<event>
 5   0  0.1143283E-07  0.3802092E+04  0.7818609E-02  0.8045706E-01
        2   -1    0    0  501    0  0.00000000000E+00  0.00000000000E+00  0.17309418077E+04  0.17309418077E+04  0.25500000920E-02 0.  1.
       -2   -1    0    0    0  501  0.00000000000E+00  0.00000000000E+00 -0.20878665629E+04  0.20878665629E+04  0.25500000920E-02 0. -1.
    10030    2    1    2    0    0  0.00000000000E+00  0.00000000000E+00 -0.35692475514E+03  0.38188083706E+04  0.38020918046E+04 0.  0.
        1    1    3    3  502    0 -0.56982424974E+03 -0.42739793015E+03  0.15918439229E+04  0.17439425854E+04  0.50400001928E-02 0.  1.
       -1    1    3    3    0  502  0.56982424974E+03  0.42739793015E+03 -0.19487686780E+04  0.20748657852E+04  0.50400001928E-02 0. -1.
</event>
<event>
 5   0  0.3889225E-08  0.3804384E+04  0.7818609E-02  0.8045215E-01
        1   -1    0    0  501    0  0.00000000000E+00  0.00000000000E+00  0.20253865581E+04  0.20253865581E+04  0.50400001928E-02 0. -1.
       -1   -1    0    0    0  501  0.00000000000E+00  0.00000000000E+00 -0.17864909632E+04  0.17864909632E+04  0.50400001928E-02 0.  1.
    10030    2    1    2    0    0  0.00000000000E+00  0.00000000000E+00  0.23889559490E+03  0.38118775214E+04  0.38043841989E+04 0.  0.
        5    1    3    3  502    0  0.45778702462E+03 -0.17326711710E+04 -0.51945565729E+03  0.18658978045E+04  0.46999998093E+01 0. -1.
       -5    1    3    3    0  502 -0.45778702462E+03  0.17326711710E+04  0.75835125219E+03  0.19459797169E+04  0.46999998093E+01 0.  1.
</event>
<event>
 5   0  0.3701250E-08  0.3808276E+04  0.7818609E-02  0.8044381E-01
        1   -1    0    0  501    0  0.00000000000E+00  0.00000000000E+00  0.14510167519E+04  0.14510167519E+04  0.50400001928E-02 0.  1.
       -1   -1    0    0    0  501  0.00000000000E+00  0.00000000000E+00 -0.24987586764E+04  0.24987586764E+04  0.50400001928E-02 0. -1.
    10030    2    1    2    0    0  0.00000000000E+00  0.00000000000E+00 -0.10477419245E+04  0.39497754283E+04  0.38082755669E+04 0.  0.
        4    1    3    3  502    0  0.88847178734E+03 -0.11026101312E+03  0.12191062995E+04  0.15125347567E+04  0.12699999809E+01 0.  1.
       -4    1    3    3    0  502 -0.88847178734E+03  0.11026101312E+03 -0.22668482240E+04  0.24372406716E+04  0.12699999809E+01 0. -1.
</event>
<event>
 5   0  0.3701250E-08  0.3789486E+04  0.7818609E-02  0.8048415E-01
       -1   -1    0    0    0  501  0.00000000000E+00  0.00000000000E+00  0.18846402593E+04  0.18846402593E+04  0.50400001928E-02 0. -1.
        1   -1    0    0  501    0  0.00000000000E+00  0.00000000000E+00 -0.19048998424E+04  0.19048998424E+04  0.50400001928E-02 0.  1.
    10030    2    1    2    0    0  0.00000000000E+00  0.00000000000E+00 -0.20259583132E+02  0.37895401017E+04  0.37894859456E+04 0.  0.
        1    1    3    3  502    0  0.41900423712E+03  0.30887872401E+02 -0.18577309089E+04  0.19046476686E+04  0.50400001928E-02 0.  1.
       -1    1    3    3    0  502 -0.41900423712E+03 -0.30887872401E+02  0.18374713258E+04  0.18848924331E+04  0.50400001928E-02 0. -1.
</event>
<event>
 5   0  0.1150235E-07  0.3797806E+04  0.7818609E-02  0.8046626E-01
        2   -1    0    0  501    0  0.00000000000E+00  0.00000000000E+00  0.24005166488E+04  0.24005166488E+04  0.25500000920E-02 0.  1.
       -2   -1    0    0    0  501  0.00000000000E+00  0.00000000000E+00 -0.15021065028E+04  0.15021065028E+04  0.25500000920E-02 0. -1.
    10030    2    1    2    0    0  0.00000000000E+00  0.00000000000E+00  0.89841014606E+03  0.39026231516E+04  0.37978055075E+04 0.  0.
        4    1    3    3  502    0 -0.53606900061E+03  0.15359057518E+04  0.14557563074E+04  0.21830264523E+04  0.12699999809E+01 0.  1.
       -4    1    3    3    0  502  0.53606900061E+03 -0.15359057518E+04 -0.55734616139E+03  0.17195966993E+04  0.12699999809E+01 0. -1.
</event>
<event>
 5   0  0.3701250E-08  0.3799050E+04  0.7818609E-02  0.8046359E-01
        1   -1    0    0  501    0  0.00000000000E+00  0.00000000000E+00  0.17321870888E+04  0.17321870888E+04  0.50400001928E-02 0.  1.
       -1   -1    0    0    0  501  0.00000000000E+00  0.00000000000E+00 -0.20830283735E+04  0.20830283735E+04  0.50400001928E-02 0. -1.
    10030    2    1    2    0    0  0.00000000000E+00  0.00000000000E+00 -0.35084128465E+03  0.38152154623E+04  0.37990498045E+04 0.  0.
        1    1    3    3  502    0  0.16921198306E+04  0.42078509128E+03  0.58135426792E+03  0.18380158865E+04  0.50400001928E-02 0. -1.
       -1    1    3    3    0  502 -0.16921198306E+04 -0.42078509128E+03 -0.93219555256E+03  0.19771995758E+04  0.50400001928E-02 0.  1.
</event>
<event>
 5   0  0.1143283E-07  0.3806623E+04  0.7818609E-02  0.8044735E-01
       -2   -1    0    0    0  501  0.00000000000E+00  0.00000000000E+00  0.25489143158E+04  0.25489143158E+04  0.25500000920E-02 0. -1.
        2   -1    0    0  501    0  0.00000000000E+00  0.00000000000E+00 -0.14212303926E+04  0.14212303926E+04  0.25500000920E-02 0.  1.
    10030    2    1    2    0    0  0.00000000000E+00  0.00000000000E+00  0.11276839232E+04  0.39701447084E+04  0.38066229095E+04 0.  0.
        1    1    3    3  502    0 -0.10387863488E+04  0.11338226635E+04 -0.60592813243E+03  0.16528096722E+04  0.50400001928E-02 0.  1.
       -1    1    3    3    0  502  0.10387863488E+04 -0.11338226635E+04  0.17336120556E+04  0.23173350363E+04  0.50400001928E-02 0. -1.
</event>
<event>
 5   0  0.1193861E-07  0.3801533E+04  0.7818609E-02  0.8045826E-01
       -2   -1    0    0    0  501  0.00000000000E+00  0.00000000000E+00  0.14504994358E+04  0.14504994358E+04  0.25500000920E-02 0.  1.
        2   -1    0    0  501    0  0.00000000000E+00  0.00000000000E+00 -0.24908070260E+04  0.24908070260E+04  0.25500000920E-02 0. -1.
    10030    2    1    2    0    0  0.00000000000E+00  0.00000000000E+00 -0.10403075902E+04  0.39413064617E+04  0.38015334726E+04 0.  0.
        3    1    3    3  502    0  0.59725290849E+03 -0.16918569579E+04  0.13047311215E+03  0.17989203000E+04  0.10100000352E+00 0. -1.
       -3    1    3    3    0  502 -0.59725290849E+03  0.16918569579E+04 -0.11707807023E+04  0.21423861617E+04  0.10100000352E+00 0.  1.
</event>
<event>
 5   0  0.1150235E-07  0.3801529E+04  0.7818609E-02  0.8045827E-01
        2   -1    0    0  501    0  0.00000000000E+00  0.00000000000E+00  0.23289510430E+04  0.23289510430E+04  0.25500000920E-02 0. -1.
       -2   -1    0    0    0  501  0.00000000000E+00  0.00000000000E+00 -0.15513018316E+04  0.15513018316E+04  0.25500000920E-02 0.  1.
    10030    2    1    2    0    0  0.00000000000E+00  0.00000000000E+00  0.77764921139E+03  0.38802528746E+04  0.38015291759E+04 0.  0.
        4    1    3    3  502    0 -0.10896484527E+04 -0.79470091811E+03  0.17559724293E+04  0.22141192572E+04  0.12699999809E+01 0. -1.
       -4    1    3    3    0  502  0.10896484527E+04  0.79470091811E+03 -0.97832321790E+03  0.16661336175E+04  0.12699999809E+01 0.  1.
</event>
<event>
 5   0  0.3701250E-08  0.3805396E+04  0.7818609E-02  0.8044998E-01
        1   -1    0    0  501    0  0.00000000000E+00  0.00000000000E+00  0.19242573926E+04  0.19242573926E+04  0.50400001928E-02 0.  1.
       -1   -1    0    0    0  501  0.00000000000E+00  0.00000000000E+00 -0.18813801087E+04  0.18813801088E+04  0.50400001928E-02 0. -1.
    10030    2    1    2    0    0  0.00000000000E+00  0.00000000000E+00  0.42877283820E+02  0.38056375013E+04  0.38053959492E+04 0.  0.
        3    1    3    3  502    0  0.10950332094E+04 -0.56103107681E+03 -0.14299997465E+04  0.18864657124E+04  0.10100000352E+00 0. -1.
       -3    1    3    3    0  502 -0.10950332094E+04  0.56103107681E+03  0.14728770303E+04  0.19191717889E+04  0.10100000352E+00 0.  1.
</event>
<event>
 5   0  0.7858367E-08  0.3826695E+04  0.7818609E-02  0.8040450E-01
       -2   -1    0    0    0  501  0.00000000000E+00  0.00000000000E+00  0.18795039811E+04  0.18795039811E+04  0.25500000920E-02 0.  1.
        2   -1    0    0  501    0  0.00000000000E+00  0.00000000000E+00 -0.19478008049E+04  0.19478008049E+04  0.25500000920E-02 0. -1.
    10030    2    1    2    0    0  0.00000000000E+00  0.00000000000E+00 -0.68296823786E+02  0.38273047860E+04  0.38266953718E+04 0.  0.
        2    1    3    3  502    0 -0.58496657673E+03 -0.16794450188E+04  0.67178117783E+03  0.19010553432E+04  0.25500000920E-02 0.  1.
       -2    1    3    3    0  502  0.58496657673E+03  0.16794450188E+04 -0.74007800162E+03  0.19262494427E+04  0.25500000920E-02 0. -1.
</event>
<event>
 5   0  0.3889225E-08  0.3812395E+04  0.7818609E-02  0.8043500E-01
       -1   -1    0    0    0  501  0.00000000000E+00  0.00000000000E+00  0.18870383486E+04  0.18870383486E+04  0.50400001928E-02 0. -1.
        1   -1    0    0  501    0  0.00000000000E+00  0.00000000000E+00 -0.19255514281E+04  0.19255514281E+04  0.50400001928E-02 0.  1.
    10030    2    1    2    0    0  0.00000000000E+00  0.00000000000E+00 -0.38513079436E+02  0.38125897767E+04  0.38123952508E+04 0.  0.
        5    1    3    3  502    0  0.12245444984E+03 -0.61396312624E+02  0.18821039192E+04  0.18870881940E+04  0.46999998093E+01 0. -1.
       -5    1    3    3    0  502 -0.12245444984E+03  0.61396312624E+02 -0.19206169986E+04  0.19255015827E+04  0.46999998093E+01 0.  1.
</event>
<event>
 5   0  0.1143283E-07  0.3897242E+04  0.7818609E-02  0.8025603E-01
       -2   -1    0    0    0  501  0.00000000000E+00  0.00000000000E+00  0.18288749486E+04  0.18288749486E+04  0.25500000920E-02 0. -1.
        2   -1    0    0  501    0  0.00000000000E+00  0.00000000000E+00 -0.20762077549E+04  0.20762077549E+04  0.25500000920E-02 0.  1.
    10030    2    1    2    0    0  0.00000000000E+00  0.00000000000E+00 -0.24733280638E+03  0.39050827035E+04  0.38972422819E+04 0.  0.
        1    1    3    3  502    0 -0.16472649678E+04  0.98706717339E+03  0.20766614239E+03  0.19315560322E+04  0.50400001928E-02 0.  1.
       -1    1    3    3    0  502  0.16472649678E+04 -0.98706717339E+03 -0.45499894877E+03  0.19735266713E+04  0.50400001928E-02 0. -1.
</event>
<event>
 5   0  0.1174870E-07  0.3805172E+04  0.7818609E-02  0.8045046E-01
       -2   -1    0    0    0  501  0.00000000000E+00  0.00000000000E+00  0.11655743607E+04  0.11655743607E+04  0.25500000920E-02 0.  1.
        2   -1    0    0  501    0  0.00000000000E+00  0.00000000000E+00 -0.31056228393E+04  0.31056228393E+04  0.25500000920E-02 0. -1.
    10030    2    1    2    0    0  0.00000000000E+00  0.00000000000E+00 -0.19400484786E+04  0.42711972000E+04  0.38051724563E+04 0.  0.
        5    1    3    3  502    0 -0.86839776187E+03 -0.12748645672E+04  0.28011761658E+03  0.15677634728E+04  0.46999998093E+01 0.  1.
       -5    1    3    3    0  502  0.86839776187E+03  0.12748645672E+04 -0.22201660952E+04  0.27034337272E+04  0.46999998093E+01 0. -1.
</event>
<event>
 5   0  0.1174870E-07  0.3896903E+04  0.7818609E-02  0.8025674E-01
        2   -1    0    0  501    0  0.00000000000E+00  0.00000000000E+00  0.24380111775E+04  0.24380111775E+04  0.25500000920E-02 0. -1.
       -2   -1    0    0    0  501  0.00000000000E+00  0.00000000000E+00 -0.15571964702E+04  0.15571964702E+04  0.25500000920E-02 0.  1.
    10030    2    1    2    0    0  0.00000000000E+00  0.00000000000E+00  0.88081470734E+03  0.39952076477E+04  0.38969025648E+04 0.  0.
        5    1    3    3  502    0  0.81969339379E+03  0.17664980567E+04  0.37534248978E+03  0.19832591154E+04  0.46999998093E+01 0.  1.
       -5    1    3    3    0  502 -0.81969339379E+03 -0.17664980567E+04  0.50547221757E+03  0.20119485323E+04  0.46999998093E+01 0. -1.
</event>
<event>
 5   0  0.3701250E-08  0.3794670E+04  0.7818609E-02  0.8047300E-01
        1   -1    0    0  501    0  0.00000000000E+00  0.00000000000E+00  0.15992869525E+04  0.15992869525E+04  0.50400001928E-02 0. -1.
       -1   -1    0    0    0  501  0.00000000000E+00  0.00000000000E+00 -0.22509279630E+04  0.22509279630E+04  0.50400001928E-02 0.  1.
    10030    2    1    2    0    0  0.00000000000E+00  0.00000000000E+00 -0.65164101054E+03  0.38502149155E+04  0.37946697997E+04 0.  0.
        3    1    3    3  502    0 -0.17281292494E+04  0.28838764862E+03 -0.10646840674E+04  0.20501586065E+04  0.10100000352E+00 0. -1.
       -3    1    3    3    0  502  0.17281292494E+04 -0.28838764862E+03  0.41304305685E+03  0.18000563090E+04  0.10100000352E+00 0.  1.
</event>
<event>
 5   0  0.3701250E-08  0.3792800E+04  0.7818609E-02  0.8047702E-01
       -1   -1    0    0    0  501  0.00000000000E+00  0.00000000000E+00  0.11998992700E+04  0.11998992700E+04  0.50400001928E-02 0.  1.
        1   -1    0    0  501    0  0.00000000000E+00  0.00000000000E+00 -0.29971963899E+04  0.29971963899E+04  0.50400001928E-02 0. -1.
    10030    2    1    2    0    0  0.00000000000E+00  0.00000000000E+00 -0.17972971200E+04  0.41970956599E+04  0.37928004220E+04 0.  0.
        1    1    3    3  502    0  0.11818591351E+04  0.12353752353E+04  0.94279838375E+01  0.17096876540E+04  0.50400001928E-02 0.  1.
       -1    1    3    3    0  502 -0.11818591351E+04 -0.12353752353E+04 -0.18067251038E+04  0.24874080059E+04  0.50400001928E-02 0. -1.
</event>
<event>
 5   0  0.3889225E-08  0.3790322E+04  0.7818609E-02  0.8048235E-01
        1   -1    0    0  501    0  0.00000000000E+00  0.00000000000E+00  0.19795932202E+04  0.19795932202E+04  0.50400001928E-02 0.  1.
       -1   -1    0    0    0  501  0.00000000000E+00  0.00000000000E+00 -0.18143302781E+04  0.18143302781E+04  0.50400001928E-02 0. -1.
    10030    2    1    2    0    0  0.00000000000E+00  0.00000000000E+00  0.16526294212E+03  0.37939234983E+04  0.37903223704E+04 0.  0.
        5    1    3    3  502    0 -0.28013416155E+03 -0.17767749123E+04  0.68003147999E+03  0.19229844360E+04  0.46999998093E+01 0.  1.
       -5    1    3    3    0  502  0.28013416155E+03  0.17767749123E+04 -0.51476853787E+03  0.18709390623E+04  0.46999998093E+01 0. -1.
</event>
<event>
 5   0  0.3701250E-08  0.3778992E+04  0.7818609E-02  0.8050678E-01
        1   -1    0    0  501    0  0.00000000000E+00  0.00000000000E+00  0.27972874839E+04  0.27972874839E+04  0.50400001928E-02 0. -1.
       -1   -1    0    0    0  501  0.00000000000E+00  0.00000000000E+00 -0.12763064441E+04  0.12763064441E+04  0.50400001928E-02 0.  1.
    10030    2    1    2    0    0  0.00000000000E+00  0.00000000000E+00  0.15209810399E+04  0.40735939280E+04  0.37789924804E+04 0.  0.
        1    1    3    3  502    0  0.18668272884E+03 -0.41209158617E+03 -0.12170627450E+04  0.12984266025E+04  0.50400001928E-02 0.  1.
       -1    1    3    3    0  502 -0.18668272884E+03  0.41209158617E+03  0.27380437849E+04  0.27751673255E+04  0.50400001928E-02 0. -1.
</event>
<event>
 5   0  0.3701250E-08  0.3799410E+04  0.7818609E-02  0.8046282E-01
        1   -1    0    0  501    0  0.00000000000E+00  0.00000000000E+00  0.22918360233E+04  0.22918360233E+04  0.50400001928E-02 0. -1.
       -1   -1    0    0    0  501  0.00000000000E+00  0.00000000000E+00 -0.15746670634E+04  0.15746670634E+04  0.50400001928E-02 0.  1.
    10030    2    1    2    0    0  0.00000000000E+00  0.00000000000E+00  0.71716895995E+03  0.38665030867E+04  0.37994097966E+04 0.  0.
        2    1    3    3  502    0  0.75364604082E+03 -0.15269823215E+04  0.12156087465E+04  0.20922146136E+04  0.25500000920E-02 0. -1.
       -2    1    3    3    0  502 -0.75364604082E+03  0.15269823215E+04 -0.49843978653E+03  0.17742884731E+04  0.25500000920E-02 0.  1.
</event>
<event>
 5   0  0.3701250E-08  0.3819111E+04  0.7818609E-02  0.8042066E-01
       -1   -1    0    0    0  501  0.00000000000E+00  0.00000000000E+00  0.14962355774E+04  0.14962355774E+04  0.50400001928E-02 0.  1.
        1   -1    0    0  501    0  0.00000000000E+00  0.00000000000E+00 -0.24370510425E+04  0.24370510425E+04  0.50400001928E-02 0. -1.
    10030    2    1    2    0    0  0.00000000000E+00  0.00000000000E+00 -0.94081546502E+03  0.39332866199E+04  0.38191111394E+04 0.  0.
        3    1    3    3  502    0  0.33610495376E+03 -0.50020398008E+03  0.13957316463E+04  0.15202754357E+04  0.10100000352E+00 0.  1.
       -3    1    3    3    0  502 -0.33610495376E+03  0.50020398008E+03 -0.23365471113E+04  0.24130111842E+04  0.10100000352E+00 0. -1.
</event>
<event>
 5   0  0.1174870E-07  0.3977321E+04  0.7818609E-02  0.8009137E-01
        2   -1    0    0  501    0  0.00000000000E+00  0.00000000000E+00  0.23113253425E+04  0.23113253425E+04  0.25500000920E-02 0. -1.
       -2   -1    0    0    0  501  0.00000000000E+00  0.00000000000E+00 -0.17110399067E+04  0.17110399067E+04  0.25500000920E-02 0.  1.
    10030    2    1    2    0    0  0.00000000000E+00  0.00000000000E+00  0.60028543575E+03  0.40223652492E+04  0.39773206551E+04 0.  0.
        5    1    3    3  502    0 -0.36904164487E+03  0.20955841958E+03  0.22649897467E+04  0.23044103605E+04  0.46999998093E+01 0. -1.
       -5    1    3    3    0  502  0.36904164487E+03 -0.20955841958E+03 -0.16647043109E+04  0.17179548887E+04  0.46999998093E+01 0.  1.
</event>
<event>
 5   0  0.3889225E-08  0.3804012E+04  0.7818609E-02  0.8045295E-01
        1   -1    0    0  501    0  0.00000000000E+00  0.00000000000E+00  0.22654564077E+04  0.22654564077E+04  0.50400001928E-02 0.  1.
       -1   -1    0    0    0  501  0.00000000000E+00  0.00000000000E+00 -0.15968641413E+04  0.15968641413E+04  0.50400001928E-02 0. -1.
    10030    2    1    2    0    0  0.00000000000E+00  0.00000000000E+00  0.66859226634E+03  0.38623205490E+04  0.38040116199E+04 0.  0.
        5    1    3    3  502    0 -0.16228346329E+04  0.44071400500E+03  0.12366156510E+04  0.20873575253E+04  0.46999998093E+01 0.  1.
       -5    1    3    3    0  502  0.16228346329E+04 -0.44071400500E+03 -0.56802338465E+03  0.17749630237E+04  0.46999998093E+01 0. -1.
</event>
<event>
 5   0  0.1143283E-07  0.3950680E+04  0.7818609E-02  0.8014570E-01
        2   -1    0    0  501    0  0.00000000000E+00  0.00000000000E+00  0.22455656407E+04  0.22455656407E+04  0.25500000920E-02 0. -1.
       -2   -1    0    0    0  501  0.00000000000E+00  0.00000000000E+00 -0.17376327938E+04  0.17376327938E+04  0.25500000920E-02 0.  1.
    10030    2    1    2    0    0  0.00000000000E+00  0.00000000000E+00  0.50793284693E+03  0.39831984345E+04  0.39506801936E+04 0.  0.
        1    1    3    3  502    0 -0.14299166063E+04 -0.12838265126E+04  0.71500092898E+03  0.20503898030E+04  0.50400001928E-02 0.  1.
       -1    1    3    3    0  502  0.14299166063E+04  0.12838265126E+04 -0.20706808205E+03  0.19328086316E+04  0.50400001928E-02 0. -1.
</event>
<event>
 5   0  0.3701250E-08  0.3803577E+04  0.7818609E-02  0.8045388E-01
       -1   -1    0    0    0  501  0.00000000000E+00  0.00000000000E+00  0.19297194337E+04  0.19297194337E+04  0.50400001928E-02 0.  1.
        1   -1    0    0  501    0  0.00000000000E+00  0.00000000000E+00 -0.18742618952E+04  0.18742618952E+04  0.50400001928E-02 0. -1.
    10030    2    1    2    0    0  0.00000000000E+00  0.00000000000E+00  0.55457538496E+02  0.38039813289E+04  0.38035770548E+04 0.  0.
        1    1    3    3  502    0  0.16661028574E+04 -0.28715103340E+03 -0.84325136321E+03  0.18892928066E+04  0.50400001928E-02 0. -1.
       -1    1    3    3    0  502 -0.16661028574E+04  0.28715103340E+03  0.89870890171E+03  0.19146885223E+04  0.50400001928E-02 0.  1.
</event>
<event>
 5   0  0.1150235E-07  0.3801141E+04  0.7818609E-02  0.8045910E-01
       -2   -1    0    0    0  501  0.00000000000E+00  0.00000000000E+00  0.35559890055E+04  0.35559890055E+04  0.25500000920E-02 0.  1.
        2   -1    0    0  501    0  0.00000000000E+00  0.00000000000E+00 -0.10157985967E+04  0.10157985967E+04  0.25500000920E-02 0. -1.
    10030    2    1    2    0    0  0.00000000000E+00  0.00000000000E+00  0.25401904088E+04  0.45717876022E+04  0.38011412190E+04 0.  0.
        4    1    3    3  502    0  0.81128121638E+03 -0.10795794801E+04  0.28785774288E+04  0.31796035432E+04  0.12699999809E+01 0.  1.
       -4    1    3    3    0  502 -0.81128121638E+03  0.10795794801E+04 -0.33838701993E+03  0.13921840590E+04  0.12699999809E+01 0. -1.
</event>
<event>
 5   0  0.1143283E-07  0.3796688E+04  0.7818609E-02  0.8046866E-01
        2   -1    0    0  501    0  0.00000000000E+00  0.00000000000E+00  0.28996945186E+04  0.28996945186E+04  0.25500000920E-02 0. -1.
       -2   -1    0    0    0  501  0.00000000000E+00  0.00000000000E+00 -0.12427893614E+04  0.12427893614E+04  0.25500000920E-02 0.  1.
    10030    2    1    2    0    0  0.00000000000E+00  0.00000000000E+00  0.16569051572E+04  0.41424838800E+04  0.37966877665E+04 0.  0.
        1    1    3    3  502    0  0.40566483125E+03  0.51182159377E+03 -0.11163572525E+04  0.12933595070E+04  0.50400001928E-02 0.  1.
       -1    1    3    3    0  502 -0.40566483125E+03 -0.51182159377E+03  0.27732624098E+04  0.28491243730E+04  0.50400001928E-02 0. -1.
</event>
<event>
 5   0  0.3701250E-08  0.3818945E+04  0.7818609E-02  0.8042101E-01
        1   -1    0    0  501    0  0.00000000000E+00  0.00000000000E+00  0.24469306060E+04  0.24469306060E+04  0.50400001928E-02 0.  1.
       -1   -1    0    0    0  501  0.00000000000E+00  0.00000000000E+00 -0.14900650584E+04  0.14900650584E+04  0.50400001928E-02 0. -1.
    10030    2    1    2    0    0  0.00000000000E+00  0.00000000000E+00  0.95686554760E+03  0.39369956645E+04  0.38189452976E+04 0.  0.
        1    1    3    3  502    0  0.77061271304E+03  0.14827799861E+04 -0.47403450453E+03  0.17370058009E+04  0.50400001928E-02 0. -1.
       -1    1    3    3    0  502 -0.77061271304E+03 -0.14827799861E+04  0.14309000521E+04  0.21999898636E+04  0.50400001928E-02 0.  1.
</event>
<event>
 5   0  0.3889225E-08  0.3793832E+04  0.7818609E-02  0.8047480E-01
       -1   -1    0    0    0  501  0.00000000000E+00  0.00000000000E+00  0.14154486261E+04  0.14154486262E+04  0.50400001928E-02 0.  1.
        1   -1    0    0  501    0  0.00000000000E+00  0.00000000000E+00 -0.25421547113E+04  0.25421547114E+04  0.50400001928E-02 0. -1.
    10030    2    1    2    0    0  0.00000000000E+00  0.00000000000E+00 -0.11267060852E+04  0.39576033375E+04  0.37938315164E+04 0.  0.
        5    1    3    3  502    0 -0.11550229461E+04 -0.95101899661E+03 -0.17797745863E+04  0.23251096331E+04  0.46999998093E+01 0. -1.
       -5    1    3    3    0  502  0.11550229461E+04  0.95101899661E+03  0.65306850107E+03  0.16324937044E+04  0.46999998093E+01 0.  1.
</event>
<event>
 5   0  0.3889225E-08  0.3777259E+04  0.7818609E-02  0.8051053E-01
       -1   -1    0    0    0  501  0.00000000000E+00  0.00000000000E+00  0.14444973200E+04  0.14444973200E+04  0.50400001928E-02 0.  1.
        1   -1    0    0  501    0  0.00000000000E+00  0.00000000000E+00 -0.24693171605E+04  0.24693171605E+04  0.50400001928E-02 0. -1.
    10030    2    1    2    0    0  0.00000000000E+00  0.00000000000E+00 -0.10248198405E+04  0.39138144805E+04  0.37772593348E+04 0.  0.
        5    1    3    3  502    0 -0.51958585517E+03  0.14160391083E+04 -0.16900564942E+04  0.22652702401E+04  0.46999998093E+01 0. -1.
       -5    1    3    3    0  502  0.51958585517E+03 -0.14160391083E+04  0.66523665363E+03  0.16485442404E+04  0.46999998093E+01 0.  1.
</event>
<event>
 5   0  0.3701250E-08  0.3807777E+04  0.7818609E-02  0.8044488E-01
        1   -1    0    0  501    0  0.00000000000E+00  0.00000000000E+00  0.18644995160E+04  0.18644995160E+04  0.50400001928E-02 0.  1.
       -1   -1    0    0    0  501  0.00000000000E+00  0.00000000000E+00 -0.19441096434E+04  0.19441096434E+04  0.50400001928E-02 0. -1.
    10030    2    1    2    0    0  0.00000000000E+00  0.00000000000E+00 -0.79610127428E+02  0.38086091595E+04  0.38077770362E+04 0.  0.
        2    1    3    3  502    0 -0.72575956813E+03  0.11684882119E+04  0.12768031630E+04  0.18767839431E+04  0.25500000920E-02 0.  1.
       -2    1    3    3    0  502  0.72575956813E+03 -0.11684882119E+04 -0.13564132904E+04  0.19318252163E+04  0.25500000920E-02 0. -1.
</event>
<event>
 5   0  0.1193861E-07  0.3796112E+04  0.7818609E-02  0.8046990E-01
       -2   -1    0    0    0  501  0.00000000000E+00  0.00000000000E+00  0.14429457868E+04  0.14429457868E+04  0.25500000920E-02 0. -1.
        2   -1    0    0  501    0  0.00000000000E+00  0.00000000000E+00 -0.24967097154E+04  0.24967097154E+04  0.25500000920E-02 0.  1.
    10030    2    1    2    0    0  0.00000000000E+00  0.00000000000E+00 -0.10537639287E+04  0.39396555022E+04  0.37961120978E+04 0.  0.
        3    1    3    3  502    0  0.14940443536E+04  0.36321348474E+03  0.62809006057E+03  0.16609002680E+04  0.10100000352E+00 0. -1.
       -3    1    3    3    0  502 -0.14940443536E+04 -0.36321348474E+03 -0.16818539892E+04  0.22787552342E+04  0.10100000352E+00 0.  1.
</event>
<event>
 5   0  0.7858367E-08  0.3871681E+04  0.7818609E-02  0.8030945E-01
        2   -1    0    0  501    0  0.00000000000E+00  0.00000000000E+00  0.20090050693E+04  0.20090050693E+04  0.25500000920E-02 0. -1.
       -2   -1    0    0    0  501  0.00000000000E+00  0.00000000000E+00 -0.18653402869E+04  0.18653402869E+04  0.25500000920E-02 0.  1.
    10030    2    1    2    0    0  0.00000000000E+00  0.00000000000E+00  0.14366478235E+03  0.38743453562E+04  0.38716808197E+04 0.  0.
        2    1    3    3  502    0 -0.13815496927E+04 -0.13509016230E+04 -0.45991343481E+02  0.19328036507E+04  0.25500000920E-02 0.  1.
       -2    1    3    3    0  502  0.13815496927E+04  0.13509016230E+04  0.18965612583E+03  0.19415417056E+04  0.25500000920E-02 0. -1.
</event>
<event>
 5   0  0.1193861E-07  0.3814989E+04  0.7818609E-02  0.8042946E-01
       -2   -1    0    0    0  501  0.00000000000E+00  0.00000000000E+00  0.13218698902E+04  0.13218698902E+04  0.25500000920E-02 0.  1.
        2   -1    0    0  501    0  0.00000000000E+00  0.00000000000E+00 -0.27525662089E+04  0.27525662089E+04  0.25500000920E-02 0. -1.
    10030    2    1    2    0    0  0.00000000000E+00  0.00000000000E+00 -0.14306963186E+04  0.40744360991E+04  0.38149885412E+04 0.  0.
        3    1    3    3  502    0  0.11112668444E+04  0.15475250656E+04 -0.81545956536E+03  0.20723711398E+04  0.10100000352E+00 0.  1.
       -3    1    3    3    0  502 -0.11112668444E+04 -0.15475250656E+04 -0.61523675329E+03  0.20020649592E+04  0.10100000352E+00 0. -1.
</event>
<event>
 5   0  0.7858367E-08  0.3801088E+04  0.7818609E-02  0.8045921E-01
       -2   -1    0    0    0  501  0.00000000000E+00  0.00000000000E+00  0.14469199741E+04  0.14469199741E+04  0.25500000920E-02 0. -1.
        2   -1    0    0  501    0  0.00000000000E+00  0.00000000000E+00 -0.24963841083E+04  0.24963841083E+04  0.25500000920E-02 0.  1.
    10030    2    1    2    0    0  0.00000000000E+00  0.00000000000E+00 -0.10494641343E+04  0.39433040824E+04  0.38010882806E+04 0.  0.
        2    1    3    3  502    0  0.10354313929E+04  0.10149562569E+04 -0.17994496807E+04  0.23109031841E+04  0.25500000920E-02 0.  1.
       -2    1    3    3    0  502 -0.10354313929E+04 -0.10149562569E+04  0.74998554644E+03  0.16324008983E+04  0.25500000920E-02 0. -1.
</event>
<event>
 5   0  0.1193861E-07  0.3823658E+04  0.7818609E-02  0.8041097E-01
       -2   -1    0    0    0  501  0.00000000000E+00  0.00000000000E+00  0.20813439958E+04  0.20813439958E+04  0.25500000920E-02 0. -1.
        2   -1    0    0  501    0  0.00000000000E+00  0.00000000000E+00 -0.17561198114E+04  0.17561198114E+04  0.25500000920E-02 0.  1.
    10030    2    1    2    0    0  0.00000000000E+00  0.00000000000E+00  0.32522418444E+03  0.38374638072E+04  0.38236576339E+04 0.  0.
        3    1    3    3  502    0  0.10334979920E+04 -0.80459888435E+02  0.17748050381E+04  0.20553648889E+04  0.10100000352E+00 0. -1.
       -3    1    3    3    0  502 -0.10334979920E+04  0.80459888435E+02 -0.14495808537E+04  0.17820989183E+04  0.10100000352E+00 0.  1.
</event>
<event>
 5   0  0.1193861E-07  0.3754550E+04  0.7818609E-02  0.8055979E-01
        2   -1    0    0  501    0  0.00000000000E+00  0.00000000000E+00  0.24225218352E+04  0.24225218352E+04  0.25500000920E-02 0.  1.
       -2   -1    0    0    0  501  0.00000000000E+00  0.00000000000E+00 -0.14547488203E+04  0.14547488203E+04  0.25500000920E-02 0. -1.
    10030    2    1    2    0    0  0.00000000000E+00  0.00000000000E+00  0.96777301488E+03  0.38772706555E+04  0.37545496571E+04 0.  0.
        3    1    3    3  502    0 -0.19642840967E+03  0.82682170055E+02 -0.14422154407E+04  0.14578771721E+04  0.10100000352E+00 0. -1.
       -3    1    3    3    0  502  0.19642840967E+03 -0.82682170055E+02  0.24099884556E+04  0.24193934834E+04  0.10100000352E+00 0.  1.
</event>
<event>
 5   0  0.7858367E-08  0.3797527E+04  0.7818609E-02  0.8046686E-01
       -2   -1    0    0    0  501  0.00000000000E+00  0.00000000000E+00  0.14567449743E+04  0.14567449743E+04  0.25500000920E-02 0. -1.
        2   -1    0    0  501    0  0.00000000000E+00  0.00000000000E+00 -0.24749034208E+04  0.24749034208E+04  0.25500000920E-02 0.  1.
    10030    2    1    2    0    0  0.00000000000E+00  0.00000000000E+00 -0.10181584464E+04  0.39316483951E+04  0.37975271534E+04 0.  0.
        2    1    3    3  502    0 -0.42807827679E+03 -0.81579826875E+03  0.12098372565E+04  0.15206853762E+04  0.25500000920E-02 0. -1.
       -2    1    3    3    0  502  0.42807827679E+03  0.81579826875E+03 -0.22279957029E+04  0.24109630189E+04  0.25500000920E-02 0.  1.
</event>
<event>
 5   0  0.1150235E-07  0.3823015E+04  0.7818609E-02  0.8041234E-01
        2   -1    0    0  501    0  0.00000000000E+00  0.00000000000E+00  0.17203158607E+04  0.17203158607E+04  0.25500000920E-02 0.  1.
       -2   -1    0    0    0  501  0.00000000000E+00  0.00000000000E+00 -0.21239471672E+04  0.21239471672E+04  0.25500000920E-02 0. -1.
    10030    2    1    2    0    0  0.00000000000E+00  0.00000000000E+00 -0.40363130653E+03  0.38442630279E+04  0.38230145168E+04 0.  0.
        4    1    3    3  502    0  0.15452198896E+04 -0.63528976987E+03  0.73208784698E+03  0.18240756090E+04  0.12699999809E+01 0.  1.
       -4    1    3    3    0  502 -0.15452198896E+04  0.63528976987E+03 -0.11357191535E+04  0.20201874189E+04  0.12699999809E+01 0. -1.
</event>
<event>
 5   0  0.3701250E-08  0.3802611E+04  0.7818609E-02  0.8045595E-01
       -1   -1    0    0    0  501  0.00000000000E+00  0.00000000000E+00  0.18472150199E+04  0.18472150199E+04  0.50400001928E-02 0.  1.
        1   -1    0    0  501    0  0.00000000000E+00  0.00000000000E+00 -0.19569796121E+04  0.19569796121E+04  0.50400001928E-02 0. -1.
    10030    2    1    2    0    0  0.00000000000E+00  0.00000000000E+00 -0.10976459215E+03  0.38041946320E+04  0.38026107521E+04 0.  0.
        1    1    3    3  502    0  0.16430979056E+04 -0.51262252450E+03 -0.86293746436E+03  0.19254125915E+04  0.50400001928E-02 0. -1.
       -1    1    3    3    0  502 -0.16430979056E+04  0.51262252450E+03  0.75317287221E+03  0.18787820405E+04  0.50400001928E-02 0.  1.
</event>
<event>
 5   0  0.7858367E-08  0.3823728E+04  0.7818609E-02  0.8041082E-01
       -2   -1    0    0    0  501  0.00000000000E+00  0.00000000000E+00  0.15431435877E+04  0.15431435877E+04  0.25500000920E-02 0. -1.
        2   -1    0    0  501    0  0.00000000000E+00  0.00000000000E+00 -0.23686872487E+04  0.23686872487E+04  0.25500000920E-02 0.  1.
    10030    2    1    2    0    0  0.00000000000E+00  0.00000000000E+00 -0.82554366107E+03  0.39118308364E+04  0.38237283058E+04 0.  0.
        2    1    3    3  502    0 -0.36361167028E+02 -0.16813706768E+04  0.51751792053E+03  0.17595892377E+04  0.25500000920E-02 0. -1.
       -2    1    3    3    0  502  0.36361167028E+02  0.16813706768E+04 -0.13430615816E+04  0.21522415987E+04  0.25500000920E-02 0.  1.
</event>
<event>
 5   0  0.3889225E-08  0.3800173E+04  0.7818609E-02  0.8046118E-01
       -1   -1    0    0    0  501  0.00000000000E+00  0.00000000000E+00  0.15192762542E+04  0.15192762543E+04  0.50400001928E-02 0.  1.
        1   -1    0    0  501    0  0.00000000000E+00  0.00000000000E+00 -0.23763479375E+04  0.23763479375E+04  0.50400001928E-02 0. -1.
    10030    2    1    2    0    0  0.00000000000E+00  0.00000000000E+00 -0.85707168324E+03  0.38956241917E+04  0.38001731504E+04 0.  0.
        5    1    3    3  502    0  0.50148984412E+03 -0.72279626688E+03 -0.21549933998E+04  0.23276479868E+04  0.46999998093E+01 0. -1.
       -5    1    3    3    0  502 -0.50148984412E+03  0.72279626688E+03  0.12979217165E+04  0.15679762050E+04  0.46999998093E+01 0.  1.
</event>
<event>
 5   0  0.3701250E-08  0.3752684E+04  0.7818609E-02  0.8056386E-01
        1   -1    0    0  501    0  0.00000000000E+00  0.00000000000E+00  0.23387591298E+04  0.23387591298E+04  0.50400001928E-02 0.  1.
       -1   -1    0    0    0  501  0.00000000000E+00  0.00000000000E+00 -0.15053537917E+04  0.15053537918E+04  0.50400001928E-02 0. -1.
    10030    2    1    2    0    0  0.00000000000E+00  0.00000000000E+00  0.83340533805E+03  0.38441129216E+04  0.37526843321E+04 0.  0.
        4    1    3    3  502    0 -0.14929242781E+04  0.74852383925E+03  0.12928464042E+04  0.21120048002E+04  0.12699999809E+01 0.  1.
       -4    1    3    3    0  502  0.14929242781E+04 -0.74852383925E+03 -0.45944106619E+03  0.17321081214E+04  0.12699999809E+01 0. -1.
</event>
<event>
 5   0  0.3701250E-08  0.3790950E+04  0.7818609E-02  0.8048100E-01
       -1   -1    0    0    0  501  0.00000000000E+00  0.00000000000E+00  0.18110971401E+04  0.18110971401E+04  0.50400001928E-02 0. -1.
        1   -1    0    0  501    0  0.00000000000E+00  0.00000000000E+00 -0.19837835417E+04  0.19837835417E+04  0.50400001928E-02 0.  1.
    10030    2    1    2    0    0  0.00000000000E+00  0.00000000000E+00 -0.17268640161E+03  0.37948806817E+04  0.37909495902E+04 0.  0.
        3    1    3    3  502    0 -0.14284776670E+04 -0.10984864002E+04  0.50214724402E+03  0.18706610279E+04  0.10100000352E+00 0. -1.
       -3    1    3    3    0  502  0.14284776670E+04  0.10984864002E+04 -0.67483364563E+03  0.19242196538E+04  0.10100000352E+00 0.  1.
</event>
<event>
 5   0  0.1143283E-07  0.3803478E+04  0.7818609E-02  0.8045409E-01
       -2   -1    0    0    0  501  0.00000000000E+00  0.00000000000E+00  0.18755986262E+04  0.18755986262E+04  0.25500000920E-02 0.  1.
        2   -1    0    0  501    0  0.00000000000E+00  0.00000000000E+00 -0.19282433634E+04  0.19282433634E+04  0.25500000920E-02 0. -1.
    10030    2    1    2    0    0  0.00000000000E+00  0.00000000000E+00 -0.52644737255E+02  0.38038419896E+04  0.38034776736E+04 0.  0.
        1    1    3    3  502    0  0.33519972978E+03 -0.28732940080E+03  0.18236368431E+04  0.18763177713E+04  0.50400001928E-02 0.  1.
       -1    1    3    3    0  502 -0.33519972978E+03  0.28732940080E+03 -0.18762815803E+04  0.19275242183E+04  0.50400001928E-02 0. -1.
</event>
<event>
 5   0  0.1193861E-07  0.3862606E+04  0.7818609E-02  0.8032852E-01
       -2   -1    0    0    0  501  0.00000000000E+00  0.00000000000E+00  0.19015701185E+04  0.19015701185E+04  0.25500000920E-02 0. -1.
        2   -1    0    0  501    0  0.00000000000E+00  0.00000000000E+00 -0.19615008505E+04  0.19615008505E+04  0.25500000920E-02 0.  1.
    10030    2    1    2    0    0  0.00000000000E+00  0.00000000000E+00 -0.59930731988E+02  0.38630709690E+04  0.38626060657E+04 0.  0.
        3    1    3    3  502    0 -0.37067095681E+02 -0.43813814128E+03 -0.19107747061E+04  0.19607138976E+04  0.10100000352E+00 0.  1.
       -3    1    3    3    0  502  0.37067095681E+02  0.43813814128E+03  0.18508439741E+04  0.19023570714E+04  0.10100000352E+00 0. -1.
</event>
<event>
 5   0  0.1174870E-07  0.3799554E+04  0.7818609E-02  0.8046251E-01
       -2   -1    0    0    0  501  0.00000000000E+00  0.00000000000E+00  0.13741416404E+04  0.13741416404E+04  0.25500000920E-02 0. -1.
        2   -1    0    0  501    0  0.00000000000E+00  0.00000000000E+00 -0.26264783583E+04  0.26264783583E+04  0.25500000920E-02 0.  1.
    10030    2    1    2    0    0  0.00000000000E+00  0.00000000000E+00 -0.12523367179E+04  0.40006199988E+04  0.37995543317E+04 0.  0.
        5    1    3    3  502    0  0.92416001839E+03  0.95863114362E+03 -0.20528961674E+04  0.24469266792E+04  0.46999998093E+01 0.  1.
       -5    1    3    3    0  502 -0.92416001839E+03 -0.95863114362E+03  0.80055944949E+03  0.15536933196E+04  0.46999998093E+01 0. -1.
</event>
<event>
 5   0  0.3889225E-08  0.3796158E+04  0.7818609E-02  0.8046980E-01
        1   -1    0    0  501    0  0.00000000000E+00  0.00000000000E+00  0.23714500112E+04  0.23714500112E+04  0.50400001928E-02 0. -1.
       -1   -1    0    0    0  501  0.00000000000E+00  0.00000000000E+00 -0.15191986657E+04  0.15191986657E+04  0.50400001928E-02 0.  1.
    10030    2    1    2    0    0  0.00000000000E+00  0.00000000000E+00  0.85225134551E+03  0.38906486768E+04  0.37961578959E+04 0.  0.
        5    1    3    3  502    0  0.31688130794E+03 -0.18279853324E+04  0.83702582641E+03  0.20353325190E+04  0.46999998093E+01 0. -1.
       -5    1    3    3    0  502 -0.31688130794E+03  0.18279853324E+04  0.15225519104E+02  0.18553161578E+04  0.46999998093E+01 0.  1.
</event>
<event>
 5   0  0.1143283E-07  0.3803327E+04  0.7818609E-02  0.8045441E-01
       -2   -1    0    0    0  501  0.00000000000E+00  0.00000000000E+00  0.34157545966E+04  0.34157545966E+04  0.25500000920E-02 0. -1.
        2   -1    0    0  501    0  0.00000000000E+00  0.00000000000E+00 -0.10587187791E+04  0.10587187791E+04  0.25500000920E-02 0.  1.
    10030    2    1    2    0    0  0.00000000000E+00  0.00000000000E+00  0.23570358175E+04  0.44744733757E+04  0.38033267207E+04 0.  0.
        1    1    3    3  502    0  0.17837366480E+04  0.12443072663E+03  0.41687814252E+03  0.18360247332E+04  0.50400001928E-02 0.  1.
       -1    1    3    3    0  502 -0.17837366480E+04 -0.12443072663E+03  0.19401576750E+04  0.26384486425E+04  0.50400001928E-02 0. -1.
</event>
<event>
 5   0  0.1150235E-07  0.3804663E+04  0.7818609E-02  0.8045155E-01
        2   -1    0    0  501    0  0.00000000000E+00  0.00000000000E+00  0.26719805576E+04  0.26719805576E+04  0.25500000920E-02 0.  1.
       -2   -1    0    0    0  501  0.00000000000E+00  0.00000000000E+00 -0.13543753443E+04  0.13543753443E+04  0.25500000920E-02 0. -1.
    10030    2    1    2    0    0  0.00000000000E+00  0.00000000000E+00  0.13176052133E+04  0.40263559019E+04  0.38046627118E+04 0.  0.
        4    1    3    3  502    0 -0.63982732236E+03  0.16622484462E+04 -0.48271508048E+02  0.17817914162E+04  0.12699999809E+01 0. -1.
       -4    1    3    3    0  502  0.63982732236E+03 -0.16622484462E+04  0.13658767214E+04  0.22445644857E+04  0.12699999809E+01 0.  1.
</event>
<event>
 5   0  0.1174870E-07  0.3822690E+04  0.7818609E-02  0.8041303E-01
       -2   -1    0    0    0  501  0.00000000000E+00  0.00000000000E+00  0.17231810744E+04  0.17231810744E+04  0.25500000920E-02 0. -1.
        2   -1    0    0  501    0  0.00000000000E+00  0.00000000000E+00 -0.21200554175E+04  0.21200554175E+04  0.25500000920E-02 0.  1.
    10030    2    1    2    0    0  0.00000000000E+00  0.00000000000E+00 -0.39687434317E+03  0.38432364919E+04  0.38226898237E+04 0.  0.
        5    1    3    3  502    0  0.12930169488E+04 -0.81694927926E+03 -0.13508610125E+04  0.20406240516E+04  0.46999998093E+01 0.  1.
       -5    1    3    3    0  502 -0.12930169488E+04  0.81694927926E+03  0.95398666934E+03  0.18026124403E+04  0.46999998093E+01 0. -1.
</event>
<event>
 5   0  0.3701250E-08  0.3775280E+04  0.7818609E-02  0.8051481E-01
       -1   -1    0    0    0  501  0.00000000000E+00  0.00000000000E+00  0.23505869977E+04  0.23505869977E+04  0.50400001928E-02 0.  1.
        1   -1    0    0  501    0  0.00000000000E+00  0.00000000000E+00 -0.15158698833E+04  0.15158698833E+04  0.50400001928E-02 0. -1.
    10030    2    1    2    0    0  0.00000000000E+00  0.00000000000E+00  0.83471711434E+03  0.38664568810E+04  0.37752796124E+04 0.  0.
        3    1    3    3  502    0 -0.10109886436E+04  0.12064569046E+04  0.14844177455E+04  0.21635924647E+04  0.10100000352E+00 0.  1.
       -3    1    3    3    0  502  0.10109886436E+04 -0.12064569046E+04 -0.64970063113E+03  0.17028644163E+04  0.10100000352E+00 0. -1.
</event>
<event>
 5   0  0.1193861E-07  0.3762338E+04  0.7818609E-02  0.8054286E-01
        2   -1    0    0  501    0  0.00000000000E+00  0.00000000000E+00  0.14330154674E+04  0.14330154674E+04  0.25500000920E-02 0.  1.
       -2   -1    0    0    0  501  0.00000000000E+00  0.00000000000E+00 -0.24694755487E+04  0.24694755487E+04  0.25500000920E-02 0. -1.
    10030    2    1    2    0    0  0.00000000000E+00  0.00000000000E+00 -0.10364600813E+04  0.39024910161E+04  0.37623379208E+04 0.  0.
        3    1    3    3  502    0 -0.48527781676E+03 -0.37921804282E+02 -0.24030232322E+04  0.24518265207E+04  0.10100000352E+00 0. -1.
       -3    1    3    3    0  502  0.48527781676E+03  0.37921804282E+02  0.13665631509E+04  0.14506644954E+04  0.10100000352E+00 0.  1.
</event>
<event>
 5   0  0.1143283E-07  0.3811079E+04  0.7818609E-02  0.8043782E-01
        2   -1    0    0  501    0  0.00000000000E+00  0.00000000000E+00  0.24392176766E+04  0.24392176766E+04  0.25500000920E-02 0. -1.
       -2   -1    0    0    0  501  0.00000000000E+00  0.00000000000E+00 -0.14886248990E+04  0.14886248990E+04  0.25500000920E-02 0.  1.
    10030    2    1    2    0    0  0.00000000000E+00  0.00000000000E+00  0.95059277760E+03  0.39278425757E+04  0.38110786754E+04 0.  0.
        1    1    3    3  502    0  0.18566916872E+04  0.22920856907E+03  0.84866565988E+03  0.20542818676E+04  0.50400001928E-02 0. -1.
       -1    1    3    3    0  502 -0.18566916872E+04 -0.22920856907E+03  0.10192711772E+03  0.18735607080E+04  0.50400001928E-02 0.  1.
</event>
<event>
 5   0  0.7858367E-08  0.3800295E+04  0.7818609E-02  0.8046092E-01
       -2   -1    0    0    0  501  0.00000000000E+00  0.00000000000E+00  0.12753103141E+04  0.12753103141E+04  0.25500000920E-02 0. -1.
        2   -1    0    0  501    0  0.00000000000E+00  0.00000000000E+00 -0.28311233665E+04  0.28311233665E+04  0.25500000920E-02 0.  1.
    10030    2    1    2    0    0  0.00000000000E+00  0.00000000000E+00 -0.15558130525E+04  0.41064336806E+04  0.38002951621E+04 0.  0.
        2    1    3    3  502    0  0.16569490759E+04 -0.81940262967E+03 -0.30238809108E+03  0.18730561837E+04  0.25500000920E-02 0.  1.
       -2    1    3    3    0  502 -0.16569490759E+04  0.81940262967E+03 -0.12534249614E+04  0.22333774969E+04  0.25500000920E-02 0. -1.
</event>
<event>
 5   0  0.1150235E-07  0.3808155E+04  0.7818609E-02  0.8044407E-01
        2   -1    0    0  501    0  0.00000000000E+00  0.00000000000E+00  0.18806656016E+04  0.18806656016E+04  0.25500000920E-02 0. -1.
       -2   -1    0    0    0  501  0.00000000000E+00  0.00000000000E+00 -0.19277810795E+04  0.19277810795E+04  0.25500000920E-02 0.  1.
    10030    2    1    2    0    0  0.00000000000E+00  0.00000000000E+00 -0.47115477958E+02  0.38084466811E+04  0.38081552298E+04 0.  0.
        4    1    3    3  502    0  0.17150373913E+04 -0.69685288196E+03  0.42206895571E+03  0.18987103542E+04  0.12699999809E+01 0. -1.
       -4    1    3    3    0  502 -0.17150373913E+04  0.69685288196E+03 -0.46918443367E+03  0.19097363269E+04  0.12699999809E+01 0.  1.
</event>
<event>
 5   0  0.1193861E-07  0.3649311E+04  0.7818609E-02  0.8079289E-01
        2   -1    0    0  501    0  0.00000000000E+00  0.00000000000E+00  0.18623932141E+04  0.18623932141E+04  0.25500000920E-02 0. -1.
       -2   -1    0    0    0  501  0.00000000000E+00  0.00000000000E+00 -0.17876826264E+04  0.17876826264E+04  0.25500000920E-02 0.  1.
    10030    2    1    2    0    0  0.00000000000E+00  0.00000000000E+00  0.74710587710E+02  0.36500758405E+04  0.36493111637E+04 0.  0.
        3    1    3    3  502    0 -0.21215950743E+03 -0.13713251980E+04  0.12224341532E+04  0.18492943856E+04  0.10100000352E+00 0. -1.
       -3    1    3    3    0  502  0.21215950743E+03  0.13713251980E+04 -0.11477235655E+04  0.18007814549E+04  0.10100000352E+00 0.  1.
</event>
<event>
 5   0  0.7858367E-08  0.3797198E+04  0.7818609E-02  0.8046757E-01
       -2   -1    0    0    0  501  0.00000000000E+00  0.00000000000E+00  0.16794151689E+04  0.16794151689E+04  0.25500000920E-02 0.  1.
        2   -1    0    0  501    0  0.00000000000E+00  0.00000000000E+00 -0.21463884644E+04  0.21463884644E+04  0.25500000920E-02 0. -1.
    10030    2    1    2    0    0  0.00000000000E+00  0.00000000000E+00 -0.46697329558E+03  0.38258036333E+04  0.37971975695E+04 0.  0.
        2    1    3    3  502    0  0.19925642759E+03 -0.21163873985E+03  0.16568629014E+04  0.16821678733E+04  0.25500000920E-02 0.  1.
       -2    1    3    3    0  502 -0.19925642759E+03  0.21163873985E+03 -0.21238361969E+04  0.21436357600E+04  0.25500000920E-02 0. -1.
</event>
<event>
 5   0  0.1143283E-07  0.3784839E+04  0.7818609E-02  0.8049416E-01
        2   -1    0    0  501    0  0.00000000000E+00  0.00000000000E+00  0.26582093701E+04  0.26582093701E+04  0.25500000920E-02 0. -1.
       -2   -1    0    0    0  501  0.00000000000E+00  0.00000000000E+00 -0.13472418890E+04  0.13472418890E+04  0.25500000920E-02 0.  1.
    10030    2    1    2    0    0  0.00000000000E+00  0.00000000000E+00  0.13109674811E+04  0.40054512590E+04  0.37848387088E+04 0.  0.
        1    1    3    3  502    0 -0.89588539182E+03 -0.16385124216E+04  0.33116118310E+03  0.18965762100E+04  0.50400001928E-02 0. -1.
       -1    1    3    3    0  502  0.89588539182E+03  0.16385124216E+04  0.97980629799E+03  0.21088750491E+04  0.50400001928E-02 0.  1.
</event>
<event>
 5   0  0.7858367E-08  0.3804767E+04  0.7818609E-02  0.8045133E-01
       -2   -1    0    0    0  501  0.00000000000E+00  0.00000000000E+00  0.22728495545E+04  0.22728495545E+04  0.25500000920E-02 0.  1.
        2   -1    0    0  501    0  0.00000000000E+00  0.00000000000E+00 -0.15923020930E+04  0.15923020931E+04  0.25500000920E-02 0. -1.
    10030    2    1    2    0    0  0.00000000000E+00  0.00000000000E+00  0.68054746143E+03  0.38651516475E+04  0.38047670640E+04 0.  0.
        2    1    3    3  502    0 -0.42190204138E+03 -0.82818402420E+03 -0.13459410847E+04  0.16356795266E+04  0.25500000920E-02 0. -1.
       -2    1    3    3    0  502  0.42190204138E+03  0.82818402420E+03  0.20264885461E+04  0.22294721209E+04  0.25500000920E-02 0.  1.
</event>
<event>
 5   0  0.3701250E-08  0.3793668E+04  0.7818609E-02  0.8047515E-01
        1   -1    0    0  501    0  0.00000000000E+00  0.00000000000E+00  0.24056951218E+04  0.24056951218E+04  0.50400001928E-02 0. -1.
       -1   -1    0    0    0  501  0.00000000000E+00  0.00000000000E+00 -0.14956086319E+04  0.14956086319E+04  0.50400001928E-02 0.  1.
    10030    2    1    2    0    0  0.00000000000E+00  0.00000000000E+00  0.91008648995E+03  0.39013037537E+04  0.37936675605E+04 0.  0.
        4    1    3    3  502    0  0.21012317188E+02  0.15658406909E+04 -0.64568932577E+03  0.16938757053E+04  0.12699999809E+01 0.  1.
       -4    1    3    3    0  502 -0.21012317188E+02 -0.15658406909E+04  0.15557758157E+04  0.22074280483E+04  0.12699999809E+01 0. -1.
</event>
<event>
 5   0  0.3701250E-08  0.3784329E+04  0.7818609E-02  0.8049526E-01
       -1   -1    0    0    0  501  0.00000000000E+00  0.00000000000E+00  0.15490440164E+04  0.15490440164E+04  0.50400001928E-02 0. -1.
        1   -1    0    0  501    0  0.00000000000E+00  0.00000000000E+00 -0.23112881568E+04  0.23112881568E+04  0.50400001928E-02 0.  1.
    10030    2    1    2    0    0  0.00000000000E+00  0.00000000000E+00 -0.76224414042E+03  0.38603321732E+04  0.37843293142E+04 0.  0.
        2    1    3    3  502    0  0.15576565751E+04  0.10030142051E+04  0.11253030764E+02  0.18526894322E+04  0.25500000920E-02 0.  1.
       -2    1    3    3    0  502 -0.15576565751E+04 -0.10030142051E+04 -0.77349717119E+03  0.20076427410E+04  0.25500000920E-02 0. -1.
</event>
<event>
 5   0  0.3701250E-08  0.3814816E+04  0.7818609E-02  0.8042983E-01
       -1   -1    0    0    0  501  0.00000000000E+00  0.00000000000E+00  0.24051790675E+04  0.24051790675E+04  0.50400001928E-02 0.  1.
        1   -1    0    0  501    0  0.00000000000E+00  0.00000000000E+00 -0.15126545212E+04  0.15126545212E+04  0.50400001928E-02 0. -1.
    10030    2    1    2    0    0  0.00000000000E+00  0.00000000000E+00  0.89252454624E+03  0.39178335887E+04  0.38148158492E+04 0.  0.
        2    1    3    3  502    0 -0.15831049101E+03  0.11345206553E+04  0.20125725258E+04  0.23157390830E+04  0.25500000920E-02 0.  1.
       -2    1    3    3    0  502  0.15831049101E+03 -0.11345206553E+04 -0.11200479795E+04  0.16020945057E+04  0.25500000920E-02 0. -1.
</event>
<event>
 5   0  0.3889225E-08  0.3851640E+04  0.7818609E-02  0.8035163E-01
       -1   -1    0    0    0  501  0.00000000000E+00  0.00000000000E+00  0.17701386515E+04  0.17701386515E+04  0.50400001928E-02 0.  1.
        1   -1    0    0  501    0  0.00000000000E+00  0.00000000000E+00 -0.20951935464E+04  0.20951935464E+04  0.50400001928E-02 0. -1.
    10030    2    1    2    0    0  0.00000000000E+00  0.00000000000E+00 -0.32505489489E+03  0.38653321979E+04  0.38516402110E+04 0.  0.
        5    1    3    3  502    0  0.14091367915E+03 -0.17615416200E+04 -0.93067342449E+03  0.19972632919E+04  0.46999998093E+01 0. -1.
       -5    1    3    3    0  502 -0.14091367915E+03  0.17615416200E+04  0.60561852961E+03  0.18680689060E+04  0.46999998093E+01 0.  1.
</event>
<event>
 5   0  0.1143283E-07  0.3789465E+04  0.7818609E-02  0.8048419E-01
       -2   -1    0    0    0  501  0.00000000000E+00  0.00000000000E+00  0.15779563996E+04  0.15779563996E+04  0.25500000920E-02 0.  1.
        2   -1    0    0  501    0  0.00000000000E+00  0.00000000000E+00 -0.22751018394E+04  0.22751018394E+04  0.25500000920E-02 0. -1.
    10030    2    1    2    0    0  0.00000000000E+00  0.00000000000E+00 -0.69714543983E+03  0.38530582390E+04  0.37894651376E+04 0.  0.
        1    1    3    3  502    0  0.88415966820E+03  0.15282421511E+04 -0.10476787050E+04  0.20530204724E+04  0.50400001928E-02 0. -1.
       -1    1    3    3    0  502 -0.88415966820E+03 -0.15282421511E+04  0.35053326512E+03  0.18000377666E+04  0.50400001928E-02 0.  1.
</event>
<event>
 5   0  0.3701250E-08  0.3798690E+04  0.7818609E-02  0.8046436E-01
       -3   -1    0    0    0  501  0.00000000000E+00  0.00000000000E+00  0.19419580558E+04  0.19419580585E+04  0.10100000352E+00 0. -1.
        3   -1    0    0  501    0  0.00000000000E+00  0.00000000000E+00 -0.18576669904E+04  0.18576669931E+04  0.10100000352E+00 0.  1.
    10030    2    1    2    0    0  0.00000000000E+00  0.00000000000E+00  0.84291065448E+02  0.37996250516E+04  0.37986899780E+04 0.  0.
        2    1    3    3  502    0 -0.79560697017E+03 -0.17096818053E+04  0.26915747663E+03  0.19048485697E+04  0.25500000920E-02 0. -1.
       -2    1    3    3    0  502  0.79560697017E+03  0.17096818053E+04 -0.18486641118E+03  0.18947764819E+04  0.25500000920E-02 0.  1.
</event>
<event>
 5   0  0.1143283E-07  0.3858014E+04  0.7818609E-02  0.8033819E-01
       -2   -1    0    0    0  501  0.00000000000E+00  0.00000000000E+00  0.18144022948E+04  0.18144022948E+04  0.25500000920E-02 0. -1.
        2   -1    0    0  501    0  0.00000000000E+00  0.00000000000E+00 -0.20508510217E+04  0.20508510217E+04  0.25500000920E-02 0.  1.
    10030    2    1    2    0    0  0.00000000000E+00  0.00000000000E+00 -0.23644872685E+03  0.38652533165E+04  0.38580144116E+04 0.  0.
        1    1    3    3  502    0  0.12993380194E+04  0.69561686519E+03  0.11286616213E+04  0.18563510356E+04  0.50400001928E-02 0. -1.
       -1    1    3    3    0  502 -0.12993380194E+04 -0.69561686519E+03 -0.13651103482E+04  0.20089022810E+04  0.50400001928E-02 0.  1.
</event>
<event>
 5   0  0.3701250E-08  0.3804067E+04  0.7818609E-02  0.8045283E-01
       -1   -1    0    0    0  501  0.00000000000E+00  0.00000000000E+00  0.15181089292E+04  0.15181089292E+04  0.50400001928E-02 0.  1.
        1   -1    0    0  501    0  0.00000000000E+00  0.00000000000E+00 -0.23830509315E+04  0.23830509315E+04  0.50400001928E-02 0. -1.
    10030    2    1    2    0    0  0.00000000000E+00  0.00000000000E+00 -0.86494200232E+03  0.39011598607E+04  0.38040667175E+04 0.  0.
        1    1    3    3  502    0 -0.35134085943E+03 -0.15850722420E+03 -0.23425800411E+04  0.23740779660E+04  0.50400001928E-02 0. -1.
       -1    1    3    3    0  502  0.35134085943E+03  0.15850722420E+03  0.14776380387E+04  0.15270818947E+04  0.50400001928E-02 0.  1.
</event>
<event>
 5   0  0.3701250E-08  0.3812682E+04  0.7818609E-02  0.8043439E-01
        1   -1    0    0  501    0  0.00000000000E+00  0.00000000000E+00  0.27182275525E+04  0.27182275525E+04  0.50400001928E-02 0.  1.
       -1   -1    0    0    0  501  0.00000000000E+00  0.00000000000E+00 -0.13369503837E+04  0.13369503837E+04  0.50400001928E-02 0. -1.
    10030    2    1    2    0    0  0.00000000000E+00  0.00000000000E+00  0.13812771688E+04  0.40551779362E+04  0.38126816648E+04 0.  0.
        2    1    3    3  502    0  0.46648865066E+02 -0.16474582624E+04  0.17096123061E+04  0.23746724154E+04  0.25500000920E-02 0.  1.
       -2    1    3    3    0  502 -0.46648865066E+02  0.16474582624E+04 -0.32833513729E+03  0.16805055208E+04  0.25500000920E-02 0. -1.
</event>
<event>
 5   0  0.3889225E-08  0.3783495E+04  0.7818609E-02  0.8049706E-01
       -1   -1    0    0    0  501  0.00000000000E+00  0.00000000000E+00  0.16781969941E+04  0.16781969941E+04  0.50400001928E-02 0. -1.
        1   -1    0    0  501    0  0.00000000000E+00  0.00000000000E+00 -0.21324727763E+04  0.21324727763E+04  0.50400001928E-02 0.  1.
    10030    2    1    2    0    0  0.00000000000E+00  0.00000000000E+00 -0.45427578220E+03  0.38106697705E+04  0.37834954227E+04 0.  0.
        5    1    3    3  502    0  0.10083936612E+04 -0.15962900164E+04 -0.34497271887E+03  0.19193821556E+04  0.46999998093E+01 0.  1.
       -5    1    3    3    0  502 -0.10083936612E+04  0.15962900164E+04 -0.10930306333E+03  0.18912876149E+04  0.46999998093E+01 0. -1.
</event>
<event>
 5   0  0.7858367E-08  0.3801013E+04  0.7818609E-02  0.8045937E-01
        2   -1    0    0  501    0  0.00000000000E+00  0.00000000000E+00  0.21387281410E+04  0.21387281410E+04  0.25500000920E-02 0.  1.
       -2   -1    0    0    0  501  0.00000000000E+00  0.00000000000E+00 -0.16888194689E+04  0.16888194689E+04  0.25500000920E-02 0. -1.
    10030    2    1    2    0    0  0.00000000000E+00  0.00000000000E+00  0.44990867211E+03  0.38275476099E+04  0.38010134034E+04 0.  0.
        2    1    3    3  502    0 -0.13059092645E+04 -0.12306831249E+04 -0.40547176696E+03  0.18396704365E+04  0.25500000920E-02 0. -1.
       -2    1    3    3    0  502  0.13059092645E+04  0.12306831249E+04  0.85538043907E+03  0.19878771734E+04  0.25500000920E-02 0.  1.
</event>
<event>
 5   0  0.7858367E-08  0.3791712E+04  0.7818609E-02  0.8047936E-01
       -2   -1    0    0    0  501  0.00000000000E+00  0.00000000000E+00  0.13925018084E+04  0.13925018084E+04  0.25500000920E-02 0. -1.
        2   -1    0    0  501    0  0.00000000000E+00  0.00000000000E+00 -0.25811598679E+04  0.25811598679E+04  0.25500000920E-02 0.  1.
    10030    2    1    2    0    0  0.00000000000E+00  0.00000000000E+00 -0.11886580594E+04  0.39736616763E+04  0.37917119003E+04 0.  0.
        2    1    3    3  502    0 -0.35390029188E+03 -0.16070342900E+04  0.39237384039E+03  0.16916742762E+04  0.25500000920E-02 0. -1.
       -2    1    3    3    0  502  0.35390029188E+03  0.16070342900E+04 -0.15810318998E+04  0.22819874001E+04  0.25500000920E-02 0.  1.
</event>
<event>
 5   0  0.1193861E-07  0.3805431E+04  0.7818609E-02  0.8044990E-01
       -2   -1    0    0    0  501  0.00000000000E+00  0.00000000000E+00  0.27005942670E+04  0.27005942670E+04  0.25500000920E-02 0.  1.
        2   -1    0    0  501    0  0.00000000000E+00  0.00000000000E+00 -0.13405666144E+04  0.13405666144E+04  0.25500000920E-02 0. -1.
    10030    2    1    2    0    0  0.00000000000E+00  0.00000000000E+00  0.13600276526E+04  0.40411608814E+04  0.38054311259E+04 0.  0.
        3    1    3    3  502    0  0.60369594181E+03  0.17117013578E+04  0.73721766681E+02  0.18165366051E+04  0.10100000352E+00 0.  1.
       -3    1    3    3    0  502 -0.60369594181E+03 -0.17117013578E+04  0.12863058859E+04  0.22246242763E+04  0.10100000352E+00 0. -1.
</event>
<event>
 5   0  0.3701250E-08  0.3803268E+04  0.7818609E-02  0.8045454E-01
        1   -1    0    0  501    0  0.00000000000E+00  0.00000000000E+00  0.19536500154E+04  0.19536500154E+04  0.50400001928E-02 0. -1.
       -1   -1    0    0    0  501  0.00000000000E+00  0.00000000000E+00 -0.18510033481E+04  0.18510033481E+04  0.50400001928E-02 0.  1.
    10030    2    1    2    0    0  0.00000000000E+00  0.00000000000E+00  0.10264666723E+03  0.38046533635E+04  0.38032684468E+04 0.  0.
        4    1    3    3  502    0 -0.52148341947E+03  0.73199784694E+03  0.17277752419E+04  0.19475560850E+04  0.12699999809E+01 0. -1.
       -4    1    3    3    0  502  0.52148341947E+03 -0.73199784694E+03 -0.16251285747E+04  0.18570972785E+04  0.12699999809E+01 0.  1.
</event>
<event>
 5   0  0.7858367E-08  0.3785594E+04  0.7818609E-02  0.8049253E-01
       -2   -1    0    0    0  501  0.00000000000E+00  0.00000000000E+00  0.14401573714E+04  0.14401573714E+04  0.25500000920E-02 0. -1.
        2   -1    0    0  501    0  0.00000000000E+00  0.00000000000E+00 -0.24877011670E+04  0.24877011670E+04  0.25500000920E-02 0.  1.
    10030    2    1    2    0    0  0.00000000000E+00  0.00000000000E+00 -0.10475437956E+04  0.39278585383E+04  0.37855943646E+04 0.  0.
        2    1    3    3  502    0 -0.60509124012E+03  0.80668859759E+03  0.11382360664E+04  0.15206785476E+04  0.25500000920E-02 0. -1.
       -2    1    3    3    0  502  0.60509124012E+03 -0.80668859759E+03 -0.21857798620E+04  0.24071799907E+04  0.25500000920E-02 0.  1.
</event>
<event>
 5   0  0.3701250E-08  0.3811803E+04  0.7818609E-02  0.8043627E-01
        1   -1    0    0  501    0  0.00000000000E+00  0.00000000000E+00  0.31833706179E+04  0.31833706179E+04  0.50400001928E-02 0. -1.
       -1   -1    0    0    0  501  0.00000000000E+00  0.00000000000E+00 -0.11410737405E+04  0.11410737405E+04  0.50400001928E-02 0.  1.
    10030    2    1    2    0    0  0.00000000000E+00  0.00000000000E+00  0.20422968774E+04  0.43244443584E+04  0.38118030475E+04 0.  0.
        2    1    3    3  502    0 -0.52244150267E+03 -0.13909539128E+04  0.23753120210E+04  0.28017503651E+04  0.25500000920E-02 0. -1.
       -2    1    3    3    0  502  0.52244150267E+03  0.13909539128E+04 -0.33301514357E+03  0.15226939933E+04  0.25500000920E-02 0.  1.
</event>
<event>
 5   0  0.1143283E-07  0.3789613E+04  0.7818609E-02  0.8048388E-01
        2   -1    0    0  501    0  0.00000000000E+00  0.00000000000E+00  0.27858439368E+04  0.27858439368E+04  0.25500000920E-02 0.  1.
       -2   -1    0    0    0  501  0.00000000000E+00  0.00000000000E+00 -0.12887624790E+04  0.12887624790E+04  0.25500000920E-02 0. -1.
    10030    2    1    2    0    0  0.00000000000E+00  0.00000000000E+00  0.14970814579E+04  0.40746064158E+04  0.37896127180E+04 0.  0.
        1    1    3    3  502    0 -0.16282835528E+03  0.17284145683E+04  0.15648189007E+04  0.23372180440E+04  0.50400001928E-02 0.  1.
       -1    1    3    3    0  502  0.16282835528E+03 -0.17284145683E+04 -0.67737442876E+02  0.17373883718E+04  0.50400001928E-02 0. -1.
</event>
<event>
 5   0  0.1193861E-07  0.3799750E+04  0.7818609E-02  0.8046209E-01
        2   -1    0    0  501    0  0.00000000000E+00  0.00000000000E+00  0.22141288392E+04  0.22141288392E+04  0.25500000920E-02 0. -1.
       -2   -1    0    0    0  501  0.00000000000E+00  0.00000000000E+00 -0.16302231518E+04  0.16302231518E+04  0.25500000920E-02 0.  1.
    10030    2    1    2    0    0  0.00000000000E+00  0.00000000000E+00  0.58390568736E+03  0.38443519911E+04  0.37997495154E+04 0.  0.
        3    1    3    3  502    0 -0.10723618263E+04  0.13883701970E+04  0.10298925659E+04  0.20342591767E+04  0.10100000352E+00 0. -1.
       -3    1    3    3    0  502  0.10723618263E+04 -0.13883701970E+04 -0.44598687859E+03  0.18100928143E+04  0.10100000352E+00 0.  1.
</event>
<event>
 5   0  0.3701250E-08  0.3811267E+04  0.7818609E-02  0.8043741E-01
       -1   -1    0    0    0  501  0.00000000000E+00  0.00000000000E+00  0.19151275566E+04  0.19151275566E+04  0.50400001928E-02 0. -1.
        1   -1    0    0  501    0  0.00000000000E+00  0.00000000000E+00 -0.18961869503E+04  0.18961869503E+04  0.50400001928E-02 0.  1.
    10030    2    1    2    0    0  0.00000000000E+00  0.00000000000E+00  0.18940606291E+02  0.38113145069E+04  0.38112674432E+04 0.  0.
        4    1    3    3  502    0  0.24616243233E+03 -0.10294023602E+04  0.15941580089E+04  0.19135324749E+04  0.12699999809E+01 0.  1.
       -4    1    3    3    0  502 -0.24616243233E+03  0.10294023602E+04 -0.15752174026E+04  0.18977820319E+04  0.12699999809E+01 0. -1.
</event>
<event>
 5   0  0.3701250E-08  0.3798872E+04  0.7818609E-02  0.8046397E-01
       -1   -1    0    0    0  501  0.00000000000E+00  0.00000000000E+00  0.17974625951E+04  0.17974625951E+04  0.50400001928E-02 0.  1.
        1   -1    0    0  501    0  0.00000000000E+00  0.00000000000E+00 -0.20071944964E+04  0.20071944964E+04  0.50400001928E-02 0. -1.
    10030    2    1    2    0    0  0.00000000000E+00  0.00000000000E+00 -0.20973190127E+03  0.38046570915E+04  0.37988719527E+04 0.  0.
        4    1    3    3  502    0  0.99526714398E+03 -0.24169298847E+03  0.14972210594E+04  0.18140134239E+04  0.12699999809E+01 0.  1.
       -4    1    3    3    0  502 -0.99526714398E+03  0.24169298847E+03 -0.17069529606E+04  0.19906436676E+04  0.12699999809E+01 0. -1.
</event>
<event>
 5   0  0.3701250E-08  0.3805687E+04  0.7818609E-02  0.8044936E-01
        1   -1    0    0  501    0  0.00000000000E+00  0.00000000000E+00  0.18252393821E+04  0.18252393821E+04  0.50400001928E-02 0.  1.
       -1   -1    0    0    0  501  0.00000000000E+00  0.00000000000E+00 -0.19837472012E+04  0.19837472012E+04  0.50400001928E-02 0. -1.
    10030    2    1    2    0    0  0.00000000000E+00  0.00000000000E+00 -0.15850781913E+03  0.38089865833E+04  0.38056870685E+04 0.  0.
        4    1    3    3  502    0 -0.12266980909E+03  0.18784448836E+04  0.19885178580E+03  0.18929201537E+04  0.12699999809E+01 0. -1.
       -4    1    3    3    0  502  0.12266980909E+03 -0.18784448836E+04 -0.35735960493E+03  0.19160664296E+04  0.12699999809E+01 0.  1.
</event>
<event>
 5   0  0.7858367E-08  0.3800415E+04  0.7818609E-02  0.8046066E-01
        2   -1    0    0  501    0  0.00000000000E+00  0.00000000000E+00  0.25161512310E+04  0.25161512310E+04  0.25500000920E-02 0. -1.
       -2   -1    0    0    0  501  0.00000000000E+00  0.00000000000E+00 -0.14350442885E+04  0.14350442885E+04  0.25500000920E-02 0.  1.
    10030    2    1    2    0    0  0.00000000000E+00  0.00000000000E+00  0.10811069426E+04  0.39511955195E+04  0.38004149526E+04 0.  0.
        2    1    3    3  502    0 -0.18478084593E+04  0.43752942547E+03  0.46732941483E+03  0.19555625488E+04  0.25500000920E-02 0. -1.
       -2    1    3    3    0  502  0.18478084593E+04 -0.43752942547E+03  0.61377752774E+03  0.19956329707E+04  0.25500000920E-02 0.  1.
</event>
<event>
 5   0  0.3701250E-08  0.3743264E+04  0.7818609E-02  0.8058441E-01
       -1   -1    0    0    0  501  0.00000000000E+00  0.00000000000E+00  0.13817054140E+04  0.13817054140E+04  0.50400001928E-02 0. -1.
        1   -1    0    0  501    0  0.00000000000E+00  0.00000000000E+00 -0.25352779288E+04  0.25352779288E+04  0.50400001928E-02 0.  1.
    10030    2    1    2    0    0  0.00000000000E+00  0.00000000000E+00 -0.11535725148E+04  0.39169833428E+04  0.37432644792E+04 0.  0.
        1    1    3    3  502    0 -0.14690378039E+04  0.10237670612E+04 -0.11468975259E+04  0.21263924849E+04  0.50400001928E-02 0.  1.
       -1    1    3    3    0  502  0.14690378039E+04 -0.10237670612E+04 -0.66749889206E+01  0.17905908579E+04  0.50400001928E-02 0. -1.
</event>
<event>
 5   0  0.1150235E-07  0.3820539E+04  0.7818609E-02  0.8041762E-01
       -2   -1    0    0    0  501  0.00000000000E+00  0.00000000000E+00  0.24463139552E+04  0.24463139552E+04  0.25500000920E-02 0. -1.
        2   -1    0    0  501    0  0.00000000000E+00  0.00000000000E+00 -0.14916848025E+04  0.14916848025E+04  0.25500000920E-02 0.  1.
    10030    2    1    2    0    0  0.00000000000E+00  0.00000000000E+00  0.95462915269E+03  0.39379987577E+04  0.38205388882E+04 0.  0.
        4    1    3    3  502    0 -0.47071957201E+03 -0.62670468045E+03 -0.13183095005E+04  0.15337135404E+04  0.12699999809E+01 0.  1.
       -4    1    3    3    0  502  0.47071957201E+03  0.62670468045E+03  0.22729386532E+04  0.24042852173E+04  0.12699999809E+01 0. -1.
</event>
<event>
 5   0  0.3889225E-08  0.3798680E+04  0.7818609E-02  0.8046438E-01
        1   -1    0    0  501    0  0.00000000000E+00  0.00000000000E+00  0.31635495616E+04  0.31635495616E+04  0.50400001928E-02 0. -1.
       -1   -1    0    0    0  501  0.00000000000E+00  0.00000000000E+00 -0.11403308037E+04  0.11403308037E+04  0.50400001928E-02 0.  1.
    10030    2    1    2    0    0  0.00000000000E+00  0.00000000000E+00  0.20232187579E+04  0.43038803653E+04  0.37986803046E+04 0.  0.
        5    1    3    3  502    0  0.24569583882E+03  0.53867333405E+02  0.31445891037E+04  0.31546364063E+04  0.46999998093E+01 0. -1.
       -5    1    3    3    0  502 -0.24569583882E+03 -0.53867333405E+02 -0.11213703458E+04  0.11492439590E+04  0.46999998093E+01 0.  1.
</event>
<event>
 5   0  0.3889225E-08  0.3782808E+04  0.7818609E-02  0.8049854E-01
       -1   -1    0    0    0  501  0.00000000000E+00  0.00000000000E+00  0.27343026387E+04  0.27343026387E+04  0.50400001928E-02 0.  1.
        1   -1    0    0  501    0  0.00000000000E+00  0.00000000000E+00 -0.13083441394E+04  0.13083441394E+04  0.50400001928E-02 0. -1.
    10030    2    1    2    0    0  0.00000000000E+00  0.00000000000E+00  0.14259584994E+04  0.40426467781E+04  0.37828078633E+04 0.  0.
        5    1    3    3  502    0  0.10393533662E+04 -0.11957914252E+04  0.18170001865E+04  0.24107435202E+04  0.46999998093E+01 0.  1.
       -5    1    3    3    0  502 -0.10393533662E+04  0.11957914252E+04 -0.39104168712E+03  0.16319032580E+04  0.46999998093E+01 0. -1.
</event>
<event>
 5   0  0.1143283E-07  0.3789924E+04  0.7818609E-02  0.8048321E-01
       -2   -1    0    0    0  501  0.00000000000E+00  0.00000000000E+00  0.19158997640E+04  0.19158997640E+04  0.25500000920E-02 0.  1.
        2   -1    0    0  501    0  0.00000000000E+00  0.00000000000E+00 -0.18742532916E+04  0.18742532916E+04  0.25500000920E-02 0. -1.
    10030    2    1    2    0    0  0.00000000000E+00  0.00000000000E+00  0.41646472376E+02  0.37901530556E+04  0.37899242415E+04 0.  0.
        1    1    3    3  502    0 -0.15175826271E+04  0.10591915351E+03 -0.11091146802E+04  0.18826606893E+04  0.50400001928E-02 0. -1.
       -1    1    3    3    0  502  0.15175826271E+04 -0.10591915351E+03  0.11507611526E+04  0.19074923663E+04  0.50400001928E-02 0.  1.
</event>
<event>
 5   0  0.3701250E-08  0.3798957E+04  0.7818609E-02  0.8046379E-01
        1   -1    0    0  501    0  0.00000000000E+00  0.00000000000E+00  0.23881837588E+04  0.23881837588E+04  0.50400001928E-02 0. -1.
       -1   -1    0    0    0  501  0.00000000000E+00  0.00000000000E+00 -0.15107790260E+04  0.15107790260E+04  0.50400001928E-02 0.  1.
    10030    2    1    2    0    0  0.00000000000E+00  0.00000000000E+00  0.87740473277E+03  0.38989627849E+04  0.37989566637E+04 0.  0.
        4    1    3    3  502    0 -0.13707221209E+04 -0.13711611468E+03 -0.90352322379E+03  0.16474330913E+04  0.12699999809E+01 0.  1.
       -4    1    3    3    0  502  0.13707221209E+04  0.13711611468E+03  0.17809279566E+04  0.22515296935E+04  0.12699999809E+01 0. -1.
</event>
<event>
 5   0  0.3889225E-08  0.3808998E+04  0.7818609E-02  0.8044227E-01
        1   -1    0    0  501    0  0.00000000000E+00  0.00000000000E+00  0.13129377064E+04  0.13129377064E+04  0.50400001928E-02 0.  1.
       -1   -1    0    0    0  501  0.00000000000E+00  0.00000000000E+00 -0.27625954477E+04  0.27625954477E+04  0.50400001928E-02 0. -1.
    10030    2    1    2    0    0  0.00000000000E+00  0.00000000000E+00 -0.14496577412E+04  0.40755331541E+04  0.38089976271E+04 0.  0.
        5    1    3    3  502    0 -0.64597111260E+03 -0.14386786564E+04  0.41760142993E+03  0.16314067546E+04  0.46999998093E+01 0.  1.
       -5    1    3    3    0  502  0.64597111260E+03  0.14386786564E+04 -0.18672591712E+04  0.24441263995E+04  0.46999998093E+01 0. -1.
</event>
<event>
 5   0  0.3701250E-08  0.3776999E+04  0.7818609E-02  0.8051109E-01
       -3   -1    0    0    0  501  0.00000000000E+00  0.00000000000E+00  0.19802082163E+04  0.19802082189E+04  0.10100000352E+00 0.  1.
        3   -1    0    0  501    0  0.00000000000E+00  0.00000000000E+00 -0.18010384126E+04  0.18010384154E+04  0.10100000352E+00 0. -1.
    10030    2    1    2    0    0  0.00000000000E+00  0.00000000000E+00  0.17916980376E+03  0.37812466343E+04  0.37769993766E+04 0.  0.
        4    1    3    3  502    0 -0.18610518943E+04 -0.27729363843E+03  0.25108445194E+03  0.18982757782E+04  0.12699999809E+01 0.  1.
       -4    1    3    3    0  502  0.18610518943E+04  0.27729363843E+03 -0.71914648173E+02  0.18829708561E+04  0.12699999809E+01 0. -1.
</event>
<event>
 5   0  0.1193861E-07  0.3796942E+04  0.7818609E-02  0.8046811E-01
        2   -1    0    0  501    0  0.00000000000E+00  0.00000000000E+00  0.14486682218E+04  0.14486682218E+04  0.25500000920E-02 0.  1.
       -2   -1    0    0    0  501  0.00000000000E+00  0.00000000000E+00 -0.24879348767E+04  0.24879348767E+04  0.25500000920E-02 0. -1.
    10030    2    1    2    0    0  0.00000000000E+00  0.00000000000E+00 -0.10392666549E+04  0.39366030985E+04  0.37969420295E+04 0.  0.
        3    1    3    3  502    0 -0.13928173538E+04 -0.34274248415E+03 -0.18090755297E+04  0.23087154164E+04  0.10100000352E+00 0. -1.
       -3    1    3    3    0  502  0.13928173538E+04  0.34274248415E+03  0.76980887486E+03  0.16278876821E+04  0.10100000352E+00 0.  1.
</event>
<event>
 5   0  0.3701250E-08  0.3808489E+04  0.7818609E-02  0.8044336E-01
       -1   -1    0    0    0  501  0.00000000000E+00  0.00000000000E+00  0.33428709178E+04  0.33428709178E+04  0.50400001928E-02 0.  1.
        1   -1    0    0  501    0  0.00000000000E+00  0.00000000000E+00 -0.10847405695E+04  0.10847405695E+04  0.50400001928E-02 0. -1.
    10030    2    1    2    0    0  0.00000000000E+00  0.00000000000E+00  0.22581303483E+04  0.44276114873E+04  0.38084893085E+04 0.  0.
        1    1    3    3  502    0 -0.31914034036E+03  0.11122310489E+04 -0.62915217612E+03  0.13170956396E+04  0.50400001928E-02 0. -1.
       -1    1    3    3    0  502  0.31914034036E+03 -0.11122310489E+04  0.28872825244E+04  0.31105158477E+04  0.50400001928E-02 0.  1.
</event>
<event>
 5   0  0.3889225E-08  0.3821867E+04  0.7818609E-02  0.8041479E-01
       -1   -1    0    0    0  501  0.00000000000E+00  0.00000000000E+00  0.33238971007E+04  0.33238971007E+04  0.50400001928E-02 0.  1.
        1   -1    0    0  501    0  0.00000000000E+00  0.00000000000E+00 -0.10986099347E+04  0.10986099347E+04  0.50400001928E-02 0. -1.
    10030    2    1    2    0    0  0.00000000000E+00  0.00000000000E+00  0.22252871660E+04  0.44225070355E+04  0.38218667569E+04 0.  0.
        5    1    3    3  502    0 -0.16203282375E+04 -0.91861769602E+03  0.61854593308E+03  0.19626368054E+04  0.46999998093E+01 0. -1.
       -5    1    3    3    0  502  0.16203282375E+04  0.91861769602E+03  0.16067412330E+04  0.24598702300E+04  0.46999998093E+01 0.  1.
</event>
<event>
 5   0  0.3701250E-08  0.3798828E+04  0.7818609E-02  0.8046406E-01
       -1   -1    0    0    0  501  0.00000000000E+00  0.00000000000E+00  0.22143392396E+04  0.22143392396E+04  0.50400001928E-02 0.  1.
        1   -1    0    0  501    0  0.00000000000E+00  0.00000000000E+00 -0.16292779077E+04  0.16292779077E+04  0.50400001928E-02 0. -1.
    10030    2    1    2    0    0  0.00000000000E+00  0.00000000000E+00  0.58506133191E+03  0.38436171473E+04  0.37988282421E+04 0.  0.
        1    1    3    3  502    0  0.18204399313E+04  0.27097286905E+02  0.84024307522E+03  0.20051793516E+04  0.50400001928E-02 0.  1.
       -1    1    3    3    0  502 -0.18204399313E+04 -0.27097286905E+02 -0.25518174332E+03  0.18384377957E+04  0.50400001928E-02 0. -1.
</event>
<event>
 5   0  0.7858367E-08  0.3801016E+04  0.7818609E-02  0.8045937E-01
       -2   -1    0    0    0  501  0.00000000000E+00  0.00000000000E+00  0.16668679967E+04  0.16668679967E+04  0.25500000920E-02 0.  1.
        2   -1    0    0  501    0  0.00000000000E+00  0.00000000000E+00 -0.21668964706E+04  0.21668964706E+04  0.25500000920E-02 0. -1.
    10030    2    1    2    0    0  0.00000000000E+00  0.00000000000E+00 -0.50002847387E+03  0.38337644672E+04  0.38010158531E+04 0.  0.
        2    1    3    3  502    0 -0.16745497261E+04  0.63795109940E+03 -0.88858191665E+03  0.20001690461E+04  0.25500000920E-02 0. -1.
       -2    1    3    3    0  502  0.16745497261E+04 -0.63795109940E+03  0.38855344278E+03  0.18335954211E+04  0.25500000920E-02 0.  1.
</event>
<event>
 5   0  0.1174870E-07  0.3785218E+04  0.7818609E-02  0.8049334E-01
        2   -1    0    0  501    0  0.00000000000E+00  0.00000000000E+00  0.25179281315E+04  0.25179281315E+04  0.25500000920E-02 0. -1.
       -2   -1    0    0    0  501  0.00000000000E+00  0.00000000000E+00 -0.14225860531E+04  0.14225860531E+04  0.25500000920E-02 0.  1.
    10030    2    1    2    0    0  0.00000000000E+00  0.00000000000E+00  0.10953420783E+04  0.39405141846E+04  0.37852183253E+04 0.  0.
        5    1    3    3  502    0  0.61843397978E+03 -0.58064652632E+03  0.23089262709E+04  0.24598320248E+04  0.46999998093E+01 0. -1.
       -5    1    3    3    0  502 -0.61843397978E+03  0.58064652632E+03 -0.12135841925E+04  0.14806821598E+04  0.46999998093E+01 0.  1.
</event>
<event>
 5   0  0.3889225E-08  0.3792291E+04  0.7818609E-02  0.8047811E-01
        1   -1    0    0  501    0  0.00000000000E+00  0.00000000000E+00  0.28025652403E+04  0.28025652403E+04  0.50400001928E-02 0. -1.
       -1   -1    0    0    0  501  0.00000000000E+00  0.00000000000E+00 -0.12828845630E+04  0.12828845631E+04  0.50400001928E-02 0.  1.
    10030    2    1    2    0    0  0.00000000000E+00  0.00000000000E+00  0.15196806773E+04  0.40854498034E+04  0.37922909613E+04 0.  0.
        5    1    3    3  502    0  0.51929034801E+03 -0.17058760737E+04  0.14544047745E+04  0.23010847404E+04  0.46999998093E+01 0. -1.
       -5    1    3    3    0  502 -0.51929034801E+03  0.17058760737E+04  0.65275902793E+02  0.17843650630E+04  0.46999998093E+01 0.  1.
</event>
<event>
 5   0  0.1150235E-07  0.3796846E+04  0.7818609E-02  0.8046832E-01
       -2   -1    0    0    0  501  0.00000000000E+00  0.00000000000E+00  0.17823173245E+04  0.17823173245E+04  0.25500000920E-02 0.  1.
        2   -1    0    0  501    0  0.00000000000E+00  0.00000000000E+00 -0.20220916361E+04  0.20220916361E+04  0.25500000920E-02 0. -1.
    10030    2    1    2    0    0  0.00000000000E+00  0.00000000000E+00 -0.23977431166E+03  0.38044089606E+04  0.37968455090E+04 0.  0.
        4    1    3    3  502    0  0.14255120919E+04  0.78823935474E+03  0.85704292004E+03  0.18406330933E+04  0.12699999809E+01 0.  1.
       -4    1    3    3    0  502 -0.14255120919E+04 -0.78823935474E+03 -0.10968172317E+04  0.19637758673E+04  0.12699999809E+01 0. -1.
</event>
<event>
 5   0  0.1150235E-07  0.3760340E+04  0.7818609E-02  0.8054720E-01
       -2   -1    0    0    0  501  0.00000000000E+00  0.00000000000E+00  0.15975265423E+04  0.15975265423E+04  0.25500000920E-02 0.  1.
        2   -1    0    0  501    0  0.00000000000E+00  0.00000000000E+00 -0.22128203339E+04  0.22128203339E+04  0.25500000920E-02 0. -1.
    10030    2    1    2    0    0  0.00000000000E+00  0.00000000000E+00 -0.61529379156E+03  0.38103468762E+04  0.37603399936E+04 0.  0.
        4    1    3    3  502    0  0.15472600394E+04  0.96114238926E+03 -0.77992366471E+03  0.19814365641E+04  0.12699999809E+01 0. -1.
       -4    1    3    3    0  502 -0.15472600394E+04 -0.96114238926E+03  0.16462987315E+03  0.18289103121E+04  0.12699999809E+01 0.  1.
</event>
<event>
 5   0  0.1150235E-07  0.3810740E+04  0.7818609E-02  0.8043854E-01
       -2   -1    0    0    0  501  0.00000000000E+00  0.00000000000E+00  0.24862202575E+04  0.24862202575E+04  0.25500000920E-02 0.  1.
        2   -1    0    0  501    0  0.00000000000E+00  0.00000000000E+00 -0.14602225378E+04  0.14602225378E+04  0.25500000920E-02 0. -1.
    10030    2    1    2    0    0  0.00000000000E+00  0.00000000000E+00  0.10259977196E+04  0.39464427953E+04  0.38107400090E+04 0.  0.
        4    1    3    3  502    0 -0.68066698953E+03 -0.11471599967E+04 -0.89602145562E+03  0.16069037527E+04  0.12699999809E+01 0. -1.
       -4    1    3    3    0  502  0.68066698953E+03  0.11471599967E+04  0.19220191753E+04  0.23395390426E+04  0.12699999809E+01 0.  1.
</event>
<event>
 5   0  0.7858367E-08  0.3791246E+04  0.7818609E-02  0.8048036E-01
       -2   -1    0    0    0  501  0.00000000000E+00  0.00000000000E+00  0.18287000824E+04  0.18287000824E+04  0.25500000920E-02 0. -1.
        2   -1    0    0  501    0  0.00000000000E+00  0.00000000000E+00 -0.19649946855E+04  0.19649946855E+04  0.25500000920E-02 0.  1.
    10030    2    1    2    0    0  0.00000000000E+00  0.00000000000E+00 -0.13629460316E+03  0.37936947679E+04  0.37912456757E+04 0.  0.
        2    1    3    3  502    0  0.13093235039E+04  0.51605084264E+02 -0.14388477992E+04  0.19460920101E+04  0.25500000920E-02 0.  1.
       -2    1    3    3    0  502 -0.13093235039E+04 -0.51605084264E+02  0.13025531960E+04  0.18476027579E+04  0.25500000920E-02 0. -1.
</event>
<event>
 5   0  0.1143283E-07  0.3804406E+04  0.7818609E-02  0.8045210E-01
       -2   -1    0    0    0  501  0.00000000000E+00  0.00000000000E+00  0.16763908094E+04  0.16763908094E+04  0.25500000920E-02 0.  1.
        2   -1    0    0  501    0  0.00000000000E+00  0.00000000000E+00 -0.21584318468E+04  0.21584318468E+04  0.25500000920E-02 0. -1.
    10030    2    1    2    0    0  0.00000000000E+00  0.00000000000E+00 -0.48204103735E+03  0.38348226562E+04  0.38044055045E+04 0.  0.
        1    1    3    3  502    0 -0.82737332353E+03  0.10223580016E+04  0.11442351906E+04  0.17432833021E+04  0.50400001928E-02 0.  1.
       -1    1    3    3    0  502  0.82737332353E+03 -0.10223580016E+04 -0.16262762280E+04  0.20915393541E+04  0.50400001928E-02 0. -1.
</event>
<event>
 5   0  0.3701250E-08  0.3796499E+04  0.7818609E-02  0.8046907E-01
        1   -1    0    0  501    0  0.00000000000E+00  0.00000000000E+00  0.31038068074E+04  0.31038068074E+04  0.50400001928E-02 0.  1.
       -1   -1    0    0    0  501  0.00000000000E+00  0.00000000000E+00 -0.11609455321E+04  0.11609455321E+04  0.50400001928E-02 0. -1.
    10030    2    1    2    0    0  0.00000000000E+00  0.00000000000E+00  0.19428612753E+04  0.42647523395E+04  0.37964987268E+04 0.  0.
        1    1    3    3  502    0 -0.12439448011E+04 -0.12779666669E+03  0.25757291743E+04  0.28632344360E+04  0.50400001928E-02 0.  1.
       -1    1    3    3    0  502  0.12439448011E+04  0.12779666669E+03 -0.63286789898E+03  0.14015179035E+04  0.50400001928E-02 0. -1.
</event>
<event>
 5   0  0.3701250E-08  0.3823969E+04  0.7818609E-02  0.8041031E-01
       -1   -1    0    0    0  501  0.00000000000E+00  0.00000000000E+00  0.16559014949E+04  0.16559014949E+04  0.50400001928E-02 0.  1.
        1   -1    0    0  501    0  0.00000000000E+00  0.00000000000E+00 -0.22076708570E+04  0.22076708570E+04  0.50400001928E-02 0. -1.
    10030    2    1    2    0    0  0.00000000000E+00  0.00000000000E+00 -0.55176936213E+03  0.38635723519E+04  0.38239693892E+04 0.  0.
        4    1    3    3  502    0  0.30493525444E+03  0.56552099009E+03 -0.20953357210E+04  0.21916279101E+04  0.12699999809E+01 0. -1.
       -4    1    3    3    0  502 -0.30493525444E+03 -0.56552099009E+03  0.15435663588E+04  0.16719444419E+04  0.12699999809E+01 0.  1.
</event>
<event>
 5   0  0.1193861E-07  0.3780317E+04  0.7818609E-02  0.8050392E-01
        2   -1    0    0  501    0  0.00000000000E+00  0.00000000000E+00  0.17832620801E+04  0.17832620801E+04  0.25500000920E-02 0.  1.
       -2   -1    0    0    0  501  0.00000000000E+00  0.00000000000E+00 -0.20034629931E+04  0.20034629931E+04  0.25500000920E-02 0. -1.
    10030    2    1    2    0    0  0.00000000000E+00  0.00000000000E+00 -0.22020091304E+03  0.37867250733E+04  0.37803172272E+04 0.  0.
        3    1    3    3  502    0  0.10543549117E+04 -0.79819733404E+03 -0.14629141274E+04  0.19720296698E+04  0.10100000352E+00 0. -1.
       -3    1    3    3    0  502 -0.10543549117E+04  0.79819733404E+03  0.12427132144E+04  0.18146954035E+04  0.10100000352E+00 0.  1.
</event>
<event>
 5   0  0.7858367E-08  0.3808624E+04  0.7818609E-02  0.8044307E-01
       -2   -1    0    0    0  501  0.00000000000E+00  0.00000000000E+00  0.14615229750E+04  0.14615229750E+04  0.25500000920E-02 0.  1.
        2   -1    0    0  501    0  0.00000000000E+00  0.00000000000E+00 -0.24812503686E+04  0.24812503686E+04  0.25500000920E-02 0. -1.
    10030    2    1    2    0    0  0.00000000000E+00  0.00000000000E+00 -0.10197273936E+04  0.39427733436E+04  0.38086241192E+04 0.  0.
        2    1    3    3  502    0 -0.14514286679E+04 -0.70774355802E+03 -0.15548018626E+04  0.22416411296E+04  0.25500000920E-02 0. -1.
       -2    1    3    3    0  502  0.14514286679E+04  0.70774355802E+03  0.53507446902E+03  0.17011322139E+04  0.25500000920E-02 0.  1.
</event>
<event>
 5   0  0.3701250E-08  0.3799898E+04  0.7818609E-02  0.8046177E-01
        1   -1    0    0  501    0  0.00000000000E+00  0.00000000000E+00  0.14838529617E+04  0.14838529618E+04  0.50400001928E-02 0. -1.
       -1   -1    0    0    0  501  0.00000000000E+00  0.00000000000E+00 -0.24327245990E+04  0.24327245990E+04  0.50400001928E-02 0.  1.
    10030    2    1    2    0    0  0.00000000000E+00  0.00000000000E+00 -0.94887163726E+03  0.39165775608E+04  0.37998976836E+04 0.  0.
        1    1    3    3  502    0 -0.43562521861E+03  0.11651245970E+04 -0.19546822138E+04  0.23169089784E+04  0.50400001928E-02 0.  1.
       -1    1    3    3    0  502  0.43562521861E+03 -0.11651245970E+04  0.10058105765E+04  0.15996685823E+04  0.50400001928E-02 0. -1.
</event>
<event>
 5   0  0.1150235E-07  0.3804862E+04  0.7818609E-02  0.8045112E-01
       -2   -1    0    0    0  501  0.00000000000E+00  0.00000000000E+00  0.13165171952E+04  0.13165171952E+04  0.25500000920E-02 0. -1.
        2   -1    0    0  501    0  0.00000000000E+00  0.00000000000E+00 -0.27491040978E+04  0.27491040978E+04  0.25500000920E-02 0.  1.
    10030    2    1    2    0    0  0.00000000000E+00  0.00000000000E+00 -0.14325869026E+04  0.40656212930E+04  0.38048615303E+04 0.  0.
        4    1    3    3  502    0 -0.83326055477E+03  0.15211380255E+04  0.11898058923E+03  0.17384884349E+04  0.12699999809E+01 0. -1.
       -4    1    3    3    0  502  0.83326055477E+03 -0.15211380255E+04 -0.15515674918E+04  0.23271328581E+04  0.12699999809E+01 0.  1.
</event>
<event>
 5   0  0.3701250E-08  0.3795975E+04  0.7818609E-02  0.8047019E-01
        1   -1    0    0  501    0  0.00000000000E+00  0.00000000000E+00  0.22352650677E+04  0.22352650677E+04  0.50400001928E-02 0.  1.
       -1   -1    0    0    0  501  0.00000000000E+00  0.00000000000E+00 -0.16116012600E+04  0.16116012600E+04  0.50400001928E-02 0. -1.
    10030    2    1    2    0    0  0.00000000000E+00  0.00000000000E+00  0.62366380770E+03  0.38468663276E+04  0.37959747098E+04 0.  0.
        2    1    3    3  502    0  0.10720342663E+04  0.51213532988E+03 -0.11881524561E+04  0.16802518630E+04  0.25500000920E-02 0. -1.
       -2    1    3    3    0  502 -0.10720342663E+04 -0.51213532988E+03  0.18118162638E+04  0.21666144646E+04  0.25500000920E-02 0.  1.
</event>
<event>
 5   0  0.1193861E-07  0.3671096E+04  0.7818609E-02  0.8074398E-01
        2   -1    0    0  501    0  0.00000000000E+00  0.00000000000E+00  0.11910115583E+04  0.11910115583E+04  0.25500000920E-02 0. -1.
       -2   -1    0    0    0  501  0.00000000000E+00  0.00000000000E+00 -0.28288858743E+04  0.28288858743E+04  0.25500000920E-02 0.  1.
    10030    2    1    2    0    0  0.00000000000E+00  0.00000000000E+00 -0.16378743160E+04  0.40198974326E+04  0.36710956258E+04 0.  0.
        3    1    3    3  502    0  0.11190037009E+04  0.66608574169E+03 -0.22354439871E+04  0.25870928332E+04  0.10100000352E+00 0.  1.
       -3    1    3    3    0  502 -0.11190037009E+04 -0.66608574169E+03  0.59756967115E+03  0.14328045994E+04  0.10100000352E+00 0. -1.
</event>
<event>
 5   0  0.1174870E-07  0.3768371E+04  0.7818609E-02  0.8052977E-01
       -2   -1    0    0    0  501  0.00000000000E+00  0.00000000000E+00  0.12694208441E+04  0.12694208441E+04  0.25500000920E-02 0.  1.
        2   -1    0    0  501    0  0.00000000000E+00  0.00000000000E+00 -0.27966735556E+04  0.27966735556E+04  0.25500000920E-02 0. -1.
    10030    2    1    2    0    0  0.00000000000E+00  0.00000000000E+00 -0.15272527115E+04  0.40660943997E+04  0.37683713754E+04 0.  0.
        5    1    3    3  502    0  0.16363420204E+04  0.75288966581E+03 -0.13601863398E+04  0.22571191873E+04  0.46999998093E+01 0.  1.
       -5    1    3    3    0  502 -0.16363420204E+04 -0.75288966581E+03 -0.16706637169E+03  0.18089752124E+04  0.46999998093E+01 0. -1.
</event>
<event>
 5   0  0.3701250E-08  0.3816426E+04  0.7818609E-02  0.8042639E-01
        1   -1    0    0  501    0  0.00000000000E+00  0.00000000000E+00  0.21882809068E+04  0.21882809068E+04  0.50400001928E-02 0. -1.
       -1   -1    0    0    0  501  0.00000000000E+00  0.00000000000E+00 -0.16639895228E+04  0.16639895228E+04  0.50400001928E-02 0.  1.
    10030    2    1    2    0    0  0.00000000000E+00  0.00000000000E+00  0.52429138401E+03  0.38522704295E+04  0.38164258157E+04 0.  0.
        1    1    3    3  502    0 -0.21929263497E+03  0.13935942002E+04 -0.10348672878E+04  0.17496126308E+04  0.50400001928E-02 0.  1.
       -1    1    3    3    0  502  0.21929263497E+03 -0.13935942002E+04  0.15591586718E+04  0.21026577987E+04  0.50400001928E-02 0. -1.
</event>
<event>
 5   0  0.3889225E-08  0.3761903E+04  0.7818609E-02  0.8054380E-01
        1   -1    0    0  501    0  0.00000000000E+00  0.00000000000E+00  0.22058359778E+04  0.22058359779E+04  0.50400001928E-02 0.  1.
       -1   -1    0    0    0  501  0.00000000000E+00  0.00000000000E+00 -0.16039172098E+04  0.16039172098E+04  0.50400001928E-02 0. -1.
    10030    2    1    2    0    0  0.00000000000E+00  0.00000000000E+00  0.60191876807E+03  0.38097531876E+04  0.37619028626E+04 0.  0.
        5    1    3    3  502    0  0.90700637896E+03 -0.29838569183E+03  0.19421470937E+04  0.21641746732E+04  0.46999998093E+01 0.  1.
       -5    1    3    3    0  502 -0.90700637896E+03  0.29838569183E+03 -0.13402283256E+04  0.16455785145E+04  0.46999998093E+01 0. -1.
</event>
<event>
 5   0  0.1150235E-07  0.3792834E+04  0.7818609E-02  0.8047694E-01
       -2   -1    0    0    0  501  0.00000000000E+00  0.00000000000E+00  0.21911988759E+04  0.21911988759E+04  0.25500000920E-02 0. -1.
        2   -1    0    0  501    0  0.00000000000E+00  0.00000000000E+00 -0.16412923916E+04  0.16412923916E+04  0.25500000920E-02 0.  1.
    10030    2    1    2    0    0  0.00000000000E+00  0.00000000000E+00  0.54990648437E+03  0.38324912675E+04  0.37928343193E+04 0.  0.
        4    1    3    3  502    0 -0.15981062869E+04 -0.42101274727E+03  0.12148405968E+04  0.20511057325E+04  0.12699999809E+01 0. -1.
       -4    1    3    3    0  502  0.15981062869E+04  0.42101274727E+03 -0.66493411240E+03  0.17813855350E+04  0.12699999809E+01 0.  1.
</event>
<event>
 5   0  0.3701250E-08  0.3807763E+04  0.7818609E-02  0.8044491E-01
       -1   -1    0    0    0  501  0.00000000000E+00  0.00000000000E+00  0.15539482542E+04  0.15539482542E+04  0.50400001928E-02 0.  1.
        1   -1    0    0  501    0  0.00000000000E+00  0.00000000000E+00 -0.23326158879E+04  0.23326158879E+04  0.50400001928E-02 0. -1.
    10030    2    1    2    0    0  0.00000000000E+00  0.00000000000E+00 -0.77866763368E+03  0.38865641420E+04  0.38077628007E+04 0.  0.
        3    1    3    3  502    0  0.11563589991E+04 -0.24092637257E+02  0.11542518023E+04  0.16340268735E+04  0.10100000352E+00 0.  1.
       -3    1    3    3    0  502 -0.11563589991E+04  0.24092637257E+02 -0.19329194360E+04  0.22525372685E+04  0.10100000352E+00 0. -1.
</event>
<event>
 5   0  0.7858367E-08  0.3803252E+04  0.7818609E-02  0.8045457E-01
       -2   -1    0    0    0  501  0.00000000000E+00  0.00000000000E+00  0.16970323795E+04  0.16970323795E+04  0.25500000920E-02 0. -1.
        2   -1    0    0  501    0  0.00000000000E+00  0.00000000000E+00 -0.21308855966E+04  0.21308855966E+04  0.25500000920E-02 0.  1.
    10030    2    1    2    0    0  0.00000000000E+00  0.00000000000E+00 -0.43385321703E+03  0.38279179761E+04  0.38032522159E+04 0.  0.
        2    1    3    3  502    0  0.96779400419E+03  0.14332308067E+04  0.57902844403E+03  0.18237460675E+04  0.25500000920E-02 0. -1.
       -2    1    3    3    0  502 -0.96779400419E+03 -0.14332308067E+04 -0.10128816611E+04  0.20041719086E+04  0.25500000920E-02 0.  1.
</event>
<event>
 5   0  0.3701250E-08  0.3812310E+04  0.7818609E-02  0.8043518E-01
       -1   -1    0    0    0  501  0.00000000000E+00  0.00000000000E+00  0.18780177749E+04  0.18780177749E+04  0.50400001928E-02 0. -1.
        1   -1    0    0  501    0  0.00000000000E+00  0.00000000000E+00 -0.19347137128E+04  0.19347137128E+04  0.50400001928E-02 0.  1.
    10030    2    1    2    0    0  0.00000000000E+00  0.00000000000E+00 -0.56695937882E+02  0.38127314878E+04  0.38123099256E+04 0.  0.
        4    1    3    3  502    0  0.16110819373E+04 -0.29496705096E+03  0.94686731805E+03  0.18918641338E+04  0.12699999809E+01 0. -1.
       -4    1    3    3    0  502 -0.16110819373E+04  0.29496705096E+03 -0.10035632559E+04  0.19208673540E+04  0.12699999809E+01 0.  1.
</event>
<event>
 5   0  0.3701250E-08  0.3805729E+04  0.7818609E-02  0.8044927E-01
        1   -1    0    0  501    0  0.00000000000E+00  0.00000000000E+00  0.21503430840E+04  0.21503430840E+04  0.50400001928E-02 0.  1.
       -1   -1    0    0    0  501  0.00000000000E+00  0.00000000000E+00 -0.16838677564E+04  0.16838677564E+04  0.50400001928E-02 0. -1.
    10030    2    1    2    0    0  0.00000000000E+00  0.00000000000E+00  0.46647532762E+03  0.38342108404E+04  0.38057290415E+04 0.  0.
        3    1    3    3  502    0  0.75271824428E+03  0.82212321780E+03 -0.13205175040E+04  0.17280734444E+04  0.10100000352E+00 0. -1.
       -3    1    3    3    0  502 -0.75271824428E+03 -0.82212321780E+03  0.17869928316E+04  0.21061373960E+04  0.10100000352E+00 0.  1.
</event>
<event>
 5   0  0.1174870E-07  0.3831172E+04  0.7818609E-02  0.8039498E-01
        2   -1    0    0  501    0  0.00000000000E+00  0.00000000000E+00  0.20387285251E+04  0.20387285251E+04  0.25500000920E-02 0.  1.
       -2   -1    0    0    0  501  0.00000000000E+00  0.00000000000E+00 -0.17998817398E+04  0.17998817398E+04  0.25500000920E-02 0. -1.
    10030    2    1    2    0    0  0.00000000000E+00  0.00000000000E+00  0.23884678530E+03  0.38386102649E+04  0.38311722721E+04 0.  0.
        5    1    3    3  502    0  0.60499752725E+03 -0.18152971185E+04  0.20972337902E+03  0.19249237965E+04  0.46999998093E+01 0. -1.
       -5    1    3    3    0  502 -0.60499752725E+03  0.18152971185E+04  0.29123406280E+02  0.19136864684E+04  0.46999998093E+01 0.  1.
</event>
<event>
 5   0  0.3889225E-08  0.3831283E+04  0.7818609E-02  0.8039475E-01
        1   -1    0    0  501    0  0.00000000000E+00  0.00000000000E+00  0.14805749744E+04  0.14805749744E+04  0.50400001928E-02 0.  1.
       -1   -1    0    0    0  501  0.00000000000E+00  0.00000000000E+00 -0.24785526803E+04  0.24785526803E+04  0.50400001928E-02 0. -1.
    10030    2    1    2    0    0  0.00000000000E+00  0.00000000000E+00 -0.99797770592E+03  0.39591276546E+04  0.38312833730E+04 0.  0.
        5    1    3    3  502    0 -0.96729005742E+03  0.10664114229E+04 -0.18047912044E+04  0.23087175573E+04  0.46999998093E+01 0. -1.
       -5    1    3    3    0  502  0.96729005742E+03 -0.10664114229E+04  0.80681349847E+03  0.16504100973E+04  0.46999998093E+01 0.  1.
</event>
<event>
 5   0  0.1174870E-07  0.3694357E+04  0.7818609E-02  0.8069214E-01
        2   -1    0    0  501    0  0.00000000000E+00  0.00000000000E+00  0.20925300711E+04  0.20925300711E+04  0.25500000920E-02 0.  1.
       -2   -1    0    0    0  501  0.00000000000E+00  0.00000000000E+00 -0.16305946329E+04  0.16305946329E+04  0.25500000920E-02 0. -1.
    10030    2    1    2    0    0  0.00000000000E+00  0.00000000000E+00  0.46193543817E+03  0.37231247040E+04  0.36943569417E+04 0.  0.
        5    1    3    3  502    0  0.13611818869E+04 -0.11990962299E+04  0.58210347802E+03  0.19051284594E+04  0.46999998093E+01 0. -1.
       -5    1    3    3    0  502 -0.13611818869E+04  0.11990962299E+04 -0.12016803986E+03  0.18179962446E+04  0.46999998093E+01 0.  1.
</event>
<event>
 5   0  0.1150235E-07  0.3793915E+04  0.7818609E-02  0.8047462E-01
       -2   -1    0    0    0  501  0.00000000000E+00  0.00000000000E+00  0.27724574033E+04  0.27724574033E+04  0.25500000920E-02 0.  1.
        2   -1    0    0  501    0  0.00000000000E+00  0.00000000000E+00 -0.12979273978E+04  0.12979273978E+04  0.25500000920E-02 0. -1.
    10030    2    1    2    0    0  0.00000000000E+00  0.00000000000E+00  0.14745300056E+04  0.40703848011E+04  0.37939153512E+04 0.  0.
        4    1    3    3  502    0 -0.40016854625E+03 -0.14596716877E+04  0.19641306209E+04  0.24796344509E+04  0.12699999809E+01 0.  1.
       -4    1    3    3    0  502  0.40016854625E+03  0.14596716877E+04 -0.48960061531E+03  0.15907503502E+04  0.12699999809E+01 0. -1.
</event>
<event>
 5   0  0.3701250E-08  0.3775016E+04  0.7818609E-02  0.8051538E-01
        1   -1    0    0  501    0  0.00000000000E+00  0.00000000000E+00  0.27889175170E+04  0.27889175171E+04  0.50400001928E-02 0. -1.
       -1   -1    0    0    0  501  0.00000000000E+00  0.00000000000E+00 -0.12774439748E+04  0.12774439748E+04  0.50400001928E-02 0.  1.
    10030    2    1    2    0    0  0.00000000000E+00  0.00000000000E+00  0.15114735422E+04  0.40663614919E+04  0.37750156972E+04 0.  0.
        4    1    3    3  502    0 -0.14313885571E+04  0.47015514603E+03  0.19804856455E+04  0.24884220036E+04  0.12699999809E+01 0. -1.
       -4    1    3    3    0  502  0.14313885571E+04 -0.47015514603E+03 -0.46901210332E+03  0.15779394883E+04  0.12699999809E+01 0.  1.
</event>
<event>
 5   0  0.1150235E-07  0.3808207E+04  0.7818609E-02  0.8044396E-01
       -2   -1    0    0    0  501  0.00000000000E+00  0.00000000000E+00  0.21066919595E+04  0.21066919596E+04  0.25500000920E-02 0.  1.
        2   -1    0    0  501    0  0.00000000000E+00  0.00000000000E+00 -0.17209964543E+04  0.17209964543E+04  0.25500000920E-02 0. -1.
    10030    2    1    2    0    0  0.00000000000E+00  0.00000000000E+00  0.38569550521E+03  0.38276884139E+04  0.38082066083E+04 0.  0.
        4    1    3    3  502    0 -0.17833343962E+04  0.47017259270E+03  0.66883553256E+03  0.19618069268E+04  0.12699999809E+01 0.  1.
       -4    1    3    3    0  502  0.17833343962E+04 -0.47017259270E+03 -0.28314002736E+03  0.18658814870E+04  0.12699999809E+01 0. -1.
</event>
<event>
 5   0  0.1150235E-07  0.3782035E+04  0.7818609E-02  0.8050021E-01
       -2   -1    0    0    0  501  0.00000000000E+00  0.00000000000E+00  0.12910043138E+04  0.12910043138E+04  0.25500000920E-02 0. -1.
        2   -1    0    0  501    0  0.00000000000E+00  0.00000000000E+00 -0.27698963257E+04  0.27698963257E+04  0.25500000920E-02 0.  1.
    10030    2    1    2    0    0  0.00000000000E+00  0.00000000000E+00 -0.14788920119E+04  0.40609006396E+04  0.37820354866E+04 0.  0.
        4    1    3    3  502    0  0.41059222322E+02  0.18495039858E+04 -0.31863585561E+03  0.18772003821E+04  0.12699999809E+01 0. -1.
       -4    1    3    3    0  502 -0.41059222322E+02 -0.18495039858E+04 -0.11602561563E+04  0.21837002575E+04  0.12699999809E+01 0.  1.
</event>
<event>
 5   0  0.3701250E-08  0.3784223E+04  0.7818609E-02  0.8049549E-01
       -1   -1    0    0    0  501  0.00000000000E+00  0.00000000000E+00  0.27338850723E+04  0.27338850723E+04  0.50400001928E-02 0. -1.
        1   -1    0    0  501    0  0.00000000000E+00  0.00000000000E+00 -0.13095234621E+04  0.13095234621E+04  0.50400001928E-02 0.  1.
    10030    2    1    2    0    0  0.00000000000E+00  0.00000000000E+00  0.14243616102E+04  0.40434085344E+04  0.37842233787E+04 0.  0.
        4    1    3    3  502    0 -0.13969526356E+04 -0.19906214873E+03  0.20590655482E+04  0.24961680532E+04  0.12699999809E+01 0. -1.
       -4    1    3    3    0  502  0.13969526356E+04  0.19906214873E+03 -0.63470393798E+03  0.15472404813E+04  0.12699999809E+01 0.  1.
</event>
<event>
 5   0  0.3701250E-08  0.3783451E+04  0.7818609E-02  0.8049716E-01
        1   -1    0    0  501    0  0.00000000000E+00  0.00000000000E+00  0.12269038440E+04  0.12269038440E+04  0.50400001928E-02 0. -1.
       -1   -1    0    0    0  501  0.00000000000E+00  0.00000000000E+00 -0.29167941942E+04  0.29167941942E+04  0.50400001928E-02 0.  1.
    10030    2    1    2    0    0  0.00000000000E+00  0.00000000000E+00 -0.16898903502E+04  0.41436980382E+04  0.37834513392E+04 0.  0.
        3    1    3    3  502    0  0.14772209989E+04 -0.82755757090E+03  0.78935013483E+02  0.16950705470E+04  0.10100000352E+00 0. -1.
       -3    1    3    3    0  502 -0.14772209989E+04  0.82755757090E+03 -0.17688253637E+04  0.24486274911E+04  0.10100000352E+00 0.  1.
</event>
<event>
 5   0  0.1150235E-07  0.3796089E+04  0.7818609E-02  0.8046995E-01
        2   -1    0    0  501    0  0.00000000000E+00  0.00000000000E+00  0.21062849093E+04  0.21062849093E+04  0.25500000920E-02 0.  1.
       -2   -1    0    0    0  501  0.00000000000E+00  0.00000000000E+00 -0.17103924202E+04  0.17103924202E+04  0.25500000920E-02 0. -1.
    10030    2    1    2    0    0  0.00000000000E+00  0.00000000000E+00  0.39589248907E+03  0.38166773296E+04  0.37960894319E+04 0.  0.
        4    1    3    3  502    0 -0.11586886137E+04 -0.80066538229E+03 -0.10813332222E+04  0.17756428436E+04  0.12699999809E+01 0. -1.
       -4    1    3    3    0  502  0.11586886137E+04  0.80066538229E+03  0.14772257112E+04  0.20410344859E+04  0.12699999809E+01 0.  1.
</event>
<event>
 5   0  0.3701250E-08  0.3840133E+04  0.7818609E-02  0.8037597E-01
       -1   -1    0    0    0  501  0.00000000000E+00  0.00000000000E+00  0.19264406053E+04  0.19264406053E+04  0.50400001928E-02 0. -1.
        1   -1    0    0  501    0  0.00000000000E+00  0.00000000000E+00 -0.19137137249E+04  0.19137137249E+04  0.50400001928E-02 0.  1.
    10030    2    1    2    0    0  0.00000000000E+00  0.00000000000E+00  0.12726880360E+02  0.38401543302E+04  0.38401332407E+04 0.  0.
        4    1    3    3  502    0  0.12809747976E+03 -0.20441047139E+03  0.19112260238E+04  0.19263901817E+04  0.12699999809E+01 0. -1.
       -4    1    3    3    0  502 -0.12809747976E+03  0.20441047139E+03 -0.18984991435E+04  0.19137641484E+04  0.12699999809E+01 0.  1.
</event>
<event>
 5   0  0.3701250E-08  0.3799374E+04  0.7818609E-02  0.8046289E-01
       -1   -1    0    0    0  501  0.00000000000E+00  0.00000000000E+00  0.16027815007E+04  0.16027815007E+04  0.50400001928E-02 0.  1.
        1   -1    0    0  501    0  0.00000000000E+00  0.00000000000E+00 -0.22515924644E+04  0.22515924644E+04  0.50400001928E-02 0. -1.
    10030    2    1    2    0    0  0.00000000000E+00  0.00000000000E+00 -0.64881096369E+03  0.38543739652E+04  0.37993740270E+04 0.  0.
        1    1    3    3  502    0  0.58600824326E+02  0.40513273884E+03  0.15575075217E+04  0.16104025189E+04  0.50400001928E-02 0.  1.
       -1    1    3    3    0  502 -0.58600824326E+02 -0.40513273884E+03 -0.22063184854E+04  0.22439714463E+04  0.50400001928E-02 0. -1.
</event>
<event>
 5   0  0.3889225E-08  0.3709020E+04  0.7818609E-02  0.8065966E-01
       -1   -1    0    0    0  501  0.00000000000E+00  0.00000000000E+00  0.30008328686E+04  0.30008328686E+04  0.50400001928E-02 0. -1.
        1   -1    0    0  501    0  0.00000000000E+00  0.00000000000E+00 -0.11460840698E+04  0.11460840698E+04  0.50400001928E-02 0.  1.
    10030    2    1    2    0    0  0.00000000000E+00  0.00000000000E+00  0.18547487988E+04  0.41469169384E+04  0.37090196801E+04 0.  0.
        5    1    3    3  502    0  0.48660329517E+03  0.17860755104E+04  0.80319309510E+03  0.20179171771E+04  0.46999998093E+01 0. -1.
       -5    1    3    3    0  502 -0.48660329517E+03 -0.17860755104E+04  0.10515557037E+04  0.21289997613E+04  0.46999998093E+01 0.  1.
</event>
<event>
 5   0  0.1150235E-07  0.3793967E+04  0.7818609E-02  0.8047451E-01
        2   -1    0    0  501    0  0.00000000000E+00  0.00000000000E+00  0.19383146955E+04  0.19383146955E+04  0.25500000920E-02 0.  1.
       -2   -1    0    0    0  501  0.00000000000E+00  0.00000000000E+00 -0.18565338008E+04  0.18565338008E+04  0.25500000920E-02 0. -1.
    10030    2    1    2    0    0  0.00000000000E+00  0.00000000000E+00  0.81780894693E+02  0.37948484964E+04  0.37939671843E+04 0.  0.
        4    1    3    3  502    0 -0.88000247891E+03  0.51621367567E+03 -0.15587509522E+04  0.18629511711E+04  0.12699999809E+01 0. -1.
       -4    1    3    3    0  502  0.88000247891E+03 -0.51621367567E+03  0.16405318469E+04  0.19318973253E+04  0.12699999809E+01 0.  1.
</event>
<event>
 5   0  0.7858367E-08  0.3785148E+04  0.7818609E-02  0.8049350E-01
       -2   -1    0    0    0  501  0.00000000000E+00  0.00000000000E+00  0.22237717626E+04  0.22237717626E+04  0.25500000920E-02 0.  1.
        2   -1    0    0  501    0  0.00000000000E+00  0.00000000000E+00 -0.16107035121E+04  0.16107035121E+04  0.25500000920E-02 0. -1.
    10030    2    1    2    0    0  0.00000000000E+00  0.00000000000E+00  0.61306825051E+03  0.38344752747E+04  0.37851483396E+04 0.  0.
        2    1    3    3  502    0 -0.22511274015E+03 -0.10051159711E+04  0.19149602411E+04  0.21743979825E+04  0.25500000920E-02 0.  1.
       -2    1    3    3    0  502  0.22511274015E+03  0.10051159711E+04 -0.13018919906E+04  0.16600772923E+04  0.25500000920E-02 0. -1.
</event>
<event>
 5   0  0.3889225E-08  0.3790606E+04  0.7818609E-02  0.8048174E-01
        1   -1    0    0  501    0  0.00000000000E+00  0.00000000000E+00  0.19288007067E+04  0.19288007067E+04  0.50400001928E-02 0. -1.
       -1   -1    0    0    0  501  0.00000000000E+00  0.00000000000E+00 -0.18623870722E+04  0.18623870722E+04  0.50400001928E-02 0.  1.
    10030    2    1    2    0    0  0.00000000000E+00  0.00000000000E+00  0.66413634498E+02  0.37911877789E+04  0.37906060207E+04 0.  0.
        5    1    3    3  502    0  0.75096921639E+03 -0.83650672547E+03  0.15593679859E+04  0.19223290226E+04  0.46999998093E+01 0. -1.
       -5    1    3    3    0  502 -0.75096921639E+03  0.83650672547E+03 -0.14929543514E+04  0.18688587563E+04  0.46999998093E+01 0.  1.
</event>
<event>
 5   0  0.3701250E-08  0.3792648E+04  0.7818609E-02  0.8047734E-01
       -1   -1    0    0    0  501  0.00000000000E+00  0.00000000000E+00  0.28506102123E+04  0.28506102123E+04  0.50400001928E-02 0. -1.
        1   -1    0    0  501    0  0.00000000000E+00  0.00000000000E+00 -0.12615002661E+04  0.12615002662E+04  0.50400001928E-02 0.  1.
    10030    2    1    2    0    0  0.00000000000E+00  0.00000000000E+00  0.15891099461E+04  0.41121104784E+04  0.37926484369E+04 0.  0.
        1    1    3    3  502    0  0.25616489105E+03 -0.78759273878E+03  0.26441550819E+04  0.27708263877E+04  0.50400001928E-02 0. -1.
       -1    1    3    3    0  502 -0.25616489105E+03  0.78759273878E+03 -0.10550451358E+04  0.13412840907E+04  0.50400001928E-02 0.  1.
</event>
<event>
 5   0  0.1143283E-07  0.3794541E+04  0.7818609E-02  0.8047327E-01
       -2   -1    0    0    0  501  0.00000000000E+00  0.00000000000E+00  0.29595049748E+04  0.29595049748E+04  0.25500000920E-02 0. -1.
        2   -1    0    0  501    0  0.00000000000E+00  0.00000000000E+00 -0.12162962094E+04  0.12162962094E+04  0.25500000920E-02 0.  1.
    10030    2    1    2    0    0  0.00000000000E+00  0.00000000000E+00  0.17432087654E+04  0.41758011842E+04  0.37945406481E+04 0.  0.
        1    1    3    3  502    0  0.12131740574E+04 -0.11295993205E+04  0.18872959633E+04  0.25119060435E+04  0.50400001928E-02 0. -1.
       -1    1    3    3    0  502 -0.12131740574E+04  0.11295993205E+04 -0.14408719785E+03  0.16638951406E+04  0.50400001928E-02 0.  1.
</event>
<event>
 5   0  0.1150235E-07  0.3721591E+04  0.7818609E-02  0.8063194E-01
       -2   -1    0    0    0  501  0.00000000000E+00  0.00000000000E+00  0.14744235560E+04  0.14744235560E+04  0.25500000920E-02 0.  1.
        2   -1    0    0  501    0  0.00000000000E+00  0.00000000000E+00 -0.23484157686E+04  0.23484157686E+04  0.25500000920E-02 0. -1.
    10030    2    1    2    0    0  0.00000000000E+00  0.00000000000E+00 -0.87399221258E+03  0.38228393247E+04  0.37215908043E+04 0.  0.
        4    1    3    3  502    0 -0.16594829433E+04  0.74910407941E+03 -0.83152515321E+03  0.20016184087E+04  0.12699999809E+01 0.  1.
       -4    1    3    3    0  502  0.16594829433E+04 -0.74910407941E+03 -0.42467059374E+02  0.18212209160E+04  0.12699999809E+01 0. -1.
</event>
<event>
 5   0  0.7858367E-08  0.3818623E+04  0.7818609E-02  0.8042170E-01
       -2   -1    0    0    0  501  0.00000000000E+00  0.00000000000E+00  0.12646055318E+04  0.12646055318E+04  0.25500000920E-02 0. -1.
        2   -1    0    0  501    0  0.00000000000E+00  0.00000000000E+00 -0.28826938966E+04  0.28826938966E+04  0.25500000920E-02 0.  1.
    10030    2    1    2    0    0  0.00000000000E+00  0.00000000000E+00 -0.16180883648E+04  0.41472994284E+04  0.38186231278E+04 0.  0.
        2    1    3    3  502    0  0.19258074841E+03 -0.12661232208E+04  0.72893312031E+03  0.14736006408E+04  0.25500000920E-02 0. -1.
       -2    1    3    3    0  502 -0.19258074841E+03  0.12661232208E+04 -0.23470214851E+04  0.26736987875E+04  0.25500000920E-02 0.  1.
</event>
<event>
 5   0  0.3701250E-08  0.3792677E+04  0.7818609E-02  0.8047728E-01
       -1   -1    0    0    0  501  0.00000000000E+00  0.00000000000E+00  0.17788618315E+04  0.17788618315E+04  0.50400001928E-02 0. -1.
        1   -1    0    0  501    0  0.00000000000E+00  0.00000000000E+00 -0.20215734603E+04  0.20215734603E+04  0.50400001928E-02 0.  1.
    10030    2    1    2    0    0  0.00000000000E+00  0.00000000000E+00 -0.24271162883E+03  0.38004352918E+04  0.37926770852E+04 0.  0.
        1    1    3    3  502    0 -0.98692534096E+03  0.12018715021E+04 -0.12087406263E+04  0.19696625696E+04  0.50400001928E-02 0.  1.
       -1    1    3    3    0  502  0.98692534096E+03 -0.12018715021E+04  0.96602899750E+03  0.18307727222E+04  0.50400001928E-02 0. -1.
</event>
<event>
 5   0  0.3701250E-08  0.3812789E+04  0.7818609E-02  0.8043416E-01
       -1   -1    0    0    0  501  0.00000000000E+00  0.00000000000E+00  0.17061735975E+04  0.17061735975E+04  0.50400001928E-02 0. -1.
        1   -1    0    0  501    0  0.00000000000E+00  0.00000000000E+00 -0.21301112691E+04  0.21301112691E+04  0.50400001928E-02 0.  1.
    10030    2    1    2    0    0  0.00000000000E+00  0.00000000000E+00 -0.42393767160E+03  0.38362848667E+04  0.38127887994E+04 0.  0.
        3    1    3    3  502    0 -0.15140858701E+04 -0.69471929485E+03  0.72070014987E+03  0.18150756560E+04  0.10100000352E+00 0. -1.
       -3    1    3    3    0  502  0.15140858701E+04  0.69471929485E+03 -0.11446378215E+04  0.20212092107E+04  0.10100000352E+00 0.  1.
</event>
<event>
 5   0  0.3701250E-08  0.3825966E+04  0.7818609E-02  0.8040605E-01
       -1   -1    0    0    0  501  0.00000000000E+00  0.00000000000E+00  0.16527899786E+04  0.16527899786E+04  0.50400001928E-02 0.  1.
        1   -1    0    0  501    0  0.00000000000E+00  0.00000000000E+00 -0.22141378299E+04  0.22141378299E+04  0.50400001928E-02 0. -1.
    10030    2    1    2    0    0  0.00000000000E+00  0.00000000000E+00 -0.56134785132E+03  0.38669278085E+04  0.38259664486E+04 0.  0.
        1    1    3    3  502    0  0.42741982943E+03  0.47760331841E+03 -0.21023893069E+04  0.21979157031E+04  0.50400001928E-02 0. -1.
       -1    1    3    3    0  502 -0.42741982943E+03 -0.47760331841E+03  0.15410414555E+04  0.16690121054E+04  0.50400001928E-02 0.  1.
</event>
<event>
 5   0  0.1174870E-07  0.3802194E+04  0.7818609E-02  0.8045684E-01
       -2   -1    0    0    0  501  0.00000000000E+00  0.00000000000E+00  0.16187220224E+04  0.16187220225E+04  0.25500000920E-02 0. -1.
        2   -1    0    0  501    0  0.00000000000E+00  0.00000000000E+00 -0.22327304922E+04  0.22327304922E+04  0.25500000920E-02 0.  1.
    10030    2    1    2    0    0  0.00000000000E+00  0.00000000000E+00 -0.61400846976E+03  0.38514525147E+04  0.38021941128E+04 0.  0.
        5    1    3    3  502    0 -0.84535165419E+03  0.39549670206E+03  0.13706866425E+04  0.16582644609E+04  0.46999998093E+01 0. -1.
       -5    1    3    3    0  502  0.84535165419E+03 -0.39549670206E+03 -0.19846951122E+04  0.21931880537E+04  0.46999998093E+01 0.  1.
</event>
<event>
 5   0  0.1143283E-07  0.3808997E+04  0.7818609E-02  0.8044227E-01
       -2   -1    0    0    0  501  0.00000000000E+00  0.00000000000E+00  0.16232693112E+04  0.16232693112E+04  0.25500000920E-02 0.  1.
        2   -1    0    0  501    0  0.00000000000E+00  0.00000000000E+00 -0.22344497771E+04  0.22344497771E+04  0.25500000920E-02 0. -1.
    10030    2    1    2    0    0  0.00000000000E+00  0.00000000000E+00 -0.61118046594E+03  0.38577190883E+04  0.38089965873E+04 0.  0.
        1    1    3    3  502    0 -0.70420998318E+03  0.15024084527E+04 -0.12524125819E+04  0.20788651073E+04  0.50400001928E-02 0. -1.
       -1    1    3    3    0  502  0.70420998318E+03 -0.15024084527E+04  0.64123211597E+03  0.17788539810E+04  0.50400001928E-02 0.  1.
</event>
<event>
 5   0  0.1143283E-07  0.3809500E+04  0.7818609E-02  0.8044119E-01
        2   -1    0    0  501    0  0.00000000000E+00  0.00000000000E+00  0.19432380336E+04  0.19432380336E+04  0.25500000920E-02 0. -1.
       -2   -1    0    0    0  501  0.00000000000E+00  0.00000000000E+00 -0.18670240287E+04  0.18670240287E+04  0.25500000920E-02 0.  1.
    10030    2    1    2    0    0  0.00000000000E+00  0.00000000000E+00  0.76214004896E+02  0.38102620622E+04  0.38094997583E+04 0.  0.
        1    1    3    3  502    0  0.42419922561E+03 -0.98000880305E+03 -0.15394561742E+04  0.18735761392E+04  0.50400001928E-02 0.  1.
       -1    1    3    3    0  502 -0.42419922561E+03  0.98000880305E+03  0.16156701791E+04  0.19366859231E+04  0.50400001928E-02 0. -1.
</event>
<event>
 5   0  0.3701250E-08  0.3806128E+04  0.7818609E-02  0.8044841E-01
        1   -1    0    0  501    0  0.00000000000E+00  0.00000000000E+00  0.10376341324E+04  0.10376341324E+04  0.50400001928E-02 0. -1.
       -1   -1    0    0    0  501  0.00000000000E+00  0.00000000000E+00 -0.34902975856E+04  0.34902975856E+04  0.50400001928E-02 0.  1.
    10030    2    1    2    0    0  0.00000000000E+00  0.00000000000E+00 -0.24526634532E+04  0.45279317181E+04  0.38061276422E+04 0.  0.
        3    1    3    3  502    0 -0.16977444261E+04 -0.79422955567E+03 -0.83444391635E+03  0.20516903722E+04  0.10100000352E+00 0. -1.
       -3    1    3    3    0  502  0.16977444261E+04  0.79422955567E+03 -0.16182195368E+04  0.24762413459E+04  0.10100000352E+00 0.  1.
</event>
<event>
 5   0  0.7858367E-08  0.3817925E+04  0.7818609E-02  0.8042319E-01
        2   -1    0    0  501    0  0.00000000000E+00  0.00000000000E+00  0.27973624234E+04  0.27973624234E+04  0.25500000920E-02 0.  1.
       -2   -1    0    0    0  501  0.00000000000E+00  0.00000000000E+00 -0.13027052286E+04  0.13027052286E+04  0.25500000920E-02 0. -1.
    10030    2    1    2    0    0  0.00000000000E+00  0.00000000000E+00  0.14946571948E+04  0.41000676520E+04  0.38179254341E+04 0.  0.
        2    1    3    3  502    0  0.13257101269E+04  0.13571723165E+04  0.52024365225E+03  0.19672512536E+04  0.25500000920E-02 0.  1.
       -2    1    3    3    0  502 -0.13257101269E+04 -0.13571723165E+04  0.97441354260E+03  0.21328163984E+04  0.25500000920E-02 0. -1.
</event>
<event>
 5   0  0.1150235E-07  0.3798919E+04  0.7818609E-02  0.8046387E-01
        2   -1    0    0  501    0  0.00000000000E+00  0.00000000000E+00  0.16400875857E+04  0.16400875857E+04  0.25500000920E-02 0.  1.
       -2   -1    0    0    0  501  0.00000000000E+00  0.00000000000E+00 -0.21998499828E+04  0.21998499828E+04  0.25500000920E-02 0. -1.
    10030    2    1    2    0    0  0.00000000000E+00  0.00000000000E+00 -0.55976239715E+03  0.38399375685E+04  0.37989191343E+04 0.  0.
        4    1    3    3  502    0  0.89135522030E+03 -0.47676380535E+03  0.13456265862E+04  0.16830122927E+04  0.12699999809E+01 0.  1.
       -4    1    3    3    0  502 -0.89135522030E+03  0.47676380535E+03 -0.19053889833E+04  0.21569252758E+04  0.12699999809E+01 0. -1.
</event>
<event>
 5   0  0.1150235E-07  0.3799817E+04  0.7818609E-02  0.8046194E-01
       -2   -1    0    0    0  501  0.00000000000E+00  0.00000000000E+00  0.13835949659E+04  0.13835949659E+04  0.25500000920E-02 0.  1.
        2   -1    0    0  501    0  0.00000000000E+00  0.00000000000E+00 -0.26088944015E+04  0.26088944015E+04  0.25500000920E-02 0. -1.
    10030    2    1    2    0    0  0.00000000000E+00  0.00000000000E+00 -0.12252994356E+04  0.39924893674E+04  0.37998174485E+04 0.  0.
        4    1    3    3  502    0 -0.59455221918E+03 -0.42818708803E+03 -0.24544784531E+04  0.25615039749E+04  0.12699999809E+01 0. -1.
       -4    1    3    3    0  502  0.59455221918E+03  0.42818708803E+03  0.12291790175E+04  0.14309853925E+04  0.12699999809E+01 0.  1.
</event>
<event>
 5   0  0.3889225E-08  0.3804905E+04  0.7818609E-02  0.8045103E-01
        1   -1    0    0  501    0  0.00000000000E+00  0.00000000000E+00  0.32859808149E+04  0.32859808149E+04  0.50400001928E-02 0.  1.
       -1   -1    0    0    0  501  0.00000000000E+00  0.00000000000E+00 -0.11014446032E+04  0.11014446032E+04  0.50400001928E-02 0. -1.
    10030    2    1    2    0    0  0.00000000000E+00  0.00000000000E+00  0.21845362117E+04  0.43874254181E+04  0.38049051682E+04 0.  0.
        5    1    3    3  502    0  0.27356316222E+02  0.19005824773E+04  0.11840942054E+04  0.22394337004E+04  0.46999998093E+01 0. -1.
       -5    1    3    3    0  502 -0.27356316222E+02 -0.19005824773E+04  0.10004420064E+04  0.21479917177E+04  0.46999998093E+01 0.  1.
</event>
<event>
 5   0  0.1143283E-07  0.3795117E+04  0.7818609E-02  0.8047203E-01
       -2   -1    0    0    0  501  0.00000000000E+00  0.00000000000E+00  0.21694158894E+04  0.21694158894E+04  0.25500000920E-02 0.  1.
        2   -1    0    0  501    0  0.00000000000E+00  0.00000000000E+00 -0.16597689027E+04  0.16597689027E+04  0.25500000920E-02 0. -1.
    10030    2    1    2    0    0  0.00000000000E+00  0.00000000000E+00  0.50964698674E+03  0.38291847921E+04  0.37951174054E+04 0.  0.
        1    1    3    3  502    0  0.11235481645E+04  0.57831425397E+03  0.16831300407E+04  0.21046934665E+04  0.50400001928E-02 0.  1.
       -1    1    3    3    0  502 -0.11235481645E+04 -0.57831425397E+03 -0.11734830539E+04  0.17244913256E+04  0.50400001928E-02 0. -1.
</event>
<event>
 5   0  0.1193861E-07  0.3793638E+04  0.7818609E-02  0.8047521E-01
       -2   -1    0    0    0  501  0.00000000000E+00  0.00000000000E+00  0.15552865257E+04  0.15552865257E+04  0.25500000920E-02 0.  1.
        2   -1    0    0  501    0  0.00000000000E+00  0.00000000000E+00 -0.23133506778E+04  0.23133506778E+04  0.25500000920E-02 0. -1.
    10030    2    1    2    0    0  0.00000000000E+00  0.00000000000E+00 -0.75806415207E+03  0.38686372035E+04  0.37936384321E+04 0.  0.
        3    1    3    3  502    0  0.31605646116E+03 -0.10875423930E+04  0.11726548742E+04  0.16302636619E+04  0.10100000352E+00 0.  1.
       -3    1    3    3    0  502 -0.31605646116E+03  0.10875423930E+04 -0.19307190262E+04  0.22383735416E+04  0.10100000352E+00 0. -1.
</event>
<event>
 5   0  0.3701250E-08  0.3806942E+04  0.7818609E-02  0.8044667E-01
       -1   -1    0    0    0  501  0.00000000000E+00  0.00000000000E+00  0.26823290617E+04  0.26823290617E+04  0.50400001928E-02 0. -1.
        1   -1    0    0  501    0  0.00000000000E+00  0.00000000000E+00 -0.13507668403E+04  0.13507668403E+04  0.50400001928E-02 0.  1.
    10030    2    1    2    0    0  0.00000000000E+00  0.00000000000E+00  0.13315622214E+04  0.40330959020E+04  0.38069416341E+04 0.  0.
        4    1    3    3  502    0 -0.27867405703E+03 -0.17794883054E+04  0.13612369999E+02  0.18012286831E+04  0.12699999809E+01 0.  1.
       -4    1    3    3    0  502  0.27867405703E+03  0.17794883054E+04  0.13179498514E+04  0.22318672189E+04  0.12699999809E+01 0. -1.
</event>
<event>
 5   0  0.1193861E-07  0.3804824E+04  0.7818609E-02  0.8045120E-01
       -2   -1    0    0    0  501  0.00000000000E+00  0.00000000000E+00  0.17391807959E+04  0.17391807959E+04  0.25500000920E-02 0. -1.
        2   -1    0    0  501    0  0.00000000000E+00  0.00000000000E+00 -0.20809634609E+04  0.20809634609E+04  0.25500000920E-02 0.  1.
    10030    2    1    2    0    0  0.00000000000E+00  0.00000000000E+00 -0.34178266504E+03  0.38201442568E+04  0.38048241422E+04 0.  0.
        3    1    3    3  502    0  0.13261118587E+04  0.40736153511E+03 -0.14779223664E+04  0.20270102648E+04  0.10100000352E+00 0.  1.
       -3    1    3    3    0  502 -0.13261118587E+04 -0.40736153511E+03  0.11361397014E+04  0.17931339921E+04  0.10100000352E+00 0. -1.
</event>
<event>
 5   0  0.7858367E-08  0.3781534E+04  0.7818609E-02  0.8050129E-01
        2   -1    0    0  501    0  0.00000000000E+00  0.00000000000E+00  0.14443662326E+04  0.14443662326E+04  0.25500000920E-02 0. -1.
       -2   -1    0    0    0  501  0.00000000000E+00  0.00000000000E+00 -0.24751343382E+04  0.24751343382E+04  0.25500000920E-02 0.  1.
    10030    2    1    2    0    0  0.00000000000E+00  0.00000000000E+00 -0.10307681056E+04  0.39195005708E+04  0.37815343232E+04 0.  0.
        2    1    3    3  502    0 -0.13113035684E+02 -0.17349621168E+04  0.26352189932E+03  0.17549100518E+04  0.25500000920E-02 0. -1.
       -2    1    3    3    0  502  0.13113035684E+02  0.17349621168E+04 -0.12942900049E+04  0.21645905191E+04  0.25500000920E-02 0.  1.
</event>
<event>
 5   0  0.7858367E-08  0.3788345E+04  0.7818609E-02  0.8048661E-01
        2   -1    0    0  501    0  0.00000000000E+00  0.00000000000E+00  0.16904968410E+04  0.16904968410E+04  0.25500000920E-02 0.  1.
       -2   -1    0    0    0  501  0.00000000000E+00  0.00000000000E+00 -0.21223879804E+04  0.21223879804E+04  0.25500000920E-02 0. -1.
    10030    2    1    2    0    0  0.00000000000E+00  0.00000000000E+00 -0.43189113942E+03  0.38128848214E+04  0.37883453782E+04 0.  0.
        2    1    3    3  502    0  0.56736419511E+03  0.63335313607E+03 -0.19194968235E+04  0.20994061970E+04  0.25500000920E-02 0. -1.
       -2    1    3    3    0  502 -0.56736419511E+03 -0.63335313607E+03  0.14876056840E+04  0.17134786243E+04  0.25500000920E-02 0.  1.
</event>
<event>
 5   0  0.3701250E-08  0.3804252E+04  0.7818609E-02  0.8045243E-01
       -1   -1    0    0    0  501  0.00000000000E+00  0.00000000000E+00  0.12784151360E+04  0.12784151360E+04  0.50400001928E-02 0. -1.
        1   -1    0    0  501    0  0.00000000000E+00  0.00000000000E+00 -0.28301311107E+04  0.28301311107E+04  0.50400001928E-02 0.  1.
    10030    2    1    2    0    0  0.00000000000E+00  0.00000000000E+00 -0.15517159748E+04  0.41085462467E+04  0.38042515421E+04 0.  0.
        3    1    3    3  502    0  0.10825929939E+04  0.10281624575E+03 -0.24612981885E+04  0.26908302722E+04  0.10100000352E+00 0.  1.
       -3    1    3    3    0  502 -0.10825929939E+04 -0.10281624575E+03  0.90958221373E+03  0.14177159746E+04  0.10100000352E+00 0. -1.
</event>
<event>
 5   0  0.3701250E-08  0.3801536E+04  0.7818609E-02  0.8045825E-01
       -1   -1    0    0    0  501  0.00000000000E+00  0.00000000000E+00  0.15029378849E+04  0.15029378849E+04  0.50400001928E-02 0.  1.
        1   -1    0    0  501    0  0.00000000000E+00  0.00000000000E+00 -0.24039039370E+04  0.24039039370E+04  0.50400001928E-02 0. -1.
    10030    2    1    2    0    0  0.00000000000E+00  0.00000000000E+00 -0.90096605215E+03  0.39068418219E+04  0.38015356363E+04 0.  0.
        2    1    3    3  502    0  0.11881357579E+04 -0.15666040111E+03  0.10657535620E+04  0.16037579978E+04  0.25500000920E-02 0.  1.
       -2    1    3    3    0  502 -0.11881357579E+04  0.15666040111E+03 -0.19667196142E+04  0.23030838242E+04  0.25500000920E-02 0. -1.
</event>
<event>
 5   0  0.1150235E-07  0.3800045E+04  0.7818609E-02  0.8046145E-01
       -2   -1    0    0    0  501  0.00000000000E+00  0.00000000000E+00  0.18436288527E+04  0.18436288527E+04  0.25500000920E-02 0. -1.
        2   -1    0    0  501    0  0.00000000000E+00  0.00000000000E+00 -0.19581415951E+04  0.19581415951E+04  0.25500000920E-02 0.  1.
    10030    2    1    2    0    0  0.00000000000E+00  0.00000000000E+00 -0.11451274235E+03  0.38017704478E+04  0.38000454431E+04 0.  0.
        4    1    3    3  502    0  0.40541870357E+03  0.71462243578E+03  0.16567157586E+04  0.18492588431E+04  0.12699999809E+01 0. -1.
       -4    1    3    3    0  502 -0.40541870357E+03 -0.71462243578E+03 -0.17712285010E+04  0.19525116047E+04  0.12699999809E+01 0.  1.
</event>
<event>
 5   0  0.1174870E-07  0.3808629E+04  0.7818609E-02  0.8044306E-01
       -2   -1    0    0    0  501  0.00000000000E+00  0.00000000000E+00  0.18806518084E+04  0.18806518084E+04  0.25500000920E-02 0.  1.
        2   -1    0    0  501    0  0.00000000000E+00  0.00000000000E+00 -0.19282751017E+04  0.19282751017E+04  0.25500000920E-02 0. -1.
    10030    2    1    2    0    0  0.00000000000E+00  0.00000000000E+00 -0.47623293379E+02  0.38089269101E+04  0.38086291797E+04 0.  0.
        5    1    3    3  502    0 -0.56684666935E+03  0.14774787676E+04  0.10355791022E+04  0.18912178146E+04  0.46999998093E+01 0.  1.
       -5    1    3    3    0  502  0.56684666935E+03 -0.14774787676E+04 -0.10832023956E+04  0.19177090955E+04  0.46999998093E+01 0. -1.
</event>
<event>
 5   0  0.3889225E-08  0.3754720E+04  0.7818609E-02  0.8055942E-01
        1   -1    0    0  501    0  0.00000000000E+00  0.00000000000E+00  0.23063469334E+04  0.23063469334E+04  0.50400001928E-02 0. -1.
       -1   -1    0    0    0  501  0.00000000000E+00  0.00000000000E+00 -0.15281659560E+04  0.15281659560E+04  0.50400001928E-02 0.  1.
    10030    2    1    2    0    0  0.00000000000E+00  0.00000000000E+00  0.77818097742E+03  0.38345128894E+04  0.37547201581E+04 0.  0.
        5    1    3    3  502    0  0.13254271939E+04 -0.64039556520E+03 -0.80082947416E+03  0.16757725571E+04  0.46999998093E+01 0.  1.
       -5    1    3    3    0  502 -0.13254271939E+04  0.64039556520E+03  0.15790104516E+04  0.21587403324E+04  0.46999998093E+01 0. -1.
</event>
<event>
 5   0  0.1193861E-07  0.3805922E+04  0.7818609E-02  0.8044885E-01
        2   -1    0    0  501    0  0.00000000000E+00  0.00000000000E+00  0.26683506880E+04  0.26683506880E+04  0.25500000920E-02 0. -1.
       -2   -1    0    0    0  501  0.00000000000E+00  0.00000000000E+00 -0.13571156088E+04  0.13571156088E+04  0.25500000920E-02 0.  1.
    10030    2    1    2    0    0  0.00000000000E+00  0.00000000000E+00  0.13112350792E+04  0.40254662968E+04  0.38059218954E+04 0.  0.
        3    1    3    3  502    0 -0.31411944919E+03  0.17787295831E+04  0.12890908291E+04  0.22190775413E+04  0.10100000352E+00 0.  1.
       -3    1    3    3    0  502  0.31411944919E+03 -0.17787295831E+04  0.22144250107E+02  0.18063887555E+04  0.10100000352E+00 0. -1.
</event>
<event>
 5   0  0.1174870E-07  0.3785487E+04  0.7818609E-02  0.8049276E-01
        2   -1    0    0  501    0  0.00000000000E+00  0.00000000000E+00  0.29570221694E+04  0.29570221694E+04  0.25500000920E-02 0.  1.
       -2   -1    0    0    0  501  0.00000000000E+00  0.00000000000E+00 -0.12115156322E+04  0.12115156322E+04  0.25500000920E-02 0. -1.
    10030    2    1    2    0    0  0.00000000000E+00  0.00000000000E+00  0.17455065373E+04  0.41685378016E+04  0.37854873308E+04 0.  0.
        5    1    3    3  502    0 -0.35133570473E+03 -0.12953980216E+04 -0.59681402781E+03  0.14689118032E+04  0.46999998093E+01 0. -1.
       -5    1    3    3    0  502  0.35133570473E+03  0.12953980216E+04  0.23423205651E+04  0.26996259984E+04  0.46999998093E+01 0.  1.
</event>
<event>
 5   0  0.3701250E-08  0.3649521E+04  0.7818609E-02  0.8079242E-01
        1   -1    0    0  501    0  0.00000000000E+00  0.00000000000E+00  0.17684717090E+04  0.17684717090E+04  0.50400001928E-02 0.  1.
       -1   -1    0    0    0  501  0.00000000000E+00  0.00000000000E+00 -0.18828404123E+04  0.18828404123E+04  0.50400001928E-02 0. -1.
    10030    2    1    2    0    0  0.00000000000E+00  0.00000000000E+00 -0.11436870326E+03  0.36513121213E+04  0.36495205174E+04 0.  0.
        1    1    3    3  502    0  0.82898335008E+03 -0.12071684778E+04 -0.11464248682E+04  0.18597739397E+04  0.50400001928E-02 0. -1.
       -1    1    3    3    0  502 -0.82898335008E+03  0.12071684778E+04  0.10320561649E+04  0.17915381816E+04  0.50400001928E-02 0.  1.
</event>
<event>
 5   0  0.3701250E-08  0.3799860E+04  0.7818609E-02  0.8046185E-01
        1   -1    0    0  501    0  0.00000000000E+00  0.00000000000E+00  0.20526124822E+04  0.20526124822E+04  0.50400001928E-02 0. -1.
       -1   -1    0    0    0  501  0.00000000000E+00  0.00000000000E+00 -0.17586043432E+04  0.17586043432E+04  0.50400001928E-02 0.  1.
    10030    2    1    2    0    0  0.00000000000E+00  0.00000000000E+00  0.29400813892E+03  0.38112168254E+04  0.37998595901E+04 0.  0.
        3    1    3    3  502    0 -0.91394753096E+03 -0.35399331484E+03  0.17794810878E+04  0.20315423472E+04  0.10100000352E+00 0. -1.
       -3    1    3    3    0  502  0.91394753096E+03  0.35399331484E+03 -0.14854729489E+04  0.17796744782E+04  0.10100000352E+00 0.  1.
</event>
<event>
 5   0  0.7858367E-08  0.3786529E+04  0.7818609E-02  0.8049052E-01
        2   -1    0    0  501    0  0.00000000000E+00  0.00000000000E+00  0.25578150763E+04  0.25578150763E+04  0.25500000920E-02 0.  1.
       -2   -1    0    0    0  501  0.00000000000E+00  0.00000000000E+00 -0.14013721806E+04  0.14013721806E+04  0.25500000920E-02 0. -1.
    10030    2    1    2    0    0  0.00000000000E+00  0.00000000000E+00  0.11564428957E+04  0.39591872569E+04  0.37865292240E+04 0.  0.
        2    1    3    3  502    0  0.68463598561E+03 -0.69992200887E+02  0.24223982664E+04  0.25182610473E+04  0.25500000920E-02 0.  1.
       -2    1    3    3    0  502 -0.68463598561E+03  0.69992200887E+02 -0.12659553707E+04  0.14409262096E+04  0.25500000920E-02 0. -1.
</event>
<event>
 5   0  0.1143283E-07  0.3806356E+04  0.7818609E-02  0.8044792E-01
        2   -1    0    0  501    0  0.00000000000E+00  0.00000000000E+00  0.23448911430E+04  0.23448911430E+04  0.25500000920E-02 0. -1.
       -2   -1    0    0    0  501  0.00000000000E+00  0.00000000000E+00 -0.15446718807E+04  0.15446718807E+04  0.25500000920E-02 0.  1.
    10030    2    1    2    0    0  0.00000000000E+00  0.00000000000E+00  0.80021926228E+03  0.38895630238E+04  0.38063564794E+04 0.  0.
        1    1    3    3  502    0  0.22670310947E+03  0.49531007490E+03  0.22635296464E+04  0.23281522352E+04  0.50400001928E-02 0. -1.
       -1    1    3    3    0  502 -0.22670310947E+03 -0.49531007490E+03 -0.14633103842E+04  0.15614107885E+04  0.50400001928E-02 0.  1.
</event>
<event>
 5   0  0.3701250E-08  0.3836536E+04  0.7818609E-02  0.8038359E-01
        1   -1    0    0  501    0  0.00000000000E+00  0.00000000000E+00  0.15543069274E+04  0.15543069274E+04  0.50400001928E-02 0.  1.
       -1   -1    0    0    0  501  0.00000000000E+00  0.00000000000E+00 -0.23674557598E+04  0.23674557598E+04  0.50400001928E-02 0. -1.
    10030    2    1    2    0    0  0.00000000000E+00  0.00000000000E+00 -0.81314883234E+03  0.39217626872E+04  0.38365364004E+04 0.  0.
        1    1    3    3  502    0  0.48365325763E+03  0.18030944293E+04 -0.85760488688E+03  0.20543992155E+04  0.50400001928E-02 0.  1.
       -1    1    3    3    0  502 -0.48365325763E+03 -0.18030944293E+04  0.44456054541E+02  0.18673634717E+04  0.50400001928E-02 0. -1.
</event>
<event>
 5   0  0.1150235E-07  0.3797945E+04  0.7818609E-02  0.8046596E-01
        2   -1    0    0  501    0  0.00000000000E+00  0.00000000000E+00  0.23178414084E+04  0.23178414084E+04  0.25500000920E-02 0. -1.
       -2   -1    0    0    0  501  0.00000000000E+00  0.00000000000E+00 -0.15557996453E+04  0.15557996453E+04  0.25500000920E-02 0.  1.
    10030    2    1    2    0    0  0.00000000000E+00  0.00000000000E+00  0.76204176308E+03  0.38736410538E+04  0.37979451503E+04 0.  0.
        4    1    3    3  502    0  0.13791290224E+04 -0.12136962589E+04  0.87126686917E+03  0.20332641342E+04  0.12699999809E+01 0. -1.
       -4    1    3    3    0  502 -0.13791290224E+04  0.12136962589E+04 -0.10922510609E+03  0.18403769195E+04  0.12699999809E+01 0.  1.
</event>
<event>
 5   0  0.1150235E-07  0.3793140E+04  0.7818609E-02  0.8047629E-01
       -2   -1    0    0    0  501  0.00000000000E+00  0.00000000000E+00  0.27962200108E+04  0.27962200108E+04  0.25500000920E-02 0.  1.
        2   -1    0    0  501    0  0.00000000000E+00  0.00000000000E+00 -0.12863713658E+04  0.12863713658E+04  0.25500000920E-02 0. -1.
    10030    2    1    2    0    0  0.00000000000E+00  0.00000000000E+00  0.15098486450E+04  0.40825913766E+04  0.37931397835E+04 0.  0.
        4    1    3    3  502    0  0.78897441541E+03 -0.11792972715E+04  0.21094299065E+04  0.25422271389E+04  0.12699999809E+01 0.  1.
       -4    1    3    3    0  502 -0.78897441541E+03  0.11792972715E+04 -0.59958126146E+03  0.15403642376E+04  0.12699999809E+01 0. -1.
</event>
<event>
 5   0  0.1193861E-07  0.3810227E+04  0.7818609E-02  0.8043964E-01
       -2   -1    0    0    0  501  0.00000000000E+00  0.00000000000E+00  0.15245012505E+04  0.15245012505E+04  0.25500000920E-02 0.  1.
        2   -1    0    0  501    0  0.00000000000E+00  0.00000000000E+00 -0.23807513256E+04  0.23807513256E+04  0.25500000920E-02 0. -1.
    10030    2    1    2    0    0  0.00000000000E+00  0.00000000000E+00 -0.85625007515E+03  0.39052525761E+04  0.38102274855E+04 0.  0.
        3    1    3    3  502    0 -0.40801624019E+03  0.14578093001E+03 -0.23295822606E+04  0.23695322009E+04  0.10100000352E+00 0. -1.
       -3    1    3    3    0  502  0.40801624019E+03 -0.14578093001E+03  0.14733321855E+04  0.15357203752E+04  0.10100000352E+00 0.  1.
</event>
<event>
 5   0  0.1143283E-07  0.3810866E+04  0.7818609E-02  0.8043827E-01
       -2   -1    0    0    0  501  0.00000000000E+00  0.00000000000E+00  0.26078544671E+04  0.26078544671E+04  0.25500000920E-02 0.  1.
        2   -1    0    0  501    0  0.00000000000E+00  0.00000000000E+00 -0.13922077472E+04  0.13922077472E+04  0.25500000920E-02 0. -1.
    10030    2    1    2    0    0  0.00000000000E+00  0.00000000000E+00  0.12156467198E+04  0.40000622143E+04  0.38108661444E+04 0.  0.
        1    1    3    3  502    0  0.18920145733E+04 -0.34767454272E+01  0.37091008377E+03  0.19280315152E+04  0.50400001928E-02 0. -1.
       -1    1    3    3    0  502 -0.18920145733E+04  0.34767454272E+01  0.84473663607E+03  0.20720306990E+04  0.50400001928E-02 0.  1.
</event>
<event>
 5   0  0.3701250E-08  0.3817879E+04  0.7818609E-02  0.8042329E-01
       -1   -1    0    0    0  501  0.00000000000E+00  0.00000000000E+00  0.14563336811E+04  0.14563336811E+04  0.50400001928E-02 0.  1.
        1   -1    0    0  501    0  0.00000000000E+00  0.00000000000E+00 -0.25022075354E+04  0.25022075354E+04  0.50400001928E-02 0. -1.
    10030    2    1    2    0    0  0.00000000000E+00  0.00000000000E+00 -0.10458738543E+04  0.39585412165E+04  0.38178785265E+04 0.  0.
        4    1    3    3  502    0 -0.64104499497E+03 -0.14145305738E+04 -0.16738851689E+04  0.22833590610E+04  0.12699999809E+01 0. -1.
       -4    1    3    3    0  502  0.64104499497E+03  0.14145305738E+04  0.62801131465E+03  0.16751821555E+04  0.12699999809E+01 0.  1.
</event>
<event>
 5   0  0.3701250E-08  0.3785749E+04  0.7818609E-02  0.8049220E-01
       -1   -1    0    0    0  501  0.00000000000E+00  0.00000000000E+00  0.27361337259E+04  0.27361337259E+04  0.50400001928E-02 0. -1.
        1   -1    0    0  501    0  0.00000000000E+00  0.00000000000E+00 -0.13095026510E+04  0.13095026510E+04  0.50400001928E-02 0.  1.
    10030    2    1    2    0    0  0.00000000000E+00  0.00000000000E+00  0.14266310750E+04  0.40456363769E+04  0.37857492614E+04 0.  0.
        1    1    3    3  502    0  0.16812279848E+03  0.71067660053E+03 -0.11528916031E+04  0.13647291140E+04  0.50400001928E-02 0.  1.
       -1    1    3    3    0  502 -0.16812279848E+03 -0.71067660053E+03  0.25795226781E+04  0.26809072630E+04  0.50400001928E-02 0. -1.
</event>
<event>
 5   0  0.3701250E-08  0.3800781E+04  0.7818609E-02  0.8045987E-01
       -1   -1    0    0    0  501  0.00000000000E+00  0.00000000000E+00  0.13314765111E+04  0.13314765111E+04  0.50400001928E-02 0.  1.
        1   -1    0    0  501    0  0.00000000000E+00  0.00000000000E+00 -0.27123906786E+04  0.27123906786E+04  0.50400001928E-02 0. -1.
    10030    2    1    2    0    0  0.00000000000E+00  0.00000000000E+00 -0.13809141675E+04  0.40438671897E+04  0.38007812236E+04 0.  0.
        1    1    3    3  502    0 -0.14495503478E+04 -0.37004839129E+03 -0.19373093988E+04  0.24477131632E+04  0.50400001928E-02 0. -1.
       -1    1    3    3    0  502  0.14495503478E+04  0.37004839129E+03  0.55639523136E+03  0.15961540265E+04  0.50400001928E-02 0.  1.
</event>
<event>
 5   0  0.1193861E-07  0.3814938E+04  0.7818609E-02  0.8042957E-01
        2   -1    0    0  501    0  0.00000000000E+00  0.00000000000E+00  0.24750526886E+04  0.24750526886E+04  0.25500000920E-02 0. -1.
       -2   -1    0    0    0  501  0.00000000000E+00  0.00000000000E+00 -0.14700444041E+04  0.14700444042E+04  0.25500000920E-02 0.  1.
    10030    2    1    2    0    0  0.00000000000E+00  0.00000000000E+00  0.10050082845E+04  0.39450970928E+04  0.38149376692E+04 0.  0.
        3    1    3    3  502    0  0.97305025659E+03 -0.14485021710E+03  0.21924664811E+04  0.24030642247E+04  0.10100000352E+00 0. -1.
       -3    1    3    3    0  502 -0.97305025659E+03  0.14485021710E+03 -0.11874581966E+04  0.15420328681E+04  0.10100000352E+00 0.  1.
</event>
<event>
 5   0  0.1150235E-07  0.3835447E+04  0.7818609E-02  0.8038591E-01
        2   -1    0    0  501    0  0.00000000000E+00  0.00000000000E+00  0.28081418135E+04  0.28081418135E+04  0.25500000920E-02 0. -1.
       -2   -1    0    0    0  501  0.00000000000E+00  0.00000000000E+00 -0.13096429707E+04  0.13096429707E+04  0.25500000920E-02 0.  1.
    10030    2    1    2    0    0  0.00000000000E+00  0.00000000000E+00  0.14984988428E+04  0.41177847842E+04  0.38354468771E+04 0.  0.
        4    1    3    3  502    0 -0.22899655664E+03 -0.12712156805E+04  0.22710677382E+04  0.26126957369E+04  0.12699999809E+01 0. -1.
       -4    1    3    3    0  502  0.22899655664E+03  0.12712156805E+04 -0.77256889534E+03  0.15050890473E+04  0.12699999809E+01 0.  1.
</event>
<event>
 5   0  0.3701250E-08  0.3778852E+04  0.7818609E-02  0.8050709E-01
        1   -1    0    0  501    0  0.00000000000E+00  0.00000000000E+00  0.25550446033E+04  0.25550446033E+04  0.50400001928E-02 0. -1.
       -1   -1    0    0    0  501  0.00000000000E+00  0.00000000000E+00 -0.13972085643E+04  0.13972085643E+04  0.50400001928E-02 0.  1.
    10030    2    1    2    0    0  0.00000000000E+00  0.00000000000E+00  0.11578360391E+04  0.39522531676E+04  0.37788517843E+04 0.  0.
        3    1    3    3  502    0 -0.15193447748E+04 -0.10385642567E+04  0.13161812758E+03  0.18450874238E+04  0.10100000352E+00 0.  1.
       -3    1    3    3    0  502  0.15193447748E+04  0.10385642567E+04  0.10262179115E+04  0.21071657438E+04  0.10100000352E+00 0. -1.
</event>
<event>
 5   0  0.3701250E-08  0.3785589E+04  0.7818609E-02  0.8049255E-01
        1   -1    0    0  501    0  0.00000000000E+00  0.00000000000E+00  0.18858919377E+04  0.18858919377E+04  0.50400001928E-02 0. -1.
       -1   -1    0    0    0  501  0.00000000000E+00  0.00000000000E+00 -0.18997218806E+04  0.18997218806E+04  0.50400001928E-02 0.  1.
    10030    2    1    2    0    0  0.00000000000E+00  0.00000000000E+00 -0.13829942965E+02  0.37856138183E+04  0.37855885558E+04 0.  0.
        3    1    3    3  502    0  0.49160674884E+03  0.57192111386E+03 -0.17429850847E+04  0.18991492758E+04  0.10100000352E+00 0.  1.
       -3    1    3    3    0  502 -0.49160674884E+03 -0.57192111386E+03  0.17291551417E+04  0.18864645425E+04  0.10100000352E+00 0. -1.
</event>
<event>
 5   0  0.1150235E-07  0.3635568E+04  0.7818609E-02  0.8082393E-01
       -2   -1    0    0    0  501  0.00000000000E+00  0.00000000000E+00  0.20962569254E+04  0.20962569254E+04  0.25500000920E-02 0.  1.
        2   -1    0    0  501    0  0.00000000000E+00  0.00000000000E+00 -0.15763044403E+04  0.15763044403E+04  0.25500000920E-02 0. -1.
    10030    2    1    2    0    0  0.00000000000E+00  0.00000000000E+00  0.51995248513E+03  0.36725613657E+04  0.36355682359E+04 0.  0.
        4    1    3    3  502    0  0.13097447465E+03 -0.74521268422E+03 -0.14096700924E+04  0.15998961341E+04  0.12699999809E+01 0. -1.
       -4    1    3    3    0  502 -0.13097447465E+03  0.74521268422E+03  0.19296225775E+04  0.20726652316E+04  0.12699999809E+01 0.  1.
</event>
<event>
 5   0  0.3701250E-08  0.3751751E+04  0.7818609E-02  0.8056589E-01
       -1   -1    0    0    0  501  0.00000000000E+00  0.00000000000E+00  0.23991916278E+04  0.23991916278E+04  0.50400001928E-02 0. -1.
        1   -1    0    0  501    0  0.00000000000E+00  0.00000000000E+00 -0.14667057501E+04  0.14667057501E+04  0.50400001928E-02 0.  1.
    10030    2    1    2    0    0  0.00000000000E+00  0.00000000000E+00  0.93248587777E+03  0.38658973779E+04  0.37517506080E+04 0.  0.
        1    1    3    3  502    0 -0.14747659558E+04 -0.83709598604E+03 -0.36018345364E+03  0.17336079241E+04  0.50400001928E-02 0.  1.
       -1    1    3    3    0  502  0.14747659558E+04  0.83709598604E+03  0.12926693314E+04  0.21322894538E+04  0.50400001928E-02 0. -1.
</event>
<event>
 5   0  0.3701250E-08  0.3808717E+04  0.7818609E-02  0.8044287E-01
        1   -1    0    0  501    0  0.00000000000E+00  0.00000000000E+00  0.20624153660E+04  0.20624153660E+04  0.50400001928E-02 0. -1.
       -1   -1    0    0    0  501  0.00000000000E+00  0.00000000000E+00 -0.17584147164E+04  0.17584147164E+04  0.50400001928E-02 0.  1.
    10030    2    1    2    0    0  0.00000000000E+00  0.00000000000E+00  0.30400064959E+03  0.38208300823E+04  0.38087171230E+04 0.  0.
        2    1    3    3  502    0 -0.12444560030E+04  0.49420663365E+03  0.15104378371E+04  0.20184978078E+04  0.25500000920E-02 0.  1.
       -2    1    3    3    0  502  0.12444560030E+04 -0.49420663365E+03 -0.12064371876E+04  0.18023322745E+04  0.25500000920E-02 0. -1.
</event>
<event>
 5   0  0.3701250E-08  0.3818280E+04  0.7818609E-02  0.8042243E-01
        1   -1    0    0  501    0  0.00000000000E+00  0.00000000000E+00  0.14538989062E+04  0.14538989062E+04  0.50400001928E-02 0.  1.
       -1   -1    0    0    0  501  0.00000000000E+00  0.00000000000E+00 -0.25069254070E+04  0.25069254070E+04  0.50400001928E-02 0. -1.
    10030    2    1    2    0    0  0.00000000000E+00  0.00000000000E+00 -0.10530265008E+04  0.39608243132E+04  0.38182802973E+04 0.  0.
        4    1    3    3  502    0 -0.11811306274E+04  0.10993322429E+04  0.53197899182E+03  0.16990009417E+04  0.12699999809E+01 0.  1.
       -4    1    3    3    0  502  0.11811306274E+04 -0.10993322429E+04 -0.15850054926E+04  0.22618233715E+04  0.12699999809E+01 0. -1.
</event>
<event>
 5   0  0.3701250E-08  0.3809064E+04  0.7818609E-02  0.8044213E-01
        1   -1    0    0  501    0  0.00000000000E+00  0.00000000000E+00  0.22197195534E+04  0.22197195534E+04  0.50400001928E-02 0. -1.
       -1   -1    0    0    0  501  0.00000000000E+00  0.00000000000E+00 -0.16340994510E+04  0.16340994510E+04  0.50400001928E-02 0.  1.
    10030    2    1    2    0    0  0.00000000000E+00  0.00000000000E+00  0.58562010242E+03  0.38538190044E+04  0.38090641914E+04 0.  0.
        2    1    3    3  502    0  0.11102253035E+04 -0.62217128343E+03 -0.11407163167E+04  0.17090731540E+04  0.25500000920E-02 0.  1.
       -2    1    3    3    0  502 -0.11102253035E+04  0.62217128343E+03  0.17263364192E+04  0.21447458504E+04  0.25500000920E-02 0. -1.
</event>
<event>
 5   0  0.3701250E-08  0.3801526E+04  0.7818609E-02  0.8045827E-01
        1   -1    0    0  501    0  0.00000000000E+00  0.00000000000E+00  0.20156311819E+04  0.20156311819E+04  0.50400001928E-02 0. -1.
       -1   -1    0    0    0  501  0.00000000000E+00  0.00000000000E+00 -0.17924410739E+04  0.17924410739E+04  0.50400001928E-02 0.  1.
    10030    2    1    2    0    0  0.00000000000E+00  0.00000000000E+00  0.22319010799E+03  0.38080722558E+04  0.38015260726E+04 0.  0.
        4    1    3    3  502    0 -0.62141006598E+03  0.31181363371E+03 -0.16604962442E+04  0.18001743255E+04  0.12699999809E+01 0.  1.
       -4    1    3    3    0  502  0.62141006598E+03 -0.31181363371E+03  0.18836863522E+04  0.20078979303E+04  0.12699999809E+01 0. -1.
</event>
<event>
 5   0  0.3701250E-08  0.3800427E+04  0.7818609E-02  0.8046063E-01
       -1   -1    0    0    0  501  0.00000000000E+00  0.00000000000E+00  0.15129461135E+04  0.15129461135E+04  0.50400001928E-02 0.  1.
        1   -1    0    0  501    0  0.00000000000E+00  0.00000000000E+00 -0.23866098927E+04  0.23866098927E+04  0.50400001928E-02 0. -1.
    10030    2    1    2    0    0  0.00000000000E+00  0.00000000000E+00 -0.87366377919E+03  0.38995560063E+04  0.38004274295E+04 0.  0.
        3    1    3    3  502    0  0.31896987508E+03  0.13227902620E+04 -0.17978133589E+04  0.22546948224E+04  0.10100000352E+00 0. -1.
       -3    1    3    3    0  502 -0.31896987508E+03 -0.13227902620E+04  0.92414957967E+03  0.16448611839E+04  0.10100000352E+00 0.  1.
</event>
<event>
 5   0  0.3701250E-08  0.3875902E+04  0.7818609E-02  0.8030060E-01
        1   -1    0    0  501    0  0.00000000000E+00  0.00000000000E+00  0.20327321148E+04  0.20327321148E+04  0.50400001928E-02 0.  1.
       -1   -1    0    0    0  501  0.00000000000E+00  0.00000000000E+00 -0.18475893401E+04  0.18475893401E+04  0.50400001928E-02 0. -1.
    10030    2    1    2    0    0  0.00000000000E+00  0.00000000000E+00  0.18514277463E+03  0.38803214549E+04  0.38759020558E+04 0.  0.
        4    1    3    3  502    0  0.57081165542E+02 -0.13648794294E+04 -0.12835862415E+04  0.18744997649E+04  0.12699999809E+01 0. -1.
       -4    1    3    3    0  502 -0.57081165542E+02  0.13648794294E+04  0.14687290162E+04  0.20058216900E+04  0.12699999809E+01 0.  1.
</event>
<event>
 5   0  0.1193861E-07  0.3809631E+04  0.7818609E-02  0.8044091E-01
       -2   -1    0    0    0  501  0.00000000000E+00  0.00000000000E+00  0.13628047970E+04  0.13628047971E+04  0.25500000920E-02 0. -1.
        2   -1    0    0  501    0  0.00000000000E+00  0.00000000000E+00 -0.26623925771E+04  0.26623925771E+04  0.25500000920E-02 0.  1.
    10030    2    1    2    0    0  0.00000000000E+00  0.00000000000E+00 -0.12995877800E+04  0.40251973741E+04  0.38096306255E+04 0.  0.
        3    1    3    3  502    0  0.56079856714E+03 -0.17384107788E+04 -0.12205005515E+04  0.21968588200E+04  0.10100000352E+00 0.  1.
       -3    1    3    3    0  502 -0.56079856714E+03  0.17384107788E+04 -0.79087228547E+02  0.18283385541E+04  0.10100000352E+00 0. -1.
</event>
<event>
 5   0  0.3701250E-08  0.3792181E+04  0.7818609E-02  0.8047835E-01
       -1   -1    0    0    0  501  0.00000000000E+00  0.00000000000E+00  0.17640173640E+04  0.17640173640E+04  0.50400001928E-02 0. -1.
        1   -1    0    0  501    0  0.00000000000E+00  0.00000000000E+00 -0.20380516927E+04  0.20380516928E+04  0.50400001928E-02 0.  1.
    10030    2    1    2    0    0  0.00000000000E+00  0.00000000000E+00 -0.27403432875E+03  0.38020690568E+04  0.37921806786E+04 0.  0.
        2    1    3    3  502    0  0.14974224300E+04 -0.11294081901E+04  0.14177586071E+03  0.18809405063E+04  0.25500000920E-02 0. -1.
       -2    1    3    3    0  502 -0.14974224300E+04  0.11294081901E+04 -0.41581018946E+03  0.19211285504E+04  0.25500000920E-02 0.  1.
</event>
<event>
 5   0  0.3701250E-08  0.3791796E+04  0.7818609E-02  0.8047918E-01
       -1   -1    0    0    0  501  0.00000000000E+00  0.00000000000E+00  0.15435206507E+04  0.15435206508E+04  0.50400001928E-02 0. -1.
        1   -1    0    0  501    0  0.00000000000E+00  0.00000000000E+00 -0.23287214818E+04  0.23287214818E+04  0.50400001928E-02 0.  1.
    10030    2    1    2    0    0  0.00000000000E+00  0.00000000000E+00 -0.78520083106E+03  0.38722421326E+04  0.37917962482E+04 0.  0.
        1    1    3    3  502    0  0.15922792892E+04  0.80643116002E+03  0.26029529870E+03  0.18037289689E+04  0.50400001928E-02 0. -1.
       -1    1    3    3    0  502 -0.15922792892E+04 -0.80643116002E+03 -0.10454961298E+04  0.20685131636E+04  0.50400001928E-02 0.  1.
</event>
<event>
 5   0  0.1174870E-07  0.3807884E+04  0.7818609E-02  0.8044465E-01
       -2   -1    0    0    0  501  0.00000000000E+00  0.00000000000E+00  0.18622484404E+04  0.18622484404E+04  0.25500000920E-02 0. -1.
        2   -1    0    0  501    0  0.00000000000E+00  0.00000000000E+00 -0.19465692395E+04  0.19465692395E+04  0.25500000920E-02 0.  1.
    10030    2    1    2    0    0  0.00000000000E+00  0.00000000000E+00 -0.84320799079E+02  0.38088176798E+04  0.38078842053E+04 0.  0.
        5    1    3    3  502    0  0.37814044747E+03  0.10516228592E+04  0.14996689360E+04  0.18702753390E+04  0.46999998093E+01 0. -1.
       -5    1    3    3    0  502 -0.37814044747E+03 -0.10516228592E+04 -0.15839897351E+04  0.19385423408E+04  0.46999998093E+01 0.  1.
</event>
<event>
 5   0  0.1150235E-07  0.3809889E+04  0.7818609E-02  0.8044036E-01
        2   -1    0    0  501    0  0.00000000000E+00  0.00000000000E+00  0.14863120172E+04  0.14863120173E+04  0.25500000920E-02 0.  1.
       -2   -1    0    0    0  501  0.00000000000E+00  0.00000000000E+00 -0.24414883160E+04  0.24414883160E+04  0.25500000920E-02 0. -1.
    10030    2    1    2    0    0  0.00000000000E+00  0.00000000000E+00 -0.95517629875E+03  0.39278003332E+04  0.38098889349E+04 0.  0.
        4    1    3    3  502    0 -0.10632841928E+04 -0.15743166225E+04 -0.33264647214E+03  0.19286527398E+04  0.12699999809E+01 0.  1.
       -4    1    3    3    0  502  0.10632841928E+04  0.15743166225E+04 -0.62252982661E+03  0.19991475934E+04  0.12699999809E+01 0. -1.
</event>
<event>
 5   0  0.3701250E-08  0.3821604E+04  0.7818609E-02  0.8041535E-01
       -1   -1    0    0    0  501  0.00000000000E+00  0.00000000000E+00  0.15545774647E+04  0.15545774647E+04  0.50400001928E-02 0.  1.
        1   -1    0    0  501    0  0.00000000000E+00  0.00000000000E+00 -0.23486534215E+04  0.23486534216E+04  0.50400001928E-02 0. -1.
    10030    2    1    2    0    0  0.00000000000E+00  0.00000000000E+00 -0.79407595686E+03  0.39032308863E+04  0.38216036851E+04 0.  0.
        1    1    3    3  502    0  0.27419490517E+03 -0.48698420891E+03 -0.22633126718E+04  0.23312916411E+04  0.50400001928E-02 0. -1.
       -1    1    3    3    0  502 -0.27419490517E+03  0.48698420891E+03  0.14692367149E+04  0.15719392451E+04  0.50400001928E-02 0.  1.
</event>
<event>
 5   0  0.7858367E-08  0.3796203E+04  0.7818609E-02  0.8046970E-01
        2   -1    0    0  501    0  0.00000000000E+00  0.00000000000E+00  0.15628729609E+04  0.15628729609E+04  0.25500000920E-02 0. -1.
       -2   -1    0    0    0  501  0.00000000000E+00  0.00000000000E+00 -0.23052347402E+04  0.23052347402E+04  0.25500000920E-02 0.  1.
    10030    2    1    2    0    0  0.00000000000E+00  0.00000000000E+00 -0.74236177921E+03  0.38681077011E+04  0.37962028629E+04 0.  0.
        2    1    3    3  502    0  0.47144794371E+03 -0.12950980414E+04 -0.17009858682E+04  0.21892681481E+04  0.25500000920E-02 0.  1.
       -2    1    3    3    0  502 -0.47144794371E+03  0.12950980414E+04  0.95862408901E+03  0.16788395530E+04  0.25500000920E-02 0. -1.
</event>
<event>
 5   0  0.3889225E-08  0.3807771E+04  0.7818609E-02  0.8044489E-01
        1   -1    0    0  501    0  0.00000000000E+00  0.00000000000E+00  0.14990357180E+04  0.14990357180E+04  0.50400001928E-02 0. -1.
       -1   -1    0    0    0  501  0.00000000000E+00  0.00000000000E+00 -0.24180744865E+04  0.24180744865E+04  0.50400001928E-02 0.  1.
    10030    2    1    2    0    0  0.00000000000E+00  0.00000000000E+00 -0.91903876851E+03  0.39171102046E+04  0.38077710142E+04 0.  0.
        5    1    3    3  502    0  0.12489184452E+04 -0.11879467383E+04 -0.12912803943E+04  0.21537042236E+04  0.46999998093E+01 0.  1.
       -5    1    3    3    0  502 -0.12489184452E+04  0.11879467383E+04  0.37224162575E+03  0.17634059810E+04  0.46999998093E+01 0. -1.
</event>
<event>
 5   0  0.3701250E-08  0.3799077E+04  0.7818609E-02  0.8046353E-01
       -1   -1    0    0    0  501  0.00000000000E+00  0.00000000000E+00  0.21470371634E+04  0.21470371634E+04  0.50400001928E-02 0.  1.
        1   -1    0    0  501    0  0.00000000000E+00  0.00000000000E+00 -0.16805702539E+04  0.16805702539E+04  0.50400001928E-02 0. -1.
    10030    2    1    2    0    0  0.00000000000E+00  0.00000000000E+00  0.46646690949E+03  0.38276074173E+04  0.37990771463E+04 0.  0.
        4    1    3    3  502    0  0.13702275724E+04 -0.10391158470E+04  0.10461133288E+04  0.20128686130E+04  0.12699999809E+01 0.  1.
       -4    1    3    3    0  502 -0.13702275724E+04  0.10391158470E+04 -0.57964641936E+03  0.18147388043E+04  0.12699999809E+01 0. -1.
</event>
<event>
 5   0  0.3701250E-08  0.3757785E+04  0.7818609E-02  0.8055275E-01
       -1   -1    0    0    0  501  0.00000000000E+00  0.00000000000E+00  0.14089971131E+04  0.14089971131E+04  0.50400001928E-02 0.  1.
        1   -1    0    0  501    0  0.00000000000E+00  0.00000000000E+00 -0.25054967097E+04  0.25054967097E+04  0.50400001928E-02 0. -1.
    10030    2    1    2    0    0  0.00000000000E+00  0.00000000000E+00 -0.10964995967E+04  0.39144938228E+04  0.37577853216E+04 0.  0.
        1    1    3    3  502    0  0.18020470998E+04 -0.53057467315E+03 -0.58658666948E+03  0.19679855575E+04  0.50400001928E-02 0.  1.
       -1    1    3    3    0  502 -0.18020470998E+04  0.53057467315E+03 -0.50991292718E+03  0.19465082653E+04  0.50400001928E-02 0. -1.
</event>
<event>
 5   0  0.3701250E-08  0.3803553E+04  0.7818609E-02  0.8045393E-01
       -3   -1    0    0    0  501  0.00000000000E+00  0.00000000000E+00  0.26532924212E+04  0.26532924231E+04  0.10100000352E+00 0. -1.
        3   -1    0    0  501    0  0.00000000000E+00  0.00000000000E+00 -0.13631189227E+04  0.13631189264E+04  0.10100000352E+00 0.  1.
    10030    2    1    2    0    0  0.00000000000E+00  0.00000000000E+00  0.12901734985E+04  0.40164113495E+04  0.38035526120E+04 0.  0.
        4    1    3    3  502    0 -0.10627602976E+04  0.99168550917E+03  0.19400316594E+04  0.24241749219E+04  0.12699999809E+01 0. -1.
       -4    1    3    3    0  502  0.10627602976E+04 -0.99168550917E+03 -0.64985816094E+03  0.15922364276E+04  0.12699999809E+01 0.  1.
</event>
<event>
 5   0  0.1193861E-07  0.3815236E+04  0.7818609E-02  0.8042893E-01
        2   -1    0    0  501    0  0.00000000000E+00  0.00000000000E+00  0.18380481699E+04  0.18380481699E+04  0.25500000920E-02 0.  1.
       -2   -1    0    0    0  501  0.00000000000E+00  0.00000000000E+00 -0.19798210721E+04  0.19798210722E+04  0.25500000920E-02 0. -1.
    10030    2    1    2    0    0  0.00000000000E+00  0.00000000000E+00 -0.14177290221E+03  0.38178692421E+04  0.38152360338E+04 0.  0.
        3    1    3    3  502    0  0.80983694969E+03  0.76472066572E+03  0.14788505195E+04  0.18513866292E+04  0.10100000352E+00 0.  1.
       -3    1    3    3    0  502 -0.80983694969E+03 -0.76472066572E+03 -0.16206234217E+04  0.19664826129E+04  0.10100000352E+00 0. -1.
</event>
<event>
 5   0  0.7858367E-08  0.3779955E+04  0.7818609E-02  0.8050470E-01
       -2   -1    0    0    0  501  0.00000000000E+00  0.00000000000E+00  0.32247639850E+04  0.32247639850E+04  0.25500000920E-02 0. -1.
        2   -1    0    0  501    0  0.00000000000E+00  0.00000000000E+00 -0.11076824233E+04  0.11076824233E+04  0.25500000920E-02 0.  1.
    10030    2    1    2    0    0  0.00000000000E+00  0.00000000000E+00  0.21170815617E+04  0.43324464083E+04  0.37799547010E+04 0.  0.
        2    1    3    3  502    0 -0.14599903351E+04  0.11294559310E+04  0.15237927158E+04  0.23935719582E+04  0.25500000920E-02 0. -1.
       -2    1    3    3    0  502  0.14599903351E+04 -0.11294559310E+04  0.59328884588E+03  0.19388744501E+04  0.25500000920E-02 0.  1.
</event>
<event>
 5   0  0.3701250E-08  0.3794639E+04  0.7818609E-02  0.8047306E-01
        1   -1    0    0  501    0  0.00000000000E+00  0.00000000000E+00  0.28068363818E+04  0.28068363818E+04  0.50400001928E-02 0. -1.
       -1   -1    0    0    0  501  0.00000000000E+00  0.00000000000E+00 -0.12825189564E+04  0.12825189564E+04  0.50400001928E-02 0.  1.
    10030    2    1    2    0    0  0.00000000000E+00  0.00000000000E+00  0.15243174255E+04  0.40893553382E+04  0.37946387797E+04 0.  0.
        4    1    3    3  502    0  0.17440232994E+04 -0.60282933538E+03  0.12377977844E+04  0.22219733221E+04  0.12699999809E+01 0.  1.
       -4    1    3    3    0  502 -0.17440232994E+04  0.60282933538E+03  0.28651964105E+03  0.18673820161E+04  0.12699999809E+01 0. -1.
</event>
<event>
 5   0  0.3701250E-08  0.3658147E+04  0.7818609E-02  0.8077301E-01
        1   -1    0    0  501    0  0.00000000000E+00  0.00000000000E+00  0.13008159721E+04  0.13008159721E+04  0.50400001928E-02 0. -1.
       -1   -1    0    0    0  501  0.00000000000E+00  0.00000000000E+00 -0.25718546683E+04  0.25718546684E+04  0.50400001928E-02 0.  1.
    10030    2    1    2    0    0  0.00000000000E+00  0.00000000000E+00 -0.12710386962E+04  0.38726706405E+04  0.36581468700E+04 0.  0.
        3    1    3    3  502    0 -0.16784586759E+04 -0.27202133373E+02 -0.14044366779E+04  0.21886995854E+04  0.10100000352E+00 0.  1.
       -3    1    3    3    0  502  0.16784586759E+04  0.27202133373E+02  0.13339798167E+03  0.16839710551E+04  0.10100000352E+00 0. -1.
</event>
<event>
 5   0  0.1143283E-07  0.3797053E+04  0.7818609E-02  0.8046788E-01
        2   -1    0    0  501    0  0.00000000000E+00  0.00000000000E+00  0.17137620838E+04  0.17137620838E+04  0.25500000920E-02 0.  1.
       -2   -1    0    0    0  501  0.00000000000E+00  0.00000000000E+00 -0.21032110206E+04  0.21032110206E+04  0.25500000920E-02 0. -1.
    10030    2    1    2    0    0  0.00000000000E+00  0.00000000000E+00 -0.38944893675E+03  0.38169731044E+04  0.37970532266E+04 0.  0.
        1    1    3    3  502    0  0.46151714380E+03 -0.19436707135E+03 -0.20356226639E+04  0.20963149244E+04  0.50400001928E-02 0. -1.
       -1    1    3    3    0  502 -0.46151714380E+03  0.19436707135E+03  0.16461737272E+04  0.17206581800E+04  0.50400001928E-02 0.  1.
</event>
<event>
 5   0  0.3701250E-08  0.3763144E+04  0.7818609E-02  0.8054111E-01
       -1   -1    0    0    0  501  0.00000000000E+00  0.00000000000E+00  0.30533625101E+04  0.30533625101E+04  0.50400001928E-02 0.  1.
        1   -1    0    0  501    0  0.00000000000E+00  0.00000000000E+00 -0.11594802779E+04  0.11594802779E+04  0.50400001928E-02 0. -1.
    10030    2    1    2    0    0  0.00000000000E+00  0.00000000000E+00  0.18938822322E+04  0.42128427880E+04  0.37631442235E+04 0.  0.
        2    1    3    3  502    0  0.17464688800E+03 -0.43776415361E+03 -0.10923254939E+04  0.11896696912E+04  0.25500000920E-02 0. -1.
       -2    1    3    3    0  502 -0.17464688800E+03  0.43776415361E+03  0.29862077260E+04  0.30231730967E+04  0.25500000920E-02 0.  1.
</event>
<event>
 5   0  0.1193861E-07  0.3804309E+04  0.7818609E-02  0.8045231E-01
        2   -1    0    0  501    0  0.00000000000E+00  0.00000000000E+00  0.11323287022E+04  0.11323287022E+04  0.25500000920E-02 0. -1.
       -2   -1    0    0    0  501  0.00000000000E+00  0.00000000000E+00 -0.31953548824E+04  0.31953548824E+04  0.25500000920E-02 0.  1.
    10030    2    1    2    0    0  0.00000000000E+00  0.00000000000E+00 -0.20630261801E+04  0.43276835846E+04  0.38043091605E+04 0.  0.
        3    1    3    3  502    0 -0.76866217252E+03  0.54738655277E+03  0.84728222603E+03  0.12682116363E+04  0.10100000352E+00 0. -1.
       -3    1    3    3    0  502  0.76866217252E+03 -0.54738655277E+03 -0.29103084062E+04  0.30594719483E+04  0.10100000352E+00 0.  1.
</event>
<event>
 5   0  0.3889225E-08  0.3816594E+04  0.7818609E-02  0.8042603E-01
        1   -1    0    0  501    0  0.00000000000E+00  0.00000000000E+00  0.15510625388E+04  0.15510625389E+04  0.50400001928E-02 0. -1.
       -1   -1    0    0    0  501  0.00000000000E+00  0.00000000000E+00 -0.23478077523E+04  0.23478077523E+04  0.50400001928E-02 0.  1.
    10030    2    1    2    0    0  0.00000000000E+00  0.00000000000E+00 -0.79674521343E+03  0.38988702911E+04  0.38165935875E+04 0.  0.
        5    1    3    3  502    0  0.73895868408E+03 -0.43281104936E+03 -0.21404771011E+04  0.23054391451E+04  0.46999998093E+01 0.  1.
       -5    1    3    3    0  502 -0.73895868408E+03  0.43281104936E+03  0.13437318877E+04  0.15934311461E+04  0.46999998093E+01 0. -1.
</event>
<event>
 5   0  0.3701250E-08  0.3797671E+04  0.7818609E-02  0.8046655E-01
       -4   -1    0    0    0  501  0.00000000000E+00  0.00000000000E+00  0.22624273385E+04  0.22624276949E+04  0.12699999809E+01 0. -1.
        4   -1    0    0  501    0  0.00000000000E+00  0.00000000000E+00 -0.15936754321E+04  0.15936759382E+04  0.12699999809E+01 0.  1.
    10030    2    1    2    0    0  0.00000000000E+00  0.00000000000E+00  0.66875190635E+03  0.38561036331E+04  0.37976711439E+04 0.  0.
        5    1    3    3  502    0  0.79881472324E+03  0.15394807612E+04 -0.45046483737E+03  0.17919393505E+04  0.46999998093E+01 0.  1.
       -5    1    3    3    0  502 -0.79881472324E+03 -0.15394807612E+04  0.11192167437E+04  0.20641642826E+04  0.46999998093E+01 0. -1.
</event>
<event>
 5   0  0.1193861E-07  0.3798656E+04  0.7818609E-02  0.8046443E-01
        2   -1    0    0  501    0  0.00000000000E+00  0.00000000000E+00  0.20735830085E+04  0.20735830085E+04  0.25500000920E-02 0.  1.
       -2   -1    0    0    0  501  0.00000000000E+00  0.00000000000E+00 -0.17397167828E+04  0.17397167829E+04  0.25500000920E-02 0. -1.
    10030    2    1    2    0    0  0.00000000000E+00  0.00000000000E+00  0.33386622561E+03  0.38132997913E+04  0.37986561626E+04 0.  0.
        3    1    3    3  502    0 -0.16041607347E+04  0.53154983280E+03  0.10372066116E+04  0.19828450401E+04  0.10100000352E+00 0.  1.
       -3    1    3    3    0  502  0.16041607347E+04 -0.53154983280E+03 -0.70334038602E+03  0.18304547512E+04  0.10100000352E+00 0. -1.
</event>
<event>
 5   0  0.3701250E-08  0.3804278E+04  0.7818609E-02  0.8045237E-01
       -1   -1    0    0    0  501  0.00000000000E+00  0.00000000000E+00  0.24067794290E+04  0.24067794290E+04  0.50400001928E-02 0.  1.
        1   -1    0    0  501    0  0.00000000000E+00  0.00000000000E+00 -0.15033087558E+04  0.15033087558E+04  0.50400001928E-02 0. -1.
    10030    2    1    2    0    0  0.00000000000E+00  0.00000000000E+00  0.90347067322E+03  0.39100881848E+04  0.38042779019E+04 0.  0.
        1    1    3    3  502    0 -0.17538138999E+04 -0.37223811588E+03  0.11047878292E+04  0.21059393529E+04  0.50400001928E-02 0.  1.
       -1    1    3    3    0  502  0.17538138999E+04  0.37223811588E+03 -0.20131715600E+03  0.18041488319E+04  0.50400001928E-02 0. -1.
</event>
<event>
 5   0  0.3701250E-08  0.3797332E+04  0.7818609E-02  0.8046728E-01
        1   -1    0    0  501    0  0.00000000000E+00  0.00000000000E+00  0.18968196892E+04  0.18968196892E+04  0.50400001928E-02 0. -1.
       -1   -1    0    0    0  501  0.00000000000E+00  0.00000000000E+00 -0.19005144849E+04  0.19005144849E+04  0.50400001928E-02 0.  1.
    10030    2    1    2    0    0  0.00000000000E+00  0.00000000000E+00 -0.36947956782E+01  0.37973341741E+04  0.37973323766E+04 0.  0.
        1    1    3    3  502    0 -0.16444288202E+03  0.17136796866E+04  0.79889873651E+03  0.18978879633E+04  0.50400001928E-02 0. -1.
       -1    1    3    3    0  502  0.16444288202E+03 -0.17136796866E+04 -0.80259353219E+03  0.18994462108E+04  0.50400001928E-02 0.  1.
</event>
<event>
 5   0  0.1193861E-07  0.3735728E+04  0.7818609E-02  0.8060090E-01
        2   -1    0    0  501    0  0.00000000000E+00  0.00000000000E+00  0.24861382675E+04  0.24861382675E+04  0.25500000920E-02 0.  1.
       -2   -1    0    0    0  501  0.00000000000E+00  0.00000000000E+00 -0.14033475287E+04  0.14033475287E+04  0.25500000920E-02 0. -1.
    10030    2    1    2    0    0  0.00000000000E+00  0.00000000000E+00  0.10827907388E+04  0.38894857963E+04  0.37357280382E+04 0.  0.
        3    1    3    3  502    0 -0.72124181185E+03 -0.11093270496E+03  0.23315890345E+04  0.24431134342E+04  0.10100000352E+00 0.  1.
       -3    1    3    3    0  502  0.72124181185E+03  0.11093270496E+03 -0.12487982957E+04  0.14463723621E+04  0.10100000352E+00 0. -1.
</event>
<event>
 5   0  0.3701250E-08  0.3804854E+04  0.7818609E-02  0.8045114E-01
       -1   -1    0    0    0  501  0.00000000000E+00  0.00000000000E+00  0.12446267205E+04  0.12446267205E+04  0.50400001928E-02 0. -1.
        1   -1    0    0  501    0  0.00000000000E+00  0.00000000000E+00 -0.29078826819E+04  0.29078826819E+04  0.50400001928E-02 0.  1.
    10030    2    1    2    0    0  0.00000000000E+00  0.00000000000E+00 -0.16632559614E+04  0.41525094024E+04  0.38048539977E+04 0.  0.
        2    1    3    3  502    0 -0.13045864826E+04  0.26373477883E+03 -0.23151413998E+04  0.26704646834E+04  0.25500000920E-02 0.  1.
       -2    1    3    3    0  502  0.13045864826E+04 -0.26373477883E+03  0.65188543840E+03  0.14820447190E+04  0.25500000920E-02 0. -1.
</event>
<event>
 5   0  0.3701250E-08  0.3633084E+04  0.7818609E-02  0.8082955E-01
        1   -1    0    0  501    0  0.00000000000E+00  0.00000000000E+00  0.16096000687E+04  0.16096000687E+04  0.50400001928E-02 0. -1.
       -1   -1    0    0    0  501  0.00000000000E+00  0.00000000000E+00 -0.20500902188E+04  0.20500902188E+04  0.50400001928E-02 0.  1.
    10030    2    1    2    0    0  0.00000000000E+00  0.00000000000E+00 -0.44049015015E+03  0.36596902875E+04  0.36330842859E+04 0.  0.
        1    1    3    3  502    0  0.14194658393E+04  0.56364316034E+03 -0.12109353210E+04  0.19490872820E+04  0.50400001928E-02 0.  1.
       -1    1    3    3    0  502 -0.14194658393E+04 -0.56364316034E+03  0.77044517084E+03  0.17106030055E+04  0.50400001928E-02 0. -1.
</event>
<event>
 5   0  0.1193861E-07  0.3796858E+04  0.7818609E-02  0.8046829E-01
        2   -1    0    0  501    0  0.00000000000E+00  0.00000000000E+00  0.18154023448E+04  0.18154023448E+04  0.25500000920E-02 0. -1.
       -2   -1    0    0    0  501  0.00000000000E+00  0.00000000000E+00 -0.19852532825E+04  0.19852532825E+04  0.25500000920E-02 0.  1.
    10030    2    1    2    0    0  0.00000000000E+00  0.00000000000E+00 -0.16985093770E+03  0.38006556273E+04  0.37968584193E+04 0.  0.
        3    1    3    3  502    0  0.15172978236E+04 -0.11399746368E+04 -0.13291709222E+03  0.19024725547E+04  0.10100000352E+00 0.  1.
       -3    1    3    3    0  502 -0.15172978236E+04  0.11399746368E+04 -0.36933845479E+02  0.18981830726E+04  0.10100000352E+00 0. -1.
</event>
<event>
 5   0  0.3889225E-08  0.3791920E+04  0.7818609E-02  0.8047891E-01
       -1   -1    0    0    0  501  0.00000000000E+00  0.00000000000E+00  0.17315866125E+04  0.17315866125E+04  0.50400001928E-02 0.  1.
        1   -1    0    0  501    0  0.00000000000E+00  0.00000000000E+00 -0.20759368194E+04  0.20759368194E+04  0.50400001928E-02 0. -1.
    10030    2    1    2    0    0  0.00000000000E+00  0.00000000000E+00 -0.34435020691E+03  0.38075234319E+04  0.37919200439E+04 0.  0.
        5    1    3    3  502    0  0.11074984339E+04  0.11492918243E+04 -0.11997226550E+04  0.19966925195E+04  0.46999998093E+01 0. -1.
       -5    1    3    3    0  502 -0.11074984339E+04 -0.11492918243E+04  0.85537244806E+03  0.18108309124E+04  0.46999998093E+01 0.  1.
</event>
<event>
 5   0  0.1143283E-07  0.3799690E+04  0.7818609E-02  0.8046221E-01
       -2   -1    0    0    0  501  0.00000000000E+00  0.00000000000E+00  0.16394184985E+04  0.16394184985E+04  0.25500000920E-02 0. -1.
        2   -1    0    0  501    0  0.00000000000E+00  0.00000000000E+00 -0.22016408654E+04  0.22016408654E+04  0.25500000920E-02 0.  1.
    10030    2    1    2    0    0  0.00000000000E+00  0.00000000000E+00 -0.56222236689E+03  0.38410593639E+04  0.37996898620E+04 0.  0.
        1    1    3    3  502    0 -0.17388446124E+04  0.71393462143E+03 -0.21949804168E+01  0.18797042448E+04  0.50400001928E-02 0. -1.
       -1    1    3    3    0  502  0.17388446124E+04 -0.71393462143E+03 -0.56002738647E+03  0.19613551192E+04  0.50400001928E-02 0.  1.
</event>
<event>
 5   0  0.3701250E-08  0.3830042E+04  0.7818609E-02  0.8039738E-01
        1   -1    0    0  501    0  0.00000000000E+00  0.00000000000E+00  0.22053164703E+04  0.22053164703E+04  0.50400001928E-02 0. -1.
       -1   -1    0    0    0  501  0.00000000000E+00  0.00000000000E+00 -0.16629385524E+04  0.16629385524E+04  0.50400001928E-02 0.  1.
    10030    2    1    2    0    0  0.00000000000E+00  0.00000000000E+00  0.54237791791E+03  0.38682550228E+04  0.38300421819E+04 0.  0.
        2    1    3    3  502    0 -0.10551875268E+04 -0.96511507536E+03 -0.10152689747E+04  0.17537499583E+04  0.25500000920E-02 0.  1.
       -2    1    3    3    0  502  0.10551875268E+04  0.96511507536E+03  0.15576468926E+04  0.21145050644E+04  0.25500000920E-02 0. -1.
</event>
<event>
 5   0  0.3701250E-08  0.3819068E+04  0.7818609E-02  0.8042075E-01
        1   -1    0    0  501    0  0.00000000000E+00  0.00000000000E+00  0.19895389772E+04  0.19895389772E+04  0.50400001928E-02 0.  1.
       -1   -1    0    0    0  501  0.00000000000E+00  0.00000000000E+00 -0.18327460580E+04  0.18327460580E+04  0.50400001928E-02 0. -1.
    10030    2    1    2    0    0  0.00000000000E+00  0.00000000000E+00  0.15679291920E+03  0.38222850352E+04  0.38190678013E+04 0.  0.
        2    1    3    3  502    0  0.57235818029E+03 -0.45836187066E+03 -0.16862196279E+04  0.18387566790E+04  0.25500000920E-02 0. -1.
       -2    1    3    3    0  502 -0.57235818029E+03  0.45836187066E+03  0.18430125471E+04  0.19835283562E+04  0.25500000920E-02 0.  1.
</event>
<event>
 5   0  0.3701250E-08  0.3798099E+04  0.7818609E-02  0.8046563E-01
       -1   -1    0    0    0  501  0.00000000000E+00  0.00000000000E+00  0.22511509397E+04  0.22511509397E+04  0.50400001928E-02 0.  1.
        1   -1    0    0  501    0  0.00000000000E+00  0.00000000000E+00 -0.16020201835E+04  0.16020201835E+04  0.50400001928E-02 0. -1.
    10030    2    1    2    0    0  0.00000000000E+00  0.00000000000E+00  0.64913075616E+03  0.38531711232E+04  0.37980991254E+04 0.  0.
        4    1    3    3  502    0  0.13586046829E+04  0.16313920400E+03  0.16604604838E+04  0.21516393089E+04  0.12699999809E+01 0.  1.
       -4    1    3    3    0  502 -0.13586046829E+04 -0.16313920400E+03 -0.10113297276E+04  0.17015318143E+04  0.12699999809E+01 0. -1.
</event>
<event>
 5   0  0.3701250E-08  0.3796702E+04  0.7818609E-02  0.8046863E-01
        1   -1    0    0  501    0  0.00000000000E+00  0.00000000000E+00  0.18528399067E+04  0.18528399068E+04  0.50400001928E-02 0. -1.
       -1   -1    0    0    0  501  0.00000000000E+00  0.00000000000E+00 -0.19449797387E+04  0.19449797387E+04  0.50400001928E-02 0.  1.
    10030    2    1    2    0    0  0.00000000000E+00  0.00000000000E+00 -0.92139831937E+02  0.37978196454E+04  0.37967017674E+04 0.  0.
        2    1    3    3  502    0  0.88124748833E+02  0.14254338303E+04 -0.12970813830E+04  0.19292609181E+04  0.25500000920E-02 0.  1.
       -2    1    3    3    0  502 -0.88124748833E+02 -0.14254338303E+04  0.12049415511E+04  0.18685587273E+04  0.25500000920E-02 0. -1.
</event>
<event>
 5   0  0.7858367E-08  0.3740567E+04  0.7818609E-02  0.8059031E-01
       -2   -1    0    0    0  501  0.00000000000E+00  0.00000000000E+00  0.19333804364E+04  0.19333804364E+04  0.25500000920E-02 0.  1.
        2   -1    0    0  501    0  0.00000000000E+00  0.00000000000E+00 -0.18092460160E+04  0.18092460160E+04  0.25500000920E-02 0. -1.
    10030    2    1    2    0    0  0.00000000000E+00  0.00000000000E+00  0.12413442043E+03  0.37426264523E+04  0.37405672574E+04 0.  0.
        2    1    3    3  502    0  0.77193186101E+03 -0.59275432172E+03  0.16600451530E+04  0.19243145257E+04  0.25500000920E-02 0.  1.
       -2    1    3    3    0  502 -0.77193186101E+03  0.59275432172E+03 -0.15359107326E+04  0.18183119266E+04  0.25500000920E-02 0. -1.
</event>
<event>
 5   0  0.1143283E-07  0.3857937E+04  0.7818609E-02  0.8033835E-01
       -2   -1    0    0    0  501  0.00000000000E+00  0.00000000000E+00  0.22475917986E+04  0.22475917986E+04  0.25500000920E-02 0.  1.
        2   -1    0    0  501    0  0.00000000000E+00  0.00000000000E+00 -0.16555137041E+04  0.16555137041E+04  0.25500000920E-02 0. -1.
    10030    2    1    2    0    0  0.00000000000E+00  0.00000000000E+00  0.59207809445E+03  0.39031055027E+04  0.38579367666E+04 0.  0.
        1    1    3    3  502    0  0.12804544487E+04  0.79732925048E+03 -0.92037796143E+03  0.17670294624E+04  0.50400001928E-02 0. -1.
       -1    1    3    3    0  502 -0.12804544487E+04 -0.79732925048E+03  0.15124560559E+04  0.21360760403E+04  0.50400001928E-02 0.  1.
</event>
<event>
 5   0  0.1143283E-07  0.3716128E+04  0.7818609E-02  0.8064397E-01
       -2   -1    0    0    0  501  0.00000000000E+00  0.00000000000E+00  0.29070423566E+04  0.29070423566E+04  0.25500000920E-02 0.  1.
        2   -1    0    0  501    0  0.00000000000E+00  0.00000000000E+00 -0.11875994796E+04  0.11875994796E+04  0.25500000920E-02 0. -1.
    10030    2    1    2    0    0  0.00000000000E+00  0.00000000000E+00  0.17194428769E+04  0.40946418362E+04  0.37161280871E+04 0.  0.
        1    1    3    3  502    0 -0.72286081315E+03 -0.62213124655E+03 -0.89732664745E+03  0.13094923273E+04  0.50400001928E-02 0. -1.
       -1    1    3    3    0  502  0.72286081315E+03  0.62213124655E+03  0.26167695244E+04  0.27851495089E+04  0.50400001928E-02 0.  1.
</event>
<event>
 5   0  0.1143283E-07  0.3802987E+04  0.7818609E-02  0.8045514E-01
       -2   -1    0    0    0  501  0.00000000000E+00  0.00000000000E+00  0.30481792906E+04  0.30481792906E+04  0.25500000920E-02 0. -1.
        2   -1    0    0  501    0  0.00000000000E+00  0.00000000000E+00 -0.11861758839E+04  0.11861758839E+04  0.25500000920E-02 0.  1.
    10030    2    1    2    0    0  0.00000000000E+00  0.00000000000E+00  0.18620034067E+04  0.42343551745E+04  0.38029865971E+04 0.  0.
        1    1    3    3  502    0  0.16784416612E+04  0.51552190155E+03  0.17436885082E+04  0.24745461917E+04  0.50400001928E-02 0.  1.
       -1    1    3    3    0  502 -0.16784416612E+04 -0.51552190155E+03  0.11831489849E+03  0.17598089829E+04  0.50400001928E-02 0. -1.
</event>
<event>
 5   0  0.1150235E-07  0.3798940E+04  0.7818609E-02  0.8046382E-01
       -2   -1    0    0    0  501  0.00000000000E+00  0.00000000000E+00  0.19413511276E+04  0.19413511276E+04  0.25500000920E-02 0. -1.
        2   -1    0    0  501    0  0.00000000000E+00  0.00000000000E+00 -0.18584923754E+04  0.18584923754E+04  0.25500000920E-02 0.  1.
    10030    2    1    2    0    0  0.00000000000E+00  0.00000000000E+00  0.82858752201E+02  0.37998435031E+04  0.37989399936E+04 0.  0.
        4    1    3    3  502    0 -0.99397766133E+03 -0.12235461951E+04 -0.10185055148E+04  0.18768089885E+04  0.12699999809E+01 0.  1.
       -4    1    3    3    0  502  0.99397766133E+03  0.12235461951E+04  0.11013642670E+04  0.19230345146E+04  0.12699999809E+01 0. -1.
</event>
<event>
 5   0  0.3701250E-08  0.3804929E+04  0.7818609E-02  0.8045098E-01
       -1   -1    0    0    0  501  0.00000000000E+00  0.00000000000E+00  0.17671237559E+04  0.17671237559E+04  0.50400001928E-02 0.  1.
        1   -1    0    0  501    0  0.00000000000E+00  0.00000000000E+00 -0.20481705130E+04  0.20481705130E+04  0.50400001928E-02 0. -1.
    10030    2    1    2    0    0  0.00000000000E+00  0.00000000000E+00 -0.28104675709E+03  0.38152942689E+04  0.38049287876E+04 0.  0.
        1    1    3    3  502    0 -0.10425787313E+04 -0.10094777970E+04  0.10930128412E+04  0.18167809181E+04  0.50400001928E-02 0.  1.
       -1    1    3    3    0  502  0.10425787313E+04  0.10094777970E+04 -0.13740595983E+04  0.19985133508E+04  0.50400001928E-02 0. -1.
</event>
<event>
 5   0  0.3701250E-08  0.3827521E+04  0.7818609E-02  0.8040275E-01
       -1   -1    0    0    0  501  0.00000000000E+00  0.00000000000E+00  0.25776881812E+04  0.25776881812E+04  0.50400001928E-02 0. -1.
        1   -1    0    0  501    0  0.00000000000E+00  0.00000000000E+00 -0.14208389627E+04  0.14208389627E+04  0.50400001928E-02 0.  1.
    10030    2    1    2    0    0  0.00000000000E+00  0.00000000000E+00  0.11568492185E+04  0.39985271440E+04  0.38275212876E+04 0.  0.
        1    1    3    3  502    0 -0.12737833465E+04 -0.17491560615E+03 -0.90242632777E+03  0.15708255028E+04  0.50400001928E-02 0.  1.
       -1    1    3    3    0  502  0.12737833465E+04  0.17491560615E+03  0.20592755463E+04  0.24277016412E+04  0.50400001928E-02 0. -1.
</event>
<event>
 5   0  0.3889225E-08  0.3837705E+04  0.7818609E-02  0.8038112E-01
        1   -1    0    0  501    0  0.00000000000E+00  0.00000000000E+00  0.14703959011E+04  0.14703959011E+04  0.50400001928E-02 0. -1.
       -1   -1    0    0    0  501  0.00000000000E+00  0.00000000000E+00 -0.25040844004E+04  0.25040844004E+04  0.50400001928E-02 0.  1.
    10030    2    1    2    0    0  0.00000000000E+00  0.00000000000E+00 -0.10336884993E+04  0.39744803015E+04  0.38377052718E+04 0.  0.
        5    1    3    3  502    0  0.92766911128E+03  0.11320800066E+04 -0.18019552401E+04  0.23214736481E+04  0.46999998093E+01 0.  1.
       -5    1    3    3    0  502 -0.92766911128E+03 -0.11320800066E+04  0.76826674076E+03  0.16530066535E+04  0.46999998093E+01 0. -1.
</event>
<event>
 5   0  0.3701250E-08  0.3804688E+04  0.7818609E-02  0.8045150E-01
       -1   -1    0    0    0  501  0.00000000000E+00  0.00000000000E+00  0.18385629688E+04  0.18385629688E+04  0.50400001928E-02 0. -1.
        1   -1    0    0  501    0  0.00000000000E+00  0.00000000000E+00 -0.19683377589E+04  0.19683377589E+04  0.50400001928E-02 0.  1.
    10030    2    1    2    0    0  0.00000000000E+00  0.00000000000E+00 -0.12977479010E+03  0.38069007276E+04  0.38046881152E+04 0.  0.
        4    1    3    3  502    0  0.87109285863E+03 -0.15406510687E+04 -0.76279056294E+03  0.19272414326E+04  0.12699999809E+01 0.  1.
       -4    1    3    3    0  502 -0.87109285863E+03  0.15406510687E+04  0.63301577285E+03  0.18796592950E+04  0.12699999809E+01 0. -1.
</event>
<event>
 5   0  0.3701250E-08  0.3803074E+04  0.7818609E-02  0.8045496E-01
        1   -1    0    0  501    0  0.00000000000E+00  0.00000000000E+00  0.24631988366E+04  0.24631988366E+04  0.50400001928E-02 0. -1.
       -1   -1    0    0    0  501  0.00000000000E+00  0.00000000000E+00 -0.14679458590E+04  0.14679458590E+04  0.50400001928E-02 0.  1.
    10030    2    1    2    0    0  0.00000000000E+00  0.00000000000E+00  0.99525297753E+03  0.39311446956E+04  0.38030737737E+04 0.  0.
        4    1    3    3  502    0  0.14398889065E+04  0.33448337883E+03  0.17340173724E+04  0.22785910239E+04  0.12699999809E+01 0. -1.
       -4    1    3    3    0  502 -0.14398889065E+04 -0.33448337883E+03 -0.73876439484E+03  0.16525536717E+04  0.12699999809E+01 0.  1.
</event>
<event>
 5   0  0.3701250E-08  0.3799294E+04  0.7818609E-02  0.8046306E-01
       -1   -1    0    0    0  501  0.00000000000E+00  0.00000000000E+00  0.14173203594E+04  0.14173203594E+04  0.50400001928E-02 0. -1.
        1   -1    0    0  501    0  0.00000000000E+00  0.00000000000E+00 -0.25461143125E+04  0.25461143125E+04  0.50400001928E-02 0.  1.
    10030    2    1    2    0    0  0.00000000000E+00  0.00000000000E+00 -0.11287939531E+04  0.39634346719E+04  0.37992944884E+04 0.  0.
        1    1    3    3  502    0 -0.32743782995E+03  0.61412422309E+02  0.13866077709E+04  0.14260673647E+04  0.50400001928E-02 0. -1.
       -1    1    3    3    0  502  0.32743782995E+03 -0.61412422309E+02 -0.25154017241E+04  0.25373673072E+04  0.50400001928E-02 0.  1.
</event>
<event>
 5   0  0.1150235E-07  0.3804440E+04  0.7818609E-02  0.8045203E-01
       -2   -1    0    0    0  501  0.00000000000E+00  0.00000000000E+00  0.12174604533E+04  0.12174604533E+04  0.25500000920E-02 0.  1.
        2   -1    0    0  501    0  0.00000000000E+00  0.00000000000E+00 -0.29721213436E+04  0.29721213436E+04  0.25500000920E-02 0. -1.
    10030    2    1    2    0    0  0.00000000000E+00  0.00000000000E+00 -0.17546608903E+04  0.41895817968E+04  0.38044396161E+04 0.  0.
        4    1    3    3  502    0  0.12865843297E+04 -0.70839789448E+03  0.45389441663E+03  0.15372535798E+04  0.12699999809E+01 0.  1.
       -4    1    3    3    0  502 -0.12865843297E+04  0.70839789448E+03 -0.22085553069E+04  0.26523282170E+04  0.12699999809E+01 0. -1.
</event>
<event>
 5   0  0.1174870E-07  0.3798117E+04  0.7818609E-02  0.8046559E-01
       -2   -1    0    0    0  501  0.00000000000E+00  0.00000000000E+00  0.15601028307E+04  0.15601028307E+04  0.25500000920E-02 0. -1.
        2   -1    0    0  501    0  0.00000000000E+00  0.00000000000E+00 -0.23116570278E+04  0.23116570278E+04  0.25500000920E-02 0.  1.
    10030    2    1    2    0    0  0.00000000000E+00  0.00000000000E+00 -0.75155419706E+03  0.38717598585E+04  0.37981167294E+04 0.  0.
        5    1    3    3  502    0  0.68123092747E+03 -0.45428522769E+03 -0.21224614436E+04  0.22749319362E+04  0.46999998093E+01 0.  1.
       -5    1    3    3    0  502 -0.68123092747E+03  0.45428522769E+03  0.13709072466E+04  0.15968279223E+04  0.46999998093E+01 0. -1.
</event>
<event>
 5   0  0.3701250E-08  0.3743602E+04  0.7818609E-02  0.8058367E-01
       -1   -1    0    0    0  501  0.00000000000E+00  0.00000000000E+00  0.18604051040E+04  0.18604051040E+04  0.50400001928E-02 0.  1.
        1   -1    0    0  501    0  0.00000000000E+00  0.00000000000E+00 -0.18832665487E+04  0.18832665487E+04  0.50400001928E-02 0. -1.
    10030    2    1    2    0    0  0.00000000000E+00  0.00000000000E+00 -0.22861444728E+02  0.37436716527E+04  0.37436018482E+04 0.  0.
        3    1    3    3  502    0 -0.70430473352E+00  0.28266632842E+02  0.18601915211E+04  0.18604064083E+04  0.10100000352E+00 0.  1.
       -3    1    3    3    0  502  0.70430473352E+00 -0.28266632842E+02 -0.18830529658E+04  0.18832652444E+04  0.10100000352E+00 0. -1.
</event>
<event>
 5   0  0.1193861E-07  0.3804645E+04  0.7818609E-02  0.8045159E-01
       -2   -1    0    0    0  501  0.00000000000E+00  0.00000000000E+00  0.21364764394E+04  0.21364764394E+04  0.25500000920E-02 0. -1.
        2   -1    0    0  501    0  0.00000000000E+00  0.00000000000E+00 -0.16938311408E+04  0.16938311408E+04  0.25500000920E-02 0.  1.
    10030    2    1    2    0    0  0.00000000000E+00  0.00000000000E+00  0.44264529860E+03  0.38303075802E+04  0.38046447007E+04 0.  0.
        3    1    3    3  502    0 -0.38718377056E+03 -0.71542618538E+03  0.19525392387E+04  0.21152199384E+04  0.10100000352E+00 0. -1.
       -3    1    3    3    0  502  0.38718377056E+03  0.71542618538E+03 -0.15098939401E+04  0.17150876419E+04  0.10100000352E+00 0.  1.
</event>
<event>
 5   0  0.3701250E-08  0.3802627E+04  0.7818609E-02  0.8045591E-01
       -1   -1    0    0    0  501  0.00000000000E+00  0.00000000000E+00  0.34178400827E+04  0.34178400827E+04  0.50400001928E-02 0. -1.
        1   -1    0    0  501    0  0.00000000000E+00  0.00000000000E+00 -0.10576837321E+04  0.10576837321E+04  0.50400001928E-02 0.  1.
    10030    2    1    2    0    0  0.00000000000E+00  0.00000000000E+00  0.23601563506E+04  0.44755238148E+04  0.38026274360E+04 0.  0.
        2    1    3    3  502    0 -0.13594864678E+04 -0.94222862578E+03  0.22835301834E+04  0.28196645790E+04  0.25500000920E-02 0. -1.
       -2    1    3    3    0  502  0.13594864678E+04  0.94222862578E+03  0.76626167196E+02  0.16558592358E+04  0.25500000920E-02 0.  1.
</event>
<event>
 5   0  0.3701250E-08  0.3810846E+04  0.7818609E-02  0.8043831E-01
       -1   -1    0    0    0  501  0.00000000000E+00  0.00000000000E+00  0.17169110225E+04  0.17169110225E+04  0.50400001928E-02 0. -1.
        1   -1    0    0  501    0  0.00000000000E+00  0.00000000000E+00 -0.21146335538E+04  0.21146335539E+04  0.50400001928E-02 0.  1.
    10030    2    1    2    0    0  0.00000000000E+00  0.00000000000E+00 -0.39772253137E+03  0.38315445763E+04  0.38108464451E+04 0.  0.
        3    1    3    3  502    0 -0.62812572910E+02  0.13102201478E+04 -0.15884006684E+04  0.20600094535E+04  0.10100000352E+00 0. -1.
       -3    1    3    3    0  502  0.62812572910E+02 -0.13102201478E+04  0.11906781370E+04  0.17715351228E+04  0.10100000352E+00 0.  1.
</event>
<event>
 5   0  0.3889225E-08  0.3797282E+04  0.7818609E-02  0.8046739E-01
        1   -1    0    0  501    0  0.00000000000E+00  0.00000000000E+00  0.16614323842E+04  0.16614323842E+04  0.50400001928E-02 0. -1.
       -1   -1    0    0    0  501  0.00000000000E+00  0.00000000000E+00 -0.21697162017E+04  0.21697162017E+04  0.50400001928E-02 0.  1.
    10030    2    1    2    0    0  0.00000000000E+00  0.00000000000E+00 -0.50828381753E+03  0.38311485860E+04  0.37972815340E+04 0.  0.
        5    1    3    3  502    0  0.92319736741E+03  0.15111716658E+04 -0.94499824082E+03  0.20072311645E+04  0.46999998093E+01 0.  1.
       -5    1    3    3    0  502 -0.92319736741E+03 -0.15111716658E+04  0.43671442328E+03  0.18239174214E+04  0.46999998093E+01 0. -1.
</event>
<event>
 5   0  0.7858367E-08  0.3793871E+04  0.7818609E-02  0.8047471E-01
       -2   -1    0    0    0  501  0.00000000000E+00  0.00000000000E+00  0.12251240455E+04  0.12251240455E+04  0.25500000920E-02 0. -1.
        2   -1    0    0  501    0  0.00000000000E+00  0.00000000000E+00 -0.29371427778E+04  0.29371427778E+04  0.25500000920E-02 0.  1.
    10030    2    1    2    0    0  0.00000000000E+00  0.00000000000E+00 -0.17120187323E+04  0.41622668232E+04  0.37938709741E+04 0.  0.
        2    1    3    3  502    0 -0.59547267929E+03 -0.11036729010E+04  0.70545855135E+03  0.14388722500E+04  0.25500000920E-02 0. -1.
       -2    1    3    3    0  502  0.59547267929E+03  0.11036729010E+04 -0.24174772837E+04  0.27233945732E+04  0.25500000920E-02 0.  1.
</event>
<event>
 5   0  0.7858367E-08  0.3842584E+04  0.7818609E-02  0.8037078E-01
       -2   -1    0    0    0  501  0.00000000000E+00  0.00000000000E+00  0.23497907031E+04  0.23497907031E+04  0.25500000920E-02 0.  1.
        2   -1    0    0  501    0  0.00000000000E+00  0.00000000000E+00 -0.15709322703E+04  0.15709322703E+04  0.25500000920E-02 0. -1.
    10030    2    1    2    0    0  0.00000000000E+00  0.00000000000E+00  0.77885843273E+03  0.39207229734E+04  0.38425835288E+04 0.  0.
        2    1    3    3  502    0  0.58889251166E+03  0.12108070248E+04  0.17878892489E+04  0.22381680026E+04  0.25500000920E-02 0.  1.
       -2    1    3    3    0  502 -0.58889251166E+03 -0.12108070248E+04 -0.10090308162E+04  0.16825549708E+04  0.25500000920E-02 0. -1.
</event>
<event>
 5   0  0.1193861E-07  0.3812351E+04  0.7818609E-02  0.8043510E-01
        2   -1    0    0  501    0  0.00000000000E+00  0.00000000000E+00  0.24447989058E+04  0.24447989058E+04  0.25500000920E-02 0. -1.
       -2   -1    0    0    0  501  0.00000000000E+00  0.00000000000E+00 -0.14862180944E+04  0.14862180944E+04  0.25500000920E-02 0.  1.
    10030    2    1    2    0    0  0.00000000000E+00  0.00000000000E+00  0.95858081140E+03  0.39310170002E+04  0.38123506507E+04 0.  0.
        3    1    3    3  502    0  0.12514167065E+04  0.76139381598E+03  0.17369862017E+04  0.22721983609E+04  0.10100000352E+00 0. -1.
       -3    1    3    3    0  502 -0.12514167065E+04 -0.76139381598E+03 -0.77840539028E+03  0.16588186393E+04  0.10100000352E+00 0.  1.
</event>
<event>
 5   0  0.1150235E-07  0.3800666E+04  0.7818609E-02  0.8046012E-01
       -2   -1    0    0    0  501  0.00000000000E+00  0.00000000000E+00  0.17115157603E+04  0.17115157603E+04  0.25500000920E-02 0.  1.
        2   -1    0    0  501    0  0.00000000000E+00  0.00000000000E+00 -0.21099803870E+04  0.21099803870E+04  0.25500000920E-02 0. -1.
    10030    2    1    2    0    0  0.00000000000E+00  0.00000000000E+00 -0.39846462672E+03  0.38214961474E+04  0.38006655661E+04 0.  0.
        4    1    3    3  502    0  0.11025946481E+04 -0.84335240503E+03 -0.15041530054E+04  0.20468112061E+04  0.12699999809E+01 0. -1.
       -4    1    3    3    0  502 -0.11025946481E+04  0.84335240503E+03  0.11056883787E+04  0.17746849412E+04  0.12699999809E+01 0.  1.
</event>
<event>
 5   0  0.3701250E-08  0.3756777E+04  0.7818609E-02  0.8055494E-01
       -1   -1    0    0    0  501  0.00000000000E+00  0.00000000000E+00  0.37442538639E+04  0.37442538639E+04  0.50400001928E-02 0. -1.
        1   -1    0    0  501    0  0.00000000000E+00  0.00000000000E+00 -0.94233567435E+03  0.94233567437E+03  0.50400001928E-02 0.  1.
    10030    2    1    2    0    0  0.00000000000E+00  0.00000000000E+00  0.28019181896E+04  0.46865895383E+04  0.37567773369E+04 0.  0.
        1    1    3    3  502    0  0.62901683840E+03  0.13456536406E+04 -0.33342397731E+02  0.14857851860E+04  0.50400001928E-02 0.  1.
       -1    1    3    3    0  502 -0.62901683840E+03 -0.13456536406E+04  0.28352605873E+04  0.32008043522E+04  0.50400001928E-02 0. -1.
</event>
<event>
 5   0  0.1150235E-07  0.3845801E+04  0.7818609E-02  0.8036397E-01
       -2   -1    0    0    0  501  0.00000000000E+00  0.00000000000E+00  0.15920549963E+04  0.15920549963E+04  0.25500000920E-02 0.  1.
        2   -1    0    0  501    0  0.00000000000E+00  0.00000000000E+00 -0.23224996105E+04  0.23224996105E+04  0.25500000920E-02 0. -1.
    10030    2    1    2    0    0  0.00000000000E+00  0.00000000000E+00 -0.73044461421E+03  0.39145546067E+04  0.38458014034E+04 0.  0.
        4    1    3    3  502    0 -0.18718299904E+03  0.15127527729E+04  0.82794852557E+03  0.17346350628E+04  0.12699999809E+01 0.  1.
       -4    1    3    3    0  502  0.18718299904E+03 -0.15127527729E+04 -0.15583931398E+04  0.21799195440E+04  0.12699999809E+01 0. -1.
</event>
<event>
 5   0  0.3701250E-08  0.3719730E+04  0.7818609E-02  0.8063603E-01
       -1   -1    0    0    0  501  0.00000000000E+00  0.00000000000E+00  0.12862834079E+04  0.12862834079E+04  0.50400001928E-02 0. -1.
        1   -1    0    0  501    0  0.00000000000E+00  0.00000000000E+00 -0.26892192185E+04  0.26892192185E+04  0.50400001928E-02 0.  1.
    10030    2    1    2    0    0  0.00000000000E+00  0.00000000000E+00 -0.14029358107E+04  0.39755026264E+04  0.37197301305E+04 0.  0.
        2    1    3    3  502    0 -0.14841361615E+04 -0.10884679405E+04 -0.98759952263E+03  0.20887257887E+04  0.25500000920E-02 0.  1.
       -2    1    3    3    0  502  0.14841361615E+04  0.10884679405E+04 -0.41533628806E+03  0.18867768377E+04  0.25500000920E-02 0. -1.
</event>
<event>
 5   0  0.1150235E-07  0.3780983E+04  0.7818609E-02  0.8050248E-01
        2   -1    0    0  501    0  0.00000000000E+00  0.00000000000E+00  0.16488204171E+04  0.16488204171E+04  0.25500000920E-02 0.  1.
       -2   -1    0    0    0  501  0.00000000000E+00  0.00000000000E+00 -0.21675847996E+04  0.21675847996E+04  0.25500000920E-02 0. -1.
    10030    2    1    2    0    0  0.00000000000E+00  0.00000000000E+00 -0.51876438247E+03  0.38164052167E+04  0.37809829797E+04 0.  0.
        4    1    3    3  502    0  0.16390756293E+04  0.43245387216E+03 -0.11041043659E+04  0.20230257868E+04  0.12699999809E+01 0. -1.
       -4    1    3    3    0  502 -0.16390756293E+04 -0.43245387216E+03  0.58533998346E+03  0.17933794299E+04  0.12699999809E+01 0.  1.
</event>
<event>
 5   0  0.3701250E-08  0.3806621E+04  0.7818609E-02  0.8044736E-01
        1   -1    0    0  501    0  0.00000000000E+00  0.00000000000E+00  0.26211979399E+04  0.26211979399E+04  0.50400001928E-02 0.  1.
       -1   -1    0    0    0  501  0.00000000000E+00  0.00000000000E+00 -0.13820363410E+04  0.13820363410E+04  0.50400001928E-02 0. -1.
    10030    2    1    2    0    0  0.00000000000E+00  0.00000000000E+00  0.12391615989E+04  0.40032342810E+04  0.38066209740E+04 0.  0.
        3    1    3    3  502    0  0.73951025471E+03  0.17411336933E+04  0.84059968845E+03  0.20700313527E+04  0.10100000352E+00 0.  1.
       -3    1    3    3    0  502 -0.73951025471E+03 -0.17411336933E+04  0.39856191048E+03  0.19332029282E+04  0.10100000352E+00 0. -1.
</event>
<event>
 5   0  0.1143283E-07  0.3800834E+04  0.7818609E-02  0.8045976E-01
       -2   -1    0    0    0  501  0.00000000000E+00  0.00000000000E+00  0.15427694496E+04  0.15427694496E+04  0.25500000920E-02 0.  1.
        2   -1    0    0  501    0  0.00000000000E+00  0.00000000000E+00 -0.23409753933E+04  0.23409753933E+04  0.25500000920E-02 0. -1.
    10030    2    1    2    0    0  0.00000000000E+00  0.00000000000E+00 -0.79820594373E+03  0.38837448428E+04  0.38008342868E+04 0.  0.
        1    1    3    3  502    0 -0.17618812462E+04  0.53629805056E+03  0.79891453629E+02  0.18434271803E+04  0.50400001928E-02 0. -1.
       -1    1    3    3    0  502  0.17618812462E+04 -0.53629805056E+03 -0.87809739736E+03  0.20403176625E+04  0.50400001928E-02 0.  1.
</event>
<event>
 5   0  0.3889225E-08  0.3969926E+04  0.7818609E-02  0.8010641E-01
        1   -1    0    0  501    0  0.00000000000E+00  0.00000000000E+00  0.27370469821E+04  0.27370469821E+04  0.50400001928E-02 0.  1.
       -1   -1    0    0    0  501  0.00000000000E+00  0.00000000000E+00 -0.14395363429E+04  0.14395363429E+04  0.50400001928E-02 0. -1.
    10030    2    1    2    0    0  0.00000000000E+00  0.00000000000E+00  0.12975106392E+04  0.41765833250E+04  0.39699262476E+04 0.  0.
        5    1    3    3  502    0 -0.14771830055E+04 -0.81391208789E+03 -0.45240775759E+03  0.17462008440E+04  0.46999998093E+01 0. -1.
       -5    1    3    3    0  502  0.14771830055E+04  0.81391208789E+03  0.17499183968E+04  0.24303824810E+04  0.46999998093E+01 0.  1.
</event>
<event>
 5   0  0.1150235E-07  0.3797398E+04  0.7818609E-02  0.8046714E-01
        2   -1    0    0  501    0  0.00000000000E+00  0.00000000000E+00  0.20823831945E+04  0.20823831945E+04  0.25500000920E-02 0. -1.
       -2   -1    0    0    0  501  0.00000000000E+00  0.00000000000E+00 -0.17312172789E+04  0.17312172789E+04  0.25500000920E-02 0.  1.
    10030    2    1    2    0    0  0.00000000000E+00  0.00000000000E+00  0.35116591561E+03  0.38136004734E+04  0.37973979342E+04 0.  0.
        4    1    3    3  502    0  0.16461159486E+04 -0.92906921199E+03  0.35576094520E+03  0.19233914786E+04  0.12699999809E+01 0.  1.
       -4    1    3    3    0  502 -0.16461159486E+04  0.92906921199E+03 -0.45950295947E+01  0.18902089948E+04  0.12699999809E+01 0. -1.
</event>
<event>
 5   0  0.1143283E-07  0.3763581E+04  0.7818609E-02  0.8054016E-01
       -2   -1    0    0    0  501  0.00000000000E+00  0.00000000000E+00  0.12946999688E+04  0.12946999688E+04  0.25500000920E-02 0. -1.
        2   -1    0    0  501    0  0.00000000000E+00  0.00000000000E+00 -0.27351018766E+04  0.27351018766E+04  0.25500000920E-02 0.  1.
    10030    2    1    2    0    0  0.00000000000E+00  0.00000000000E+00 -0.14404019078E+04  0.40298018454E+04  0.37635814402E+04 0.  0.
        1    1    3    3  502    0  0.85075466386E+03  0.41041772669E+03  0.10224723703E+04  0.13920042947E+04  0.50400001928E-02 0. -1.
       -1    1    3    3    0  502 -0.85075466386E+03 -0.41041772669E+03 -0.24628742781E+04  0.26377975507E+04  0.50400001928E-02 0.  1.
</event>
<event>
 5   0  0.3889225E-08  0.3770520E+04  0.7818609E-02  0.8052511E-01
       -1   -1    0    0    0  501  0.00000000000E+00  0.00000000000E+00  0.24811536001E+04  0.24811536001E+04  0.50400001928E-02 0.  1.
        1   -1    0    0  501    0  0.00000000000E+00  0.00000000000E+00 -0.14324809003E+04  0.14324809003E+04  0.50400001928E-02 0. -1.
    10030    2    1    2    0    0  0.00000000000E+00  0.00000000000E+00  0.10486726998E+04  0.39136345004E+04  0.37705199339E+04 0.  0.
        5    1    3    3  502    0 -0.90363858056E+03 -0.12603751656E+04 -0.58829982230E+03  0.16586823123E+04  0.46999998093E+01 0. -1.
       -5    1    3    3    0  502  0.90363858056E+03  0.12603751656E+04  0.16369725221E+04  0.22549521881E+04  0.46999998093E+01 0.  1.
</event>
<event>
 5   0  0.3701250E-08  0.3785228E+04  0.7818609E-02  0.8049332E-01
        1   -1    0    0  501    0  0.00000000000E+00  0.00000000000E+00  0.26549935930E+04  0.26549935930E+04  0.50400001928E-02 0. -1.
       -1   -1    0    0    0  501  0.00000000000E+00  0.00000000000E+00 -0.13491512742E+04  0.13491512742E+04  0.50400001928E-02 0.  1.
    10030    2    1    2    0    0  0.00000000000E+00  0.00000000000E+00  0.13058423188E+04  0.40041448673E+04  0.37852281248E+04 0.  0.
        4    1    3    3  502    0  0.10214195769E+04  0.11232075995E+04 -0.54252220211E+03  0.16122112815E+04  0.12699999809E+01 0.  1.
       -4    1    3    3    0  502 -0.10214195769E+04 -0.11232075995E+04  0.18483645209E+04  0.23919335858E+04  0.12699999809E+01 0. -1.
</event>
<event>
 5   0  0.3701250E-08  0.3817849E+04  0.7818609E-02  0.8042335E-01
        1   -1    0    0  501    0  0.00000000000E+00  0.00000000000E+00  0.19521571314E+04  0.19521571314E+04  0.50400001928E-02 0.  1.
       -1   -1    0    0    0  501  0.00000000000E+00  0.00000000000E+00 -0.18666497404E+04  0.18666497404E+04  0.50400001928E-02 0. -1.
    10030    2    1    2    0    0  0.00000000000E+00  0.00000000000E+00  0.85507391062E+02  0.38188068718E+04  0.38178494484E+04 0.  0.
        2    1    3    3  502    0 -0.12657383360E+04 -0.96880334830E+03 -0.10079001868E+04  0.18858781110E+04  0.25500000920E-02 0. -1.
       -2    1    3    3    0  502  0.12657383360E+04  0.96880334830E+03  0.10934075779E+04  0.19329287608E+04  0.25500000920E-02 0.  1.
</event>
<event>
 5   0  0.1150235E-07  0.3860529E+04  0.7818609E-02  0.8033289E-01
        2   -1    0    0  501    0  0.00000000000E+00  0.00000000000E+00  0.17180496263E+04  0.17180496263E+04  0.25500000920E-02 0.  1.
       -2   -1    0    0    0  501  0.00000000000E+00  0.00000000000E+00 -0.21686925770E+04  0.21686925770E+04  0.25500000920E-02 0. -1.
    10030    2    1    2    0    0  0.00000000000E+00  0.00000000000E+00 -0.45064295070E+03  0.38867422033E+04  0.38605292236E+04 0.  0.
        4    1    3    3  502    0 -0.71296431159E+03 -0.16858231286E+03  0.15726323207E+04  0.17349098347E+04  0.12699999809E+01 0.  1.
       -4    1    3    3    0  502  0.71296431159E+03  0.16858231286E+03 -0.20232752714E+04  0.21518323686E+04  0.12699999809E+01 0. -1.
</event>
<event>
 5   0  0.1143283E-07  0.3805556E+04  0.7818609E-02  0.8044964E-01
        2   -1    0    0  501    0  0.00000000000E+00  0.00000000000E+00  0.22000920541E+04  0.22000920541E+04  0.25500000920E-02 0.  1.
       -2   -1    0    0    0  501  0.00000000000E+00  0.00000000000E+00 -0.16456421561E+04  0.16456421561E+04  0.25500000920E-02 0. -1.
    10030    2    1    2    0    0  0.00000000000E+00  0.00000000000E+00  0.55444989792E+03  0.38457342102E+04  0.38055560601E+04 0.  0.
        1    1    3    3  502    0 -0.10555452432E+04  0.59712867729E+02 -0.13215089983E+04  0.16923733098E+04  0.50400001928E-02 0. -1.
       -1    1    3    3    0  502  0.10555452432E+04 -0.59712867729E+02  0.18759588963E+04  0.21533609004E+04  0.50400001928E-02 0.  1.
</event>
<event>
 5   0  0.3701250E-08  0.3794486E+04  0.7818609E-02  0.8047339E-01
        1   -1    0    0  501    0  0.00000000000E+00  0.00000000000E+00  0.18972623657E+04  0.18972623657E+04  0.50400001928E-02 0.  1.
       -1   -1    0    0    0  501  0.00000000000E+00  0.00000000000E+00 -0.18972240685E+04  0.18972240685E+04  0.50400001928E-02 0. -1.
    10030    2    1    2    0    0  0.00000000000E+00  0.00000000000E+00  0.38297173098E-01  0.37944864342E+04  0.37944864340E+04 0.  0.
        4    1    3    3  502    0 -0.17088383487E+04  0.14491207025E+03 -0.81140071894E+03  0.18972350275E+04  0.12699999809E+01 0. -1.
       -4    1    3    3    0  502  0.17088383487E+04 -0.14491207025E+03  0.81143901611E+03  0.18972514066E+04  0.12699999809E+01 0.  1.
</event>
<event>
 5   0  0.1193861E-07  0.3788534E+04  0.7818609E-02  0.8048620E-01
        2   -1    0    0  501    0  0.00000000000E+00  0.00000000000E+00  0.17755140559E+04  0.17755140559E+04  0.25500000920E-02 0. -1.
       -2   -1    0    0    0  501  0.00000000000E+00  0.00000000000E+00 -0.20209624631E+04  0.20209624631E+04  0.25500000920E-02 0.  1.
    10030    2    1    2    0    0  0.00000000000E+00  0.00000000000E+00 -0.24544840728E+03  0.37964765190E+04  0.37885338904E+04 0.  0.
        3    1    3    3  502    0  0.29743054680E+03 -0.26768097998E+03 -0.19781266846E+04  0.20181930601E+04  0.10100000352E+00 0.  1.
       -3    1    3    3    0  502 -0.29743054680E+03  0.26768097998E+03  0.17326782773E+04  0.17782834589E+04  0.10100000352E+00 0. -1.
</event>
<event>
 5   0  0.3701250E-08  0.3788172E+04  0.7818609E-02  0.8048698E-01
       -1   -1    0    0    0  501  0.00000000000E+00  0.00000000000E+00  0.15971883326E+04  0.15971883326E+04  0.50400001928E-02 0.  1.
        1   -1    0    0  501    0  0.00000000000E+00  0.00000000000E+00 -0.22461729368E+04  0.22461729368E+04  0.50400001928E-02 0. -1.
    10030    2    1    2    0    0  0.00000000000E+00  0.00000000000E+00 -0.64898460426E+03  0.38433612694E+04  0.37881717002E+04 0.  0.
        2    1    3    3  502    0 -0.17269873724E+04 -0.67019792820E+02  0.46177188489E+03  0.17889131646E+04  0.25500000920E-02 0.  1.
       -2    1    3    3    0  502  0.17269873724E+04  0.67019792820E+02 -0.11107564892E+04  0.20544481048E+04  0.25500000920E-02 0. -1.
</event>
<event>
 5   0  0.3701250E-08  0.3793623E+04  0.7818609E-02  0.8047525E-01
       -1   -1    0    0    0  501  0.00000000000E+00  0.00000000000E+00  0.23039937367E+04  0.23039937367E+04  0.50400001928E-02 0.  1.
        1   -1    0    0  501    0  0.00000000000E+00  0.00000000000E+00 -0.15615902158E+04  0.15615902158E+04  0.50400001928E-02 0. -1.
    10030    2    1    2    0    0  0.00000000000E+00  0.00000000000E+00  0.74240352086E+03  0.38655839525E+04  0.37936231107E+04 0.  0.
        3    1    3    3  502    0  0.56201242264E+02  0.18959741153E+04  0.36692198791E+03  0.19319700259E+04  0.10100000352E+00 0. -1.
       -3    1    3    3    0  502 -0.56201242264E+02 -0.18959741153E+04  0.37548153295E+03  0.19336139267E+04  0.10100000352E+00 0.  1.
</event>
<event>
 5   0  0.3701250E-08  0.3824186E+04  0.7818609E-02  0.8040984E-01
        3   -1    0    0  501    0  0.00000000000E+00  0.00000000000E+00  0.30862408165E+04  0.30862408181E+04  0.10100000352E+00 0.  1.
       -3   -1    0    0    0  501  0.00000000000E+00  0.00000000000E+00 -0.11846449596E+04  0.11846449639E+04  0.10100000352E+00 0. -1.
    10030    2    1    2    0    0  0.00000000000E+00  0.00000000000E+00  0.19015958569E+04  0.42708857820E+04  0.38241859996E+04 0.  0.
        4    1    3    3  502    0  0.14944973017E+03 -0.31400126040E+03  0.30506265766E+04  0.30703837116E+04  0.12699999809E+01 0.  1.
       -4    1    3    3    0  502 -0.14944973017E+03  0.31400126040E+03 -0.11490307197E+04  0.12005020704E+04  0.12699999809E+01 0. -1.
</event>
<event>
 5   0  0.3701250E-08  0.3796980E+04  0.7818609E-02  0.8046803E-01
        1   -1    0    0  501    0  0.00000000000E+00  0.00000000000E+00  0.24065119287E+04  0.24065119287E+04  0.50400001928E-02 0. -1.
       -1   -1    0    0    0  501  0.00000000000E+00  0.00000000000E+00 -0.14977129399E+04  0.14977129399E+04  0.50400001928E-02 0.  1.
    10030    2    1    2    0    0  0.00000000000E+00  0.00000000000E+00  0.90879898888E+03  0.39042248686E+04  0.37969798818E+04 0.  0.
        2    1    3    3  502    0  0.11925266080E+04  0.14510960748E+04  0.17006697748E+03  0.18859274392E+04  0.25500000920E-02 0. -1.
       -2    1    3    3    0  502 -0.11925266080E+04 -0.14510960748E+04  0.73873201140E+03  0.20182974294E+04  0.25500000920E-02 0.  1.
</event>
<event>
 5   0  0.3701250E-08  0.3791373E+04  0.7818609E-02  0.8048009E-01
        3   -1    0    0  501    0  0.00000000000E+00  0.00000000000E+00  0.16282738406E+04  0.16282738437E+04  0.10100000352E+00 0.  1.
       -3   -1    0    0    0  501  0.00000000000E+00  0.00000000000E+00 -0.22070167910E+04  0.22070167933E+04  0.10100000352E+00 0. -1.
    10030    2    1    2    0    0  0.00000000000E+00  0.00000000000E+00 -0.57874295041E+03  0.38352906370E+04  0.37913732166E+04 0.  0.
        5    1    3    3  502    0 -0.63582464808E+03  0.13135200160E+04 -0.15133448092E+04  0.21023421265E+04  0.46999998093E+01 0. -1.
       -5    1    3    3    0  502  0.63582464808E+03 -0.13135200160E+04  0.93460185877E+03  0.17329485105E+04  0.46999998093E+01 0.  1.
</event>
<event>
 5   0  0.7858367E-08  0.3788996E+04  0.7818609E-02  0.8048520E-01
        2   -1    0    0  501    0  0.00000000000E+00  0.00000000000E+00  0.23544587216E+04  0.23544587217E+04  0.25500000920E-02 0. -1.
       -2   -1    0    0    0  501  0.00000000000E+00  0.00000000000E+00 -0.15243939747E+04  0.15243939747E+04  0.25500000920E-02 0.  1.
    10030    2    1    2    0    0  0.00000000000E+00  0.00000000000E+00  0.83006474691E+03  0.38788526964E+04  0.37889960090E+04 0.  0.
        2    1    3    3  502    0 -0.44926928436E+03 -0.17967765426E+04  0.82307483275E+03  0.20267464109E+04  0.25500000920E-02 0. -1.
       -2    1    3    3    0  502  0.44926928436E+03  0.17967765426E+04  0.69899141569E+01  0.18521062855E+04  0.25500000920E-02 0.  1.
</event>
<event>
 5   0  0.3701250E-08  0.3804969E+04  0.7818609E-02  0.8045089E-01
        1   -1    0    0  501    0  0.00000000000E+00  0.00000000000E+00  0.33865286434E+04  0.33865286434E+04  0.50400001928E-02 0. -1.
       -1   -1    0    0    0  501  0.00000000000E+00  0.00000000000E+00 -0.10687777522E+04  0.10687777522E+04  0.50400001928E-02 0.  1.
    10030    2    1    2    0    0  0.00000000000E+00  0.00000000000E+00  0.23177508912E+04  0.44553063956E+04  0.38049685787E+04 0.  0.
        1    1    3    3  502    0  0.10981686253E+04  0.11370187048E+04 -0.80673140960E+02  0.15828120610E+04  0.50400001928E-02 0.  1.
       -1    1    3    3    0  502 -0.10981686253E+04 -0.11370187048E+04  0.23984240321E+04  0.28724943346E+04  0.50400001928E-02 0. -1.
</event>
<event>
 5   0  0.3701250E-08  0.3799634E+04  0.7818609E-02  0.8046233E-01
        1   -1    0    0  501    0  0.00000000000E+00  0.00000000000E+00  0.22983607140E+04  0.22983607140E+04  0.50400001928E-02 0.  1.
       -1   -1    0    0    0  501  0.00000000000E+00  0.00000000000E+00 -0.15703820382E+04  0.15703820382E+04  0.50400001928E-02 0. -1.
    10030    2    1    2    0    0  0.00000000000E+00  0.00000000000E+00  0.72797867584E+03  0.38687427522E+04  0.37996338679E+04 0.  0.
        3    1    3    3  502    0 -0.16382664711E+04  0.87139683053E+03 -0.50920715490E+02  0.18562980353E+04  0.10100000352E+00 0.  1.
       -3    1    3    3    0  502  0.16382664711E+04 -0.87139683053E+03  0.77889939133E+03  0.20124447169E+04  0.10100000352E+00 0. -1.
</event>
<event>
 5   0  0.7858367E-08  0.3797432E+04  0.7818609E-02  0.8046706E-01
        2   -1    0    0  501    0  0.00000000000E+00  0.00000000000E+00  0.25708051698E+04  0.25708051698E+04  0.25500000920E-02 0. -1.
       -2   -1    0    0    0  501  0.00000000000E+00  0.00000000000E+00 -0.14023316774E+04  0.14023316774E+04  0.25500000920E-02 0.  1.
    10030    2    1    2    0    0  0.00000000000E+00  0.00000000000E+00  0.11684734924E+04  0.39731368472E+04  0.37974315141E+04 0.  0.
        2    1    3    3  502    0  0.11036369008E+04  0.65004268809E+03 -0.88224038911E+03  0.15552871148E+04  0.25500000920E-02 0.  1.
       -2    1    3    3    0  502 -0.11036369008E+04 -0.65004268809E+03  0.20507138815E+04  0.24178497325E+04  0.25500000920E-02 0. -1.
</event>
<event>
 5   0  0.7858367E-08  0.3761516E+04  0.7818609E-02  0.8054464E-01
        2   -1    0    0  501    0  0.00000000000E+00  0.00000000000E+00  0.19704046016E+04  0.19704046016E+04  0.25500000920E-02 0.  1.
       -2   -1    0    0    0  501  0.00000000000E+00  0.00000000000E+00 -0.17951901388E+04  0.17951901388E+04  0.25500000920E-02 0. -1.
    10030    2    1    2    0    0  0.00000000000E+00  0.00000000000E+00  0.17521446283E+03  0.37655947404E+04  0.37615161359E+04 0.  0.
        2    1    3    3  502    0 -0.48584848894E+03 -0.15509249408E+04  0.10351185713E+04  0.19268854099E+04  0.25500000920E-02 0. -1.
       -2    1    3    3    0  502  0.48584848894E+03  0.15509249408E+04 -0.85990410850E+03  0.18387093305E+04  0.25500000920E-02 0.  1.
</event>
<event>
 5   0  0.3889225E-08  0.3780299E+04  0.7818609E-02  0.8050396E-01
       -1   -1    0    0    0  501  0.00000000000E+00  0.00000000000E+00  0.15131005117E+04  0.15131005117E+04  0.50400001928E-02 0.  1.
        1   -1    0    0  501    0  0.00000000000E+00  0.00000000000E+00 -0.23611546281E+04  0.23611546281E+04  0.50400001928E-02 0. -1.
    10030    2    1    2    0    0  0.00000000000E+00  0.00000000000E+00 -0.84805411638E+03  0.38742551398E+04  0.37802985470E+04 0.  0.
        5    1    3    3  502    0  0.13590852344E+04 -0.13132549208E+04 -0.45461899843E+03  0.19438239851E+04  0.46999998093E+01 0.  1.
       -5    1    3    3    0  502 -0.13590852344E+04  0.13132549208E+04 -0.39343511796E+03  0.19304311548E+04  0.46999998093E+01 0. -1.
</event>
<event>
 5   0  0.1150235E-07  0.3799543E+04  0.7818609E-02  0.8046253E-01
       -2   -1    0    0    0  501  0.00000000000E+00  0.00000000000E+00  0.15416392406E+04  0.15416392406E+04  0.25500000920E-02 0.  1.
        2   -1    0    0  501    0  0.00000000000E+00  0.00000000000E+00 -0.23411006055E+04  0.23411006055E+04  0.25500000920E-02 0. -1.
    10030    2    1    2    0    0  0.00000000000E+00  0.00000000000E+00 -0.79946136488E+03  0.38827398461E+04  0.37995434251E+04 0.  0.
        4    1    3    3  502    0  0.97687178833E+03  0.14568258481E+04  0.34598131940E+03  0.17878268173E+04  0.12699999809E+01 0.  1.
       -4    1    3    3    0  502 -0.97687178833E+03 -0.14568258481E+04 -0.11454426843E+04  0.20949130288E+04  0.12699999809E+01 0. -1.
</event>
<event>
 5   0  0.3701250E-08  0.3796705E+04  0.7818609E-02  0.8046862E-01
       -1   -1    0    0    0  501  0.00000000000E+00  0.00000000000E+00  0.16904286545E+04  0.16904286545E+04  0.50400001928E-02 0.  1.
        1   -1    0    0  501    0  0.00000000000E+00  0.00000000000E+00 -0.21318511865E+04  0.21318511865E+04  0.50400001928E-02 0. -1.
    10030    2    1    2    0    0  0.00000000000E+00  0.00000000000E+00 -0.44142253203E+03  0.38222798410E+04  0.37967050625E+04 0.  0.
        2    1    3    3  502    0  0.79649050144E+03  0.62084372443E+03 -0.18389899935E+04  0.20980296102E+04  0.25500000920E-02 0. -1.
       -2    1    3    3    0  502 -0.79649050144E+03 -0.62084372443E+03  0.13975674615E+04  0.17242502308E+04  0.25500000920E-02 0.  1.
</event>
<event>
 5   0  0.1193861E-07  0.3808335E+04  0.7818609E-02  0.8044369E-01
       -2   -1    0    0    0  501  0.00000000000E+00  0.00000000000E+00  0.14988508839E+04  0.14988508839E+04  0.25500000920E-02 0.  1.
        2   -1    0    0  501    0  0.00000000000E+00  0.00000000000E+00 -0.24190886770E+04  0.24190886770E+04  0.25500000920E-02 0. -1.
    10030    2    1    2    0    0  0.00000000000E+00  0.00000000000E+00 -0.92023779309E+03  0.39179395609E+04  0.38083346501E+04 0.  0.
        3    1    3    3  502    0 -0.12227387226E+04 -0.98480946884E+03  0.64834757721E+03  0.16986153963E+04  0.10100000352E+00 0.  1.
       -3    1    3    3    0  502  0.12227387226E+04  0.98480946884E+03 -0.15685853703E+04  0.22193241646E+04  0.10100000352E+00 0. -1.
</event>
<event>
 5   0  0.3701250E-08  0.3799687E+04  0.7818609E-02  0.8046222E-01
        1   -1    0    0  501    0  0.00000000000E+00  0.00000000000E+00  0.19706929894E+04  0.19706929895E+04  0.50400001928E-02 0.  1.
       -1   -1    0    0    0  501  0.00000000000E+00  0.00000000000E+00 -0.18315410168E+04  0.18315410168E+04  0.50400001928E-02 0. -1.
    10030    2    1    2    0    0  0.00000000000E+00  0.00000000000E+00  0.13915197268E+03  0.38022340062E+04  0.37996868511E+04 0.  0.
        2    1    3    3  502    0 -0.62685212564E+03  0.17717991329E+04  0.34759183225E+03  0.19112916671E+04  0.25500000920E-02 0.  1.
       -2    1    3    3    0  502  0.62685212564E+03 -0.17717991329E+04 -0.20843985957E+03  0.18909423391E+04  0.25500000920E-02 0. -1.
</event>
<event>
 5   0  0.1143283E-07  0.3796480E+04  0.7818609E-02  0.8046911E-01
        2   -1    0    0  501    0  0.00000000000E+00  0.00000000000E+00  0.28392463050E+04  0.28392463050E+04  0.25500000920E-02 0. -1.
       -2   -1    0    0    0  501  0.00000000000E+00  0.00000000000E+00 -0.12691097383E+04  0.12691097383E+04  0.25500000920E-02 0.  1.
    10030    2    1    2    0    0  0.00000000000E+00  0.00000000000E+00  0.15701365667E+04  0.41083560432E+04  0.37964800197E+04 0.  0.
        1    1    3    3  502    0  0.57831279419E+03 -0.16174984662E+04  0.16592463283E+04  0.23882724623E+04  0.50400001928E-02 0. -1.
       -1    1    3    3    0  502 -0.57831279419E+03  0.16174984662E+04 -0.89109761596E+02  0.17200835810E+04  0.50400001928E-02 0.  1.
</event>
<event>
 5   0  0.1174870E-07  0.3800401E+04  0.7818609E-02  0.8046069E-01
        2   -1    0    0  501    0  0.00000000000E+00  0.00000000000E+00  0.15309996704E+04  0.15309996704E+04  0.25500000920E-02 0.  1.
       -2   -1    0    0    0  501  0.00000000000E+00  0.00000000000E+00 -0.23584342255E+04  0.23584342255E+04  0.25500000920E-02 0. -1.
    10030    2    1    2    0    0  0.00000000000E+00  0.00000000000E+00 -0.82743455516E+03  0.38894338959E+04  0.38004010430E+04 0.  0.
        5    1    3    3  502    0 -0.78616116959E+03  0.50118534214E+03 -0.21082555892E+04  0.23052114548E+04  0.46999998093E+01 0. -1.
       -5    1    3    3    0  502  0.78616116959E+03 -0.50118534214E+03  0.12808210341E+04  0.15842224412E+04  0.46999998093E+01 0.  1.
</event>
<event>
 5   0  0.7858367E-08  0.3854485E+04  0.7818609E-02  0.8034563E-01
       -2   -1    0    0    0  501  0.00000000000E+00  0.00000000000E+00  0.14249468210E+04  0.14249468210E+04  0.25500000920E-02 0.  1.
        2   -1    0    0  501    0  0.00000000000E+00  0.00000000000E+00 -0.26065975824E+04  0.26065975824E+04  0.25500000920E-02 0. -1.
    10030    2    1    2    0    0  0.00000000000E+00  0.00000000000E+00 -0.11816507614E+04  0.40315444033E+04  0.38544846289E+04 0.  0.
        2    1    3    3  502    0  0.78998976046E+03 -0.83773313507E+03 -0.22072559401E+04  0.24895500422E+04  0.25500000920E-02 0. -1.
       -2    1    3    3    0  502 -0.78998976046E+03  0.83773313507E+03  0.10256051787E+04  0.15419943612E+04  0.25500000920E-02 0.  1.
</event>
<event>
 5   0  0.3889225E-08  0.3793360E+04  0.7818609E-02  0.8047581E-01
        1   -1    0    0  501    0  0.00000000000E+00  0.00000000000E+00  0.10744049671E+04  0.10744049671E+04  0.50400001928E-02 0. -1.
       -1   -1    0    0    0  501  0.00000000000E+00  0.00000000000E+00 -0.33482664302E+04  0.33482664302E+04  0.50400001928E-02 0.  1.
    10030    2    1    2    0    0  0.00000000000E+00  0.00000000000E+00 -0.22738614630E+04  0.44226713973E+04  0.37933595052E+04 0.  0.
        5    1    3    3  502    0  0.14830241330E+04 -0.27072133678E+03  0.20497788177E+03  0.15214100839E+04  0.46999998093E+01 0. -1.
       -5    1    3    3    0  502 -0.14830241330E+04  0.27072133678E+03 -0.24788393448E+04  0.29012613134E+04  0.46999998093E+01 0.  1.
</event>
<event>
 5   0  0.7858367E-08  0.3792202E+04  0.7818609E-02  0.8047830E-01
        2   -1    0    0  501    0  0.00000000000E+00  0.00000000000E+00  0.18884823847E+04  0.18884823847E+04  0.25500000920E-02 0. -1.
       -2   -1    0    0    0  501  0.00000000000E+00  0.00000000000E+00 -0.19037504109E+04  0.19037504109E+04  0.25500000920E-02 0.  1.
    10030    2    1    2    0    0  0.00000000000E+00  0.00000000000E+00 -0.15268026196E+02  0.37922327956E+04  0.37922020599E+04 0.  0.
        2    1    3    3  502    0  0.10232889261E+04 -0.15235754474E+04  0.46860166610E+03  0.18941990105E+04  0.25500000920E-02 0. -1.
       -2    1    3    3    0  502 -0.10232889261E+04  0.15235754474E+04 -0.48386969230E+03  0.18980337850E+04  0.25500000920E-02 0.  1.
</event>
<event>
 5   0  0.1193861E-07  0.3783501E+04  0.7818609E-02  0.8049705E-01
       -2   -1    0    0    0  501  0.00000000000E+00  0.00000000000E+00  0.24535119222E+04  0.24535119222E+04  0.25500000920E-02 0.  1.
        2   -1    0    0  501    0  0.00000000000E+00  0.00000000000E+00 -0.14586109475E+04  0.14586109475E+04  0.25500000920E-02 0. -1.
    10030    2    1    2    0    0  0.00000000000E+00  0.00000000000E+00  0.99490097465E+03  0.39121228697E+04  0.37835006804E+04 0.  0.
        3    1    3    3  502    0 -0.17417450061E+04  0.36921438929E+03 -0.16359897549E+03  0.17879484239E+04  0.10100000352E+00 0. -1.
       -3    1    3    3    0  502  0.17417450061E+04 -0.36921438929E+03  0.11584999501E+04  0.21241744458E+04  0.10100000352E+00 0.  1.
</event>
<event>
 5   0  0.3701250E-08  0.3786683E+04  0.7818609E-02  0.8049019E-01
       -1   -1    0    0    0  501  0.00000000000E+00  0.00000000000E+00  0.20600104875E+04  0.20600104875E+04  0.50400001928E-02 0. -1.
        1   -1    0    0  501    0  0.00000000000E+00  0.00000000000E+00 -0.17401575252E+04  0.17401575253E+04  0.50400001928E-02 0.  1.
    10030    2    1    2    0    0  0.00000000000E+00  0.00000000000E+00  0.31985296225E+03  0.38001680128E+04  0.37866833783E+04 0.  0.
        4    1    3    3  502    0 -0.41306734466E+02 -0.74378632629E+03 -0.15869089371E+04  0.17530561694E+04  0.12699999809E+01 0.  1.
       -4    1    3    3    0  502  0.41306734466E+02  0.74378632629E+03  0.19067618994E+04  0.20471118434E+04  0.12699999809E+01 0. -1.
</event>
<event>
 5   0  0.1174870E-07  0.3802927E+04  0.7818609E-02  0.8045527E-01
       -2   -1    0    0    0  501  0.00000000000E+00  0.00000000000E+00  0.13661345896E+04  0.13661345896E+04  0.25500000920E-02 0. -1.
        2   -1    0    0  501    0  0.00000000000E+00  0.00000000000E+00 -0.26465646556E+04  0.26465646556E+04  0.25500000920E-02 0.  1.
    10030    2    1    2    0    0  0.00000000000E+00  0.00000000000E+00 -0.12804300660E+04  0.40126992452E+04  0.38029270410E+04 0.  0.
        5    1    3    3  502    0 -0.80226414603E+03 -0.16944840027E+04 -0.30548180459E+03  0.18995381066E+04  0.46999998093E+01 0.  1.
       -5    1    3    3    0  502  0.80226414603E+03  0.16944840027E+04 -0.97494826144E+03  0.21131611387E+04  0.46999998093E+01 0. -1.
</event>
<event>
 5   0  0.1193861E-07  0.3789144E+04  0.7818609E-02  0.8048489E-01
       -2   -1    0    0    0  501  0.00000000000E+00  0.00000000000E+00  0.19798576362E+04  0.19798576362E+04  0.25500000920E-02 0.  1.
        2   -1    0    0  501    0  0.00000000000E+00  0.00000000000E+00 -0.18129603913E+04  0.18129603913E+04  0.25500000920E-02 0. -1.
    10030    2    1    2    0    0  0.00000000000E+00  0.00000000000E+00  0.16689724487E+03  0.37928180275E+04  0.37891442173E+04 0.  0.
        3    1    3    3  502    0 -0.17964697121E+02 -0.13334921019E+04 -0.12635453533E+04  0.18371365726E+04  0.10100000352E+00 0. -1.
       -3    1    3    3    0  502  0.17964697121E+02  0.13334921019E+04  0.14304425982E+04  0.19556814549E+04  0.10100000352E+00 0.  1.
</event>
<event>
 5   0  0.3701250E-08  0.3802590E+04  0.7818609E-02  0.8045599E-01
        1   -1    0    0  501    0  0.00000000000E+00  0.00000000000E+00  0.14364142322E+04  0.14364142322E+04  0.50400001928E-02 0.  1.
       -1   -1    0    0    0  501  0.00000000000E+00  0.00000000000E+00 -0.25166295188E+04  0.25166295188E+04  0.50400001928E-02 0. -1.
    10030    2    1    2    0    0  0.00000000000E+00  0.00000000000E+00 -0.10802152867E+04  0.39530437510E+04  0.38025898848E+04 0.  0.
        1    1    3    3  502    0  0.13665802987E+04 -0.12734412202E+04 -0.90871881048E+03  0.20772491739E+04  0.50400001928E-02 0.  1.
       -1    1    3    3    0  502 -0.13665802987E+04  0.12734412202E+04 -0.17149647620E+03  0.18757945771E+04  0.50400001928E-02 0. -1.
</event>
<event>
 5   0  0.1150235E-07  0.3800786E+04  0.7818609E-02  0.8045986E-01
       -2   -1    0    0    0  501  0.00000000000E+00  0.00000000000E+00  0.22429322894E+04  0.22429322894E+04  0.25500000920E-02 0.  1.
        2   -1    0    0  501    0  0.00000000000E+00  0.00000000000E+00 -0.16101658708E+04  0.16101658708E+04  0.25500000920E-02 0. -1.
    10030    2    1    2    0    0  0.00000000000E+00  0.00000000000E+00  0.63276641858E+03  0.38530981601E+04  0.38007857202E+04 0.  0.
        4    1    3    3  502    0  0.14244133076E+04  0.72464203067E+03  0.13588516722E+04  0.20977461294E+04  0.12699999809E+01 0.  1.
       -4    1    3    3    0  502 -0.14244133076E+04 -0.72464203067E+03 -0.72608525365E+03  0.17553520307E+04  0.12699999809E+01 0. -1.
</event>
<event>
 5   0  0.3701250E-08  0.3808458E+04  0.7818609E-02  0.8044342E-01
       -1   -1    0    0    0  501  0.00000000000E+00  0.00000000000E+00  0.13524358911E+04  0.13524358911E+04  0.50400001928E-02 0. -1.
        1   -1    0    0  501    0  0.00000000000E+00  0.00000000000E+00 -0.26811535755E+04  0.26811535755E+04  0.50400001928E-02 0.  1.
    10030    2    1    2    0    0  0.00000000000E+00  0.00000000000E+00 -0.13287176843E+04  0.40335894666E+04  0.38084581264E+04 0.  0.
        4    1    3    3  502    0  0.15740846772E+04 -0.92107731383E+03 -0.12444212291E+04  0.22078749505E+04  0.12699999809E+01 0.  1.
       -4    1    3    3    0  502 -0.15740846772E+04  0.92107731383E+03 -0.84296455264E+02  0.18257145161E+04  0.12699999809E+01 0. -1.
</event>
<event>
 5   0  0.1150235E-07  0.3689970E+04  0.7818609E-02  0.8070188E-01
       -2   -1    0    0    0  501  0.00000000000E+00  0.00000000000E+00  0.20629717485E+04  0.20629717485E+04  0.25500000920E-02 0. -1.
        2   -1    0    0  501    0  0.00000000000E+00  0.00000000000E+00 -0.16500317881E+04  0.16500317881E+04  0.25500000920E-02 0.  1.
    10030    2    1    2    0    0  0.00000000000E+00  0.00000000000E+00  0.41293996036E+03  0.37130035366E+04  0.36899696275E+04 0.  0.
        4    1    3    3  502    0 -0.82760559079E+03 -0.97462103324E+03  0.15448668789E+04  0.20053509565E+04  0.12699999809E+01 0. -1.
       -4    1    3    3    0  502  0.82760559079E+03  0.97462103324E+03 -0.11319269185E+04  0.17076525801E+04  0.12699999809E+01 0.  1.
</event>
<event>
 5   0  0.1143283E-07  0.3679131E+04  0.7818609E-02  0.8072602E-01
       -2   -1    0    0    0  501  0.00000000000E+00  0.00000000000E+00  0.11586986805E+04  0.11586986805E+04  0.25500000920E-02 0. -1.
        2   -1    0    0  501    0  0.00000000000E+00  0.00000000000E+00 -0.29205191346E+04  0.29205191346E+04  0.25500000920E-02 0.  1.
    10030    2    1    2    0    0  0.00000000000E+00  0.00000000000E+00 -0.17618204541E+04  0.40792178152E+04  0.36791312386E+04 0.  0.
        1    1    3    3  502    0  0.10758963630E+04  0.10253024996E+04  0.32104460576E+03  0.15204827649E+04  0.50400001928E-02 0. -1.
       -1    1    3    3    0  502 -0.10758963630E+04 -0.10253024996E+04 -0.20828650599E+04  0.25587350502E+04  0.50400001928E-02 0.  1.
</event>
<event>
 5   0  0.1193861E-07  0.3793087E+04  0.7818609E-02  0.8047640E-01
        2   -1    0    0  501    0  0.00000000000E+00  0.00000000000E+00  0.22340282169E+04  0.22340282169E+04  0.25500000920E-02 0. -1.
       -2   -1    0    0    0  501  0.00000000000E+00  0.00000000000E+00 -0.16100407846E+04  0.16100407846E+04  0.25500000920E-02 0.  1.
    10030    2    1    2    0    0  0.00000000000E+00  0.00000000000E+00  0.62398743226E+03  0.38440690015E+04  0.37930866287E+04 0.  0.
        3    1    3    3  502    0  0.13437891911E+04  0.86764754285E+03 -0.72066964924E+03  0.17544077070E+04  0.10100000352E+00 0. -1.
       -3    1    3    3    0  502 -0.13437891911E+04 -0.86764754285E+03  0.13446570815E+04  0.20896612945E+04  0.10100000352E+00 0.  1.
</event>
<event>
 5   0  0.1193861E-07  0.3784685E+04  0.7818609E-02  0.8049449E-01
        2   -1    0    0  501    0  0.00000000000E+00  0.00000000000E+00  0.16665140642E+04  0.16665140642E+04  0.25500000920E-02 0.  1.
       -2   -1    0    0    0  501  0.00000000000E+00  0.00000000000E+00 -0.21487732360E+04  0.21487732360E+04  0.25500000920E-02 0. -1.
    10030    2    1    2    0    0  0.00000000000E+00  0.00000000000E+00 -0.48225917186E+03  0.38152873002E+04  0.37846853600E+04 0.  0.
        3    1    3    3  502    0  0.37385755795E+03  0.12109113916E+04  0.11755393314E+04  0.17285741528E+04  0.10100000352E+00 0.  1.
       -3    1    3    3    0  502 -0.37385755795E+03 -0.12109113916E+04 -0.16577985033E+04  0.20867131474E+04  0.10100000352E+00 0. -1.
</event>
<event>
 5   0  0.3701250E-08  0.3804101E+04  0.7818609E-02  0.8045275E-01
        1   -1    0    0  501    0  0.00000000000E+00  0.00000000000E+00  0.23273123656E+04  0.23273123656E+04  0.50400001928E-02 0.  1.
       -1   -1    0    0    0  501  0.00000000000E+00  0.00000000000E+00 -0.15544952586E+04  0.15544952586E+04  0.50400001928E-02 0. -1.
    10030    2    1    2    0    0  0.00000000000E+00  0.00000000000E+00  0.77281710695E+03  0.38818076242E+04  0.38041009648E+04 0.  0.
        2    1    3    3  502    0 -0.15947102927E+04  0.66840397402E+03  0.11950165303E+04  0.21018870801E+04  0.25500000920E-02 0.  1.
       -2    1    3    3    0  502  0.15947102927E+04 -0.66840397402E+03 -0.42219942332E+03  0.17799205440E+04  0.25500000920E-02 0. -1.
</event>
<event>
 5   0  0.3701250E-08  0.3787670E+04  0.7818609E-02  0.8048806E-01
       -1   -1    0    0    0  501  0.00000000000E+00  0.00000000000E+00  0.20717762490E+04  0.20717762490E+04  0.50400001928E-02 0.  1.
        1   -1    0    0  501    0  0.00000000000E+00  0.00000000000E+00 -0.17311766654E+04  0.17311766654E+04  0.50400001928E-02 0. -1.
    10030    2    1    2    0    0  0.00000000000E+00  0.00000000000E+00  0.34059958365E+03  0.38029529144E+04  0.37876698368E+04 0.  0.
        3    1    3    3  502    0 -0.11045641380E+04 -0.98094724336E+03 -0.10195096997E+04  0.17949148913E+04  0.10100000352E+00 0. -1.
       -3    1    3    3    0  502  0.11045641380E+04  0.98094724336E+03  0.13601092833E+04  0.20080380231E+04  0.10100000352E+00 0.  1.
</event>
<event>
 5   0  0.3889225E-08  0.3803600E+04  0.7818609E-02  0.8045383E-01
        1   -1    0    0  501    0  0.00000000000E+00  0.00000000000E+00  0.14917198015E+04  0.14917198015E+04  0.50400001928E-02 0.  1.
       -1   -1    0    0    0  501  0.00000000000E+00  0.00000000000E+00 -0.24246128910E+04  0.24246128910E+04  0.50400001928E-02 0. -1.
    10030    2    1    2    0    0  0.00000000000E+00  0.00000000000E+00 -0.93289308947E+03  0.39163326925E+04  0.38035999056E+04 0.  0.
        5    1    3    3  502    0 -0.13968822856E+04 -0.12432326958E+04 -0.10989817543E+03  0.18732344633E+04  0.46999998093E+01 0.  1.
       -5    1    3    3    0  502  0.13968822856E+04  0.12432326958E+04 -0.82299491404E+03  0.20430982292E+04  0.46999998093E+01 0. -1.
</event>
<event>
 5   0  0.3701250E-08  0.3794853E+04  0.7818609E-02  0.8047260E-01
        1   -1    0    0  501    0  0.00000000000E+00  0.00000000000E+00  0.11977938088E+04  0.11977938088E+04  0.50400001928E-02 0. -1.
       -1   -1    0    0    0  501  0.00000000000E+00  0.00000000000E+00 -0.30057152968E+04  0.30057152968E+04  0.50400001928E-02 0.  1.
    10030    2    1    2    0    0  0.00000000000E+00  0.00000000000E+00 -0.18079214880E+04  0.42035091056E+04  0.37948529213E+04 0.  0.
        2    1    3    3  502    0  0.15964442648E+04 -0.95124288352E+02 -0.20349651409E+04  0.25881974510E+04  0.25500000920E-02 0.  1.
       -2    1    3    3    0  502 -0.15964442648E+04  0.95124288352E+02  0.22704365289E+03  0.16153116545E+04  0.25500000920E-02 0. -1.
</event>
<event>
 5   0  0.3701250E-08  0.3748421E+04  0.7818609E-02  0.8057315E-01
       -1   -1    0    0    0  501  0.00000000000E+00  0.00000000000E+00  0.14859359051E+04  0.14859359051E+04  0.50400001928E-02 0.  1.
        1   -1    0    0  501    0  0.00000000000E+00  0.00000000000E+00 -0.23639409182E+04  0.23639409182E+04  0.50400001928E-02 0. -1.
    10030    2    1    2    0    0  0.00000000000E+00  0.00000000000E+00 -0.87800501315E+03  0.38498768233E+04  0.37484208343E+04 0.  0.
        1    1    3    3  502    0  0.15519777808E+04 -0.10500401815E+04 -0.47804822565E+03  0.19338431997E+04  0.50400001928E-02 0.  1.
       -1    1    3    3    0  502 -0.15519777808E+04  0.10500401815E+04 -0.39995678750E+03  0.19160336236E+04  0.50400001928E-02 0. -1.
</event>
<event>
 5   0  0.1150235E-07  0.3811688E+04  0.7818609E-02  0.8043651E-01
       -2   -1    0    0    0  501  0.00000000000E+00  0.00000000000E+00  0.18869255562E+04  0.18869255562E+04  0.25500000920E-02 0.  1.
        2   -1    0    0  501    0  0.00000000000E+00  0.00000000000E+00 -0.19249518927E+04  0.19249518927E+04  0.25500000920E-02 0. -1.
    10030    2    1    2    0    0  0.00000000000E+00  0.00000000000E+00 -0.38026336429E+02  0.38118774489E+04  0.38116877736E+04 0.  0.
        4    1    3    3  502    0 -0.11103999211E+04  0.12401006129E+04  0.90915035432E+03  0.18966795972E+04  0.12699999809E+01 0.  1.
       -4    1    3    3    0  502  0.11103999211E+04 -0.12401006129E+04 -0.94717669075E+03  0.19151978517E+04  0.12699999809E+01 0. -1.
</event>
<event>
 5   0  0.3701250E-08  0.3852291E+04  0.7818609E-02  0.8035026E-01
       -1   -1    0    0    0  501  0.00000000000E+00  0.00000000000E+00  0.18012349423E+04  0.18012349423E+04  0.50400001928E-02 0.  1.
        1   -1    0    0  501    0  0.00000000000E+00  0.00000000000E+00 -0.20597179527E+04  0.20597179527E+04  0.50400001928E-02 0. -1.
    10030    2    1    2    0    0  0.00000000000E+00  0.00000000000E+00 -0.25848301041E+03  0.38609528950E+04  0.38522907199E+04 0.  0.
        3    1    3    3  502    0 -0.38870417689E+03  0.11877238314E+04 -0.15982306163E+04  0.20288223062E+04  0.10100000352E+00 0. -1.
       -3    1    3    3    0  502  0.38870417689E+03 -0.11877238314E+04  0.13397476059E+04  0.18321305888E+04  0.10100000352E+00 0.  1.
</event>
<event>
 5   0  0.7858367E-08  0.3795252E+04  0.7818609E-02  0.8047175E-01
        2   -1    0    0  501    0  0.00000000000E+00  0.00000000000E+00  0.24020129162E+04  0.24020129162E+04  0.25500000920E-02 0.  1.
       -2   -1    0    0    0  501  0.00000000000E+00  0.00000000000E+00 -0.14991529102E+04  0.14991529102E+04  0.25500000920E-02 0. -1.
    10030    2    1    2    0    0  0.00000000000E+00  0.00000000000E+00  0.90286000599E+03  0.39011658264E+04  0.37952521148E+04 0.  0.
        2    1    3    3  502    0  0.87986209363E+03 -0.11049961508E+04  0.17539997139E+04  0.22520410284E+04  0.25500000920E-02 0.  1.
       -2    1    3    3    0  502 -0.87986209363E+03  0.11049961508E+04 -0.85113970790E+03  0.16491247980E+04  0.25500000920E-02 0. -1.
</event>
<event>
 5   0  0.3889225E-08  0.3795939E+04  0.7818609E-02  0.8047027E-01
       -1   -1    0    0    0  501  0.00000000000E+00  0.00000000000E+00  0.18718841532E+04  0.18718841532E+04  0.50400001928E-02 0.  1.
        1   -1    0    0  501    0  0.00000000000E+00  0.00000000000E+00 -0.19244187534E+04  0.19244187534E+04  0.50400001928E-02 0. -1.
    10030    2    1    2    0    0  0.00000000000E+00  0.00000000000E+00 -0.52534600233E+02  0.37963029066E+04  0.37959393928E+04 0.  0.
        5    1    3    3  502    0  0.12413533651E+04 -0.28739674792E+03  0.13805343231E+04  0.18786836282E+04  0.46999998093E+01 0.  1.
       -5    1    3    3    0  502 -0.12413533651E+04  0.28739674792E+03 -0.14330689233E+04  0.19176192783E+04  0.46999998093E+01 0. -1.
</event>
<event>
 5   0  0.7858367E-08  0.3796473E+04  0.7818609E-02  0.8046912E-01
        2   -1    0    0  501    0  0.00000000000E+00  0.00000000000E+00  0.31355181654E+04  0.31355181654E+04  0.25500000920E-02 0.  1.
       -2   -1    0    0    0  501  0.00000000000E+00  0.00000000000E+00 -0.11491889206E+04  0.11491889206E+04  0.25500000920E-02 0. -1.
    10030    2    1    2    0    0  0.00000000000E+00  0.00000000000E+00  0.19863292448E+04  0.42847070860E+04  0.37964734878E+04 0.  0.
        2    1    3    3  502    0 -0.61644981285E+03 -0.12760586328E+04  0.24184984110E+04  0.28031180086E+04  0.25500000920E-02 0.  1.
       -2    1    3    3    0  502  0.61644981285E+03  0.12760586328E+04 -0.43216916614E+03  0.14815890774E+04  0.25500000920E-02 0. -1.
</event>
<event>
 5   0  0.1150235E-07  0.3777667E+04  0.7818609E-02  0.8050965E-01
       -2   -1    0    0    0  501  0.00000000000E+00  0.00000000000E+00  0.18196736450E+04  0.18196736450E+04  0.25500000920E-02 0. -1.
        2   -1    0    0  501    0  0.00000000000E+00  0.00000000000E+00 -0.19606217946E+04  0.19606217946E+04  0.25500000920E-02 0.  1.
    10030    2    1    2    0    0  0.00000000000E+00  0.00000000000E+00 -0.14094814961E+03  0.37802954396E+04  0.37776669030E+04 0.  0.
        4    1    3    3  502    0  0.50038876154E+03 -0.14598877008E+04 -0.11602815156E+04  0.19307811424E+04  0.12699999809E+01 0. -1.
       -4    1    3    3    0  502 -0.50038876154E+03  0.14598877008E+04  0.10193333660E+04  0.18495142972E+04  0.12699999809E+01 0.  1.
</event>
<event>
 5   0  0.1143283E-07  0.3807277E+04  0.7818609E-02  0.8044595E-01
       -2   -1    0    0    0  501  0.00000000000E+00  0.00000000000E+00  0.19861772117E+04  0.19861772117E+04  0.25500000920E-02 0. -1.
        2   -1    0    0  501    0  0.00000000000E+00  0.00000000000E+00 -0.18245296236E+04  0.18245296236E+04  0.25500000920E-02 0.  1.
    10030    2    1    2    0    0  0.00000000000E+00  0.00000000000E+00  0.16164758804E+03  0.38107068353E+04  0.38072768013E+04 0.  0.
        1    1    3    3  502    0 -0.89696669417E+03 -0.18086889919E+03 -0.15899842595E+04  0.18344788782E+04  0.50400001928E-02 0.  1.
       -1    1    3    3    0  502  0.89696669417E+03  0.18086889919E+03  0.17516318475E+04  0.19762279571E+04  0.50400001928E-02 0. -1.
</event>
<event>
 5   0  0.3701250E-08  0.3793667E+04  0.7818609E-02  0.8047515E-01
        1   -1    0    0  501    0  0.00000000000E+00  0.00000000000E+00  0.23003411731E+04  0.23003411731E+04  0.50400001928E-02 0. -1.
       -1   -1    0    0    0  501  0.00000000000E+00  0.00000000000E+00 -0.15641060553E+04  0.15641060553E+04  0.50400001928E-02 0.  1.
    10030    2    1    2    0    0  0.00000000000E+00  0.00000000000E+00  0.73623511772E+03  0.38644472284E+04  0.37936671220E+04 0.  0.
        2    1    3    3  502    0  0.16414648135E+03 -0.10165907770E+04  0.19908157344E+04  0.22413719378E+04  0.25500000920E-02 0. -1.
       -2    1    3    3    0  502 -0.16414648135E+03  0.10165907770E+04 -0.12545806167E+04  0.16230752906E+04  0.25500000920E-02 0.  1.
</event>
<event>
 5   0  0.1150235E-07  0.3819100E+04  0.7818609E-02  0.8042068E-01
       -2   -1    0    0    0  501  0.00000000000E+00  0.00000000000E+00  0.14961099446E+04  0.14961099446E+04  0.25500000920E-02 0.  1.
        2   -1    0    0  501    0  0.00000000000E+00  0.00000000000E+00 -0.24372420693E+04  0.24372420693E+04  0.25500000920E-02 0. -1.
    10030    2    1    2    0    0  0.00000000000E+00  0.00000000000E+00 -0.94113212472E+03  0.39333520139E+04  0.38191004685E+04 0.  0.
        4    1    3    3  502    0  0.16071594541E+04 -0.10299475438E+04 -0.52335394777E+03  0.19793065507E+04  0.12699999809E+01 0.  1.
       -4    1    3    3    0  502 -0.16071594541E+04  0.10299475438E+04 -0.41777817695E+03  0.19540454632E+04  0.12699999809E+01 0. -1.
</event>
<event>
 5   0  0.7858367E-08  0.3746503E+04  0.7818609E-02  0.8057734E-01
       -2   -1    0    0    0  501  0.00000000000E+00  0.00000000000E+00  0.22646251347E+04  0.22646251347E+04  0.25500000920E-02 0.  1.
        2   -1    0    0  501    0  0.00000000000E+00  0.00000000000E+00 -0.15495154578E+04  0.15495154578E+04  0.25500000920E-02 0. -1.
    10030    2    1    2    0    0  0.00000000000E+00  0.00000000000E+00  0.71510967691E+03  0.38141405925E+04  0.37465032509E+04 0.  0.
        2    1    3    3  502    0  0.34440086620E+03 -0.24606382639E+03 -0.15001939245E+04  0.15587627063E+04  0.25500000920E-02 0. -1.
       -2    1    3    3    0  502 -0.34440086620E+03  0.24606382639E+03  0.22153036014E+04  0.22553778862E+04  0.25500000920E-02 0.  1.
</event>
<event>
 5   0  0.1174870E-07  0.3876770E+04  0.7818609E-02  0.8029878E-01
       -2   -1    0    0    0  501  0.00000000000E+00  0.00000000000E+00  0.22978432566E+04  0.22978432566E+04  0.25500000920E-02 0.  1.
        2   -1    0    0  501    0  0.00000000000E+00  0.00000000000E+00 -0.16351575758E+04  0.16351575758E+04  0.25500000920E-02 0. -1.
    10030    2    1    2    0    0  0.00000000000E+00  0.00000000000E+00  0.66268568075E+03  0.39330008324E+04  0.38767696909E+04 0.  0.
        5    1    3    3  502    0 -0.22575642015E+03 -0.11219544630E+04  0.19185047689E+04  0.22339271287E+04  0.46999998093E+01 0.  1.
       -5    1    3    3    0  502  0.22575642015E+03  0.11219544630E+04 -0.12558190882E+04  0.16990737036E+04  0.46999998093E+01 0. -1.
</event>
<event>
 5   0  0.1150235E-07  0.3793943E+04  0.7818609E-02  0.8047456E-01
       -2   -1    0    0    0  501  0.00000000000E+00  0.00000000000E+00  0.31182986625E+04  0.31182986625E+04  0.25500000920E-02 0. -1.
        2   -1    0    0  501    0  0.00000000000E+00  0.00000000000E+00 -0.11539947962E+04  0.11539947962E+04  0.25500000920E-02 0.  1.
    10030    2    1    2    0    0  0.00000000000E+00  0.00000000000E+00  0.19643038663E+04  0.42722934587E+04  0.37939427669E+04 0.  0.
        4    1    3    3  502    0  0.15854813514E+04  0.93929900320E+03  0.14888454759E+04  0.23691129558E+04  0.12699999809E+01 0.  1.
       -4    1    3    3    0  502 -0.15854813514E+04 -0.93929900320E+03  0.47545839032E+03  0.19031805030E+04  0.12699999809E+01 0. -1.
</event>
<event>
 5   0  0.3701250E-08  0.3835269E+04  0.7818609E-02  0.8038628E-01
       -1   -1    0    0    0  501  0.00000000000E+00  0.00000000000E+00  0.17825823406E+04  0.17825823406E+04  0.50400001928E-02 0. -1.
        1   -1    0    0  501    0  0.00000000000E+00  0.00000000000E+00 -0.20629179894E+04  0.20629179894E+04  0.50400001928E-02 0.  1.
    10030    2    1    2    0    0  0.00000000000E+00  0.00000000000E+00 -0.28033564879E+03  0.38455003300E+04  0.38352685320E+04 0.  0.
        3    1    3    3  502    0 -0.12445914180E+04 -0.53749789597E+03  0.12196986735E+04  0.18236163660E+04  0.10100000352E+00 0. -1.
       -3    1    3    3    0  502  0.12445914180E+04  0.53749789597E+03 -0.15000343223E+04  0.20218839641E+04  0.10100000352E+00 0.  1.
</event>
<event>
 5   0  0.3701250E-08  0.3798062E+04  0.7818609E-02  0.8046571E-01
       -1   -1    0    0    0  501  0.00000000000E+00  0.00000000000E+00  0.17737753143E+04  0.17737753143E+04  0.50400001928E-02 0. -1.
        1   -1    0    0  501    0  0.00000000000E+00  0.00000000000E+00 -0.20331312868E+04  0.20331312868E+04  0.50400001928E-02 0.  1.
    10030    2    1    2    0    0  0.00000000000E+00  0.00000000000E+00 -0.25935597250E+03  0.38069066010E+04  0.37980616568E+04 0.  0.
        3    1    3    3  502    0 -0.50808886446E+03 -0.69738859575E+03 -0.18253069720E+04  0.20189726843E+04  0.10100000352E+00 0.  1.
       -3    1    3    3    0  502  0.50808886446E+03  0.69738859575E+03  0.15659509995E+04  0.17879339168E+04  0.10100000352E+00 0. -1.
</event>
<event>
 5   0  0.3701250E-08  0.3758422E+04  0.7818609E-02  0.8055137E-01
        1   -1    0    0  501    0  0.00000000000E+00  0.00000000000E+00  0.24007325605E+04  0.24007325605E+04  0.50400001928E-02 0. -1.
       -1   -1    0    0    0  501  0.00000000000E+00  0.00000000000E+00 -0.14709815371E+04  0.14709815371E+04  0.50400001928E-02 0.  1.
    10030    2    1    2    0    0  0.00000000000E+00  0.00000000000E+00  0.92975102340E+03  0.38717140976E+04  0.37584216219E+04 0.  0.
        3    1    3    3  502    0  0.81307528858E+03  0.81945704524E+03 -0.10626687570E+04  0.15690335150E+04  0.10100000352E+00 0.  1.
       -3    1    3    3    0  502 -0.81307528858E+03 -0.81945704524E+03  0.19924197804E+04  0.23026805826E+04  0.10100000352E+00 0. -1.
</event>
<event>
 5   0  0.1174870E-07  0.3798406E+04  0.7818609E-02  0.8046497E-01
       -2   -1    0    0    0  501  0.00000000000E+00  0.00000000000E+00  0.21831232669E+04  0.21831232669E+04  0.25500000920E-02 0.  1.
        2   -1    0    0  501    0  0.00000000000E+00  0.00000000000E+00 -0.16522068846E+04  0.16522068846E+04  0.25500000920E-02 0. -1.
    10030    2    1    2    0    0  0.00000000000E+00  0.00000000000E+00  0.53091638230E+03  0.38353301515E+04  0.37984056084E+04 0.  0.
        5    1    3    3  502    0 -0.13814471256E+03  0.67803371750E+03  0.20513049744E+04  0.21648759484E+04  0.46999998093E+01 0.  1.
       -5    1    3    3    0  502  0.13814471256E+03 -0.67803371750E+03 -0.15203885921E+04  0.16704542031E+04  0.46999998093E+01 0. -1.
</event>
<event>
 5   0  0.1143283E-07  0.3782897E+04  0.7818609E-02  0.8049835E-01
       -2   -1    0    0    0  501  0.00000000000E+00  0.00000000000E+00  0.18664065042E+04  0.18664065042E+04  0.25500000920E-02 0.  1.
        2   -1    0    0  501    0  0.00000000000E+00  0.00000000000E+00 -0.19168268891E+04  0.19168268891E+04  0.25500000920E-02 0. -1.
    10030    2    1    2    0    0  0.00000000000E+00  0.00000000000E+00 -0.50420384899E+02  0.37832333932E+04  0.37828973939E+04 0.  0.
        1    1    3    3  502    0 -0.17504984761E+04  0.58042007687E+03  0.39488162841E+03  0.18860179960E+04  0.50400001928E-02 0.  1.
       -1    1    3    3    0  502  0.17504984761E+04 -0.58042007687E+03 -0.44530201331E+03  0.18972153973E+04  0.50400001928E-02 0. -1.
</event>
<event>
 5   0  0.1193861E-07  0.3815683E+04  0.7818609E-02  0.8042798E-01
        2   -1    0    0  501    0  0.00000000000E+00  0.00000000000E+00  0.16518029404E+04  0.16518029404E+04  0.25500000920E-02 0.  1.
       -2   -1    0    0    0  501  0.00000000000E+00  0.00000000000E+00 -0.22035670748E+04  0.22035670748E+04  0.25500000920E-02 0. -1.
    10030    2    1    2    0    0  0.00000000000E+00  0.00000000000E+00 -0.55176413440E+03  0.38553700153E+04  0.38156826774E+04 0.  0.
        3    1    3    3  502    0 -0.15378705845E+04  0.98528675409E+03  0.28123540456E+03  0.18479527281E+04  0.10100000352E+00 0. -1.
       -3    1    3    3    0  502  0.15378705845E+04 -0.98528675409E+03 -0.83299953896E+03  0.20074172871E+04  0.10100000352E+00 0.  1.
</event>
<event>
 5   0  0.7858367E-08  0.3786183E+04  0.7818609E-02  0.8049126E-01
       -2   -1    0    0    0  501  0.00000000000E+00  0.00000000000E+00  0.14680489772E+04  0.14680489773E+04  0.25500000920E-02 0. -1.
        2   -1    0    0  501    0  0.00000000000E+00  0.00000000000E+00 -0.24411962241E+04  0.24411962241E+04  0.25500000920E-02 0.  1.
    10030    2    1    2    0    0  0.00000000000E+00  0.00000000000E+00 -0.97314724685E+03  0.39092452014E+04  0.37861831018E+04 0.  0.
        2    1    3    3  502    0 -0.18670233162E+04 -0.22008005768E+03 -0.25666063757E+03  0.18973892531E+04  0.25500000920E-02 0.  1.
       -2    1    3    3    0  502  0.18670233162E+04  0.22008005768E+03 -0.71648660928E+03  0.20118559482E+04  0.25500000920E-02 0. -1.
</event>
<event>
 5   0  0.3701250E-08  0.3767922E+04  0.7818609E-02  0.8053074E-01
        1   -1    0    0  501    0  0.00000000000E+00  0.00000000000E+00  0.21652295526E+04  0.21652295526E+04  0.50400001928E-02 0. -1.
       -1   -1    0    0    0  501  0.00000000000E+00  0.00000000000E+00 -0.16392299961E+04  0.16392299961E+04  0.50400001928E-02 0.  1.
    10030    2    1    2    0    0  0.00000000000E+00  0.00000000000E+00  0.52599955646E+03  0.38044595487E+04  0.37679220963E+04 0.  0.
        2    1    3    3  502    0 -0.13011049758E+04 -0.88644945578E+03 -0.78175239265E+03  0.17577837179E+04  0.25500000920E-02 0.  1.
       -2    1    3    3    0  502  0.13011049758E+04  0.88644945578E+03  0.13077519491E+04  0.20466758307E+04  0.25500000920E-02 0. -1.
</event>
<event>
 5   0  0.1150235E-07  0.3791515E+04  0.7818609E-02  0.8047978E-01
        2   -1    0    0  501    0  0.00000000000E+00  0.00000000000E+00  0.25992303392E+04  0.25992303392E+04  0.25500000920E-02 0. -1.
       -2   -1    0    0    0  501  0.00000000000E+00  0.00000000000E+00 -0.13826771970E+04  0.13826771970E+04  0.25500000920E-02 0.  1.
    10030    2    1    2    0    0  0.00000000000E+00  0.00000000000E+00  0.12165531422E+04  0.39819075362E+04  0.37915150111E+04 0.  0.
        4    1    3    3  502    0 -0.70493613350E+02 -0.32291154288E+03  0.25687375539E+04  0.25899141777E+04  0.12699999809E+01 0. -1.
       -4    1    3    3    0  502  0.70493613350E+02  0.32291154288E+03 -0.13521844117E+04  0.13919933585E+04  0.12699999809E+01 0.  1.
</event>
<event>
 5   0  0.3889225E-08  0.3802542E+04  0.7818609E-02  0.8045610E-01
       -1   -1    0    0    0  501  0.00000000000E+00  0.00000000000E+00  0.22493656095E+04  0.22493656095E+04  0.50400001928E-02 0.  1.
        1   -1    0    0  501    0  0.00000000000E+00  0.00000000000E+00 -0.16070451933E+04  0.16070451933E+04  0.50400001928E-02 0. -1.
    10030    2    1    2    0    0  0.00000000000E+00  0.00000000000E+00  0.64232041622E+03  0.38564108028E+04  0.38025424078E+04 0.  0.
        5    1    3    3  502    0 -0.91814669656E+03 -0.13575623059E+04  0.12985774377E+04  0.20910031618E+04  0.46999998093E+01 0.  1.
       -5    1    3    3    0  502  0.91814669656E+03  0.13575623059E+04 -0.65625702148E+03  0.17654076411E+04  0.46999998093E+01 0. -1.
</event>
<event>
 5   0  0.1174870E-07  0.3762162E+04  0.7818609E-02  0.8054324E-01
       -2   -1    0    0    0  501  0.00000000000E+00  0.00000000000E+00  0.16426644689E+04  0.16426644689E+04  0.25500000920E-02 0. -1.
        2   -1    0    0  501    0  0.00000000000E+00  0.00000000000E+00 -0.21541012007E+04  0.21541012007E+04  0.25500000920E-02 0.  1.
    10030    2    1    2    0    0  0.00000000000E+00  0.00000000000E+00 -0.51143673179E+03  0.37967656696E+04  0.37621618811E+04 0.  0.
        5    1    3    3  502    0 -0.98145005135E+03 -0.16047427012E+04 -0.25544287777E+03  0.18983457257E+04  0.46999998093E+01 0. -1.
       -5    1    3    3    0  502  0.98145005135E+03  0.16047427012E+04 -0.25599385402E+03  0.18984199440E+04  0.46999998093E+01 0.  1.
</event>
<event>
 5   0  0.3701250E-08  0.3735656E+04  0.7818609E-02  0.8060106E-01
        1   -1    0    0  501    0  0.00000000000E+00  0.00000000000E+00  0.25260277326E+04  0.25260277326E+04  0.50400001928E-02 0.  1.
       -1   -1    0    0    0  501  0.00000000000E+00  0.00000000000E+00 -0.13811335390E+04  0.13811335390E+04  0.50400001928E-02 0. -1.
    10030    2    1    2    0    0  0.00000000000E+00  0.00000000000E+00  0.11448941936E+04  0.39071612716E+04  0.37356560987E+04 0.  0.
        1    1    3    3  502    0  0.58696639959E+03  0.22405269031E+03 -0.12673006738E+04  0.14144893637E+04  0.50400001928E-02 0. -1.
       -1    1    3    3    0  502 -0.58696639959E+03 -0.22405269031E+03  0.24121948674E+04  0.24926719079E+04  0.50400001928E-02 0.  1.
</event>
<event>
 5   0  0.3701250E-08  0.3790755E+04  0.7818609E-02  0.8048142E-01
        1   -1    0    0  501    0  0.00000000000E+00  0.00000000000E+00  0.19618577533E+04  0.19618577533E+04  0.50400001928E-02 0.  1.
       -1   -1    0    0    0  501  0.00000000000E+00  0.00000000000E+00 -0.18311496276E+04  0.18311496276E+04  0.50400001928E-02 0. -1.
    10030    2    1    2    0    0  0.00000000000E+00  0.00000000000E+00  0.13070812563E+03  0.37930073809E+04  0.37907545921E+04 0.  0.
        1    1    3    3  502    0 -0.18167295281E+04 -0.53739558186E+03  0.12155597991E+03  0.18984404247E+04  0.50400001928E-02 0.  1.
       -1    1    3    3    0  502  0.18167295281E+04  0.53739558186E+03  0.91521457232E+01  0.18945669562E+04  0.50400001928E-02 0. -1.
</event>
<event>
 5   0  0.3701250E-08  0.3801983E+04  0.7818609E-02  0.8045729E-01
        1   -1    0    0  501    0  0.00000000000E+00  0.00000000000E+00  0.18068627449E+04  0.18068627449E+04  0.50400001928E-02 0. -1.
       -1   -1    0    0    0  501  0.00000000000E+00  0.00000000000E+00 -0.20000242719E+04  0.20000242719E+04  0.50400001928E-02 0.  1.
    10030    2    1    2    0    0  0.00000000000E+00  0.00000000000E+00 -0.19316152694E+03  0.38068870168E+04  0.38019833486E+04 0.  0.
        2    1    3    3  502    0  0.14455633180E+04  0.67811781989E+02 -0.13308577880E+04  0.19660707505E+04  0.25500000920E-02 0.  1.
       -2    1    3    3    0  502 -0.14455633180E+04 -0.67811781989E+02  0.11376962610E+04  0.18408162663E+04  0.25500000920E-02 0. -1.
</event>
<event>
 5   0  0.3701250E-08  0.3780299E+04  0.7818609E-02  0.8050396E-01
       -1   -1    0    0    0  501  0.00000000000E+00  0.00000000000E+00  0.16752974873E+04  0.16752974873E+04  0.50400001928E-02 0.  1.
        1   -1    0    0  501    0  0.00000000000E+00  0.00000000000E+00 -0.21325562056E+04  0.21325562056E+04  0.50400001928E-02 0. -1.
    10030    2    1    2    0    0  0.00000000000E+00  0.00000000000E+00 -0.45725871837E+03  0.38078536929E+04  0.37802994869E+04 0.  0.
        3    1    3    3  502    0 -0.14789585789E+04 -0.33858600943E+02 -0.14137256815E+04  0.20462368376E+04  0.10100000352E+00 0. -1.
       -3    1    3    3    0  502  0.14789585789E+04  0.33858600943E+02  0.95646696312E+03  0.17616168553E+04  0.10100000352E+00 0.  1.
</event>
<event>
 5   0  0.3701250E-08  0.3793527E+04  0.7818609E-02  0.8047545E-01
        1   -1    0    0  501    0  0.00000000000E+00  0.00000000000E+00  0.20384366634E+04  0.20384366634E+04  0.50400001928E-02 0. -1.
       -1   -1    0    0    0  501  0.00000000000E+00  0.00000000000E+00 -0.17649364266E+04  0.17649364266E+04  0.50400001928E-02 0.  1.
    10030    2    1    2    0    0  0.00000000000E+00  0.00000000000E+00  0.27350023679E+03  0.38033730901E+04  0.37935266551E+04 0.  0.
        4    1    3    3  502    0  0.11250382060E+04 -0.12337424161E+04 -0.76551806305E+03  0.18368045165E+04  0.12699999809E+01 0. -1.
       -4    1    3    3    0  502 -0.11250382060E+04  0.12337424161E+04  0.10390182998E+04  0.19665685735E+04  0.12699999809E+01 0.  1.
</event>
<event>
 5   0  0.1174870E-07  0.3786337E+04  0.7818609E-02  0.8049093E-01
        2   -1    0    0  501    0  0.00000000000E+00  0.00000000000E+00  0.12088058274E+04  0.12088058274E+04  0.25500000920E-02 0. -1.
       -2   -1    0    0    0  501  0.00000000000E+00  0.00000000000E+00 -0.29649816778E+04  0.29649816778E+04  0.25500000920E-02 0.  1.
    10030    2    1    2    0    0  0.00000000000E+00  0.00000000000E+00 -0.17561758505E+04  0.41737875052E+04  0.37863370850E+04 0.  0.
        5    1    3    3  502    0 -0.49332569500E+03 -0.39267912229E+03 -0.28458286690E+04  0.29148464862E+04  0.46999998093E+01 0.  1.
       -5    1    3    3    0  502  0.49332569500E+03  0.39267912229E+03  0.10896528186E+04  0.12589410191E+04  0.46999998093E+01 0. -1.
</event>
<event>
 5   0  0.7858367E-08  0.3784339E+04  0.7818609E-02  0.8049524E-01
       -2   -1    0    0    0  501  0.00000000000E+00  0.00000000000E+00  0.32955428879E+04  0.32955428879E+04  0.25500000920E-02 0.  1.
        2   -1    0    0  501    0  0.00000000000E+00  0.00000000000E+00 -0.10864085517E+04  0.10864085517E+04  0.25500000920E-02 0. -1.
    10030    2    1    2    0    0  0.00000000000E+00  0.00000000000E+00  0.22091343361E+04  0.43819514396E+04  0.37843392956E+04 0.  0.
        2    1    3    3  502    0  0.83238199816E+03  0.63201551623E+03  0.29309966363E+04  0.31117590983E+04  0.25500000920E-02 0.  1.
       -2    1    3    3    0  502 -0.83238199816E+03 -0.63201551623E+03 -0.72186230015E+03  0.12701923413E+04  0.25500000920E-02 0. -1.
</event>
<event>
 5   0  0.1174870E-07  0.3803267E+04  0.7818609E-02  0.8045454E-01
       -2   -1    0    0    0  501  0.00000000000E+00  0.00000000000E+00  0.13016377273E+04  0.13016377273E+04  0.25500000920E-02 0. -1.
        2   -1    0    0  501    0  0.00000000000E+00  0.00000000000E+00 -0.27782007315E+04  0.27782007315E+04  0.25500000920E-02 0.  1.
    10030    2    1    2    0    0  0.00000000000E+00  0.00000000000E+00 -0.14765630041E+04  0.40798384588E+04  0.38032674827E+04 0.  0.
        5    1    3    3  502    0 -0.77542098388E+03  0.71304128610E+02 -0.25993264006E+04  0.27134630655E+04  0.46999998093E+01 0.  1.
       -5    1    3    3    0  502  0.77542098388E+03 -0.71304128610E+02  0.11227633965E+04  0.13663753933E+04  0.46999998093E+01 0. -1.
</event>
<event>
 5   0  0.3889225E-08  0.3791737E+04  0.7818609E-02  0.8047930E-01
        1   -1    0    0  501    0  0.00000000000E+00  0.00000000000E+00  0.28096337280E+04  0.28096337280E+04  0.50400001928E-02 0. -1.
       -1   -1    0    0    0  501  0.00000000000E+00  0.00000000000E+00 -0.12792831194E+04  0.12792831195E+04  0.50400001928E-02 0.  1.
    10030    2    1    2    0    0  0.00000000000E+00  0.00000000000E+00  0.15303506086E+04  0.40889168475E+04  0.37917368053E+04 0.  0.
        5    1    3    3  502    0  0.87707013651E+03  0.74496719351E+03 -0.85958541164E+03  0.14363625286E+04  0.46999998093E+01 0.  1.
       -5    1    3    3    0  502 -0.87707013651E+03 -0.74496719351E+03  0.23899360202E+04  0.26525543188E+04  0.46999998093E+01 0. -1.
</event>
<event>
 5   0  0.3889225E-08  0.3813904E+04  0.7818609E-02  0.8043178E-01
       -1   -1    0    0    0  501  0.00000000000E+00  0.00000000000E+00  0.14703795011E+04  0.14703795011E+04  0.50400001928E-02 0.  1.
        1   -1    0    0  501    0  0.00000000000E+00  0.00000000000E+00 -0.24731482854E+04  0.24731482854E+04  0.50400001928E-02 0. -1.
    10030    2    1    2    0    0  0.00000000000E+00  0.00000000000E+00 -0.10027687844E+04  0.39435277865E+04  0.38139043208E+04 0.  0.
        5    1    3    3  502    0 -0.21511970589E+03 -0.66298713637E+03 -0.23367088414E+04  0.24384541682E+04  0.46999998093E+01 0. -1.
       -5    1    3    3    0  502  0.21511970589E+03  0.66298713637E+03  0.13339400570E+04  0.15050736183E+04  0.46999998093E+01 0.  1.
</event>
<event>
 5   0  0.1143283E-07  0.3819416E+04  0.7818609E-02  0.8042001E-01
        2   -1    0    0  501    0  0.00000000000E+00  0.00000000000E+00  0.20263453392E+04  0.20263453392E+04  0.25500000920E-02 0. -1.
       -2   -1    0    0    0  501  0.00000000000E+00  0.00000000000E+00 -0.17997846962E+04  0.17997846962E+04  0.25500000920E-02 0.  1.
    10030    2    1    2    0    0  0.00000000000E+00  0.00000000000E+00  0.22656064297E+03  0.38261300353E+04  0.38194163589E+04 0.  0.
        1    1    3    3  502    0 -0.18101221222E+03 -0.41759196715E+03  0.19712201506E+04  0.20230811537E+04  0.50400001928E-02 0. -1.
       -1    1    3    3    0  502  0.18101221222E+03  0.41759196715E+03 -0.17446595077E+04  0.18030488817E+04  0.50400001928E-02 0.  1.
</event>
<event>
 5   0  0.1143283E-07  0.3793424E+04  0.7818609E-02  0.8047567E-01
       -2   -1    0    0    0  501  0.00000000000E+00  0.00000000000E+00  0.11708928947E+04  0.11708928947E+04  0.25500000920E-02 0.  1.
        2   -1    0    0  501    0  0.00000000000E+00  0.00000000000E+00 -0.30724559369E+04  0.30724559369E+04  0.25500000920E-02 0. -1.
    10030    2    1    2    0    0  0.00000000000E+00  0.00000000000E+00 -0.19015630422E+04  0.42433488316E+04  0.37934242187E+04 0.  0.
        1    1    3    3  502    0 -0.14393692764E+04 -0.44948704464E+03 -0.22377596703E+04  0.26984052437E+04  0.50400001928E-02 0. -1.
       -1    1    3    3    0  502  0.14393692764E+04  0.44948704464E+03  0.33619662811E+03  0.15449435879E+04  0.50400001928E-02 0.  1.
</event>
<event>
 5   0  0.7858367E-08  0.3797710E+04  0.7818609E-02  0.8046646E-01
        2   -1    0    0  501    0  0.00000000000E+00  0.00000000000E+00  0.21758352454E+04  0.21758352454E+04  0.25500000920E-02 0. -1.
       -2   -1    0    0    0  501  0.00000000000E+00  0.00000000000E+00 -0.16571341516E+04  0.16571341516E+04  0.25500000920E-02 0.  1.
    10030    2    1    2    0    0  0.00000000000E+00  0.00000000000E+00  0.51870109377E+03  0.38329693970E+04  0.37977103067E+04 0.  0.
        2    1    3    3  502    0 -0.25581541177E+03  0.53433020934E+02  0.21575978772E+04  0.21733672521E+04  0.25500000920E-02 0. -1.
       -2    1    3    3    0  502  0.25581541177E+03 -0.53433020934E+02 -0.16388967834E+04  0.16596021449E+04  0.25500000920E-02 0.  1.
</event>
<event>
 5   0  0.1143283E-07  0.3811700E+04  0.7818609E-02  0.8043649E-01
       -2   -1    0    0    0  501  0.00000000000E+00  0.00000000000E+00  0.27370254475E+04  0.27370254475E+04  0.25500000920E-02 0. -1.
        2   -1    0    0  501    0  0.00000000000E+00  0.00000000000E+00 -0.13270845140E+04  0.13270845140E+04  0.25500000920E-02 0.  1.
    10030    2    1    2    0    0  0.00000000000E+00  0.00000000000E+00  0.14099409335E+04  0.40641099615E+04  0.38116999283E+04 0.  0.
        1    1    3    3  502    0 -0.86447737177E+03 -0.36028433624E+03  0.24747470187E+04  0.26460345304E+04  0.50400001928E-02 0. -1.
       -1    1    3    3    0  502  0.86447737177E+03  0.36028433624E+03 -0.10648060852E+04  0.14180754311E+04  0.50400001928E-02 0.  1.
</event>
<event>
 5   0  0.1150235E-07  0.3817500E+04  0.7818609E-02  0.8042410E-01
        2   -1    0    0  501    0  0.00000000000E+00  0.00000000000E+00  0.21532405409E+04  0.21532405409E+04  0.25500000920E-02 0.  1.
       -2   -1    0    0    0  501  0.00000000000E+00  0.00000000000E+00 -0.16920203417E+04  0.16920203417E+04  0.25500000920E-02 0. -1.
    10030    2    1    2    0    0  0.00000000000E+00  0.00000000000E+00  0.46122019916E+03  0.38452608826E+04  0.38175001222E+04 0.  0.
        4    1    3    3  502    0  0.39117308257E+02 -0.18546341612E+04  0.68346500214E+03  0.19769481677E+04  0.12699999809E+01 0.  1.
       -4    1    3    3    0  502 -0.39117308257E+02  0.18546341612E+04 -0.22224480298E+03  0.18683127150E+04  0.12699999809E+01 0. -1.
</event>
<event>
 5   0  0.1193861E-07  0.3801348E+04  0.7818609E-02  0.8045866E-01
       -2   -1    0    0    0  501  0.00000000000E+00  0.00000000000E+00  0.18148975355E+04  0.18148975355E+04  0.25500000920E-02 0. -1.
        2   -1    0    0  501    0  0.00000000000E+00  0.00000000000E+00 -0.19905049112E+04  0.19905049112E+04  0.25500000920E-02 0.  1.
    10030    2    1    2    0    0  0.00000000000E+00  0.00000000000E+00 -0.17560737564E+03  0.38054024467E+04  0.38013484227E+04 0.  0.
        3    1    3    3  502    0 -0.12596059068E+04  0.27879240439E+02  0.13368015353E+04  0.18369601649E+04  0.10100000352E+00 0. -1.
       -3    1    3    3    0  502  0.12596059068E+04 -0.27879240439E+02 -0.15124089110E+04  0.19684422818E+04  0.10100000352E+00 0.  1.
</event>
<event>
 5   0  0.1174870E-07  0.3829615E+04  0.7818609E-02  0.8039829E-01
        2   -1    0    0  501    0  0.00000000000E+00  0.00000000000E+00  0.15388711007E+04  0.15388711007E+04  0.25500000920E-02 0. -1.
       -2   -1    0    0    0  501  0.00000000000E+00  0.00000000000E+00 -0.23825821455E+04  0.23825821455E+04  0.25500000920E-02 0.  1.
    10030    2    1    2    0    0  0.00000000000E+00  0.00000000000E+00 -0.84371104480E+03  0.39214532462E+04  0.38296145022E+04 0.  0.
        5    1    3    3  502    0  0.30366927685E+03  0.11629960644E+04 -0.19481337083E+04  0.22891094144E+04  0.46999998093E+01 0.  1.
       -5    1    3    3    0  502 -0.30366927685E+03 -0.11629960644E+04  0.11044226635E+04  0.16323438318E+04  0.46999998093E+01 0. -1.
</event>
<event>
 5   0  0.3701250E-08  0.3821620E+04  0.7818609E-02  0.8041531E-01
       -1   -1    0    0    0  501  0.00000000000E+00  0.00000000000E+00  0.12215588528E+04  0.12215588529E+04  0.50400001928E-02 0. -1.
        1   -1    0    0  501    0  0.00000000000E+00  0.00000000000E+00 -0.29889637913E+04  0.29889637913E+04  0.50400001928E-02 0.  1.
    10030    2    1    2    0    0  0.00000000000E+00  0.00000000000E+00 -0.17674049384E+04  0.42105226441E+04  0.38216201696E+04 0.  0.
        3    1    3    3  502    0  0.16663575910E+04 -0.53162542307E+03 -0.17312889565E+04  0.24610434114E+04  0.10100000352E+00 0. -1.
       -3    1    3    3    0  502 -0.16663575910E+04  0.53162542307E+03 -0.36115981941E+02  0.17494792328E+04  0.10100000352E+00 0.  1.
</event>
<event>
 5   0  0.3701250E-08  0.3824875E+04  0.7818609E-02  0.8040838E-01
        1   -1    0    0  501    0  0.00000000000E+00  0.00000000000E+00  0.21501102480E+04  0.21501102480E+04  0.50400001928E-02 0.  1.
       -1   -1    0    0    0  501  0.00000000000E+00  0.00000000000E+00 -0.17010373306E+04  0.17010373306E+04  0.50400001928E-02 0. -1.
    10030    2    1    2    0    0  0.00000000000E+00  0.00000000000E+00  0.44907291735E+03  0.38511475786E+04  0.38248753165E+04 0.  0.
        1    1    3    3  502    0  0.14572204230E+04 -0.70042649197E+03 -0.80391441795E+03  0.18056486433E+04  0.50400001928E-02 0. -1.
       -1    1    3    3    0  502 -0.14572204230E+04  0.70042649197E+03  0.12529873353E+04  0.20454989353E+04  0.50400001928E-02 0.  1.
</event>
<event>
 5   0  0.3701250E-08  0.3758230E+04  0.7818609E-02  0.8055179E-01
       -1   -1    0    0    0  501  0.00000000000E+00  0.00000000000E+00  0.14375635325E+04  0.14375635325E+04  0.50400001928E-02 0.  1.
        1   -1    0    0  501    0  0.00000000000E+00  0.00000000000E+00 -0.24562898554E+04  0.24562898554E+04  0.50400001928E-02 0. -1.
    10030    2    1    2    0    0  0.00000000000E+00  0.00000000000E+00 -0.10187263229E+04  0.38938533879E+04  0.37582297542E+04 0.  0.
        3    1    3    3  502    0  0.63445850775E+03 -0.42025751266E+03  0.12707535101E+04  0.14812050731E+04  0.10100000352E+00 0.  1.
       -3    1    3    3    0  502 -0.63445850775E+03  0.42025751266E+03 -0.22894798330E+04  0.24126483148E+04  0.10100000352E+00 0. -1.
</event>
<event>
 5   0  0.3701250E-08  0.3823327E+04  0.7818609E-02  0.8041168E-01
       -1   -1    0    0    0  501  0.00000000000E+00  0.00000000000E+00  0.20521870247E+04  0.20521870247E+04  0.50400001928E-02 0. -1.
        1   -1    0    0  501    0  0.00000000000E+00  0.00000000000E+00 -0.17807618767E+04  0.17807618768E+04  0.50400001928E-02 0.  1.
    10030    2    1    2    0    0  0.00000000000E+00  0.00000000000E+00  0.27142514792E+03  0.38329489014E+04  0.38233265189E+04 0.  0.
        4    1    3    3  502    0  0.13048112825E+04  0.12713461102E+04 -0.44505654513E+03  0.18753480626E+04  0.12699999809E+01 0.  1.
       -4    1    3    3    0  502 -0.13048112825E+04 -0.12713461102E+04  0.71648169305E+03  0.19576008388E+04  0.12699999809E+01 0. -1.
</event>
<event>
 5   0  0.3701250E-08  0.3810477E+04  0.7818609E-02  0.8043910E-01
        1   -1    0    0  501    0  0.00000000000E+00  0.00000000000E+00  0.22100387003E+04  0.22100387003E+04  0.50400001928E-02 0. -1.
       -1   -1    0    0    0  501  0.00000000000E+00  0.00000000000E+00 -0.16424754397E+04  0.16424754398E+04  0.50400001928E-02 0.  1.
    10030    2    1    2    0    0  0.00000000000E+00  0.00000000000E+00  0.56756326052E+03  0.38525141400E+04  0.38104772856E+04 0.  0.
        2    1    3    3  502    0  0.16906332875E+04 -0.62899343935E+03  0.90378463880E+03  0.20175976638E+04  0.25500000920E-02 0.  1.
       -2    1    3    3    0  502 -0.16906332875E+04  0.62899343935E+03 -0.33622137827E+03  0.18349164762E+04  0.25500000920E-02 0. -1.
</event>
<event>
 5   0  0.1150235E-07  0.3801535E+04  0.7818609E-02  0.8045825E-01
        2   -1    0    0  501    0  0.00000000000E+00  0.00000000000E+00  0.19926546388E+04  0.19926546388E+04  0.25500000920E-02 0.  1.
       -2   -1    0    0    0  501  0.00000000000E+00  0.00000000000E+00 -0.18131179029E+04  0.18131179029E+04  0.25500000920E-02 0. -1.
    10030    2    1    2    0    0  0.00000000000E+00  0.00000000000E+00  0.17953673596E+03  0.38057725417E+04  0.38015353740E+04 0.  0.
        4    1    3    3  502    0 -0.65766342627E+03  0.17282530159E+04  0.53018656419E+03  0.19236629317E+04  0.12699999809E+01 0.  1.
       -4    1    3    3    0  502  0.65766342627E+03 -0.17282530159E+04 -0.35064982823E+03  0.18821096100E+04  0.12699999809E+01 0. -1.
</event>
<event>
 5   0  0.1193861E-07  0.3773389E+04  0.7818609E-02  0.8051890E-01
        2   -1    0    0  501    0  0.00000000000E+00  0.00000000000E+00  0.11874055863E+04  0.11874055863E+04  0.25500000920E-02 0.  1.
       -2   -1    0    0    0  501  0.00000000000E+00  0.00000000000E+00 -0.29978104622E+04  0.29978104622E+04  0.25500000920E-02 0. -1.
    10030    2    1    2    0    0  0.00000000000E+00  0.00000000000E+00 -0.18104048759E+04  0.41852160486E+04  0.37733893993E+04 0.  0.
        3    1    3    3  502    0  0.11447225435E+04 -0.14982205756E+04 -0.83028594527E+03  0.20602012902E+04  0.10100000352E+00 0. -1.
       -3    1    3    3    0  502 -0.11447225435E+04  0.14982205756E+04 -0.98011893063E+03  0.21250147584E+04  0.10100000352E+00 0.  1.
</event>
<event>
 5   0  0.3701250E-08  0.3767135E+04  0.7818609E-02  0.8053245E-01
       -1   -1    0    0    0  501  0.00000000000E+00  0.00000000000E+00  0.15095881121E+04  0.15095881121E+04  0.50400001928E-02 0. -1.
        1   -1    0    0  501    0  0.00000000000E+00  0.00000000000E+00 -0.23501953758E+04  0.23501953758E+04  0.50400001928E-02 0.  1.
    10030    2    1    2    0    0  0.00000000000E+00  0.00000000000E+00 -0.84060726373E+03  0.38597834879E+04  0.37671352513E+04 0.  0.
        4    1    3    3  502    0  0.12536276147E+04  0.27734965191E+03  0.99174886479E+03  0.16223663117E+04  0.12699999809E+01 0. -1.
       -4    1    3    3    0  502 -0.12536276147E+04 -0.27734965191E+03 -0.18323561285E+04  0.22374171762E+04  0.12699999809E+01 0.  1.
</event>
<event>
 5   0  0.1143283E-07  0.3801859E+04  0.7818609E-02  0.8045756E-01
       -2   -1    0    0    0  501  0.00000000000E+00  0.00000000000E+00  0.25542212055E+04  0.25542212055E+04  0.25500000920E-02 0.  1.
        2   -1    0    0  501    0  0.00000000000E+00  0.00000000000E+00 -0.14147294945E+04  0.14147294945E+04  0.25500000920E-02 0. -1.
    10030    2    1    2    0    0  0.00000000000E+00  0.00000000000E+00  0.11394917110E+04  0.39689506999E+04  0.38018585322E+04 0.  0.
        1    1    3    3  502    0  0.75611301606E+03 -0.13924728585E+04 -0.52657303260E+03  0.16697205495E+04  0.50400001928E-02 0. -1.
       -1    1    3    3    0  502 -0.75611301606E+03  0.13924728585E+04  0.16660647436E+04  0.22992301504E+04  0.50400001928E-02 0.  1.
</event>
<event>
 5   0  0.1143283E-07  0.3791385E+04  0.7818609E-02  0.8048006E-01
       -2   -1    0    0    0  501  0.00000000000E+00  0.00000000000E+00  0.23846187345E+04  0.23846187345E+04  0.25500000920E-02 0. -1.
        2   -1    0    0  501    0  0.00000000000E+00  0.00000000000E+00 -0.15070122434E+04  0.15070122434E+04  0.25500000920E-02 0.  1.
    10030    2    1    2    0    0  0.00000000000E+00  0.00000000000E+00  0.87760649109E+03  0.38916309780E+04  0.37913847755E+04 0.  0.
        1    1    3    3  502    0 -0.13304734149E+04 -0.12703196760E+04 -0.31322249379E+02  0.18397969101E+04  0.50400001928E-02 0.  1.
       -1    1    3    3    0  502  0.13304734149E+04  0.12703196760E+04  0.90892874047E+03  0.20518340679E+04  0.50400001928E-02 0. -1.
</event>
<event>
 5   0  0.7858367E-08  0.3757455E+04  0.7818609E-02  0.8055347E-01
       -2   -1    0    0    0  501  0.00000000000E+00  0.00000000000E+00  0.18572979887E+04  0.18572979887E+04  0.25500000920E-02 0.  1.
        2   -1    0    0  501    0  0.00000000000E+00  0.00000000000E+00 -0.19004039808E+04  0.19004039808E+04  0.25500000920E-02 0. -1.
    10030    2    1    2    0    0  0.00000000000E+00  0.00000000000E+00 -0.43105992097E+02  0.37577019696E+04  0.37574547190E+04 0.  0.
        2    1    3    3  502    0  0.69703836444E+03  0.12994350715E+04  0.11426638503E+04  0.18654958218E+04  0.25500000920E-02 0.  1.
       -2    1    3    3    0  502 -0.69703836444E+03 -0.12994350715E+04 -0.11857698424E+04  0.18922061477E+04  0.25500000920E-02 0. -1.
</event>
<event>
 5   0  0.1174870E-07  0.3795988E+04  0.7818609E-02  0.8047016E-01
        2   -1    0    0  501    0  0.00000000000E+00  0.00000000000E+00  0.11507887403E+04  0.11507887403E+04  0.25500000920E-02 0.  1.
       -2   -1    0    0    0  501  0.00000000000E+00  0.00000000000E+00 -0.31303581258E+04  0.31303581258E+04  0.25500000920E-02 0. -1.
    10030    2    1    2    0    0  0.00000000000E+00  0.00000000000E+00 -0.19795693855E+04  0.42811468661E+04  0.37959878210E+04 0.  0.
        5    1    3    3  502    0  0.44206699874E+03 -0.60256878002E+03  0.97786002896E+03  0.12307496465E+04  0.46999998093E+01 0.  1.
       -5    1    3    3    0  502 -0.44206699874E+03  0.60256878002E+03 -0.29574294144E+04  0.30503972196E+04  0.46999998093E+01 0. -1.
</event>
<event>
 5   0  0.3701250E-08  0.3800217E+04  0.7818609E-02  0.8046108E-01
        1   -1    0    0  501    0  0.00000000000E+00  0.00000000000E+00  0.19448713771E+04  0.19448713771E+04  0.50400001928E-02 0. -1.
       -1   -1    0    0    0  501  0.00000000000E+00  0.00000000000E+00 -0.18563754403E+04  0.18563754403E+04  0.50400001928E-02 0.  1.
    10030    2    1    2    0    0  0.00000000000E+00  0.00000000000E+00  0.88495936792E+02  0.38012468174E+04  0.38002165512E+04 0.  0.
        4    1    3    3  502    0  0.12610054929E+04 -0.71545712492E+03  0.12727487134E+04  0.19292238468E+04  0.12699999809E+01 0. -1.
       -4    1    3    3    0  502 -0.12610054929E+04  0.71545712492E+03 -0.11842527766E+04  0.18720229706E+04  0.12699999809E+01 0.  1.
</event>
<event>
 5   0  0.1193861E-07  0.3755231E+04  0.7818609E-02  0.8055831E-01
        2   -1    0    0  501    0  0.00000000000E+00  0.00000000000E+00  0.20155331018E+04  0.20155331018E+04  0.25500000920E-02 0. -1.
       -2   -1    0    0    0  501  0.00000000000E+00  0.00000000000E+00 -0.17491352223E+04  0.17491352223E+04  0.25500000920E-02 0.  1.
    10030    2    1    2    0    0  0.00000000000E+00  0.00000000000E+00  0.26639787949E+03  0.37646683240E+04  0.37552309862E+04 0.  0.
        3    1    3    3  502    0 -0.11102406061E+04 -0.21623954447E+03 -0.13692489057E+04  0.17760169820E+04  0.10100000352E+00 0.  1.
       -3    1    3    3    0  502  0.11102406061E+04  0.21623954447E+03  0.16356467852E+04  0.19886513421E+04  0.10100000352E+00 0. -1.
</event>
<event>
 5   0  0.1174870E-07  0.3798289E+04  0.7818609E-02  0.8046522E-01
        2   -1    0    0  501    0  0.00000000000E+00  0.00000000000E+00  0.29408561068E+04  0.29408561068E+04  0.25500000920E-02 0. -1.
       -2   -1    0    0    0  501  0.00000000000E+00  0.00000000000E+00 -0.12264284277E+04  0.12264284277E+04  0.25500000920E-02 0.  1.
    10030    2    1    2    0    0  0.00000000000E+00  0.00000000000E+00  0.17144276790E+04  0.41672845345E+04  0.37982888417E+04 0.  0.
        5    1    3    3  502    0  0.16233160617E+04 -0.47894766565E+03 -0.87978602641E+02  0.16947885493E+04  0.46999998093E+01 0.  1.
       -5    1    3    3    0  502 -0.16233160617E+04  0.47894766565E+03  0.18024062817E+04  0.24724959852E+04  0.46999998093E+01 0. -1.
</event>
<event>
 5   0  0.3889225E-08  0.3789327E+04  0.7818609E-02  0.8048449E-01
        1   -1    0    0  501    0  0.00000000000E+00  0.00000000000E+00  0.21600896870E+04  0.21600896870E+04  0.50400001928E-02 0.  1.
       -1   -1    0    0    0  501  0.00000000000E+00  0.00000000000E+00 -0.16618521931E+04  0.16618521931E+04  0.50400001928E-02 0. -1.
    10030    2    1    2    0    0  0.00000000000E+00  0.00000000000E+00  0.49823749391E+03  0.38219418800E+04  0.37893270028E+04 0.  0.
        5    1    3    3  502    0  0.10646014457E+04  0.46626303733E+03  0.17583097732E+04  0.21077126955E+04  0.46999998093E+01 0.  1.
       -5    1    3    3    0  502 -0.10646014457E+04 -0.46626303733E+03 -0.12600722793E+04  0.17142291846E+04  0.46999998093E+01 0. -1.
</event>
<event>
 5   0  0.3701250E-08  0.3780281E+04  0.7818609E-02  0.8050400E-01
       -1   -1    0    0    0  501  0.00000000000E+00  0.00000000000E+00  0.24181250267E+04  0.24181250267E+04  0.50400001928E-02 0. -1.
        1   -1    0    0  501    0  0.00000000000E+00  0.00000000000E+00 -0.14774385465E+04  0.14774385465E+04  0.50400001928E-02 0.  1.
    10030    2    1    2    0    0  0.00000000000E+00  0.00000000000E+00  0.94068648017E+03  0.38955635732E+04  0.37802810080E+04 0.  0.
        4    1    3    3  502    0 -0.18655898143E+04 -0.27995680530E+03  0.59152333658E+03  0.19770439142E+04  0.12699999809E+01 0. -1.
       -4    1    3    3    0  502  0.18655898143E+04  0.27995680530E+03  0.34916314359E+03  0.19185196590E+04  0.12699999809E+01 0.  1.
</event>
<event>
 5   0  0.3701250E-08  0.3797270E+04  0.7818609E-02  0.8046741E-01
        1   -1    0    0  501    0  0.00000000000E+00  0.00000000000E+00  0.30038449198E+04  0.30038449198E+04  0.50400001928E-02 0. -1.
       -1   -1    0    0    0  501  0.00000000000E+00  0.00000000000E+00 -0.12000671031E+04  0.12000671031E+04  0.50400001928E-02 0.  1.
    10030    2    1    2    0    0  0.00000000000E+00  0.00000000000E+00  0.18037778167E+04  0.42039120229E+04  0.37972703202E+04 0.  0.
        3    1    3    3  502    0  0.18243754241E+03  0.35435214801E+03  0.29570110262E+04  0.29837498422E+04  0.10100000352E+00 0. -1.
       -3    1    3    3    0  502 -0.18243754241E+03 -0.35435214801E+03 -0.11532332095E+04  0.12201621808E+04  0.10100000352E+00 0.  1.
</event>
<event>
 5   0  0.3701250E-08  0.3804834E+04  0.7818609E-02  0.8045118E-01
        3   -1    0    0  501    0  0.00000000000E+00  0.00000000000E+00  0.16712712069E+04  0.16712712100E+04  0.10100000352E+00 0.  1.
       -3   -1    0    0    0  501  0.00000000000E+00  0.00000000000E+00 -0.21655319062E+04  0.21655319086E+04  0.10100000352E+00 0. -1.
    10030    2    1    2    0    0  0.00000000000E+00  0.00000000000E+00 -0.49426069929E+03  0.38368031186E+04  0.38048343632E+04 0.  0.
        1    1    3    3  502    0 -0.75631150756E+02  0.14083540945E+04 -0.15345758915E+04  0.20842515428E+04  0.50400001928E-02 0. -1.
       -1    1    3    3    0  502  0.75631150756E+02 -0.14083540945E+04  0.10403151923E+04  0.17525515758E+04  0.50400001928E-02 0.  1.
</event>
<event>
 5   0  0.3701250E-08  0.3806174E+04  0.7818609E-02  0.8044831E-01
        1   -1    0    0  501    0  0.00000000000E+00  0.00000000000E+00  0.19448926833E+04  0.19448926833E+04  0.50400001928E-02 0.  1.
       -1   -1    0    0    0  501  0.00000000000E+00  0.00000000000E+00 -0.18621797237E+04  0.18621797237E+04  0.50400001928E-02 0. -1.
    10030    2    1    2    0    0  0.00000000000E+00  0.00000000000E+00  0.82712959540E+02  0.38070724070E+04  0.38061737846E+04 0.  0.
        3    1    3    3  502    0  0.11070647573E+04 -0.15060960168E+04 -0.31625012606E+03  0.18957667950E+04  0.10100000352E+00 0. -1.
       -3    1    3    3    0  502 -0.11070647573E+04  0.15060960168E+04  0.39896308560E+03  0.19113056120E+04  0.10100000352E+00 0.  1.
</event>
<event>
 5   0  0.3701250E-08  0.3789264E+04  0.7818609E-02  0.8048463E-01
        1   -1    0    0  501    0  0.00000000000E+00  0.00000000000E+00  0.17643925033E+04  0.17643925033E+04  0.50400001928E-02 0. -1.
       -1   -1    0    0    0  501  0.00000000000E+00  0.00000000000E+00 -0.20344854866E+04  0.20344854866E+04  0.50400001928E-02 0.  1.
    10030    2    1    2    0    0  0.00000000000E+00  0.00000000000E+00 -0.27009298332E+03  0.37988779899E+04  0.37892642772E+04 0.  0.
        4    1    3    3  502    0 -0.14787681625E+04 -0.10134759625E+04 -0.74957844186E+03  0.19431310451E+04  0.12699999809E+01 0.  1.
       -4    1    3    3    0  502  0.14787681625E+04  0.10134759625E+04  0.47948545855E+03  0.18557469448E+04  0.12699999809E+01 0. -1.
</event>
<event>
 5   0  0.3889225E-08  0.3797415E+04  0.7818609E-02  0.8046710E-01
        1   -1    0    0  501    0  0.00000000000E+00  0.00000000000E+00  0.15093912820E+04  0.15093912820E+04  0.50400001928E-02 0. -1.
       -1   -1    0    0    0  501  0.00000000000E+00  0.00000000000E+00 -0.23884392398E+04  0.23884392398E+04  0.50400001928E-02 0.  1.
    10030    2    1    2    0    0  0.00000000000E+00  0.00000000000E+00 -0.87904795785E+03  0.38978305218E+04  0.37974145763E+04 0.  0.
        5    1    3    3  502    0 -0.43479816541E+02 -0.59839285511E+03  0.14095281993E+04  0.15319126405E+04  0.46999998093E+01 0. -1.
       -5    1    3    3    0  502  0.43479816541E+02  0.59839285511E+03 -0.22885761572E+04  0.23659178812E+04  0.46999998093E+01 0.  1.
</event>
<event>
 5   0  0.1150235E-07  0.3775542E+04  0.7818609E-02  0.8051424E-01
       -2   -1    0    0    0  501  0.00000000000E+00  0.00000000000E+00  0.18238299344E+04  0.18238299344E+04  0.25500000920E-02 0.  1.
        2   -1    0    0  501    0  0.00000000000E+00  0.00000000000E+00 -0.19539538400E+04  0.19539538400E+04  0.25500000920E-02 0. -1.
    10030    2    1    2    0    0  0.00000000000E+00  0.00000000000E+00 -0.13012390560E+03  0.37777837745E+04  0.37755420824E+04 0.  0.
        4    1    3    3  502    0 -0.11953303157E+04  0.79981306149E+02 -0.15248546030E+04  0.19391737277E+04  0.12699999809E+01 0. -1.
       -4    1    3    3    0  502  0.11953303157E+04 -0.79981306149E+02  0.13947306974E+04  0.18386100468E+04  0.12699999809E+01 0.  1.
</event>
<event>
 5   0  0.3701250E-08  0.3794031E+04  0.7818609E-02  0.8047437E-01
       -1   -1    0    0    0  501  0.00000000000E+00  0.00000000000E+00  0.20875700285E+04  0.20875700285E+04  0.50400001928E-02 0. -1.
        1   -1    0    0  501    0  0.00000000000E+00  0.00000000000E+00 -0.17238545336E+04  0.17238545336E+04  0.50400001928E-02 0.  1.
    10030    2    1    2    0    0  0.00000000000E+00  0.00000000000E+00  0.36371549488E+03  0.38114245621E+04  0.37940306050E+04 0.  0.
        1    1    3    3  502    0  0.24339418163E+03  0.16777418764E+04  0.10369997107E+04  0.19873165152E+04  0.50400001928E-02 0. -1.
       -1    1    3    3    0  502 -0.24339418163E+03 -0.16777418764E+04 -0.67328421586E+03  0.18241080469E+04  0.50400001928E-02 0.  1.
</event>
<event>
 5   0  0.1150235E-07  0.3801457E+04  0.7818609E-02  0.8045842E-01
        2   -1    0    0  501    0  0.00000000000E+00  0.00000000000E+00  0.26275972983E+04  0.26275972983E+04  0.25500000920E-02 0.  1.
       -2   -1    0    0    0  501  0.00000000000E+00  0.00000000000E+00 -0.13749326445E+04  0.13749326445E+04  0.25500000920E-02 0. -1.
    10030    2    1    2    0    0  0.00000000000E+00  0.00000000000E+00  0.12526646538E+04  0.40025299428E+04  0.38014572479E+04 0.  0.
        4    1    3    3  502    0  0.10250503786E+04  0.13781264553E+04 -0.23085942603E+03  0.17329911981E+04  0.12699999809E+01 0. -1.
       -4    1    3    3    0  502 -0.10250503786E+04 -0.13781264553E+04  0.14835240798E+04  0.22695387447E+04  0.12699999809E+01 0.  1.
</event>
<event>
 5   0  0.1174870E-07  0.3807058E+04  0.7818609E-02  0.8044642E-01
       -2   -1    0    0    0  501  0.00000000000E+00  0.00000000000E+00  0.11572667224E+04  0.11572667224E+04  0.25500000920E-02 0.  1.
        2   -1    0    0  501    0  0.00000000000E+00  0.00000000000E+00 -0.31310184357E+04  0.31310184357E+04  0.25500000920E-02 0. -1.
    10030    2    1    2    0    0  0.00000000000E+00  0.00000000000E+00 -0.19737517132E+04  0.42882851581E+04  0.38070584146E+04 0.  0.
        5    1    3    3  502    0 -0.12853332762E+04  0.56161672797E+03 -0.24363551151E+04  0.28112885510E+04  0.46999998093E+01 0. -1.
       -5    1    3    3    0  502  0.12853332762E+04 -0.56161672797E+03  0.46260340190E+03  0.14769966071E+04  0.46999998093E+01 0.  1.
</event>
<event>
 5   0  0.1174870E-07  0.3800574E+04  0.7818609E-02  0.8046032E-01
       -2   -1    0    0    0  501  0.00000000000E+00  0.00000000000E+00  0.17630764573E+04  0.17630764573E+04  0.25500000920E-02 0.  1.
        2   -1    0    0  501    0  0.00000000000E+00  0.00000000000E+00 -0.20481759176E+04  0.20481759176E+04  0.25500000920E-02 0. -1.
    10030    2    1    2    0    0  0.00000000000E+00  0.00000000000E+00 -0.28509946027E+03  0.38112523750E+04  0.38005740308E+04 0.  0.
        5    1    3    3  502    0 -0.42001741410E+03 -0.15715704758E+04 -0.11275621790E+04  0.19793097146E+04  0.46999998093E+01 0. -1.
       -5    1    3    3    0  502  0.42001741410E+03  0.15715704758E+04  0.84246271870E+03  0.18319426604E+04  0.46999998093E+01 0.  1.
</event>
<event>
 5   0  0.3701250E-08  0.3802927E+04  0.7818609E-02  0.8045527E-01
       -1   -1    0    0    0  501  0.00000000000E+00  0.00000000000E+00  0.19568280310E+04  0.19568280310E+04  0.50400001928E-02 0. -1.
        1   -1    0    0  501    0  0.00000000000E+00  0.00000000000E+00 -0.18476657575E+04  0.18476657575E+04  0.50400001928E-02 0.  1.
    10030    2    1    2    0    0  0.00000000000E+00  0.00000000000E+00  0.10916227351E+03  0.38044937885E+04  0.38029273704E+04 0.  0.
        1    1    3    3  502    0 -0.84711467094E+03  0.16030307995E+04  0.62775092459E+03  0.19186928449E+04  0.50400001928E-02 0. -1.
       -1    1    3    3    0  502  0.84711467094E+03 -0.16030307995E+04 -0.51858865108E+03  0.18858009436E+04  0.50400001928E-02 0.  1.
</event>
<event>
 5   0  0.7858367E-08  0.3789918E+04  0.7818609E-02  0.8048322E-01
       -2   -1    0    0    0  501  0.00000000000E+00  0.00000000000E+00  0.17581816296E+04  0.17581816296E+04  0.25500000920E-02 0. -1.
        2   -1    0    0  501    0  0.00000000000E+00  0.00000000000E+00 -0.20423765562E+04  0.20423765562E+04  0.25500000920E-02 0.  1.
    10030    2    1    2    0    0  0.00000000000E+00  0.00000000000E+00 -0.28419492667E+03  0.38005581858E+04  0.37899176465E+04 0.  0.
        2    1    3    3  502    0  0.73562151664E+02  0.10532768918E+04  0.14358722502E+04  0.17822830078E+04  0.25500000920E-02 0. -1.
       -2    1    3    3    0  502 -0.73562151664E+02 -0.10532768918E+04 -0.17200671769E+04  0.20182751780E+04  0.25500000920E-02 0.  1.
</event>
<event>
 5   0  0.3701250E-08  0.3787241E+04  0.7818609E-02  0.8048898E-01
       -1   -1    0    0    0  501  0.00000000000E+00  0.00000000000E+00  0.15148678340E+04  0.15148678340E+04  0.50400001928E-02 0.  1.
        1   -1    0    0  501    0  0.00000000000E+00  0.00000000000E+00 -0.23670705258E+04  0.23670705258E+04  0.50400001928E-02 0. -1.
    10030    2    1    2    0    0  0.00000000000E+00  0.00000000000E+00 -0.85220269179E+03  0.38819383598E+04  0.37872412125E+04 0.  0.
        3    1    3    3  502    0 -0.83828931124E+03 -0.14709437032E+04 -0.12954805915E+04  0.21318241767E+04  0.10100000352E+00 0. -1.
       -3    1    3    3    0  502  0.83828931124E+03  0.14709437032E+04  0.44327789970E+03  0.17501141831E+04  0.10100000352E+00 0.  1.
</event>
<event>
 5   0  0.3701250E-08  0.3844175E+04  0.7818609E-02  0.8036741E-01
        1   -1    0    0  501    0  0.00000000000E+00  0.00000000000E+00  0.24443913542E+04  0.24443913542E+04  0.50400001928E-02 0. -1.
       -1   -1    0    0    0  501  0.00000000000E+00  0.00000000000E+00 -0.15113868545E+04  0.15113868545E+04  0.50400001928E-02 0.  1.
    10030    2    1    2    0    0  0.00000000000E+00  0.00000000000E+00  0.93300449965E+03  0.39557782087E+04  0.38441753134E+04 0.  0.
        3    1    3    3  502    0 -0.12087926224E+04 -0.72521851068E+03  0.18110728146E+04  0.22950176997E+04  0.10100000352E+00 0. -1.
       -3    1    3    3    0  502  0.12087926224E+04  0.72521851068E+03 -0.87806831491E+03  0.16607605090E+04  0.10100000352E+00 0.  1.
</event>
<event>
 5   0  0.7858367E-08  0.3872603E+04  0.7818609E-02  0.8030751E-01
       -2   -1    0    0    0  501  0.00000000000E+00  0.00000000000E+00  0.16225776801E+04  0.16225776801E+04  0.25500000920E-02 0.  1.
        2   -1    0    0  501    0  0.00000000000E+00  0.00000000000E+00 -0.23106837513E+04  0.23106837513E+04  0.25500000920E-02 0. -1.
    10030    2    1    2    0    0  0.00000000000E+00  0.00000000000E+00 -0.68810607127E+03  0.39332614314E+04  0.38726031971E+04 0.  0.
        2    1    3    3  502    0  0.68913688676E+03  0.14755891327E+04 -0.14078318451E+04  0.21527339458E+04  0.25500000920E-02 0. -1.
       -2    1    3    3    0  502 -0.68913688676E+03 -0.14755891327E+04  0.71972577387E+03  0.17805274856E+04  0.25500000920E-02 0.  1.
</event>
<event>
 5   0  0.3701250E-08  0.3800772E+04  0.7818609E-02  0.8045989E-01
        1   -1    0    0  501    0  0.00000000000E+00  0.00000000000E+00  0.25835288774E+04  0.25835288775E+04  0.50400001928E-02 0. -1.
       -1   -1    0    0    0  501  0.00000000000E+00  0.00000000000E+00 -0.13978816972E+04  0.13978816972E+04  0.50400001928E-02 0.  1.
    10030    2    1    2    0    0  0.00000000000E+00  0.00000000000E+00  0.11856471802E+04  0.39814105747E+04  0.38007724121E+04 0.  0.
        3    1    3    3  502    0  0.12852879857E+04 -0.80119318027E+03 -0.60959470558E+03  0.16326302195E+04  0.10100000352E+00 0.  1.
       -3    1    3    3    0  502 -0.12852879857E+04  0.80119318027E+03  0.17952418858E+04  0.23487803552E+04  0.10100000352E+00 0. -1.
</event>
<event>
 5   0  0.1143283E-07  0.3684620E+04  0.7818609E-02  0.8071379E-01
       -2   -1    0    0    0  501  0.00000000000E+00  0.00000000000E+00  0.17834344599E+04  0.17834344599E+04  0.25500000920E-02 0.  1.
        2   -1    0    0  501    0  0.00000000000E+00  0.00000000000E+00 -0.19031288274E+04  0.19031288274E+04  0.25500000920E-02 0. -1.
    10030    2    1    2    0    0  0.00000000000E+00  0.00000000000E+00 -0.11969436745E+03  0.36865632873E+04  0.36846196724E+04 0.  0.
        1    1    3    3  502    0  0.27230842656E+03 -0.10544388408E+04  0.14269085229E+04  0.17950100503E+04  0.50400001928E-02 0.  1.
       -1    1    3    3    0  502 -0.27230842656E+03  0.10544388408E+04 -0.15466028903E+04  0.18915532370E+04  0.50400001928E-02 0. -1.
</event>
<event>
 5   0  0.1143283E-07  0.3799394E+04  0.7818609E-02  0.8046285E-01
        2   -1    0    0  501    0  0.00000000000E+00  0.00000000000E+00  0.28921437119E+04  0.28921437119E+04  0.25500000920E-02 0. -1.
       -2   -1    0    0    0  501  0.00000000000E+00  0.00000000000E+00 -0.12478107548E+04  0.12478107548E+04  0.25500000920E-02 0.  1.
    10030    2    1    2    0    0  0.00000000000E+00  0.00000000000E+00  0.16443329571E+04  0.41399544668E+04  0.37993936507E+04 0.  0.
        1    1    3    3  502    0 -0.14427901141E+02  0.18817153958E+04  0.53846958216E+03  0.19572967292E+04  0.50400001928E-02 0. -1.
       -1    1    3    3    0  502  0.14427901141E+02 -0.18817153958E+04  0.11058633749E+04  0.21826577376E+04  0.50400001928E-02 0.  1.
</event>
<event>
 5   0  0.7858367E-08  0.3619530E+04  0.7818609E-02  0.8086033E-01
       -2   -1    0    0    0  501  0.00000000000E+00  0.00000000000E+00  0.17850523729E+04  0.17850523729E+04  0.25500000920E-02 0.  1.
        2   -1    0    0  501    0  0.00000000000E+00  0.00000000000E+00 -0.18348200555E+04  0.18348200555E+04  0.25500000920E-02 0. -1.
    10030    2    1    2    0    0  0.00000000000E+00  0.00000000000E+00 -0.49767682565E+02  0.36198724284E+04  0.36195302976E+04 0.  0.
        2    1    3    3  502    0 -0.17173731657E+03  0.17671345522E+04 -0.37561866222E+03  0.18147582789E+04  0.25500000920E-02 0. -1.
       -2    1    3    3    0  502  0.17173731657E+03 -0.17671345522E+04  0.32585097965E+03  0.18051141494E+04  0.25500000920E-02 0.  1.
</event>
<event>
 5   0  0.3701250E-08  0.3806100E+04  0.7818609E-02  0.8044847E-01
       -1   -1    0    0    0  501  0.00000000000E+00  0.00000000000E+00  0.12683416346E+04  0.12683416346E+04  0.50400001928E-02 0. -1.
        1   -1    0    0  501    0  0.00000000000E+00  0.00000000000E+00 -0.28553812513E+04  0.28553812513E+04  0.50400001928E-02 0.  1.
    10030    2    1    2    0    0  0.00000000000E+00  0.00000000000E+00 -0.15870396167E+04  0.41237228859E+04  0.38060998009E+04 0.  0.
        4    1    3    3  502    0  0.17349456014E+04  0.38815104554E+03 -0.57969167504E+02  0.17787803438E+04  0.12699999809E+01 0. -1.
       -4    1    3    3    0  502 -0.17349456014E+04 -0.38815104554E+03 -0.15290704492E+04  0.23449425421E+04  0.12699999809E+01 0.  1.
</event>
<event>
 5   0  0.1150235E-07  0.3832190E+04  0.7818609E-02  0.8039282E-01
        2   -1    0    0  501    0  0.00000000000E+00  0.00000000000E+00  0.26654356398E+04  0.26654356398E+04  0.25500000920E-02 0.  1.
       -2   -1    0    0    0  501  0.00000000000E+00  0.00000000000E+00 -0.13774181838E+04  0.13774181838E+04  0.25500000920E-02 0. -1.
    10030    2    1    2    0    0  0.00000000000E+00  0.00000000000E+00  0.12880174560E+04  0.40428538236E+04  0.38321897229E+04 0.  0.
        4    1    3    3  502    0 -0.51742099274E+03 -0.14644433958E+01  0.25903371198E+04  0.26415099158E+04  0.12699999809E+01 0.  1.
       -4    1    3    3    0  502  0.51742099274E+03  0.14644433958E+01 -0.13023196638E+04  0.14013439078E+04  0.12699999809E+01 0. -1.
</event>
<event>
 5   0  0.7858367E-08  0.3798879E+04  0.7818609E-02  0.8046395E-01
        2   -1    0    0  501    0  0.00000000000E+00  0.00000000000E+00  0.25459170738E+04  0.25459170738E+04  0.25500000920E-02 0.  1.
       -2   -1    0    0    0  501  0.00000000000E+00  0.00000000000E+00 -0.14171204471E+04  0.14171204471E+04  0.25500000920E-02 0. -1.
    10030    2    1    2    0    0  0.00000000000E+00  0.00000000000E+00  0.11287966267E+04  0.39630375210E+04  0.37988793832E+04 0.  0.
        2    1    3    3  502    0  0.39403295601E+03  0.18159499993E+04  0.15377166728E+03  0.18645594911E+04  0.25500000920E-02 0. -1.
       -2    1    3    3    0  502 -0.39403295601E+03 -0.18159499993E+04  0.97502495942E+03  0.20984780299E+04  0.25500000920E-02 0.  1.
</event>
<event>
 5   0  0.1150235E-07  0.3690003E+04  0.7818609E-02  0.8070181E-01
       -2   -1    0    0    0  501  0.00000000000E+00  0.00000000000E+00  0.13987251532E+04  0.13987251532E+04  0.25500000920E-02 0. -1.
        2   -1    0    0  501    0  0.00000000000E+00  0.00000000000E+00 -0.24336668797E+04  0.24336668797E+04  0.25500000920E-02 0.  1.
    10030    2    1    2    0    0  0.00000000000E+00  0.00000000000E+00 -0.10349417265E+04  0.38323920329E+04  0.36900032950E+04 0.  0.
        4    1    3    3  502    0 -0.13983027224E+04  0.11742623277E+04 -0.79203335913E+03  0.19903419235E+04  0.12699999809E+01 0.  1.
       -4    1    3    3    0  502  0.13983027224E+04 -0.11742623277E+04 -0.24290836733E+03  0.18420501094E+04  0.12699999809E+01 0. -1.
</event>
<event>
 5   0  0.1193861E-07  0.3801022E+04  0.7818609E-02  0.8045936E-01
       -2   -1    0    0    0  501  0.00000000000E+00  0.00000000000E+00  0.25951876071E+04  0.25951876071E+04  0.25500000920E-02 0.  1.
        2   -1    0    0  501    0  0.00000000000E+00  0.00000000000E+00 -0.13917845836E+04  0.13917845836E+04  0.25500000920E-02 0. -1.
    10030    2    1    2    0    0  0.00000000000E+00  0.00000000000E+00  0.12034030235E+04  0.39869721907E+04  0.38010220221E+04 0.  0.
        3    1    3    3  502    0 -0.39045497176E+03  0.76846862085E+03 -0.11749562581E+04  0.14572307041E+04  0.10100000352E+00 0. -1.
       -3    1    3    3    0  502  0.39045497176E+03 -0.76846862085E+03  0.23783592817E+04  0.25297414866E+04  0.10100000352E+00 0.  1.
</event>
<event>
 5   0  0.1174870E-07  0.3829422E+04  0.7818609E-02  0.8039870E-01
        2   -1    0    0  501    0  0.00000000000E+00  0.00000000000E+00  0.27980512305E+04  0.27980512305E+04  0.25500000920E-02 0.  1.
       -2   -1    0    0    0  501  0.00000000000E+00  0.00000000000E+00 -0.13102397807E+04  0.13102397807E+04  0.25500000920E-02 0. -1.
    10030    2    1    2    0    0  0.00000000000E+00  0.00000000000E+00  0.14878114499E+04  0.41082910112E+04  0.38294219045E+04 0.  0.
        5    1    3    3  502    0  0.17707220808E+03 -0.15737159263E+04 -0.41064277095E+03  0.16360274933E+04  0.46999998093E+01 0. -1.
       -5    1    3    3    0  502 -0.17707220808E+03  0.15737159263E+04  0.18984542208E+04  0.24722635179E+04  0.46999998093E+01 0.  1.
</event>
<event>
 5   0  0.1143283E-07  0.3807348E+04  0.7818609E-02  0.8044580E-01
        2   -1    0    0  501    0  0.00000000000E+00  0.00000000000E+00  0.27113191426E+04  0.27113191427E+04  0.25500000920E-02 0. -1.
       -2   -1    0    0    0  501  0.00000000000E+00  0.00000000000E+00 -0.13366093415E+04  0.13366093415E+04  0.25500000920E-02 0.  1.
    10030    2    1    2    0    0  0.00000000000E+00  0.00000000000E+00  0.13747098011E+04  0.40479284842E+04  0.38073478926E+04 0.  0.
        1    1    3    3  502    0  0.13805694025E+04  0.10219553222E+04 -0.18524370011E+03  0.17276225815E+04  0.50400001928E-02 0.  1.
       -1    1    3    3    0  502 -0.13805694025E+04 -0.10219553222E+04  0.15599535013E+04  0.23203059026E+04  0.50400001928E-02 0. -1.
</event>
<event>
 5   0  0.7858367E-08  0.3819785E+04  0.7818609E-02  0.8041922E-01
        2   -1    0    0  501    0  0.00000000000E+00  0.00000000000E+00  0.13410118344E+04  0.13410118344E+04  0.25500000920E-02 0. -1.
       -2   -1    0    0    0  501  0.00000000000E+00  0.00000000000E+00 -0.27201028876E+04  0.27201028876E+04  0.25500000920E-02 0.  1.
    10030    2    1    2    0    0  0.00000000000E+00  0.00000000000E+00 -0.13790910532E+04  0.40611147220E+04  0.38197854196E+04 0.  0.
        2    1    3    3  502    0 -0.63866671923E+03  0.35797200156E+03 -0.25649793057E+04  0.26674253449E+04  0.25500000920E-02 0.  1.
       -2    1    3    3    0  502  0.63866671923E+03 -0.35797200156E+03  0.11858882525E+04  0.13936893770E+04  0.25500000920E-02 0. -1.
</event>
<event>
 5   0  0.3701250E-08  0.3798273E+04  0.7818609E-02  0.8046525E-01
        1   -1    0    0  501    0  0.00000000000E+00  0.00000000000E+00  0.26917124410E+04  0.26917124410E+04  0.50400001928E-02 0.  1.
       -1   -1    0    0    0  501  0.00000000000E+00  0.00000000000E+00 -0.13399352503E+04  0.13399352503E+04  0.50400001928E-02 0. -1.
    10030    2    1    2    0    0  0.00000000000E+00  0.00000000000E+00  0.13517771907E+04  0.40316476913E+04  0.37982734937E+04 0.  0.
        4    1    3    3  502    0  0.60189412106E+02  0.15754911615E+04 -0.44789929661E+03  0.16390273208E+04  0.12699999809E+01 0. -1.
       -4    1    3    3    0  502 -0.60189412106E+02 -0.15754911615E+04  0.17996764873E+04  0.23926203705E+04  0.12699999809E+01 0.  1.
</event>
<event>
 5   0  0.1174870E-07  0.3778481E+04  0.7818609E-02  0.8050789E-01
       -2   -1    0    0    0  501  0.00000000000E+00  0.00000000000E+00  0.21227951010E+04  0.21227951010E+04  0.25500000920E-02 0.  1.
        2   -1    0    0  501    0  0.00000000000E+00  0.00000000000E+00 -0.16813816805E+04  0.16813816805E+04  0.25500000920E-02 0. -1.
    10030    2    1    2    0    0  0.00000000000E+00  0.00000000000E+00  0.44141342050E+03  0.38041767816E+04  0.37784805382E+04 0.  0.
        5    1    3    3  502    0  0.30687412603E+03 -0.68474015431E+03  0.19663277699E+04  0.21046395883E+04  0.46999998093E+01 0.  1.
       -5    1    3    3    0  502 -0.30687412603E+03  0.68474015431E+03 -0.15249143494E+04  0.16995371932E+04  0.46999998093E+01 0. -1.
</event>
<event>
 5   0  0.3701250E-08  0.3814737E+04  0.7818609E-02  0.8043000E-01
        1   -1    0    0  501    0  0.00000000000E+00  0.00000000000E+00  0.19771345432E+04  0.19771345432E+04  0.50400001928E-02 0. -1.
       -1   -1    0    0    0  501  0.00000000000E+00  0.00000000000E+00 -0.18400647335E+04  0.18400647336E+04  0.50400001928E-02 0.  1.
    10030    2    1    2    0    0  0.00000000000E+00  0.00000000000E+00  0.13706980970E+03  0.38171992768E+04  0.38147374990E+04 0.  0.
        3    1    3    3  502    0  0.79153712241E+02  0.15956036257E+04  0.11112434955E+04  0.19460417151E+04  0.10100000352E+00 0. -1.
       -3    1    3    3    0  502 -0.79153712241E+02 -0.15956036257E+04 -0.97417368582E+03  0.18711575617E+04  0.10100000352E+00 0.  1.
</event>
<event>
 5   0  0.3889225E-08  0.3796686E+04  0.7818609E-02  0.8046866E-01
        1   -1    0    0  501    0  0.00000000000E+00  0.00000000000E+00  0.25990202656E+04  0.25990202656E+04  0.50400001928E-02 0. -1.
       -1   -1    0    0    0  501  0.00000000000E+00  0.00000000000E+00 -0.13865634412E+04  0.13865634413E+04  0.50400001928E-02 0.  1.
    10030    2    1    2    0    0  0.00000000000E+00  0.00000000000E+00  0.12124568244E+04  0.39855837069E+04  0.37966861779E+04 0.  0.
        5    1    3    3  502    0 -0.41944260835E+03 -0.16717256115E+04 -0.22902548387E+03  0.17386987617E+04  0.46999998093E+01 0.  1.
       -5    1    3    3    0  502  0.41944260835E+03  0.16717256115E+04  0.14414823082E+04  0.22468849451E+04  0.46999998093E+01 0. -1.
</event>
<event>
 5   0  0.3701250E-08  0.3803657E+04  0.7818609E-02  0.8045370E-01
        1   -1    0    0  501    0  0.00000000000E+00  0.00000000000E+00  0.15075185971E+04  0.15075185971E+04  0.50400001928E-02 0.  1.
       -1   -1    0    0    0  501  0.00000000000E+00  0.00000000000E+00 -0.23992753237E+04  0.23992753237E+04  0.50400001928E-02 0. -1.
    10030    2    1    2    0    0  0.00000000000E+00  0.00000000000E+00 -0.89175672657E+03  0.39067939208E+04  0.38036572769E+04 0.  0.
        1    1    3    3  502    0  0.70633654570E+03 -0.98506486353E+03  0.10593580886E+04  0.16098147909E+04  0.50400001928E-02 0.  1.
       -1    1    3    3    0  502 -0.70633654570E+03  0.98506486353E+03 -0.19511148151E+04  0.22969791299E+04  0.50400001928E-02 0. -1.
</event>
<event>
 5   0  0.7858367E-08  0.3796795E+04  0.7818609E-02  0.8046843E-01
       -2   -1    0    0    0  501  0.00000000000E+00  0.00000000000E+00  0.14643563602E+04  0.14643563602E+04  0.25500000920E-02 0.  1.
        2   -1    0    0  501    0  0.00000000000E+00  0.00000000000E+00 -0.24610908022E+04  0.24610908022E+04  0.25500000920E-02 0. -1.
    10030    2    1    2    0    0  0.00000000000E+00  0.00000000000E+00 -0.99673444202E+03  0.39254471624E+04  0.37967954747E+04 0.  0.
        2    1    3    3  502    0 -0.15879108694E+03  0.13664601994E+04  0.85419917527E+03  0.16192851252E+04  0.25500000920E-02 0.  1.
       -2    1    3    3    0  502  0.15879108694E+03 -0.13664601994E+04 -0.18509336173E+04  0.23061620371E+04  0.25500000920E-02 0. -1.
</event>
<event>
 5   0  0.3701250E-08  0.3808166E+04  0.7818609E-02  0.8044405E-01
       -1   -1    0    0    0  501  0.00000000000E+00  0.00000000000E+00  0.29602490827E+04  0.29602490828E+04  0.50400001928E-02 0. -1.
        1   -1    0    0  501    0  0.00000000000E+00  0.00000000000E+00 -0.12247385599E+04  0.12247385599E+04  0.50400001928E-02 0.  1.
    10030    2    1    2    0    0  0.00000000000E+00  0.00000000000E+00  0.17355105229E+04  0.41849876426E+04  0.38081655418E+04 0.  0.
        1    1    3    3  502    0  0.93710475593E+03  0.14844516517E+04  0.16781295454E+04  0.24285552909E+04  0.50400001928E-02 0. -1.
       -1    1    3    3    0  502 -0.93710475593E+03 -0.14844516517E+04  0.57380977452E+02  0.17564323518E+04  0.50400001928E-02 0.  1.
</event>
<event>
 5   0  0.1193861E-07  0.3767750E+04  0.7818609E-02  0.8053111E-01
        2   -1    0    0  501    0  0.00000000000E+00  0.00000000000E+00  0.29616815489E+04  0.29616815489E+04  0.25500000920E-02 0.  1.
       -2   -1    0    0    0  501  0.00000000000E+00  0.00000000000E+00 -0.11983004144E+04  0.11983004144E+04  0.25500000920E-02 0. -1.
    10030    2    1    2    0    0  0.00000000000E+00  0.00000000000E+00  0.17633811345E+04  0.41599819634E+04  0.37677495816E+04 0.  0.
        3    1    3    3  502    0  0.68266282820E+03  0.45811038717E+03 -0.98978462436E+03  0.12866884925E+04  0.10100000352E+00 0. -1.
       -3    1    3    3    0  502 -0.68266282820E+03 -0.45811038717E+03  0.27531657589E+04  0.28732934709E+04  0.10100000352E+00 0.  1.
</event>
<event>
 5   0  0.1174870E-07  0.3793212E+04  0.7818609E-02  0.8047613E-01
       -2   -1    0    0    0  501  0.00000000000E+00  0.00000000000E+00  0.15892940051E+04  0.15892940051E+04  0.25500000920E-02 0.  1.
        2   -1    0    0  501    0  0.00000000000E+00  0.00000000000E+00 -0.22633415087E+04  0.22633415087E+04  0.25500000920E-02 0. -1.
    10030    2    1    2    0    0  0.00000000000E+00  0.00000000000E+00 -0.67404750359E+03  0.38526355139E+04  0.37932124071E+04 0.  0.
        5    1    3    3  502    0  0.13241092464E+04 -0.34156565077E+03 -0.16718265973E+04  0.21598515347E+04  0.46999998093E+01 0. -1.
       -5    1    3    3    0  502 -0.13241092464E+04  0.34156565077E+03  0.99777909375E+03  0.16927839792E+04  0.46999998093E+01 0.  1.
</event>
<event>
 5   0  0.1174870E-07  0.3700702E+04  0.7818609E-02  0.8067806E-01
        2   -1    0    0  501    0  0.00000000000E+00  0.00000000000E+00  0.23250062478E+04  0.23250062478E+04  0.25500000920E-02 0. -1.
       -2   -1    0    0    0  501  0.00000000000E+00  0.00000000000E+00 -0.14725975386E+04  0.14725975386E+04  0.25500000920E-02 0.  1.
    10030    2    1    2    0    0  0.00000000000E+00  0.00000000000E+00  0.85240870920E+03  0.37976037864E+04  0.37007018133E+04 0.  0.
        5    1    3    3  502    0 -0.16870097585E+04 -0.60893760503E+03 -0.40647069199E+02  0.17940125992E+04  0.46999998093E+01 0. -1.
       -5    1    3    3    0  502  0.16870097585E+04  0.60893760503E+03  0.89305577839E+03  0.20035911872E+04  0.46999998093E+01 0.  1.
</event>
<event>
 5   0  0.7858367E-08  0.3806586E+04  0.7818609E-02  0.8044743E-01
       -2   -1    0    0    0  501  0.00000000000E+00  0.00000000000E+00  0.15420020092E+04  0.15420020092E+04  0.25500000920E-02 0. -1.
        2   -1    0    0  501    0  0.00000000000E+00  0.00000000000E+00 -0.23492341804E+04  0.23492341804E+04  0.25500000920E-02 0.  1.
    10030    2    1    2    0    0  0.00000000000E+00  0.00000000000E+00 -0.80723217120E+03  0.38912361896E+04  0.38065857806E+04 0.  0.
        2    1    3    3  502    0  0.11193482332E+04  0.13054344632E+04 -0.12374917006E+04  0.21186045676E+04  0.25500000920E-02 0.  1.
       -2    1    3    3    0  502 -0.11193482332E+04 -0.13054344632E+04  0.43025952940E+03  0.17726316220E+04  0.25500000920E-02 0. -1.
</event>
<event>
 5   0  0.3701250E-08  0.3792891E+04  0.7818609E-02  0.8047682E-01
       -1   -1    0    0    0  501  0.00000000000E+00  0.00000000000E+00  0.23741372673E+04  0.23741372673E+04  0.50400001928E-02 0. -1.
        1   -1    0    0  501    0  0.00000000000E+00  0.00000000000E+00 -0.15148686762E+04  0.15148686762E+04  0.50400001928E-02 0.  1.
    10030    2    1    2    0    0  0.00000000000E+00  0.00000000000E+00  0.85926859118E+03  0.38890059435E+04  0.37928913400E+04 0.  0.
        4    1    3    3  502    0  0.11603851633E+04  0.67339934751E+03 -0.94468344912E+03  0.16408500359E+04  0.12699999809E+01 0. -1.
       -4    1    3    3    0  502 -0.11603851633E+04 -0.67339934751E+03  0.18039520403E+04  0.22481559076E+04  0.12699999809E+01 0.  1.
</event>
<event>
 5   0  0.1150235E-07  0.3798058E+04  0.7818609E-02  0.8046572E-01
       -2   -1    0    0    0  501  0.00000000000E+00  0.00000000000E+00  0.18313670467E+04  0.18313670467E+04  0.25500000920E-02 0. -1.
        2   -1    0    0  501    0  0.00000000000E+00  0.00000000000E+00 -0.19691904006E+04  0.19691904006E+04  0.25500000920E-02 0.  1.
    10030    2    1    2    0    0  0.00000000000E+00  0.00000000000E+00 -0.13782335398E+03  0.38005574473E+04  0.37980576132E+04 0.  0.
        4    1    3    3  502    0  0.67309610966E+03 -0.74013080250E+03  0.15462934817E+04  0.18417049498E+04  0.12699999809E+01 0. -1.
       -4    1    3    3    0  502 -0.67309610966E+03  0.74013080250E+03 -0.16841168357E+04  0.19588524975E+04  0.12699999809E+01 0.  1.
</event>
<event>
 5   0  0.1193861E-07  0.3801662E+04  0.7818609E-02  0.8045798E-01
       -2   -1    0    0    0  501  0.00000000000E+00  0.00000000000E+00  0.15159426167E+04  0.15159426167E+04  0.25500000920E-02 0. -1.
        2   -1    0    0  501    0  0.00000000000E+00  0.00000000000E+00 -0.23834404175E+04  0.23834404175E+04  0.25500000920E-02 0.  1.
    10030    2    1    2    0    0  0.00000000000E+00  0.00000000000E+00 -0.86749780076E+03  0.38993830342E+04  0.38016622171E+04 0.  0.
        3    1    3    3  502    0 -0.16687524154E+04 -0.66467205002E+03  0.20403439804E+03  0.18078035302E+04  0.10100000352E+00 0. -1.
       -3    1    3    3    0  502  0.16687524154E+04  0.66467205002E+03 -0.10715321988E+04  0.20915795040E+04  0.10100000352E+00 0.  1.
</event>
<event>
 5   0  0.1150235E-07  0.3798446E+04  0.7818609E-02  0.8046489E-01
        2   -1    0    0  501    0  0.00000000000E+00  0.00000000000E+00  0.24554036660E+04  0.24554036660E+04  0.25500000920E-02 0. -1.
       -2   -1    0    0    0  501  0.00000000000E+00  0.00000000000E+00 -0.14690241121E+04  0.14690241121E+04  0.25500000920E-02 0.  1.
    10030    2    1    2    0    0  0.00000000000E+00  0.00000000000E+00  0.98637955394E+03  0.39244277781E+04  0.37984455717E+04 0.  0.
        4    1    3    3  502    0 -0.33366893698E+03  0.93987031136E+03  0.21630744625E+04  0.23819286104E+04  0.12699999809E+01 0. -1.
       -4    1    3    3    0  502  0.33366893698E+03 -0.93987031136E+03 -0.11766949086E+04  0.15424991677E+04  0.12699999809E+01 0.  1.
</event>
<event>
 5   0  0.1193861E-07  0.3823706E+04  0.7818609E-02  0.8041087E-01
       -2   -1    0    0    0  501  0.00000000000E+00  0.00000000000E+00  0.15205534968E+04  0.15205534968E+04  0.25500000920E-02 0.  1.
        2   -1    0    0  501    0  0.00000000000E+00  0.00000000000E+00 -0.24038490992E+04  0.24038490992E+04  0.25500000920E-02 0. -1.
    10030    2    1    2    0    0  0.00000000000E+00  0.00000000000E+00 -0.88329560240E+03  0.39244025960E+04  0.38237056129E+04 0.  0.
        3    1    3    3  502    0  0.50386171258E+03 -0.10650379643E+04 -0.19869546762E+04  0.23100154515E+04  0.10100000352E+00 0. -1.
       -3    1    3    3    0  502 -0.50386171258E+03  0.10650379643E+04  0.11036590738E+04  0.16143871445E+04  0.10100000352E+00 0.  1.
</event>
<event>
 5   0  0.1193861E-07  0.3786646E+04  0.7818609E-02  0.8049027E-01
       -2   -1    0    0    0  501  0.00000000000E+00  0.00000000000E+00  0.14701817252E+04  0.14701817252E+04  0.25500000920E-02 0.  1.
        2   -1    0    0  501    0  0.00000000000E+00  0.00000000000E+00 -0.24382512666E+04  0.24382512666E+04  0.25500000920E-02 0. -1.
    10030    2    1    2    0    0  0.00000000000E+00  0.00000000000E+00 -0.96806954137E+03  0.39084329918E+04  0.37866462490E+04 0.  0.
        3    1    3    3  502    0  0.17556198783E+04 -0.49415443420E+03 -0.10085952638E+04  0.20841435120E+04  0.10100000352E+00 0. -1.
       -3    1    3    3    0  502 -0.17556198783E+04  0.49415443420E+03  0.40525722473E+02  0.18242894799E+04  0.10100000352E+00 0.  1.
</event>
<event>
 5   0  0.3701250E-08  0.3790425E+04  0.7818609E-02  0.8048213E-01
        1   -1    0    0  501    0  0.00000000000E+00  0.00000000000E+00  0.21764838039E+04  0.21764838039E+04  0.50400001928E-02 0. -1.
       -1   -1    0    0    0  501  0.00000000000E+00  0.00000000000E+00 -0.16502902513E+04  0.16502902513E+04  0.50400001928E-02 0.  1.
    10030    2    1    2    0    0  0.00000000000E+00  0.00000000000E+00  0.52619355260E+03  0.38267740553E+04  0.37904247803E+04 0.  0.
        4    1    3    3  502    0  0.40966660694E+03 -0.15169143018E+03 -0.15987661459E+04  0.16573749790E+04  0.12699999809E+01 0.  1.
       -4    1    3    3    0  502 -0.40966660694E+03  0.15169143018E+03  0.21249596985E+04  0.21693990762E+04  0.12699999809E+01 0. -1.
</event>
<event>
 5   0  0.3701250E-08  0.3800076E+04  0.7818609E-02  0.8046139E-01
        1   -1    0    0  501    0  0.00000000000E+00  0.00000000000E+00  0.14407400989E+04  0.14407400989E+04  0.50400001928E-02 0.  1.
       -1   -1    0    0    0  501  0.00000000000E+00  0.00000000000E+00 -0.25057567760E+04  0.25057567760E+04  0.50400001928E-02 0. -1.
    10030    2    1    2    0    0  0.00000000000E+00  0.00000000000E+00 -0.10650166771E+04  0.39464968749E+04  0.38000759284E+04 0.  0.
        3    1    3    3  502    0 -0.14290349427E+04  0.17680912552E+03 -0.18199274691E+04  0.23206762672E+04  0.10100000352E+00 0. -1.
       -3    1    3    3    0  502  0.14290349427E+04 -0.17680912552E+03  0.75491079205E+03  0.16258206077E+04  0.10100000352E+00 0.  1.
</event>
<event>
 5   0  0.3889225E-08  0.3796377E+04  0.7818609E-02  0.8046933E-01
        1   -1    0    0  501    0  0.00000000000E+00  0.00000000000E+00  0.16034971848E+04  0.16034971848E+04  0.50400001928E-02 0.  1.
       -1   -1    0    0    0  501  0.00000000000E+00  0.00000000000E+00 -0.22470385307E+04  0.22470385307E+04  0.50400001928E-02 0. -1.
    10030    2    1    2    0    0  0.00000000000E+00  0.00000000000E+00 -0.64354134594E+03  0.38505357156E+04  0.37963771984E+04 0.  0.
        5    1    3    3  502    0 -0.17210782432E+04 -0.72613796910E+03  0.20250836245E+02  0.18681056864E+04  0.46999998093E+01 0.  1.
       -5    1    3    3    0  502  0.17210782432E+04  0.72613796910E+03 -0.66379218218E+03  0.19824300291E+04  0.46999998093E+01 0. -1.
</event>
<event>
 5   0  0.1143283E-07  0.3801026E+04  0.7818609E-02  0.8045935E-01
        2   -1    0    0  501    0  0.00000000000E+00  0.00000000000E+00  0.17982814449E+04  0.17982814450E+04  0.25500000920E-02 0. -1.
       -2   -1    0    0    0  501  0.00000000000E+00  0.00000000000E+00 -0.20085563605E+04  0.20085563605E+04  0.25500000920E-02 0.  1.
    10030    2    1    2    0    0  0.00000000000E+00  0.00000000000E+00 -0.21027491552E+03  0.38068378054E+04  0.38010259847E+04 0.  0.
        1    1    3    3  502    0 -0.93868282062E+03  0.11995126290E+04 -0.12435344104E+04  0.19662995231E+04  0.50400001928E-02 0.  1.
       -1    1    3    3    0  502  0.93868282062E+03 -0.11995126290E+04  0.10332594949E+04  0.18405382823E+04  0.50400001928E-02 0. -1.
</event>
<event>
 5   0  0.1174870E-07  0.3790382E+04  0.7818609E-02  0.8048222E-01
        2   -1    0    0  501    0  0.00000000000E+00  0.00000000000E+00  0.24065720435E+04  0.24065720435E+04  0.25500000920E-02 0.  1.
       -2   -1    0    0    0  501  0.00000000000E+00  0.00000000000E+00 -0.14924747451E+04  0.14924747451E+04  0.25500000920E-02 0. -1.
    10030    2    1    2    0    0  0.00000000000E+00  0.00000000000E+00  0.91409729838E+03  0.38990467885E+04  0.37903815096E+04 0.  0.
        5    1    3    3  502    0  0.61922142187E+02  0.22092132778E+03  0.23922271854E+04  0.24032090174E+04  0.46999998093E+01 0.  1.
       -5    1    3    3    0  502 -0.61922142187E+02 -0.22092132778E+03 -0.14781298870E+04  0.14958377711E+04  0.46999998093E+01 0. -1.
</event>
<event>
 5   0  0.3889225E-08  0.3778014E+04  0.7818609E-02  0.8050890E-01
        1   -1    0    0  501    0  0.00000000000E+00  0.00000000000E+00  0.23728582063E+04  0.23728582063E+04  0.50400001928E-02 0.  1.
       -1   -1    0    0    0  501  0.00000000000E+00  0.00000000000E+00 -0.15038183176E+04  0.15038183176E+04  0.50400001928E-02 0. -1.
    10030    2    1    2    0    0  0.00000000000E+00  0.00000000000E+00  0.86903988875E+03  0.38766765239E+04  0.37780141004E+04 0.  0.
        5    1    3    3  502    0 -0.18150220751E+04 -0.51463331230E+03  0.53279671768E+03  0.19603691009E+04  0.46999998093E+01 0. -1.
       -5    1    3    3    0  502  0.18150220751E+04  0.51463331230E+03  0.33624317107E+03  0.19163074230E+04  0.46999998093E+01 0.  1.
</event>
<event>
 5   0  0.3701250E-08  0.3786924E+04  0.7818609E-02  0.8048967E-01
       -1   -1    0    0    0  501  0.00000000000E+00  0.00000000000E+00  0.17710682803E+04  0.17710682803E+04  0.50400001928E-02 0. -1.
        1   -1    0    0  501    0  0.00000000000E+00  0.00000000000E+00 -0.20243143041E+04  0.20243143041E+04  0.50400001928E-02 0.  1.
    10030    2    1    2    0    0  0.00000000000E+00  0.00000000000E+00 -0.25324602385E+03  0.37953825844E+04  0.37869242683E+04 0.  0.
        1    1    3    3  502    0 -0.36074787377E+03  0.17226758696E+04 -0.82635695458E+03  0.19443808775E+04  0.50400001928E-02 0. -1.
       -1    1    3    3    0  502  0.36074787377E+03 -0.17226758696E+04  0.57311093074E+03  0.18510017070E+04  0.50400001928E-02 0.  1.
</event>
<event>
 5   0  0.7858367E-08  0.3926901E+04  0.7818609E-02  0.8019457E-01
       -2   -1    0    0    0  501  0.00000000000E+00  0.00000000000E+00  0.17784935503E+04  0.17784935503E+04  0.25500000920E-02 0.  1.
        2   -1    0    0  501    0  0.00000000000E+00  0.00000000000E+00 -0.21676421562E+04  0.21676421562E+04  0.25500000920E-02 0. -1.
    10030    2    1    2    0    0  0.00000000000E+00  0.00000000000E+00 -0.38914860591E+03  0.39461357065E+04  0.39269008616E+04 0.  0.
        2    1    3    3  502    0 -0.38377390217E+03 -0.30615298610E+03 -0.21049716044E+04  0.21614618929E+04  0.25500000920E-02 0. -1.
       -2    1    3    3    0  502  0.38377390217E+03  0.30615298610E+03  0.17158229985E+04  0.17846738136E+04  0.25500000920E-02 0.  1.
</event>
<event>
 5   0  0.3701250E-08  0.3783724E+04  0.7818609E-02  0.8049657E-01
        1   -1    0    0  501    0  0.00000000000E+00  0.00000000000E+00  0.21039871358E+04  0.21039871358E+04  0.50400001928E-02 0.  1.
       -1   -1    0    0    0  501  0.00000000000E+00  0.00000000000E+00 -0.17011237544E+04  0.17011237544E+04  0.50400001928E-02 0. -1.
    10030    2    1    2    0    0  0.00000000000E+00  0.00000000000E+00  0.40286338133E+03  0.38051108902E+04  0.37837243534E+04 0.  0.
        4    1    3    3  502    0 -0.14529683215E+04 -0.10669087019E+04 -0.37603495090E+03  0.18414165794E+04  0.12699999809E+01 0. -1.
       -4    1    3    3    0  502  0.14529683215E+04  0.10669087019E+04  0.77889833224E+03  0.19636943108E+04  0.12699999809E+01 0.  1.
</event>
<event>
 5   0  0.7858367E-08  0.3806537E+04  0.7818609E-02  0.8044753E-01
       -2   -1    0    0    0  501  0.00000000000E+00  0.00000000000E+00  0.12909463128E+04  0.12909463128E+04  0.25500000920E-02 0.  1.
        2   -1    0    0  501    0  0.00000000000E+00  0.00000000000E+00 -0.28060277312E+04  0.28060277312E+04  0.25500000920E-02 0. -1.
    10030    2    1    2    0    0  0.00000000000E+00  0.00000000000E+00 -0.15150814185E+04  0.40969740440E+04  0.38065370894E+04 0.  0.
        2    1    3    3  502    0 -0.14530976591E+04  0.11722656857E+04 -0.11555263923E+04  0.21956641110E+04  0.25500000920E-02 0. -1.
       -2    1    3    3    0  502  0.14530976591E+04 -0.11722656857E+04 -0.35955502611E+03  0.19013099331E+04  0.25500000920E-02 0.  1.
</event>
<event>
 5   0  0.1143283E-07  0.3800783E+04  0.7818609E-02  0.8045987E-01
        2   -1    0    0  501    0  0.00000000000E+00  0.00000000000E+00  0.24579915025E+04  0.24579915025E+04  0.25500000920E-02 0.  1.
       -2   -1    0    0    0  501  0.00000000000E+00  0.00000000000E+00 -0.14692837321E+04  0.14692837321E+04  0.25500000920E-02 0. -1.
    10030    2    1    2    0    0  0.00000000000E+00  0.00000000000E+00  0.98870777034E+03  0.39272752346E+04  0.38007825133E+04 0.  0.
        1    1    3    3  502    0  0.10746980821E+04  0.13080141088E+04 -0.39787072213E+03  0.17390163852E+04  0.50400001928E-02 0. -1.
       -1    1    3    3    0  502 -0.10746980821E+04 -0.13080141088E+04  0.13865784925E+04  0.21882588494E+04  0.50400001928E-02 0.  1.
</event>
<event>
 5   0  0.1174870E-07  0.3787467E+04  0.7818609E-02  0.8048850E-01
        2   -1    0    0  501    0  0.00000000000E+00  0.00000000000E+00  0.20085137281E+04  0.20085137281E+04  0.25500000920E-02 0.  1.
       -2   -1    0    0    0  501  0.00000000000E+00  0.00000000000E+00 -0.17855125748E+04  0.17855125748E+04  0.25500000920E-02 0. -1.
    10030    2    1    2    0    0  0.00000000000E+00  0.00000000000E+00  0.22300115322E+03  0.37940263029E+04  0.37874669731E+04 0.  0.
        5    1    3    3  502    0  0.13125226748E+04 -0.23001876727E+03  0.14594088689E+04  0.19762390396E+04  0.46999998093E+01 0.  1.
       -5    1    3    3    0  502 -0.13125226748E+04  0.23001876727E+03 -0.12364077157E+04  0.18177872633E+04  0.46999998093E+01 0. -1.
</event>
<event>
 5   0  0.3701250E-08  0.3847671E+04  0.7818609E-02  0.8036002E-01
       -1   -1    0    0    0  501  0.00000000000E+00  0.00000000000E+00  0.13622589700E+04  0.13622589700E+04  0.50400001928E-02 0. -1.
        1   -1    0    0  501    0  0.00000000000E+00  0.00000000000E+00 -0.27169156057E+04  0.27169156057E+04  0.50400001928E-02 0.  1.
    10030    2    1    2    0    0  0.00000000000E+00  0.00000000000E+00 -0.13546566357E+04  0.40791745758E+04  0.38476708044E+04 0.  0.
        1    1    3    3  502    0 -0.18812412711E+04  0.82786240181E+02 -0.10950131897E+04  0.21782966205E+04  0.50400001928E-02 0.  1.
       -1    1    3    3    0  502  0.18812412711E+04 -0.82786240181E+02 -0.25964344604E+03  0.19008779552E+04  0.50400001928E-02 0. -1.
</event>
<event>
 5   0  0.3889225E-08  0.3826965E+04  0.7818609E-02  0.8040393E-01
       -1   -1    0    0    0  501  0.00000000000E+00  0.00000000000E+00  0.12709461340E+04  0.12709461340E+04  0.50400001928E-02 0.  1.
        1   -1    0    0  501    0  0.00000000000E+00  0.00000000000E+00 -0.28808583563E+04  0.28808583563E+04  0.50400001928E-02 0. -1.
    10030    2    1    2    0    0  0.00000000000E+00  0.00000000000E+00 -0.16099122222E+04  0.41518044903E+04  0.38269652680E+04 0.  0.
        5    1    3    3  502    0 -0.12942365573E+04  0.14046919017E+04 -0.68037836097E+03  0.20275957213E+04  0.46999998093E+01 0.  1.
       -5    1    3    3    0  502  0.12942365573E+04 -0.14046919017E+04 -0.92953386128E+03  0.21242087690E+04  0.46999998093E+01 0. -1.
</event>
<event>
 5   0  0.1150235E-07  0.3803108E+04  0.7818609E-02  0.8045488E-01
        2   -1    0    0  501    0  0.00000000000E+00  0.00000000000E+00  0.18013904851E+04  0.18013904851E+04  0.25500000920E-02 0.  1.
       -2   -1    0    0    0  501  0.00000000000E+00  0.00000000000E+00 -0.20072866657E+04  0.20072866657E+04  0.25500000920E-02 0. -1.
    10030    2    1    2    0    0  0.00000000000E+00  0.00000000000E+00 -0.20589618062E+03  0.38086771509E+04  0.38031077295E+04 0.  0.
        4    1    3    3  502    0 -0.14122819639E+04 -0.80502916331E+03 -0.10909490689E+04  0.19577496733E+04  0.12699999809E+01 0. -1.
       -4    1    3    3    0  502  0.14122819639E+04  0.80502916331E+03  0.88505288829E+03  0.18509274776E+04  0.12699999809E+01 0.  1.
</event>
<event>
 5   0  0.3701250E-08  0.3813166E+04  0.7818609E-02  0.8043335E-01
        1   -1    0    0  501    0  0.00000000000E+00  0.00000000000E+00  0.26400855095E+04  0.26400855095E+04  0.50400001928E-02 0. -1.
       -1   -1    0    0    0  501  0.00000000000E+00  0.00000000000E+00 -0.13768712478E+04  0.13768712478E+04  0.50400001928E-02 0.  1.
    10030    2    1    2    0    0  0.00000000000E+00  0.00000000000E+00  0.12632142617E+04  0.40169567573E+04  0.38131655247E+04 0.  0.
        2    1    3    3  502    0  0.14277548284E+04  0.12503120534E+04  0.43938966504E+03  0.19480316627E+04  0.25500000920E-02 0. -1.
       -2    1    3    3    0  502 -0.14277548284E+04 -0.12503120534E+04  0.82382459668E+03  0.20689250946E+04  0.25500000920E-02 0.  1.
</event>
<event>
 5   0  0.7858367E-08  0.3803258E+04  0.7818609E-02  0.8045456E-01
       -2   -1    0    0    0  501  0.00000000000E+00  0.00000000000E+00  0.25309670122E+04  0.25309670122E+04  0.25500000920E-02 0.  1.
        2   -1    0    0  501    0  0.00000000000E+00  0.00000000000E+00 -0.14287789789E+04  0.14287789789E+04  0.25500000920E-02 0. -1.
    10030    2    1    2    0    0  0.00000000000E+00  0.00000000000E+00  0.11021880333E+04  0.39597459911E+04  0.38032577947E+04 0.  0.
        2    1    3    3  502    0 -0.12687056927E+04 -0.90378139893E+03  0.16867343055E+04  0.22959763869E+04  0.25500000920E-02 0.  1.
       -2    1    3    3    0  502  0.12687056927E+04  0.90378139893E+03 -0.58454627211E+03  0.16637696043E+04  0.25500000920E-02 0. -1.
</event>
<event>
 5   0  0.1174870E-07  0.3802993E+04  0.7818609E-02  0.8045513E-01
       -2   -1    0    0    0  501  0.00000000000E+00  0.00000000000E+00  0.13748249397E+04  0.13748249397E+04  0.25500000920E-02 0.  1.
        2   -1    0    0  501    0  0.00000000000E+00  0.00000000000E+00 -0.26299267843E+04  0.26299267843E+04  0.25500000920E-02 0. -1.
    10030    2    1    2    0    0  0.00000000000E+00  0.00000000000E+00 -0.12551018445E+04  0.40047517240E+04  0.38029929964E+04 0.  0.
        5    1    3    3  502    0  0.13698825778E+04  0.95717682390E+03 -0.15828159777E+04  0.23017589488E+04  0.46999998093E+01 0. -1.
       -5    1    3    3    0  502 -0.13698825778E+04 -0.95717682390E+03  0.32771413319E+03  0.17029927752E+04  0.46999998093E+01 0.  1.
</event>
<event>
 5   0  0.1150235E-07  0.3692365E+04  0.7818609E-02  0.8069656E-01
       -2   -1    0    0    0  501  0.00000000000E+00  0.00000000000E+00  0.20622727656E+04  0.20622727656E+04  0.25500000920E-02 0.  1.
        2   -1    0    0  501    0  0.00000000000E+00  0.00000000000E+00 -0.16527350319E+04  0.16527350319E+04  0.25500000920E-02 0. -1.
    10030    2    1    2    0    0  0.00000000000E+00  0.00000000000E+00  0.40953773374E+03  0.37150077975E+04  0.36923653368E+04 0.  0.
        4    1    3    3  502    0  0.75570434238E+03  0.13657683443E+04 -0.78716557742E+03  0.17481543074E+04  0.12699999809E+01 0. -1.
       -4    1    3    3    0  502 -0.75570434238E+03 -0.13657683443E+04  0.11967033112E+04  0.19668534900E+04  0.12699999809E+01 0.  1.
</event>
<event>
 5   0  0.3701250E-08  0.3787701E+04  0.7818609E-02  0.8048799E-01
        1   -1    0    0  501    0  0.00000000000E+00  0.00000000000E+00  0.15422005162E+04  0.15422005162E+04  0.50400001928E-02 0.  1.
       -1   -1    0    0    0  501  0.00000000000E+00  0.00000000000E+00 -0.23256834220E+04  0.23256834220E+04  0.50400001928E-02 0. -1.
    10030    2    1    2    0    0  0.00000000000E+00  0.00000000000E+00 -0.78348290581E+03  0.38678839382E+04  0.37877012416E+04 0.  0.
        1    1    3    3  502    0  0.16337296361E+04 -0.85763821941E+03  0.43969251490E+02  0.18456839205E+04  0.50400001928E-02 0.  1.
       -1    1    3    3    0  502 -0.16337296361E+04  0.85763821941E+03 -0.82745215730E+03  0.20222000177E+04  0.50400001928E-02 0. -1.
</event>
<event>
 5   0  0.3701250E-08  0.3648279E+04  0.7818609E-02  0.8079521E-01
        1   -1    0    0  501    0  0.00000000000E+00  0.00000000000E+00  0.25028008355E+04  0.25028008355E+04  0.50400001928E-02 0. -1.
       -1   -1    0    0    0  501  0.00000000000E+00  0.00000000000E+00 -0.13295047627E+04  0.13295047627E+04  0.50400001928E-02 0.  1.
    10030    2    1    2    0    0  0.00000000000E+00  0.00000000000E+00  0.11732960727E+04  0.38323055982E+04  0.36482793923E+04 0.  0.
        4    1    3    3  502    0 -0.59637189048E+03 -0.10094699053E+04 -0.88126518285E+03  0.14667374873E+04  0.12699999809E+01 0.  1.
       -4    1    3    3    0  502  0.59637189048E+03  0.10094699053E+04  0.20545612556E+04  0.23655681109E+04  0.12699999809E+01 0. -1.
</event>
<event>
 5   0  0.3701250E-08  0.3806559E+04  0.7818609E-02  0.8044749E-01
        1   -1    0    0  501    0  0.00000000000E+00  0.00000000000E+00  0.24424792717E+04  0.24424792717E+04  0.50400001928E-02 0.  1.
       -1   -1    0    0    0  501  0.00000000000E+00  0.00000000000E+00 -0.14831132645E+04  0.14831132646E+04  0.50400001928E-02 0. -1.
    10030    2    1    2    0    0  0.00000000000E+00  0.00000000000E+00  0.95936600713E+03  0.39255925362E+04  0.38065592896E+04 0.  0.
        1    1    3    3  502    0 -0.15197333294E+04  0.58614029538E+03 -0.53564650136E+03  0.17146623612E+04  0.50400001928E-02 0. -1.
       -1    1    3    3    0  502  0.15197333294E+04 -0.58614029538E+03  0.14950125085E+04  0.22109301751E+04  0.50400001928E-02 0.  1.
</event>
<event>
 5   0  0.1143283E-07  0.3773571E+04  0.7818609E-02  0.8051850E-01
       -2   -1    0    0    0  501  0.00000000000E+00  0.00000000000E+00  0.17722192334E+04  0.17722192334E+04  0.25500000920E-02 0.  1.
        2   -1    0    0  501    0  0.00000000000E+00  0.00000000000E+00 -0.20087578518E+04  0.20087578518E+04  0.25500000920E-02 0. -1.
    10030    2    1    2    0    0  0.00000000000E+00  0.00000000000E+00 -0.23653861845E+03  0.37809770852E+04  0.37735708819E+04 0.  0.
        1    1    3    3  502    0  0.10412916280E+02 -0.15220972291E+04 -0.12353884228E+04  0.19603757188E+04  0.50400001928E-02 0. -1.
       -1    1    3    3    0  502 -0.10412916280E+02  0.15220972291E+04  0.99884980436E+03  0.18206013664E+04  0.50400001928E-02 0.  1.
</event>
<event>
 5   0  0.7858367E-08  0.3785633E+04  0.7818609E-02  0.8049245E-01
        2   -1    0    0  501    0  0.00000000000E+00  0.00000000000E+00  0.15403773682E+04  0.15403773682E+04  0.25500000920E-02 0.  1.
       -2   -1    0    0    0  501  0.00000000000E+00  0.00000000000E+00 -0.23258942012E+04  0.23258942012E+04  0.25500000920E-02 0. -1.
    10030    2    1    2    0    0  0.00000000000E+00  0.00000000000E+00 -0.78551683304E+03  0.38662715694E+04  0.37856332566E+04 0.  0.
        2    1    3    3  502    0  0.94439229655E+02  0.41058559594E+03 -0.22773995623E+04  0.23160414647E+04  0.25500000920E-02 0. -1.
       -2    1    3    3    0  502 -0.94439229655E+02 -0.41058559594E+03  0.14918827293E+04  0.15502301047E+04  0.25500000920E-02 0.  1.
</event>
<event>
 5   0  0.3701250E-08  0.3801644E+04  0.7818609E-02  0.8045802E-01
       -1   -1    0    0    0  501  0.00000000000E+00  0.00000000000E+00  0.22097904773E+04  0.22097904773E+04  0.50400001928E-02 0. -1.
        1   -1    0    0  501    0  0.00000000000E+00  0.00000000000E+00 -0.16350525989E+04  0.16350525989E+04  0.50400001928E-02 0.  1.
    10030    2    1    2    0    0  0.00000000000E+00  0.00000000000E+00  0.57473787837E+03  0.38448430762E+04  0.38016436776E+04 0.  0.
        2    1    3    3  502    0 -0.38506555309E+03  0.18220172079E+04 -0.97881486284E+02  0.18648332288E+04  0.25500000920E-02 0.  1.
       -2    1    3    3    0  502  0.38506555309E+03 -0.18220172079E+04  0.67261936466E+03  0.19800098474E+04  0.25500000920E-02 0. -1.
</event>
<event>
 5   0  0.1150235E-07  0.3801710E+04  0.7818609E-02  0.8045788E-01
        2   -1    0    0  501    0  0.00000000000E+00  0.00000000000E+00  0.27866898847E+04  0.27866898847E+04  0.25500000920E-02 0.  1.
       -2   -1    0    0    0  501  0.00000000000E+00  0.00000000000E+00 -0.12966100093E+04  0.12966100093E+04  0.25500000920E-02 0. -1.
    10030    2    1    2    0    0  0.00000000000E+00  0.00000000000E+00  0.14900798754E+04  0.40832998940E+04  0.38017101401E+04 0.  0.
        4    1    3    3  502    0  0.85846023226E+03 -0.60954443659E+03  0.24449050803E+04  0.26619655999E+04  0.12699999809E+01 0.  1.
       -4    1    3    3    0  502 -0.85846023226E+03  0.60954443659E+03 -0.95482520495E+03  0.14213342941E+04  0.12699999809E+01 0. -1.
</event>
<event>
 5   0  0.1174870E-07  0.3797522E+04  0.7818609E-02  0.8046687E-01
       -2   -1    0    0    0  501  0.00000000000E+00  0.00000000000E+00  0.15360506002E+04  0.15360506002E+04  0.25500000920E-02 0.  1.
        2   -1    0    0  501    0  0.00000000000E+00  0.00000000000E+00 -0.23471186225E+04  0.23471186225E+04  0.25500000920E-02 0. -1.
    10030    2    1    2    0    0  0.00000000000E+00  0.00000000000E+00 -0.81106802228E+03  0.38831692227E+04  0.37975218071E+04 0.  0.
        5    1    3    3  502    0 -0.12544648142E+04 -0.69823912502E+03  0.86508943690E+03  0.16761926111E+04  0.46999998093E+01 0.  1.
       -5    1    3    3    0  502  0.12544648142E+04  0.69823912502E+03 -0.16761574592E+04  0.22069766115E+04  0.46999998093E+01 0. -1.
</event>
<event>
 5   0  0.3701250E-08  0.3770124E+04  0.7818609E-02  0.8052597E-01
        1   -1    0    0  501    0  0.00000000000E+00  0.00000000000E+00  0.26691405037E+04  0.26691405037E+04  0.50400001928E-02 0. -1.
       -1   -1    0    0    0  501  0.00000000000E+00  0.00000000000E+00 -0.13313120571E+04  0.13313120571E+04  0.50400001928E-02 0.  1.
    10030    2    1    2    0    0  0.00000000000E+00  0.00000000000E+00  0.13378284466E+04  0.40004525608E+04  0.37701241012E+04 0.  0.
        2    1    3    3  502    0  0.53219097855E+03 -0.15818053833E+04 -0.26105587301E+03  0.16892263546E+04  0.25500000920E-02 0. -1.
       -2    1    3    3    0  502 -0.53219097855E+03  0.15818053833E+04  0.15988843196E+04  0.23112262061E+04  0.25500000920E-02 0.  1.
</event>
<event>
 5   0  0.1150235E-07  0.3806040E+04  0.7818609E-02  0.8044860E-01
        2   -1    0    0  501    0  0.00000000000E+00  0.00000000000E+00  0.20203330635E+04  0.20203330635E+04  0.25500000920E-02 0. -1.
       -2   -1    0    0    0  501  0.00000000000E+00  0.00000000000E+00 -0.17925189686E+04  0.17925189686E+04  0.25500000920E-02 0.  1.
    10030    2    1    2    0    0  0.00000000000E+00  0.00000000000E+00  0.22781409496E+03  0.38128520321E+04  0.38060401150E+04 0.  0.
        4    1    3    3  502    0  0.11038623958E+04  0.41188405923E+03 -0.13831983128E+04  0.18169754683E+04  0.12699999809E+01 0.  1.
       -4    1    3    3    0  502 -0.11038623958E+04 -0.41188405923E+03  0.16110124078E+04  0.19958765638E+04  0.12699999809E+01 0. -1.
</event>
<event>
 5   0  0.3701250E-08  0.3809422E+04  0.7818609E-02  0.8044136E-01
       -1   -1    0    0    0  501  0.00000000000E+00  0.00000000000E+00  0.14732453240E+04  0.14732453240E+04  0.50400001928E-02 0. -1.
        1   -1    0    0  501    0  0.00000000000E+00  0.00000000000E+00 -0.24625395256E+04  0.24625395256E+04  0.50400001928E-02 0.  1.
    10030    2    1    2    0    0  0.00000000000E+00  0.00000000000E+00 -0.98929420154E+03  0.39357848496E+04  0.38094224451E+04 0.  0.
        4    1    3    3  502    0 -0.11519052251E+04  0.81119565458E+03  0.82966664864E+03  0.16350144949E+04  0.12699999809E+01 0. -1.
       -4    1    3    3    0  502  0.11519052251E+04 -0.81119565458E+03 -0.18189608502E+04  0.23007703547E+04  0.12699999809E+01 0.  1.
</event>
<event>
 5   0  0.1143283E-07  0.3803908E+04  0.7818609E-02  0.8045317E-01
        2   -1    0    0  501    0  0.00000000000E+00  0.00000000000E+00  0.32028115203E+04  0.32028115203E+04  0.25500000920E-02 0.  1.
       -2   -1    0    0    0  501  0.00000000000E+00  0.00000000000E+00 -0.11294541960E+04  0.11294541960E+04  0.25500000920E-02 0. -1.
    10030    2    1    2    0    0  0.00000000000E+00  0.00000000000E+00  0.20733573243E+04  0.43322657162E+04  0.38039079434E+04 0.  0.
        1    1    3    3  502    0  0.73511764974E+03  0.15525539804E+04  0.19665439844E+04  0.26111524397E+04  0.50400001928E-02 0.  1.
       -1    1    3    3    0  502 -0.73511764974E+03 -0.15525539804E+04  0.10681333990E+03  0.17211132765E+04  0.50400001928E-02 0. -1.
</event>
<event>
 5   0  0.3701250E-08  0.3806294E+04  0.7818609E-02  0.8044806E-01
        1   -1    0    0  501    0  0.00000000000E+00  0.00000000000E+00  0.18924158796E+04  0.18924158796E+04  0.50400001928E-02 0.  1.
       -1   -1    0    0    0  501  0.00000000000E+00  0.00000000000E+00 -0.19139386633E+04  0.19139386633E+04  0.50400001928E-02 0. -1.
    10030    2    1    2    0    0  0.00000000000E+00  0.00000000000E+00 -0.21522783678E+02  0.38063545429E+04  0.38062936928E+04 0.  0.
        2    1    3    3  502    0 -0.37477670076E+03 -0.57417725844E+03 -0.17861294086E+04  0.19132159742E+04  0.25500000920E-02 0. -1.
       -2    1    3    3    0  502  0.37477670076E+03  0.57417725844E+03  0.17646066250E+04  0.18931385687E+04  0.25500000920E-02 0.  1.
</event>
<event>
 5   0  0.7858367E-08  0.3723041E+04  0.7818609E-02  0.8062875E-01
       -2   -1    0    0    0  501  0.00000000000E+00  0.00000000000E+00  0.13533961962E+04  0.13533961962E+04  0.25500000920E-02 0.  1.
        2   -1    0    0  501    0  0.00000000000E+00  0.00000000000E+00 -0.25604165881E+04  0.25604165881E+04  0.25500000920E-02 0. -1.
    10030    2    1    2    0    0  0.00000000000E+00  0.00000000000E+00 -0.12070203919E+04  0.39138127843E+04  0.37230407309E+04 0.  0.
        2    1    3    3  502    0 -0.84844905400E+03 -0.14479300048E+04  0.24330399428E+03  0.16957487814E+04  0.25500000920E-02 0. -1.
       -2    1    3    3    0  502  0.84844905400E+03  0.14479300048E+04 -0.14503243862E+04  0.22180640029E+04  0.25500000920E-02 0.  1.
</event>
<event>
 5   0  0.7858367E-08  0.3824100E+04  0.7818609E-02  0.8041003E-01
        2   -1    0    0  501    0  0.00000000000E+00  0.00000000000E+00  0.13619065434E+04  0.13619065434E+04  0.25500000920E-02 0. -1.
       -2   -1    0    0    0  501  0.00000000000E+00  0.00000000000E+00 -0.26844243301E+04  0.26844243301E+04  0.25500000920E-02 0.  1.
    10030    2    1    2    0    0  0.00000000000E+00  0.00000000000E+00 -0.13225177868E+04  0.40463308735E+04  0.38240999256E+04 0.  0.
        2    1    3    3  502    0 -0.35675923149E+03  0.12884816538E+04 -0.21076161098E+04  0.24958981925E+04  0.25500000920E-02 0.  1.
       -2    1    3    3    0  502  0.35675923149E+03 -0.12884816538E+04  0.78509832299E+03  0.15504326809E+04  0.25500000920E-02 0. -1.
</event>
<event>
 5   0  0.3701250E-08  0.3799541E+04  0.7818609E-02  0.8046253E-01
       -1   -1    0    0    0  501  0.00000000000E+00  0.00000000000E+00  0.18017529369E+04  0.18017529369E+04  0.50400001928E-02 0. -1.
        1   -1    0    0  501    0  0.00000000000E+00  0.00000000000E+00 -0.20031202734E+04  0.20031202734E+04  0.50400001928E-02 0.  1.
    10030    2    1    2    0    0  0.00000000000E+00  0.00000000000E+00 -0.20136733651E+03  0.38048732104E+04  0.37995409384E+04 0.  0.
        4    1    3    3  502    0  0.85463774164E+03 -0.15335767729E+04  0.62618817074E+03  0.18639679787E+04  0.12699999809E+01 0. -1.
       -4    1    3    3    0  502 -0.85463774164E+03  0.15335767729E+04 -0.82755550725E+03  0.19409052316E+04  0.12699999809E+01 0.  1.
</event>
<event>
 5   0  0.3889225E-08  0.3787065E+04  0.7818609E-02  0.8048936E-01
        1   -1    0    0  501    0  0.00000000000E+00  0.00000000000E+00  0.20805676532E+04  0.20805676532E+04  0.50400001928E-02 0. -1.
       -1   -1    0    0    0  501  0.00000000000E+00  0.00000000000E+00 -0.17233110429E+04  0.17233110429E+04  0.50400001928E-02 0.  1.
    10030    2    1    2    0    0  0.00000000000E+00  0.00000000000E+00  0.35725661035E+03  0.38038786961E+04  0.37870649386E+04 0.  0.
        5    1    3    3  502    0  0.17538642111E+04 -0.16035583032E+03  0.87719394186E+03  0.19675479574E+04  0.46999998093E+01 0. -1.
       -5    1    3    3    0  502 -0.17538642111E+04  0.16035583032E+03 -0.51993733151E+03  0.18363307387E+04  0.46999998093E+01 0.  1.
</event>
<event>
 5   0  0.1174870E-07  0.3814002E+04  0.7818609E-02  0.8043157E-01
       -2   -1    0    0    0  501  0.00000000000E+00  0.00000000000E+00  0.11824044650E+04  0.11824044650E+04  0.25500000920E-02 0.  1.
        2   -1    0    0  501    0  0.00000000000E+00  0.00000000000E+00 -0.30756421155E+04  0.30756421155E+04  0.25500000920E-02 0. -1.
    10030    2    1    2    0    0  0.00000000000E+00  0.00000000000E+00 -0.18932376505E+04  0.42580465805E+04  0.38140020819E+04 0.  0.
        5    1    3    3  502    0  0.13822362786E+04 -0.13989314993E+03 -0.24050318994E+04  0.27774714671E+04  0.46999998093E+01 0. -1.
       -5    1    3    3    0  502 -0.13822362786E+04  0.13989314993E+03  0.51179424885E+03  0.14805751134E+04  0.46999998093E+01 0.  1.
</event>
<event>
 5   0  0.1193861E-07  0.3800145E+04  0.7818609E-02  0.8046124E-01
        2   -1    0    0  501    0  0.00000000000E+00  0.00000000000E+00  0.22515194770E+04  0.22515194770E+04  0.25500000920E-02 0. -1.
       -2   -1    0    0    0  501  0.00000000000E+00  0.00000000000E+00 -0.16034839724E+04  0.16034839724E+04  0.25500000920E-02 0.  1.
    10030    2    1    2    0    0  0.00000000000E+00  0.00000000000E+00  0.64803550457E+03  0.38550034494E+04  0.38001449420E+04 0.  0.
        3    1    3    3  502    0  0.14914284209E+03  0.18529797669E+04 -0.74718508833E+02  0.18604731844E+04  0.10100000352E+00 0.  1.
       -3    1    3    3    0  502 -0.14914284209E+03 -0.18529797669E+04  0.72275401340E+03  0.19945302650E+04  0.10100000352E+00 0. -1.
</event>
<event>
 5   0  0.1174870E-07  0.3773464E+04  0.7818609E-02  0.8051874E-01
        2   -1    0    0  501    0  0.00000000000E+00  0.00000000000E+00  0.11035420585E+04  0.11035420585E+04  0.25500000920E-02 0. -1.
       -2   -1    0    0    0  501  0.00000000000E+00  0.00000000000E+00 -0.32257560767E+04  0.32257560767E+04  0.25500000920E-02 0.  1.
    10030    2    1    2    0    0  0.00000000000E+00  0.00000000000E+00 -0.21222140182E+04  0.43292981352E+04  0.37734639264E+04 0.  0.
        5    1    3    3  502    0  0.32467048688E+03 -0.17697820927E+04 -0.17123412838E+04  0.24838829165E+04  0.46999998093E+01 0.  1.
       -5    1    3    3    0  502 -0.32467048688E+03  0.17697820927E+04 -0.40987273445E+03  0.18454152187E+04  0.46999998093E+01 0. -1.
</event>
<event>
 5   0  0.3701250E-08  0.3785429E+04  0.7818609E-02  0.8049289E-01
        1   -1    0    0  501    0  0.00000000000E+00  0.00000000000E+00  0.22248863294E+04  0.22248863294E+04  0.50400001928E-02 0. -1.
       -1   -1    0    0    0  501  0.00000000000E+00  0.00000000000E+00 -0.16101354095E+04  0.16101354095E+04  0.50400001928E-02 0.  1.
    10030    2    1    2    0    0  0.00000000000E+00  0.00000000000E+00  0.61475091992E+03  0.38350217389E+04  0.37854290436E+04 0.  0.
        1    1    3    3  502    0 -0.92287349920E+01  0.15312646080E+04  0.14343844830E+04  0.20981695152E+04  0.50400001928E-02 0. -1.
       -1    1    3    3    0  502  0.92287349920E+01 -0.15312646080E+04 -0.81963356308E+03  0.17368522237E+04  0.50400001928E-02 0.  1.
</event>
<event>
 5   0  0.1143283E-07  0.3732114E+04  0.7818609E-02  0.8060882E-01
       -2   -1    0    0    0  501  0.00000000000E+00  0.00000000000E+00  0.15573821207E+04  0.15573821207E+04  0.25500000920E-02 0. -1.
        2   -1    0    0  501    0  0.00000000000E+00  0.00000000000E+00 -0.22359114721E+04  0.22359114721E+04  0.25500000920E-02 0.  1.
    10030    2    1    2    0    0  0.00000000000E+00  0.00000000000E+00 -0.67852935147E+03  0.37932935928E+04  0.37321139051E+04 0.  0.
        1    1    3    3  502    0  0.10062825102E+04 -0.93724820484E+03  0.94281312597E+03  0.16673137912E+04  0.50400001928E-02 0. -1.
       -1    1    3    3    0  502 -0.10062825102E+04  0.93724820484E+03 -0.16213424774E+04  0.21259798016E+04  0.50400001928E-02 0.  1.
</event>
<event>
 5   0  0.3889225E-08  0.3820394E+04  0.7818609E-02  0.8041793E-01
        1   -1    0    0  501    0  0.00000000000E+00  0.00000000000E+00  0.16090768471E+04  0.16090768471E+04  0.50400001928E-02 0.  1.
       -1   -1    0    0    0  501  0.00000000000E+00  0.00000000000E+00 -0.22676681656E+04  0.22676681656E+04  0.50400001928E-02 0. -1.
    10030    2    1    2    0    0  0.00000000000E+00  0.00000000000E+00 -0.65859131852E+03  0.38767450127E+04  0.38203938761E+04 0.  0.
        5    1    3    3  502    0 -0.15230820425E+04 -0.76758686708E+03  0.54354382285E+03  0.17900923116E+04  0.46999998093E+01 0.  1.
       -5    1    3    3    0  502  0.15230820425E+04  0.76758686708E+03 -0.12021351414E+04  0.20866527011E+04  0.46999998093E+01 0. -1.
</event>
<event>
 5   0  0.3889225E-08  0.3795305E+04  0.7818609E-02  0.8047163E-01
        1   -1    0    0  501    0  0.00000000000E+00  0.00000000000E+00  0.23750638073E+04  0.23750638073E+04  0.50400001928E-02 0. -1.
       -1   -1    0    0    0  501  0.00000000000E+00  0.00000000000E+00 -0.15162058825E+04  0.15162058825E+04  0.50400001928E-02 0.  1.
    10030    2    1    2    0    0  0.00000000000E+00  0.00000000000E+00  0.85885792479E+03  0.38912696898E+04  0.37953053716E+04 0.  0.
        5    1    3    3  502    0 -0.10372845159E+04  0.14749319435E+04 -0.17686066761E+03  0.18118182002E+04  0.46999998093E+01 0.  1.
       -5    1    3    3    0  502  0.10372845159E+04 -0.14749319435E+04  0.10357185924E+04  0.20794514896E+04  0.46999998093E+01 0. -1.
</event>
<event>
 5   0  0.7858367E-08  0.3787298E+04  0.7818609E-02  0.8048886E-01
       -2   -1    0    0    0  501  0.00000000000E+00  0.00000000000E+00  0.26288521362E+04  0.26288521362E+04  0.25500000920E-02 0. -1.
        2   -1    0    0  501    0  0.00000000000E+00  0.00000000000E+00 -0.13640580789E+04  0.13640580789E+04  0.25500000920E-02 0.  1.
    10030    2    1    2    0    0  0.00000000000E+00  0.00000000000E+00  0.12647940573E+04  0.39929102151E+04  0.37872982426E+04 0.  0.
        2    1    3    3  502    0  0.24995430522E+03  0.50557605635E+03  0.25382495035E+04  0.26001528504E+04  0.25500000920E-02 0. -1.
       -2    1    3    3    0  502 -0.24995430522E+03 -0.50557605635E+03 -0.12734554462E+04  0.13927573647E+04  0.25500000920E-02 0.  1.
</event>
<event>
 5   0  0.7858367E-08  0.3788621E+04  0.7818609E-02  0.8048601E-01
        2   -1    0    0  501    0  0.00000000000E+00  0.00000000000E+00  0.34468291897E+04  0.34468291897E+04  0.25500000920E-02 0.  1.
       -2   -1    0    0    0  501  0.00000000000E+00  0.00000000000E+00 -0.10410763096E+04  0.10410763096E+04  0.25500000920E-02 0. -1.
    10030    2    1    2    0    0  0.00000000000E+00  0.00000000000E+00  0.24057528801E+04  0.44879054993E+04  0.37886209696E+04 0.  0.
        2    1    3    3  502    0 -0.31719610226E+03  0.12047349185E+04  0.28932996026E+04  0.31501082809E+04  0.25500000920E-02 0.  1.
       -2    1    3    3    0  502  0.31719610226E+03 -0.12047349185E+04 -0.48754672252E+03  0.13377972184E+04  0.25500000920E-02 0. -1.
</event>
<event>
 5   0  0.3701250E-08  0.3772054E+04  0.7818609E-02  0.8052179E-01
        1   -1    0    0  501    0  0.00000000000E+00  0.00000000000E+00  0.18900588515E+04  0.18900588515E+04  0.50400001928E-02 0.  1.
       -1   -1    0    0    0  501  0.00000000000E+00  0.00000000000E+00 -0.18820038402E+04  0.18820038402E+04  0.50400001928E-02 0. -1.
    10030    2    1    2    0    0  0.00000000000E+00  0.00000000000E+00  0.80550112875E+01  0.37720626917E+04  0.37720540912E+04 0.  0.
        1    1    3    3  502    0  0.17950916477E+04  0.13282385546E+03 -0.55909172026E+03  0.18848288389E+04  0.50400001928E-02 0. -1.
       -1    1    3    3    0  502 -0.17950916477E+04 -0.13282385546E+03  0.56714673155E+03  0.18872338528E+04  0.50400001928E-02 0.  1.
</event>
<event>
 5   0  0.1174870E-07  0.3787541E+04  0.7818609E-02  0.8048834E-01
       -2   -1    0    0    0  501  0.00000000000E+00  0.00000000000E+00  0.17799536189E+04  0.17799536189E+04  0.25500000920E-02 0. -1.
        2   -1    0    0  501    0  0.00000000000E+00  0.00000000000E+00 -0.20148654373E+04  0.20148654373E+04  0.25500000920E-02 0.  1.
    10030    2    1    2    0    0  0.00000000000E+00  0.00000000000E+00 -0.23491181843E+03  0.37948190562E+04  0.37875411690E+04 0.  0.
        5    1    3    3  502    0  0.43473252026E+03  0.12545244204E+04  0.12355170017E+04  0.18136560416E+04  0.46999998093E+01 0. -1.
       -5    1    3    3    0  502 -0.43473252026E+03 -0.12545244204E+04 -0.14704288201E+04  0.19811630147E+04  0.46999998093E+01 0.  1.
</event>
<event>
 5   0  0.3701250E-08  0.3795499E+04  0.7818609E-02  0.8047122E-01
       -1   -1    0    0    0  501  0.00000000000E+00  0.00000000000E+00  0.18259511000E+04  0.18259511001E+04  0.50400001928E-02 0. -1.
        1   -1    0    0  501    0  0.00000000000E+00  0.00000000000E+00 -0.19723705965E+04  0.19723705965E+04  0.50400001928E-02 0.  1.
    10030    2    1    2    0    0  0.00000000000E+00  0.00000000000E+00 -0.14641949647E+03  0.37983216966E+04  0.37954985235E+04 0.  0.
        2    1    3    3  502    0 -0.65452371706E+03  0.14223618782E+04  0.99993934874E+03  0.18577925907E+04  0.25500000920E-02 0. -1.
       -2    1    3    3    0  502  0.65452371706E+03 -0.14223618782E+04 -0.11463588452E+04  0.19405291059E+04  0.25500000920E-02 0.  1.
</event>
<event>
 5   0  0.7858367E-08  0.3805883E+04  0.7818609E-02  0.8044894E-01
       -2   -1    0    0    0  501  0.00000000000E+00  0.00000000000E+00  0.14623173980E+04  0.14623173980E+04  0.25500000920E-02 0.  1.
        2   -1    0    0  501    0  0.00000000000E+00  0.00000000000E+00 -0.24763335283E+04  0.24763335283E+04  0.25500000920E-02 0. -1.
    10030    2    1    2    0    0  0.00000000000E+00  0.00000000000E+00 -0.10140161303E+04  0.39386509262E+04  0.38058826054E+04 0.  0.
        2    1    3    3  502    0  0.15967549272E+04  0.10235510024E+04 -0.34700985496E+03  0.19281334994E+04  0.25500000920E-02 0.  1.
       -2    1    3    3    0  502 -0.15967549272E+04 -0.10235510024E+04 -0.66700627532E+03  0.20105174268E+04  0.25500000920E-02 0. -1.
</event>
<event>
 5   0  0.3701250E-08  0.3806694E+04  0.7818609E-02  0.8044720E-01
       -1   -1    0    0    0  501  0.00000000000E+00  0.00000000000E+00  0.22091657146E+04  0.22091657146E+04  0.50400001928E-02 0.  1.
        1   -1    0    0  501    0  0.00000000000E+00  0.00000000000E+00 -0.16398636490E+04  0.16398636490E+04  0.50400001928E-02 0. -1.
    10030    2    1    2    0    0  0.00000000000E+00  0.00000000000E+00  0.56930206556E+03  0.38490293637E+04  0.38066943928E+04 0.  0.
        3    1    3    3  502    0 -0.33634125550E+03  0.12273293741E+04 -0.11464579477E+04  0.17128422778E+04  0.10100000352E+00 0. -1.
       -3    1    3    3    0  502  0.33634125550E+03 -0.12273293741E+04  0.17157600132E+04  0.21361870859E+04  0.10100000352E+00 0.  1.
</event>
<event>
 5   0  0.3889225E-08  0.3794044E+04  0.7818609E-02  0.8047434E-01
        1   -1    0    0  501    0  0.00000000000E+00  0.00000000000E+00  0.12088706781E+04  0.12088706781E+04  0.50400001928E-02 0. -1.
       -1   -1    0    0    0  501  0.00000000000E+00  0.00000000000E+00 -0.29769046191E+04  0.29769046191E+04  0.50400001928E-02 0.  1.
    10030    2    1    2    0    0  0.00000000000E+00  0.00000000000E+00 -0.17680339410E+04  0.41857752971E+04  0.37940441249E+04 0.  0.
        5    1    3    3  502    0  0.10874656116E+04  0.96055202320E+03 -0.22322526590E+04  0.26623703103E+04  0.46999998093E+01 0.  1.
       -5    1    3    3    0  502 -0.10874656116E+04 -0.96055202320E+03  0.46421871795E+03  0.15234049868E+04  0.46999998093E+01 0. -1.
</event>
<event>
 5   0  0.1174870E-07  0.3800170E+04  0.7818609E-02  0.8046118E-01
        2   -1    0    0  501    0  0.00000000000E+00  0.00000000000E+00  0.14527164520E+04  0.14527164520E+04  0.25500000920E-02 0.  1.
       -2   -1    0    0    0  501  0.00000000000E+00  0.00000000000E+00 -0.24852222709E+04  0.24852222709E+04  0.25500000920E-02 0. -1.
    10030    2    1    2    0    0  0.00000000000E+00  0.00000000000E+00 -0.10325058189E+04  0.39379387228E+04  0.38001701434E+04 0.  0.
        5    1    3    3  502    0 -0.54638132911E+03  0.11155460668E+04  0.97369249259E+03  0.15783138927E+04  0.46999998093E+01 0.  1.
       -5    1    3    3    0  502  0.54638132911E+03 -0.11155460668E+04 -0.20061983115E+04  0.23596248301E+04  0.46999998093E+01 0. -1.
</event>
<event>
 5   0  0.3889225E-08  0.3842432E+04  0.7818609E-02  0.8037110E-01
        1   -1    0    0  501    0  0.00000000000E+00  0.00000000000E+00  0.18805657194E+04  0.18805657194E+04  0.50400001928E-02 0. -1.
       -1   -1    0    0    0  501  0.00000000000E+00  0.00000000000E+00 -0.19627451652E+04  0.19627451653E+04  0.50400001928E-02 0.  1.
    10030    2    1    2    0    0  0.00000000000E+00  0.00000000000E+00 -0.82179445815E+02  0.38433108847E+04  0.38424321848E+04 0.  0.
        5    1    3    3  502    0  0.32030421496E+03  0.82432755276E+03  0.16648613557E+04  0.18851780096E+04  0.46999998093E+01 0. -1.
       -5    1    3    3    0  502 -0.32030421496E+03 -0.82432755276E+03 -0.17470408015E+04  0.19581328751E+04  0.46999998093E+01 0.  1.
</event>
<event>
 5   0  0.7858367E-08  0.3580135E+04  0.7818609E-02  0.8095057E-01
        2   -1    0    0  501    0  0.00000000000E+00  0.00000000000E+00  0.19800896008E+04  0.19800896008E+04  0.25500000920E-02 0. -1.
       -2   -1    0    0    0  501  0.00000000000E+00  0.00000000000E+00 -0.16182814625E+04  0.16182814625E+04  0.25500000920E-02 0.  1.
    10030    2    1    2    0    0  0.00000000000E+00  0.00000000000E+00  0.36180813824E+03  0.35983710633E+04  0.35801353578E+04 0.  0.
        2    1    3    3  502    0 -0.61704654882E+03 -0.16100206462E+04 -0.30261737072E+03  0.17505685355E+04  0.25500000920E-02 0.  1.
       -2    1    3    3    0  502  0.61704654882E+03  0.16100206462E+04  0.66442550897E+03  0.18478025277E+04  0.25500000920E-02 0. -1.
</event>
<event>
 5   0  0.7858367E-08  0.3813916E+04  0.7818609E-02  0.8043175E-01
        2   -1    0    0  501    0  0.00000000000E+00  0.00000000000E+00  0.28515369400E+04  0.28515369400E+04  0.25500000920E-02 0. -1.
       -2   -1    0    0    0  501  0.00000000000E+00  0.00000000000E+00 -0.12752735811E+04  0.12752735811E+04  0.25500000920E-02 0.  1.
    10030    2    1    2    0    0  0.00000000000E+00  0.00000000000E+00  0.15762633589E+04  0.41268105211E+04  0.38139164779E+04 0.  0.
        2    1    3    3  502    0  0.38752052787E+03 -0.12488538595E+04  0.22900569561E+04  0.26370758396E+04  0.25500000920E-02 0. -1.
       -2    1    3    3    0  502 -0.38752052787E+03  0.12488538595E+04 -0.71379359719E+03  0.14897346815E+04  0.25500000920E-02 0.  1.
</event>
<event>
 5   0  0.3701250E-08  0.3808806E+04  0.7818609E-02  0.8044268E-01
       -1   -1    0    0    0  501  0.00000000000E+00  0.00000000000E+00  0.17677713296E+04  0.17677713296E+04  0.50400001928E-02 0.  1.
        1   -1    0    0  501    0  0.00000000000E+00  0.00000000000E+00 -0.20515954838E+04  0.20515954838E+04  0.50400001928E-02 0. -1.
    10030    2    1    2    0    0  0.00000000000E+00  0.00000000000E+00 -0.28382415420E+03  0.38193668134E+04  0.38088064672E+04 0.  0.
        2    1    3    3  502    0 -0.87566965547E+02 -0.11713831803E+04 -0.16450495423E+04  0.20213843091E+04  0.25500000920E-02 0. -1.
       -2    1    3    3    0  502  0.87566965547E+02  0.11713831803E+04  0.13612253881E+04  0.17979825043E+04  0.25500000920E-02 0.  1.
</event>
<event>
 5   0  0.7858367E-08  0.3805489E+04  0.7818609E-02  0.8044978E-01
        2   -1    0    0  501    0  0.00000000000E+00  0.00000000000E+00  0.24517984693E+04  0.24517984693E+04  0.25500000920E-02 0. -1.
       -2   -1    0    0    0  501  0.00000000000E+00  0.00000000000E+00 -0.14766455493E+04  0.14766455493E+04  0.25500000920E-02 0.  1.
    10030    2    1    2    0    0  0.00000000000E+00  0.00000000000E+00  0.97515291992E+03  0.39284440186E+04  0.38054893496E+04 0.  0.
        2    1    3    3  502    0  0.10318708692E+03  0.17611172862E+04 -0.24837836274E+03  0.17815368314E+04  0.25500000920E-02 0.  1.
       -2    1    3    3    0  502 -0.10318708692E+03 -0.17611172862E+04  0.12235312827E+04  0.21469071872E+04  0.25500000920E-02 0. -1.
</event>
<event>
 5   0  0.3889225E-08  0.3806760E+04  0.7818609E-02  0.8044706E-01
       -1   -1    0    0    0  501  0.00000000000E+00  0.00000000000E+00  0.13813381655E+04  0.13813381655E+04  0.50400001928E-02 0. -1.
        1   -1    0    0  501    0  0.00000000000E+00  0.00000000000E+00 -0.26227150222E+04  0.26227150222E+04  0.50400001928E-02 0.  1.
    10030    2    1    2    0    0  0.00000000000E+00  0.00000000000E+00 -0.12413768567E+04  0.40040531877E+04  0.38067604902E+04 0.  0.
        5    1    3    3  502    0  0.86911705192E+03  0.19945386934E+03  0.11480354005E+04  0.14536690362E+04  0.46999998093E+01 0. -1.
       -5    1    3    3    0  502 -0.86911705192E+03 -0.19945386934E+03 -0.23894122572E+04  0.25503841516E+04  0.46999998093E+01 0.  1.
</event>
<event>
 5   0  0.3889225E-08  0.3797186E+04  0.7818609E-02  0.8046759E-01
        1   -1    0    0  501    0  0.00000000000E+00  0.00000000000E+00  0.24800654748E+04  0.24800654748E+04  0.50400001928E-02 0. -1.
       -1   -1    0    0    0  501  0.00000000000E+00  0.00000000000E+00 -0.14534519283E+04  0.14534519283E+04  0.50400001928E-02 0.  1.
    10030    2    1    2    0    0  0.00000000000E+00  0.00000000000E+00  0.10266135465E+04  0.39335174031E+04  0.37971862987E+04 0.  0.
        5    1    3    3  502    0 -0.11819396395E+04 -0.39566958716E+03  0.19968916220E+04  0.23539613365E+04  0.46999998093E+01 0. -1.
       -5    1    3    3    0  502  0.11819396395E+04  0.39566958716E+03 -0.97027807555E+03  0.15795560666E+04  0.46999998093E+01 0.  1.
</event>
<event>
 5   0  0.3701250E-08  0.3804788E+04  0.7818609E-02  0.8045128E-01
       -1   -1    0    0    0  501  0.00000000000E+00  0.00000000000E+00  0.35364168521E+04  0.35364168521E+04  0.50400001928E-02 0. -1.
        1   -1    0    0  501    0  0.00000000000E+00  0.00000000000E+00 -0.10233810944E+04  0.10233810944E+04  0.50400001928E-02 0.  1.
    10030    2    1    2    0    0  0.00000000000E+00  0.00000000000E+00  0.25130357577E+04  0.45597979464E+04  0.38047875884E+04 0.  0.
        3    1    3    3  502    0  0.14995368699E+04 -0.61561785740E+03  0.63181587095E+02  0.16222170304E+04  0.10100000352E+00 0.  1.
       -3    1    3    3    0  502 -0.14995368699E+04  0.61561785740E+03  0.24498541706E+04  0.29375809160E+04  0.10100000352E+00 0. -1.
</event>
<event>
 5   0  0.7858367E-08  0.3809168E+04  0.7818609E-02  0.8044190E-01
        2   -1    0    0  501    0  0.00000000000E+00  0.00000000000E+00  0.18615075621E+04  0.18615075621E+04  0.25500000920E-02 0. -1.
       -2   -1    0    0    0  501  0.00000000000E+00  0.00000000000E+00 -0.19486568437E+04  0.19486568437E+04  0.25500000920E-02 0.  1.
    10030    2    1    2    0    0  0.00000000000E+00  0.00000000000E+00 -0.87149281533E+02  0.38101644058E+04  0.38091675996E+04 0.  0.
        2    1    3    3  502    0  0.20562944779E+03 -0.18799931119E+04  0.18183268179E+03  0.18999264972E+04  0.25500000920E-02 0.  1.
       -2    1    3    3    0  502 -0.20562944779E+03  0.18799931119E+04 -0.26898196332E+03  0.19102379086E+04  0.25500000920E-02 0. -1.
</event>
<event>
 5   0  0.3701250E-08  0.3767897E+04  0.7818609E-02  0.8053079E-01
        1   -1    0    0  501    0  0.00000000000E+00  0.00000000000E+00  0.19596242802E+04  0.19596242802E+04  0.50400001928E-02 0.  1.
       -1   -1    0    0    0  501  0.00000000000E+00  0.00000000000E+00 -0.18111955975E+04  0.18111955975E+04  0.50400001928E-02 0. -1.
    10030    2    1    2    0    0  0.00000000000E+00  0.00000000000E+00  0.14842868272E+03  0.37708198778E+04  0.37678974876E+04 0.  0.
        4    1    3    3  502    0  0.45531686898E+03  0.16748202790E+04  0.80753421813E+03  0.19142752008E+04  0.12699999809E+01 0.  1.
       -4    1    3    3    0  502 -0.45531686898E+03 -0.16748202790E+04 -0.65910553541E+03  0.18565446770E+04  0.12699999809E+01 0. -1.
</event>
<event>
 5   0  0.7858367E-08  0.3802207E+04  0.7818609E-02  0.8045681E-01
        2   -1    0    0  501    0  0.00000000000E+00  0.00000000000E+00  0.16087704132E+04  0.16087704132E+04  0.25500000920E-02 0. -1.
       -2   -1    0    0    0  501  0.00000000000E+00  0.00000000000E+00 -0.22465567803E+04  0.22465567803E+04  0.25500000920E-02 0.  1.
    10030    2    1    2    0    0  0.00000000000E+00  0.00000000000E+00 -0.63778636704E+03  0.38553271935E+04  0.38022067696E+04 0.  0.
        2    1    3    3  502    0 -0.13969567662E+04 -0.96579323046E+03  0.54741389261E+03  0.17843505094E+04  0.25500000920E-02 0. -1.
       -2    1    3    3    0  502  0.13969567662E+04  0.96579323046E+03 -0.11852002596E+04  0.20709766841E+04  0.25500000920E-02 0.  1.
</event>
<event>
 5   0  0.7858367E-08  0.3797717E+04  0.7818609E-02  0.8046645E-01
        2   -1    0    0  501    0  0.00000000000E+00  0.00000000000E+00  0.25414903083E+04  0.25414903083E+04  0.25500000920E-02 0.  1.
       -2   -1    0    0    0  501  0.00000000000E+00  0.00000000000E+00 -0.14187199602E+04  0.14187199602E+04  0.25500000920E-02 0. -1.
    10030    2    1    2    0    0  0.00000000000E+00  0.00000000000E+00  0.11227703481E+04  0.39602102685E+04  0.37977166978E+04 0.  0.
        2    1    3    3  502    0  0.13194898348E+04 -0.17492001260E+03 -0.85081687817E+03  0.15797277598E+04  0.25500000920E-02 0. -1.
       -2    1    3    3    0  502 -0.13194898348E+04  0.17492001260E+03  0.19735872263E+04  0.23804825088E+04  0.25500000920E-02 0.  1.
</event>
<event>
 5   0  0.3701250E-08  0.3801771E+04  0.7818609E-02  0.8045775E-01
       -1   -1    0    0    0  501  0.00000000000E+00  0.00000000000E+00  0.17719521875E+04  0.17719521875E+04  0.50400001928E-02 0.  1.
        1   -1    0    0  501    0  0.00000000000E+00  0.00000000000E+00 -0.20392004133E+04  0.20392004133E+04  0.50400001928E-02 0. -1.
    10030    2    1    2    0    0  0.00000000000E+00  0.00000000000E+00 -0.26724822575E+03  0.38111526008E+04  0.38017709732E+04 0.  0.
        3    1    3    3  502    0  0.64059957505E+03  0.63512499852E+03 -0.18109578016E+04  0.20231954302E+04  0.10100000352E+00 0. -1.
       -3    1    3    3    0  502 -0.64059957505E+03 -0.63512499852E+03  0.15437095759E+04  0.17879571707E+04  0.10100000352E+00 0.  1.
</event>
<event>
 5   0  0.3701250E-08  0.3770715E+04  0.7818609E-02  0.8052469E-01
        1   -1    0    0  501    0  0.00000000000E+00  0.00000000000E+00  0.14138003326E+04  0.14138003326E+04  0.50400001928E-02 0.  1.
       -1   -1    0    0    0  501  0.00000000000E+00  0.00000000000E+00 -0.25141979096E+04  0.25141979096E+04  0.50400001928E-02 0. -1.
    10030    2    1    2    0    0  0.00000000000E+00  0.00000000000E+00 -0.11003975770E+04  0.39279982422E+04  0.37707154976E+04 0.  0.
        1    1    3    3  502    0  0.17731263174E+03 -0.18741475310E+04 -0.65797997427E+03  0.19941931661E+04  0.50400001928E-02 0.  1.
       -1    1    3    3    0  502 -0.17731263174E+03  0.18741475310E+04 -0.44241760268E+03  0.19338050761E+04  0.50400001928E-02 0. -1.
</event>
<event>
 5   0  0.3701250E-08  0.3764899E+04  0.7818609E-02  0.8053730E-01
        1   -1    0    0  501    0  0.00000000000E+00  0.00000000000E+00  0.23828974719E+04  0.23828974719E+04  0.50400001928E-02 0. -1.
       -1   -1    0    0    0  501  0.00000000000E+00  0.00000000000E+00 -0.14871041954E+04  0.14871041954E+04  0.50400001928E-02 0.  1.
    10030    2    1    2    0    0  0.00000000000E+00  0.00000000000E+00  0.89579327656E+03  0.38700016673E+04  0.37648993759E+04 0.  0.
        3    1    3    3  502    0 -0.12270833148E+04 -0.14031403173E+04  0.71806584570E+03  0.19975371787E+04  0.10100000352E+00 0. -1.
       -3    1    3    3    0  502  0.12270833148E+04  0.14031403173E+04  0.17772743086E+03  0.18724644886E+04  0.10100000352E+00 0.  1.
</event>
<event>
 5   0  0.3889225E-08  0.3785499E+04  0.7818609E-02  0.8049274E-01
        1   -1    0    0  501    0  0.00000000000E+00  0.00000000000E+00  0.25616612938E+04  0.25616612938E+04  0.50400001928E-02 0.  1.
       -1   -1    0    0    0  501  0.00000000000E+00  0.00000000000E+00 -0.13985065828E+04  0.13985065828E+04  0.50400001928E-02 0. -1.
    10030    2    1    2    0    0  0.00000000000E+00  0.00000000000E+00  0.11631547109E+04  0.39601678766E+04  0.37854987425E+04 0.  0.
        5    1    3    3  502    0  0.10871730901E+04  0.38249835611E+03 -0.98910870098E+03  0.15187522617E+04  0.46999998093E+01 0. -1.
       -5    1    3    3    0  502 -0.10871730901E+04 -0.38249835611E+03  0.21522634119E+04  0.24414156149E+04  0.46999998093E+01 0.  1.
</event>
<event>
 5   0  0.3701250E-08  0.3805070E+04  0.7818609E-02  0.8045068E-01
       -1   -1    0    0    0  501  0.00000000000E+00  0.00000000000E+00  0.11566011155E+04  0.11566011155E+04  0.50400001928E-02 0.  1.
        1   -1    0    0  501    0  0.00000000000E+00  0.00000000000E+00 -0.31295490325E+04  0.31295490326E+04  0.50400001928E-02 0. -1.
    10030    2    1    2    0    0  0.00000000000E+00  0.00000000000E+00 -0.19729479171E+04  0.42861501480E+04  0.38050702501E+04 0.  0.
        2    1    3    3  502    0 -0.72235849414E+03  0.31310568731E+03 -0.29374460841E+04  0.30411225662E+04  0.25500000920E-02 0. -1.
       -2    1    3    3    0  502  0.72235849414E+03 -0.31310568731E+03  0.96449816702E+03  0.12450275819E+04  0.25500000920E-02 0.  1.
</event>
<event>
 5   0  0.3701250E-08  0.3820574E+04  0.7818609E-02  0.8041754E-01
       -1   -1    0    0    0  501  0.00000000000E+00  0.00000000000E+00  0.21217916263E+04  0.21217916263E+04  0.50400001928E-02 0. -1.
        1   -1    0    0  501    0  0.00000000000E+00  0.00000000000E+00 -0.17198660281E+04  0.17198660281E+04  0.50400001928E-02 0.  1.
    10030    2    1    2    0    0  0.00000000000E+00  0.00000000000E+00  0.40192559822E+03  0.38416576544E+04  0.38205744787E+04 0.  0.
        2    1    3    3  502    0  0.23073603047E+03  0.15955819089E+04  0.12313500563E+04  0.20286309928E+04  0.25500000920E-02 0. -1.
       -2    1    3    3    0  502 -0.23073603047E+03 -0.15955819089E+04 -0.82942445808E+03  0.18130266616E+04  0.25500000920E-02 0.  1.
</event>
<event>
 5   0  0.1150235E-07  0.3793666E+04  0.7818609E-02  0.8047516E-01
        2   -1    0    0  501    0  0.00000000000E+00  0.00000000000E+00  0.24679620776E+04  0.24679620776E+04  0.25500000920E-02 0. -1.
       -2   -1    0    0    0  501  0.00000000000E+00  0.00000000000E+00 -0.14578729798E+04  0.14578729798E+04  0.25500000920E-02 0.  1.
    10030    2    1    2    0    0  0.00000000000E+00  0.00000000000E+00  0.10100890978E+04  0.39258350574E+04  0.37936658936E+04 0.  0.
        4    1    3    3  502    0  0.16366771572E+04 -0.68816780257E+02  0.14946701864E+04  0.22175410808E+04  0.12699999809E+01 0.  1.
       -4    1    3    3    0  502 -0.16366771572E+04  0.68816780257E+02 -0.48458108859E+03  0.17082939766E+04  0.12699999809E+01 0. -1.
</event>
<event>
 5   0  0.1193861E-07  0.3696066E+04  0.7818609E-02  0.8068834E-01
        2   -1    0    0  501    0  0.00000000000E+00  0.00000000000E+00  0.18940320230E+04  0.18940320230E+04  0.25500000920E-02 0.  1.
       -2   -1    0    0    0  501  0.00000000000E+00  0.00000000000E+00 -0.18031506653E+04  0.18031506653E+04  0.25500000920E-02 0. -1.
    10030    2    1    2    0    0  0.00000000000E+00  0.00000000000E+00  0.90881357675E+02  0.36971826883E+04  0.36960655310E+04 0.  0.
        3    1    3    3  502    0  0.15885459085E+04  0.93982830912E+03  0.13749967597E+03  0.18508542690E+04  0.10100000352E+00 0.  1.
       -3    1    3    3    0  502 -0.15885459085E+04 -0.93982830912E+03 -0.46618318292E+02  0.18463284193E+04  0.10100000352E+00 0. -1.
</event>
<event>
 5   0  0.3889225E-08  0.3868567E+04  0.7818609E-02  0.8031599E-01
       -1   -1    0    0    0  501  0.00000000000E+00  0.00000000000E+00  0.31719063246E+04  0.31719063247E+04  0.50400001928E-02 0. -1.
        1   -1    0    0  501    0  0.00000000000E+00  0.00000000000E+00 -0.11795597921E+04  0.11795597921E+04  0.50400001928E-02 0.  1.
    10030    2    1    2    0    0  0.00000000000E+00  0.00000000000E+00  0.19923465325E+04  0.43514661168E+04  0.38685672619E+04 0.  0.
        5    1    3    3  502    0  0.76217468732E+03  0.17669043990E+04  0.77526681893E+03  0.20745896317E+04  0.46999998093E+01 0. -1.
       -5    1    3    3    0  502 -0.76217468732E+03 -0.17669043990E+04  0.12170797136E+04  0.22768764851E+04  0.46999998093E+01 0.  1.
</event>
<event>
 5   0  0.7858367E-08  0.3783658E+04  0.7818609E-02  0.8049671E-01
       -2   -1    0    0    0  501  0.00000000000E+00  0.00000000000E+00  0.14270297739E+04  0.14270297739E+04  0.25500000920E-02 0.  1.
        2   -1    0    0  501    0  0.00000000000E+00  0.00000000000E+00 -0.25080184010E+04  0.25080184010E+04  0.25500000920E-02 0. -1.
    10030    2    1    2    0    0  0.00000000000E+00  0.00000000000E+00 -0.10809886271E+04  0.39350481749E+04  0.37836579822E+04 0.  0.
        2    1    3    3  502    0 -0.51586023109E+03  0.52412302367E+03  0.12722910086E+04  0.14695377275E+04  0.25500000920E-02 0.  1.
       -2    1    3    3    0  502  0.51586023109E+03 -0.52412302367E+03 -0.23532796357E+04  0.24655104473E+04  0.25500000920E-02 0. -1.
</event>
<event>
 5   0  0.1150235E-07  0.3790729E+04  0.7818609E-02  0.8048147E-01
       -2   -1    0    0    0  501  0.00000000000E+00  0.00000000000E+00  0.14220759044E+04  0.14220759044E+04  0.25500000920E-02 0.  1.
        2   -1    0    0  501    0  0.00000000000E+00  0.00000000000E+00 -0.25261712766E+04  0.25261712766E+04  0.25500000920E-02 0. -1.
    10030    2    1    2    0    0  0.00000000000E+00  0.00000000000E+00 -0.11040953722E+04  0.39482471810E+04  0.37907293772E+04 0.  0.
        4    1    3    3  502    0  0.11326531875E+04 -0.15171592190E+04 -0.46047179293E+03  0.19485151331E+04  0.12699999809E+01 0. -1.
       -4    1    3    3    0  502 -0.11326531875E+04  0.15171592190E+04 -0.64362357925E+03  0.19997320479E+04  0.12699999809E+01 0.  1.
</event>
<event>
 5   0  0.3701250E-08  0.3886400E+04  0.7818609E-02  0.8027864E-01
       -1   -1    0    0    0  501  0.00000000000E+00  0.00000000000E+00  0.14156146371E+04  0.14156146372E+04  0.50400001928E-02 0.  1.
        1   -1    0    0  501    0  0.00000000000E+00  0.00000000000E+00 -0.26674113494E+04  0.26674113494E+04  0.50400001928E-02 0. -1.
    10030    2    1    2    0    0  0.00000000000E+00  0.00000000000E+00 -0.12517967123E+04  0.40830259866E+04  0.38864001593E+04 0.  0.
        4    1    3    3  502    0  0.68596612426E+03  0.97798477039E+03  0.98429524742E+03  0.15478509236E+04  0.12699999809E+01 0.  1.
       -4    1    3    3    0  502 -0.68596612426E+03 -0.97798477039E+03 -0.22360919597E+04  0.25351750629E+04  0.12699999809E+01 0. -1.
</event>
<event>
 5   0  0.1193861E-07  0.3647380E+04  0.7818609E-02  0.8079724E-01
        2   -1    0    0  501    0  0.00000000000E+00  0.00000000000E+00  0.19359601386E+04  0.19359601386E+04  0.25500000920E-02 0.  1.
       -2   -1    0    0    0  501  0.00000000000E+00  0.00000000000E+00 -0.17179309049E+04  0.17179309049E+04  0.25500000920E-02 0. -1.
    10030    2    1    2    0    0  0.00000000000E+00  0.00000000000E+00  0.21802923373E+03  0.36538910434E+04  0.36473802942E+04 0.  0.
        3    1    3    3  502    0  0.15100041153E+04 -0.15361666939E+03  0.11218263522E+04  0.18873804290E+04  0.10100000352E+00 0.  1.
       -3    1    3    3    0  502 -0.15100041153E+04  0.15361666939E+03 -0.90379711847E+03  0.17665106144E+04  0.10100000352E+00 0. -1.
</event>
<event>
 5   0  0.1143283E-07  0.3806915E+04  0.7818609E-02  0.8044673E-01
        2   -1    0    0  501    0  0.00000000000E+00  0.00000000000E+00  0.13165439352E+04  0.13165439352E+04  0.25500000920E-02 0.  1.
       -2   -1    0    0    0  501  0.00000000000E+00  0.00000000000E+00 -0.27520163254E+04  0.27520163254E+04  0.25500000920E-02 0. -1.
    10030    2    1    2    0    0  0.00000000000E+00  0.00000000000E+00 -0.14354723902E+04  0.40685602605E+04  0.38069149729E+04 0.  0.
        1    1    3    3  502    0  0.13099319691E+04 -0.11256226553E+04  0.13738207008E+03  0.17325766820E+04  0.50400001928E-02 0.  1.
       -1    1    3    3    0  502 -0.13099319691E+04  0.11256226553E+04 -0.15728544603E+04  0.23359835785E+04  0.50400001928E-02 0. -1.
</event>
<event>
 5   0  0.3701250E-08  0.3807624E+04  0.7818609E-02  0.8044521E-01
        1   -1    0    0  501    0  0.00000000000E+00  0.00000000000E+00  0.23291434054E+04  0.23291434054E+04  0.50400001928E-02 0.  1.
       -1   -1    0    0    0  501  0.00000000000E+00  0.00000000000E+00 -0.15561518561E+04  0.15561518561E+04  0.50400001928E-02 0. -1.
    10030    2    1    2    0    0  0.00000000000E+00  0.00000000000E+00  0.77299154929E+03  0.38852952615E+04  0.38076243688E+04 0.  0.
        4    1    3    3  502    0  0.11060480861E+04  0.12429896342E+04 -0.55765359393E+03  0.17548061839E+04  0.12699999809E+01 0.  1.
       -4    1    3    3    0  502 -0.11060480861E+04 -0.12429896342E+04  0.13306451432E+04  0.21304890776E+04  0.12699999809E+01 0. -1.
</event>
<event>
 5   0  0.3701250E-08  0.3791764E+04  0.7818609E-02  0.8047925E-01
       -3   -1    0    0    0  501  0.00000000000E+00  0.00000000000E+00  0.23648115061E+04  0.23648115083E+04  0.10100000352E+00 0. -1.
        3   -1    0    0  501    0  0.00000000000E+00  0.00000000000E+00 -0.15199383493E+04  0.15199383526E+04  0.10100000352E+00 0.  1.
    10030    2    1    2    0    0  0.00000000000E+00  0.00000000000E+00  0.84487315686E+03  0.38847498609E+04  0.37917635515E+04 0.  0.
        5    1    3    3  502    0 -0.53996290499E+03  0.67670872979E+03  0.21504677515E+04  0.23181950488E+04  0.46999998093E+01 0. -1.
       -5    1    3    3    0  502  0.53996290499E+03 -0.67670872979E+03 -0.13055945947E+04  0.15665548121E+04  0.46999998093E+01 0.  1.
</event>
<event>
 5   0  0.3701250E-08  0.3794392E+04  0.7818609E-02  0.8047359E-01
       -1   -1    0    0    0  501  0.00000000000E+00  0.00000000000E+00  0.15414394149E+04  0.15414394149E+04  0.50400001928E-02 0. -1.
        1   -1    0    0  501    0  0.00000000000E+00  0.00000000000E+00 -0.23350590082E+04  0.23350590083E+04  0.50400001928E-02 0.  1.
    10030    2    1    2    0    0  0.00000000000E+00  0.00000000000E+00 -0.79361959339E+03  0.38764984231E+04  0.37943916463E+04 0.  0.
        1    1    3    3  502    0  0.33748242077E+03 -0.16017673539E+04 -0.13766244072E+04  0.21388426306E+04  0.50400001928E-02 0.  1.
       -1    1    3    3    0  502 -0.33748242077E+03  0.16017673539E+04  0.58300481378E+03  0.17376557925E+04  0.50400001928E-02 0. -1.
</event>
<event>
 5   0  0.1150235E-07  0.3818817E+04  0.7818609E-02  0.8042129E-01
       -2   -1    0    0    0  501  0.00000000000E+00  0.00000000000E+00  0.14570672949E+04  0.14570672949E+04  0.25500000920E-02 0. -1.
        2   -1    0    0  501    0  0.00000000000E+00  0.00000000000E+00 -0.25021778260E+04  0.25021778260E+04  0.25500000920E-02 0.  1.
    10030    2    1    2    0    0  0.00000000000E+00  0.00000000000E+00 -0.10451105311E+04  0.39592451209E+04  0.38188173438E+04 0.  0.
        4    1    3    3  502    0 -0.18972722950E+04  0.20961277425E+03 -0.57184491089E+03  0.19926334062E+04  0.12699999809E+01 0. -1.
       -4    1    3    3    0  502  0.18972722950E+04 -0.20961277425E+03 -0.47326562017E+03  0.19666117147E+04  0.12699999809E+01 0.  1.
</event>
<event>
 5   0  0.1193861E-07  0.3807140E+04  0.7818609E-02  0.8044624E-01
        2   -1    0    0  501    0  0.00000000000E+00  0.00000000000E+00  0.20058733614E+04  0.20058733614E+04  0.25500000920E-02 0.  1.
       -2   -1    0    0    0  501  0.00000000000E+00  0.00000000000E+00 -0.18064840790E+04  0.18064840790E+04  0.25500000920E-02 0. -1.
    10030    2    1    2    0    0  0.00000000000E+00  0.00000000000E+00  0.19938928232E+03  0.38123574404E+04  0.38071397620E+04 0.  0.
        3    1    3    3  502    0  0.88189386754E+03  0.10762468740E+03  0.17855275008E+04  0.19943491002E+04  0.10100000352E+00 0.  1.
       -3    1    3    3    0  502 -0.88189386754E+03 -0.10762468740E+03 -0.15861382185E+04  0.18180083403E+04  0.10100000352E+00 0. -1.
</event>
<event>
 5   0  0.7858367E-08  0.3826481E+04  0.7818609E-02  0.8040496E-01
        2   -1    0    0  501    0  0.00000000000E+00  0.00000000000E+00  0.18661275879E+04  0.18661275879E+04  0.25500000920E-02 0.  1.
       -2   -1    0    0    0  501  0.00000000000E+00  0.00000000000E+00 -0.19615429153E+04  0.19615429153E+04  0.25500000920E-02 0. -1.
    10030    2    1    2    0    0  0.00000000000E+00  0.00000000000E+00 -0.95415327406E+02  0.38276705033E+04  0.38264810723E+04 0.  0.
        2    1    3    3  502    0 -0.18673651128E+04  0.10506388263E+03  0.35540453090E+03  0.19037865596E+04  0.25500000920E-02 0. -1.
       -2    1    3    3    0  502  0.18673651128E+04 -0.10506388263E+03 -0.45081985830E+03  0.19238839437E+04  0.25500000920E-02 0.  1.
</event>
<event>
 5   0  0.7858367E-08  0.3780749E+04  0.7818609E-02  0.8050299E-01
        2   -1    0    0  501    0  0.00000000000E+00  0.00000000000E+00  0.20248650393E+04  0.20248650393E+04  0.25500000920E-02 0. -1.
       -2   -1    0    0    0  501  0.00000000000E+00  0.00000000000E+00 -0.17648168362E+04  0.17648168362E+04  0.25500000920E-02 0.  1.
    10030    2    1    2    0    0  0.00000000000E+00  0.00000000000E+00  0.26004820311E+03  0.37896818754E+04  0.37807490857E+04 0.  0.
        2    1    3    3  502    0  0.71308237098E+03 -0.99506924150E+01  0.18848547437E+04  0.20152575242E+04  0.25500000920E-02 0. -1.
       -2    1    3    3    0  502 -0.71308237098E+03  0.99506924150E+01 -0.16248065406E+04  0.17744243513E+04  0.25500000920E-02 0.  1.
</event>
<event>
 5   0  0.1150235E-07  0.3798465E+04  0.7818609E-02  0.8046484E-01
        2   -1    0    0  501    0  0.00000000000E+00  0.00000000000E+00  0.24088692121E+04  0.24088692121E+04  0.25500000920E-02 0.  1.
       -2   -1    0    0    0  501  0.00000000000E+00  0.00000000000E+00 -0.14974177600E+04  0.14974177600E+04  0.25500000920E-02 0. -1.
    10030    2    1    2    0    0  0.00000000000E+00  0.00000000000E+00  0.91145145207E+03  0.39062869720E+04  0.37984647107E+04 0.  0.
        4    1    3    3  502    0  0.14610915729E+04 -0.11895500314E+04  0.70181752223E+03  0.20105639281E+04  0.12699999809E+01 0.  1.
       -4    1    3    3    0  502 -0.14610915729E+04  0.11895500314E+04  0.20963392984E+03  0.18957230439E+04  0.12699999809E+01 0. -1.
</event>
<event>
 5   0  0.1174870E-07  0.3811678E+04  0.7818609E-02  0.8043654E-01
       -2   -1    0    0    0  501  0.00000000000E+00  0.00000000000E+00  0.28966923780E+04  0.28966923780E+04  0.25500000920E-02 0. -1.
        2   -1    0    0  501    0  0.00000000000E+00  0.00000000000E+00 -0.12539203623E+04  0.12539203623E+04  0.25500000920E-02 0.  1.
    10030    2    1    2    0    0  0.00000000000E+00  0.00000000000E+00  0.16427720157E+04  0.41506127404E+04  0.38116776129E+04 0.  0.
        5    1    3    3  502    0  0.10179569790E+04 -0.96096178358E+03  0.22296404497E+04  0.26326797348E+04  0.46999998093E+01 0. -1.
       -5    1    3    3    0  502 -0.10179569790E+04  0.96096178358E+03 -0.58686843402E+03  0.15179330056E+04  0.46999998093E+01 0.  1.
</event>
<event>
 5   0  0.1174870E-07  0.3828649E+04  0.7818609E-02  0.8040035E-01
       -2   -1    0    0    0  501  0.00000000000E+00  0.00000000000E+00  0.17644159441E+04  0.17644159441E+04  0.25500000920E-02 0. -1.
        2   -1    0    0  501    0  0.00000000000E+00  0.00000000000E+00 -0.20769697135E+04  0.20769697135E+04  0.25500000920E-02 0.  1.
    10030    2    1    2    0    0  0.00000000000E+00  0.00000000000E+00 -0.31255376942E+03  0.38413856576E+04  0.38286490974E+04 0.  0.
        5    1    3    3  502    0  0.17433810929E+04 -0.54796201520E+02 -0.94772046046E+03  0.19850885169E+04  0.46999998093E+01 0.  1.
       -5    1    3    3    0  502 -0.17433810929E+04  0.54796201520E+02  0.63516669104E+03  0.18562971406E+04  0.46999998093E+01 0. -1.
</event>
<event>
 5   0  0.1193861E-07  0.3802667E+04  0.7818609E-02  0.8045583E-01
        2   -1    0    0  501    0  0.00000000000E+00  0.00000000000E+00  0.18642474394E+04  0.18642474394E+04  0.25500000920E-02 0. -1.
       -2   -1    0    0    0  501  0.00000000000E+00  0.00000000000E+00 -0.19391569689E+04  0.19391569689E+04  0.25500000920E-02 0.  1.
    10030    2    1    2    0    0  0.00000000000E+00  0.00000000000E+00 -0.74909529541E+02  0.38034044084E+04  0.38026666506E+04 0.  0.
        3    1    3    3  502    0  0.10450130486E+03 -0.12168772495E+04 -0.14949120124E+04  0.19304073917E+04  0.10100000352E+00 0.  1.
       -3    1    3    3    0  502 -0.10450130486E+03  0.12168772495E+04  0.14200024828E+04  0.18729970167E+04  0.10100000352E+00 0. -1.
</event>
<event>
 5   0  0.3701250E-08  0.3797184E+04  0.7818609E-02  0.8046759E-01
        1   -1    0    0  501    0  0.00000000000E+00  0.00000000000E+00  0.25106982083E+04  0.25106982083E+04  0.50400001928E-02 0. -1.
       -1   -1    0    0    0  501  0.00000000000E+00  0.00000000000E+00 -0.14357170477E+04  0.14357170477E+04  0.50400001928E-02 0.  1.
    10030    2    1    2    0    0  0.00000000000E+00  0.00000000000E+00  0.10749811606E+04  0.39464152559E+04  0.37971843354E+04 0.  0.
        4    1    3    3  502    0 -0.63510762858E+03 -0.16998275949E+04 -0.42914786889E+02  0.18151084937E+04  0.12699999809E+01 0.  1.
       -4    1    3    3    0  502  0.63510762858E+03  0.16998275949E+04  0.11178959475E+04  0.21313067622E+04  0.12699999809E+01 0. -1.
</event>
<event>
 5   0  0.3701250E-08  0.3814902E+04  0.7818609E-02  0.8042965E-01
        1   -1    0    0  501    0  0.00000000000E+00  0.00000000000E+00  0.26664183613E+04  0.26664183613E+04  0.50400001928E-02 0. -1.
       -1   -1    0    0    0  501  0.00000000000E+00  0.00000000000E+00 -0.13645154171E+04  0.13645154172E+04  0.50400001928E-02 0.  1.
    10030    2    1    2    0    0  0.00000000000E+00  0.00000000000E+00  0.13019029442E+04  0.40309337785E+04  0.38149018140E+04 0.  0.
        1    1    3    3  502    0 -0.12437891998E+04  0.67667204197E+03 -0.69949753741E+03  0.15793015643E+04  0.50400001928E-02 0. -1.
       -1    1    3    3    0  502  0.12437891998E+04 -0.67667204197E+03  0.20014004816E+04  0.24516322142E+04  0.50400001928E-02 0.  1.
</event>
<event>
 5   0  0.7858367E-08  0.3794511E+04  0.7818609E-02  0.8047334E-01
       -2   -1    0    0    0  501  0.00000000000E+00  0.00000000000E+00  0.25858029550E+04  0.25858029550E+04  0.25500000920E-02 0.  1.
        2   -1    0    0  501    0  0.00000000000E+00  0.00000000000E+00 -0.13920543992E+04  0.13920543992E+04  0.25500000920E-02 0. -1.
    10030    2    1    2    0    0  0.00000000000E+00  0.00000000000E+00  0.11937485557E+04  0.39778573542E+04  0.37945109719E+04 0.  0.
        2    1    3    3  502    0  0.15571449734E+04 -0.35831589042E+03  0.16692832596E+04  0.23107568773E+04  0.25500000920E-02 0.  1.
       -2    1    3    3    0  502 -0.15571449734E+04  0.35831589042E+03 -0.47553470385E+03  0.16671004769E+04  0.25500000920E-02 0. -1.
</event>
<event>
 5   0  0.7858367E-08  0.3808544E+04  0.7818609E-02  0.8044324E-01
        2   -1    0    0  501    0  0.00000000000E+00  0.00000000000E+00  0.16565964160E+04  0.16565964160E+04  0.25500000920E-02 0. -1.
       -2   -1    0    0    0  501  0.00000000000E+00  0.00000000000E+00 -0.21889772870E+04  0.21889772870E+04  0.25500000920E-02 0.  1.
    10030    2    1    2    0    0  0.00000000000E+00  0.00000000000E+00 -0.53238087102E+03  0.38455737030E+04  0.38085440412E+04 0.  0.
        2    1    3    3  502    0  0.82746545158E+03 -0.16428589366E+04 -0.76349030629E+03  0.19916330001E+04  0.25500000920E-02 0.  1.
       -2    1    3    3    0  502 -0.82746545158E+03  0.16428589366E+04  0.23110943527E+03  0.18539407030E+04  0.25500000920E-02 0. -1.
</event>
<event>
 5   0  0.3889225E-08  0.3806456E+04  0.7818609E-02  0.8044771E-01
       -1   -1    0    0    0  501  0.00000000000E+00  0.00000000000E+00  0.22924238047E+04  0.22924238047E+04  0.50400001928E-02 0.  1.
        1   -1    0    0  501    0  0.00000000000E+00  0.00000000000E+00 -0.15801077969E+04  0.15801077969E+04  0.50400001928E-02 0. -1.
    10030    2    1    2    0    0  0.00000000000E+00  0.00000000000E+00  0.71231600781E+03  0.38725316016E+04  0.38064559514E+04 0.  0.
        5    1    3    3  502    0 -0.18047422481E+04  0.59930634861E+03  0.27740657058E+03  0.19217802104E+04  0.46999998093E+01 0. -1.
       -5    1    3    3    0  502  0.18047422481E+04 -0.59930634861E+03  0.43490943723E+03  0.19507513912E+04  0.46999998093E+01 0.  1.
</event>
<event>
 5   0  0.3889225E-08  0.3802065E+04  0.7818609E-02  0.8045712E-01
       -1   -1    0    0    0  501  0.00000000000E+00  0.00000000000E+00  0.17679272720E+04  0.17679272721E+04  0.50400001928E-02 0.  1.
        1   -1    0    0  501    0  0.00000000000E+00  0.00000000000E+00 -0.20441593388E+04  0.20441593388E+04  0.50400001928E-02 0. -1.
    10030    2    1    2    0    0  0.00000000000E+00  0.00000000000E+00 -0.27623206678E+03  0.38120866109E+04  0.38020652512E+04 0.  0.
        5    1    3    3  502    0  0.18740353173E+04 -0.76854373866E+02 -0.44875192827E+03  0.19285526564E+04  0.46999998093E+01 0.  1.
       -5    1    3    3    0  502 -0.18740353173E+04  0.76854373866E+02  0.17251986148E+03  0.18835339545E+04  0.46999998093E+01 0. -1.
</event>
<event>
 5   0  0.1150235E-07  0.3804749E+04  0.7818609E-02  0.8045137E-01
        2   -1    0    0  501    0  0.00000000000E+00  0.00000000000E+00  0.20987132594E+04  0.20987132594E+04  0.25500000920E-02 0.  1.
       -2   -1    0    0    0  501  0.00000000000E+00  0.00000000000E+00 -0.17244034438E+04  0.17244034438E+04  0.25500000920E-02 0. -1.
    10030    2    1    2    0    0  0.00000000000E+00  0.00000000000E+00  0.37430981562E+03  0.38231167032E+04  0.38047488075E+04 0.  0.
        4    1    3    3  502    0  0.11457206994E+04  0.14623071499E+04  0.59902226277E+03  0.19518830410E+04  0.12699999809E+01 0.  1.
       -4    1    3    3    0  502 -0.11457206994E+04 -0.14623071499E+04 -0.22471244716E+03  0.18712336622E+04  0.12699999809E+01 0. -1.
</event>
<event>
 5   0  0.3889225E-08  0.3812902E+04  0.7818609E-02  0.8043392E-01
        1   -1    0    0  501    0  0.00000000000E+00  0.00000000000E+00  0.29561914385E+04  0.29561914385E+04  0.50400001928E-02 0. -1.
       -1   -1    0    0    0  501  0.00000000000E+00  0.00000000000E+00 -0.12294725580E+04  0.12294725580E+04  0.50400001928E-02 0.  1.
    10030    2    1    2    0    0  0.00000000000E+00  0.00000000000E+00  0.17267188805E+04  0.41856639965E+04  0.38129024377E+04 0.  0.
        5    1    3    3  502    0 -0.13373691711E+04  0.13374301885E+04  0.11260400931E+04  0.22011960818E+04  0.46999998093E+01 0. -1.
       -5    1    3    3    0  502  0.13373691711E+04 -0.13374301885E+04  0.60067878734E+03  0.19844679147E+04  0.46999998093E+01 0.  1.
</event>
<event>
 5   0  0.3701250E-08  0.3797965E+04  0.7818609E-02  0.8046592E-01
        1   -1    0    0  501    0  0.00000000000E+00  0.00000000000E+00  0.17705986653E+04  0.17705986654E+04  0.50400001928E-02 0. -1.
       -1   -1    0    0    0  501  0.00000000000E+00  0.00000000000E+00 -0.20366749289E+04  0.20366749289E+04  0.50400001928E-02 0.  1.
    10030    2    1    2    0    0  0.00000000000E+00  0.00000000000E+00 -0.26607626351E+03  0.38072735942E+04  0.37979646711E+04 0.  0.
        2    1    3    3  502    0 -0.10080604483E+04  0.15950478257E+04 -0.34750286445E+03  0.19186249437E+04  0.25500000920E-02 0.  1.
       -2    1    3    3    0  502  0.10080604483E+04 -0.15950478257E+04  0.81426600941E+02  0.18886486505E+04  0.25500000920E-02 0. -1.
</event>
<event>
 5   0  0.3701250E-08  0.3741037E+04  0.7818609E-02  0.8058928E-01
        1   -1    0    0  501    0  0.00000000000E+00  0.00000000000E+00  0.20859704574E+04  0.20859704574E+04  0.50400001928E-02 0. -1.
       -1   -1    0    0    0  501  0.00000000000E+00  0.00000000000E+00 -0.16773196619E+04  0.16773196619E+04  0.50400001928E-02 0.  1.
    10030    2    1    2    0    0  0.00000000000E+00  0.00000000000E+00  0.40865079548E+03  0.37632901194E+04  0.37410368950E+04 0.  0.
        4    1    3    3  502    0  0.13399353608E+04 -0.23752893481E+03 -0.10866599301E+04  0.17414586365E+04  0.12699999809E+01 0.  1.
       -4    1    3    3    0  502 -0.13399353608E+04  0.23752893481E+03  0.14953107256E+04  0.20218314829E+04  0.12699999809E+01 0. -1.
</event>
<event>
 5   0  0.3701250E-08  0.3789149E+04  0.7818609E-02  0.8048487E-01
        1   -1    0    0  501    0  0.00000000000E+00  0.00000000000E+00  0.24516207679E+04  0.24516207679E+04  0.50400001928E-02 0. -1.
       -1   -1    0    0    0  501  0.00000000000E+00  0.00000000000E+00 -0.14640978372E+04  0.14640978372E+04  0.50400001928E-02 0.  1.
    10030    2    1    2    0    0  0.00000000000E+00  0.00000000000E+00  0.98752293069E+03  0.39157186051E+04  0.37891490675E+04 0.  0.
        1    1    3    3  502    0  0.72931784801E+03  0.22246786918E+03 -0.12985350818E+04  0.15058518635E+04  0.50400001928E-02 0.  1.
       -1    1    3    3    0  502 -0.72931784801E+03 -0.22246786918E+03  0.22860580124E+04  0.24098667416E+04  0.50400001928E-02 0. -1.
</event>
<event>
 5   0  0.3701250E-08  0.3786170E+04  0.7818609E-02  0.8049129E-01
       -1   -1    0    0    0  501  0.00000000000E+00  0.00000000000E+00  0.16642550118E+04  0.16642550118E+04  0.50400001928E-02 0.  1.
        1   -1    0    0  501    0  0.00000000000E+00  0.00000000000E+00 -0.21533789573E+04  0.21533789573E+04  0.50400001928E-02 0. -1.
    10030    2    1    2    0    0  0.00000000000E+00  0.00000000000E+00 -0.48912394547E+03  0.38176339691E+04  0.37861704779E+04 0.  0.
        1    1    3    3  502    0  0.13022351388E+04 -0.12931485318E+04 -0.71288076181E+03  0.19688190528E+04  0.50400001928E-02 0. -1.
       -1    1    3    3    0  502 -0.13022351388E+04  0.12931485318E+04  0.22375681634E+03  0.18488149163E+04  0.50400001928E-02 0.  1.
</event>
<event>
 5   0  0.1174870E-07  0.3794095E+04  0.7818609E-02  0.8047423E-01
        2   -1    0    0  501    0  0.00000000000E+00  0.00000000000E+00  0.23505591995E+04  0.23505591995E+04  0.25500000920E-02 0. -1.
       -2   -1    0    0    0  501  0.00000000000E+00  0.00000000000E+00 -0.15310355578E+04  0.15310355578E+04  0.25500000920E-02 0.  1.
    10030    2    1    2    0    0  0.00000000000E+00  0.00000000000E+00  0.81952364176E+03  0.38815947573E+04  0.37940952624E+04 0.  0.
        5    1    3    3  502    0 -0.10590922863E+04 -0.15725635055E+04  0.34397347994E+03  0.19269074432E+04  0.46999998093E+01 0. -1.
       -5    1    3    3    0  502  0.10590922863E+04  0.15725635055E+04  0.47555016182E+03  0.19546873141E+04  0.46999998093E+01 0.  1.
</event>
<event>
 5   0  0.3889225E-08  0.3801086E+04  0.7818609E-02  0.8045922E-01
       -1   -1    0    0    0  501  0.00000000000E+00  0.00000000000E+00  0.33047091413E+04  0.33047091413E+04  0.50400001928E-02 0. -1.
        1   -1    0    0  501    0  0.00000000000E+00  0.00000000000E+00 -0.10930049097E+04  0.10930049097E+04  0.50400001928E-02 0.  1.
    10030    2    1    2    0    0  0.00000000000E+00  0.00000000000E+00  0.22117042316E+04  0.43977140510E+04  0.38010858010E+04 0.  0.
        5    1    3    3  502    0  0.11309786542E+04  0.12480967759E+04  0.87210488816E+02  0.16865604163E+04  0.46999998093E+01 0.  1.
       -5    1    3    3    0  502 -0.11309786542E+04 -0.12480967759E+04  0.21244937428E+04  0.27111536348E+04  0.46999998093E+01 0. -1.
</event>
<event>
 5   0  0.1143283E-07  0.3806645E+04  0.7818609E-02  0.8044730E-01
       -2   -1    0    0    0  501  0.00000000000E+00  0.00000000000E+00  0.25970725566E+04  0.25970725566E+04  0.25500000920E-02 0. -1.
        2   -1    0    0  501    0  0.00000000000E+00  0.00000000000E+00 -0.13948926268E+04  0.13948926268E+04  0.25500000920E-02 0.  1.
    10030    2    1    2    0    0  0.00000000000E+00  0.00000000000E+00  0.12021799298E+04  0.39919651834E+04  0.38066454316E+04 0.  0.
        1    1    3    3  502    0 -0.11469044441E+04 -0.20467068286E+03 -0.97729410669E+03  0.15206523808E+04  0.50400001928E-02 0.  1.
       -1    1    3    3    0  502  0.11469044441E+04  0.20467068286E+03  0.21794740365E+04  0.24713128025E+04  0.50400001928E-02 0. -1.
</event>
<event>
 5   0  0.3701250E-08  0.3795691E+04  0.7818609E-02  0.8047080E-01
       -1   -1    0    0    0  501  0.00000000000E+00  0.00000000000E+00  0.17692782379E+04  0.17692782379E+04  0.50400001928E-02 0. -1.
        1   -1    0    0  501    0  0.00000000000E+00  0.00000000000E+00 -0.20357548200E+04  0.20357548200E+04  0.50400001928E-02 0.  1.
    10030    2    1    2    0    0  0.00000000000E+00  0.00000000000E+00 -0.26647658212E+03  0.38050330579E+04  0.37956905568E+04 0.  0.
        3    1    3    3  502    0 -0.10976935893E+04 -0.12597092374E+04 -0.10354635875E+04  0.19657017653E+04  0.10100000352E+00 0.  1.
       -3    1    3    3    0  502  0.10976935893E+04  0.12597092374E+04  0.76898700539E+03  0.18393312925E+04  0.10100000352E+00 0. -1.
</event>
<event>
 5   0  0.1174870E-07  0.3800051E+04  0.7818609E-02  0.8046144E-01
       -2   -1    0    0    0  501  0.00000000000E+00  0.00000000000E+00  0.22821885747E+04  0.22821885747E+04  0.25500000920E-02 0. -1.
        2   -1    0    0  501    0  0.00000000000E+00  0.00000000000E+00 -0.15818578141E+04  0.15818578141E+04  0.25500000920E-02 0.  1.
    10030    2    1    2    0    0  0.00000000000E+00  0.00000000000E+00  0.70033076055E+03  0.38640463888E+04  0.38000514892E+04 0.  0.
        5    1    3    3  502    0  0.18914278106E+04  0.97303980159E+02  0.19559052528E+03  0.19040076079E+04  0.46999998093E+01 0.  1.
       -5    1    3    3    0  502 -0.18914278106E+04 -0.97303980159E+02  0.50474023528E+03  0.19600387809E+04  0.46999998093E+01 0. -1.
</event>
<event>
 5   0  0.1193861E-07  0.3801264E+04  0.7818609E-02  0.8045884E-01
       -2   -1    0    0    0  501  0.00000000000E+00  0.00000000000E+00  0.15587044181E+04  0.15587044181E+04  0.25500000920E-02 0.  1.
        2   -1    0    0  501    0  0.00000000000E+00  0.00000000000E+00 -0.23175667870E+04  0.23175667870E+04  0.25500000920E-02 0. -1.
    10030    2    1    2    0    0  0.00000000000E+00  0.00000000000E+00 -0.75886236887E+03  0.38762712051E+04  0.38012637847E+04 0.  0.
        3    1    3    3  502    0  0.11097417175E+04  0.10945198891E+04  0.72964241437E+03  0.17210109036E+04  0.10100000352E+00 0.  1.
       -3    1    3    3    0  502 -0.11097417175E+04 -0.10945198891E+04 -0.14885047832E+04  0.21552603015E+04  0.10100000352E+00 0. -1.
</event>
<event>
 5   0  0.1143283E-07  0.3789642E+04  0.7818609E-02  0.8048381E-01
       -2   -1    0    0    0  501  0.00000000000E+00  0.00000000000E+00  0.11585404869E+04  0.11585404869E+04  0.25500000920E-02 0.  1.
        2   -1    0    0  501    0  0.00000000000E+00  0.00000000000E+00 -0.30990252371E+04  0.30990252371E+04  0.25500000920E-02 0. -1.
    10030    2    1    2    0    0  0.00000000000E+00  0.00000000000E+00 -0.19404847502E+04  0.42575657239E+04  0.37896417810E+04 0.  0.
        1    1    3    3  502    0 -0.31756744691E+03  0.15904852961E+04 -0.20709341232E+04  0.26304487646E+04  0.50400001928E-02 0. -1.
       -1    1    3    3    0  502  0.31756744691E+03 -0.15904852961E+04  0.13044937297E+03  0.16271169594E+04  0.50400001928E-02 0.  1.
</event>
<event>
 5   0  0.3701250E-08  0.3798659E+04  0.7818609E-02  0.8046443E-01
       -1   -1    0    0    0  501  0.00000000000E+00  0.00000000000E+00  0.14480101697E+04  0.14480101697E+04  0.50400001928E-02 0. -1.
        1   -1    0    0  501    0  0.00000000000E+00  0.00000000000E+00 -0.24913174057E+04  0.24913174057E+04  0.50400001928E-02 0.  1.
    10030    2    1    2    0    0  0.00000000000E+00  0.00000000000E+00 -0.10433072360E+04  0.39393275754E+04  0.37986592053E+04 0.  0.
        1    1    3    3  502    0 -0.11406910291E+03  0.83565702024E+03 -0.22864716358E+04  0.24370652345E+04  0.50400001928E-02 0.  1.
       -1    1    3    3    0  502  0.11406910291E+03 -0.83565702024E+03  0.12431643999E+04  0.15022623409E+04  0.50400001928E-02 0. -1.
</event>
<event>
 5   0  0.7858367E-08  0.3843488E+04  0.7818609E-02  0.8036886E-01
       -2   -1    0    0    0  501  0.00000000000E+00  0.00000000000E+00  0.21700298835E+04  0.21700298835E+04  0.25500000920E-02 0. -1.
        2   -1    0    0  501    0  0.00000000000E+00  0.00000000000E+00 -0.17018656069E+04  0.17018656069E+04  0.25500000920E-02 0.  1.
    10030    2    1    2    0    0  0.00000000000E+00  0.00000000000E+00  0.46816427663E+03  0.38718954904E+04  0.38434875957E+04 0.  0.
        2    1    3    3  502    0 -0.12675338747E+04 -0.13892337421E+04  0.63258998209E+03  0.19841327070E+04  0.25500000920E-02 0. -1.
       -2    1    3    3    0  502  0.12675338747E+04  0.13892337421E+04 -0.16442570546E+03  0.18877627833E+04  0.25500000920E-02 0.  1.
</event>
<event>
 5   0  0.1143283E-07  0.3800665E+04  0.7818609E-02  0.8046012E-01
        2   -1    0    0  501    0  0.00000000000E+00  0.00000000000E+00  0.21357310506E+04  0.21357310506E+04  0.25500000920E-02 0. -1.
       -2   -1    0    0    0  501  0.00000000000E+00  0.00000000000E+00 -0.16908794341E+04  0.16908794341E+04  0.25500000920E-02 0.  1.
    10030    2    1    2    0    0  0.00000000000E+00  0.00000000000E+00  0.44485161649E+03  0.38266104846E+04  0.38006650524E+04 0.  0.
        1    1    3    3  502    0 -0.75290957272E+03 -0.16915259569E+04  0.65328502000E+03  0.19633935431E+04  0.50400001928E-02 0. -1.
       -1    1    3    3    0  502  0.75290957272E+03  0.16915259569E+04 -0.20843340351E+03  0.18632169416E+04  0.50400001928E-02 0.  1.
</event>
<event>
 5   0  0.1193861E-07  0.3776972E+04  0.7818609E-02  0.8051115E-01
       -2   -1    0    0    0  501  0.00000000000E+00  0.00000000000E+00  0.15758212211E+04  0.15758212211E+04  0.25500000920E-02 0. -1.
        2   -1    0    0  501    0  0.00000000000E+00  0.00000000000E+00 -0.22631880830E+04  0.22631880830E+04  0.25500000920E-02 0.  1.
    10030    2    1    2    0    0  0.00000000000E+00  0.00000000000E+00 -0.68736686186E+03  0.38390093041E+04  0.37769722311E+04 0.  0.
        3    1    3    3  502    0  0.99190365687E+03 -0.15265776031E+04  0.16662650010E+03  0.18281346896E+04  0.10100000352E+00 0.  1.
       -3    1    3    3    0  502 -0.99190365687E+03  0.15265776031E+04 -0.85399336196E+03  0.20108746145E+04  0.10100000352E+00 0. -1.
</event>
<event>
 5   0  0.3889225E-08  0.3682324E+04  0.7818609E-02  0.8071890E-01
       -1   -1    0    0    0  501  0.00000000000E+00  0.00000000000E+00  0.11177755175E+04  0.11177755175E+04  0.50400001928E-02 0.  1.
        1   -1    0    0  501    0  0.00000000000E+00  0.00000000000E+00 -0.30327002821E+04  0.30327002821E+04  0.50400001928E-02 0. -1.
    10030    2    1    2    0    0  0.00000000000E+00  0.00000000000E+00 -0.19149247646E+04  0.41504757997E+04  0.36823243352E+04 0.  0.
        5    1    3    3  502    0  0.10931566721E+04  0.57509916405E+03 -0.24963730817E+04  0.27852524502E+04  0.46999998093E+01 0. -1.
       -5    1    3    3    0  502 -0.10931566721E+04 -0.57509916405E+03  0.58144831714E+03  0.13652233494E+04  0.46999998093E+01 0.  1.
</event>
<event>
 5   0  0.1174870E-07  0.3796534E+04  0.7818609E-02  0.8046899E-01
       -2   -1    0    0    0  501  0.00000000000E+00  0.00000000000E+00  0.16015869556E+04  0.16015869556E+04  0.25500000920E-02 0. -1.
        2   -1    0    0  501    0  0.00000000000E+00  0.00000000000E+00 -0.22499048937E+04  0.22499048937E+04  0.25500000920E-02 0.  1.
    10030    2    1    2    0    0  0.00000000000E+00  0.00000000000E+00 -0.64831793812E+03  0.38514918493E+04  0.37965343824E+04 0.  0.
        5    1    3    3  502    0 -0.68142607705E+03  0.17209901210E+04  0.10294342310E+03  0.18538521876E+04  0.46999998093E+01 0. -1.
       -5    1    3    3    0  502  0.68142607705E+03 -0.17209901210E+04 -0.75126136122E+03  0.19976396617E+04  0.46999998093E+01 0.  1.
</event>
<event>
 5   0  0.3701250E-08  0.3788737E+04  0.7818609E-02  0.8048576E-01
       -1   -1    0    0    0  501  0.00000000000E+00  0.00000000000E+00  0.14324071439E+04  0.14324071439E+04  0.50400001928E-02 0. -1.
        1   -1    0    0  501    0  0.00000000000E+00  0.00000000000E+00 -0.25053160483E+04  0.25053160483E+04  0.50400001928E-02 0.  1.
    10030    2    1    2    0    0  0.00000000000E+00  0.00000000000E+00 -0.10729089043E+04  0.39377231922E+04  0.37887373123E+04 0.  0.
        1    1    3    3  502    0  0.21870545052E+03  0.75832662607E+03 -0.23263072630E+04  0.24565416398E+04  0.50400001928E-02 0.  1.
       -1    1    3    3    0  502 -0.21870545052E+03 -0.75832662607E+03  0.12533983587E+04  0.14811815525E+04  0.50400001928E-02 0. -1.
</event>
<event>
 5   0  0.7858367E-08  0.3785586E+04  0.7818609E-02  0.8049255E-01
       -2   -1    0    0    0  501  0.00000000000E+00  0.00000000000E+00  0.12128690918E+04  0.12128690918E+04  0.25500000920E-02 0. -1.
        2   -1    0    0  501    0  0.00000000000E+00  0.00000000000E+00 -0.29538770034E+04  0.29538770034E+04  0.25500000920E-02 0.  1.
    10030    2    1    2    0    0  0.00000000000E+00  0.00000000000E+00 -0.17410079117E+04  0.41667460952E+04  0.37855864108E+04 0.  0.
        2    1    3    3  502    0  0.23187540194E+03  0.12370185941E+04  0.68559080454E+03  0.14331838527E+04  0.25500000920E-02 0. -1.
       -2    1    3    3    0  502 -0.23187540194E+03 -0.12370185941E+04 -0.24265987162E+04  0.27335622425E+04  0.25500000920E-02 0.  1.
</event>
<event>
 5   0  0.1150235E-07  0.3801582E+04  0.7818609E-02  0.8045815E-01
        2   -1    0    0  501    0  0.00000000000E+00  0.00000000000E+00  0.11304298821E+04  0.11304298821E+04  0.25500000920E-02 0. -1.
       -2   -1    0    0    0  501  0.00000000000E+00  0.00000000000E+00 -0.31961347624E+04  0.31961347624E+04  0.25500000920E-02 0.  1.
    10030    2    1    2    0    0  0.00000000000E+00  0.00000000000E+00 -0.20657048803E+04  0.43265646445E+04  0.38015819037E+04 0.  0.
        4    1    3    3  502    0  0.13249111113E+04  0.12133865334E+04 -0.32639984300E+03  0.18259887192E+04  0.12699999809E+01 0. -1.
       -4    1    3    3    0  502 -0.13249111113E+04 -0.12133865334E+04 -0.17393050373E+04  0.25005759253E+04  0.12699999809E+01 0.  1.
</event>
<event>
 5   0  0.3701250E-08  0.3775712E+04  0.7818609E-02  0.8051387E-01
       -1   -1    0    0    0  501  0.00000000000E+00  0.00000000000E+00  0.13938942469E+04  0.13938942469E+04  0.50400001928E-02 0.  1.
        1   -1    0    0  501    0  0.00000000000E+00  0.00000000000E+00 -0.25568652378E+04  0.25568652378E+04  0.50400001928E-02 0. -1.
    10030    2    1    2    0    0  0.00000000000E+00  0.00000000000E+00 -0.11629709909E+04  0.39507594846E+04  0.37757117183E+04 0.  0.
        2    1    3    3  502    0  0.45639146579E+03 -0.14042100825E+04 -0.18124179303E+04  0.23377249367E+04  0.25500000920E-02 0. -1.
       -2    1    3    3    0  502 -0.45639146579E+03  0.14042100825E+04  0.64944693940E+03  0.16130345479E+04  0.25500000920E-02 0.  1.
</event>
<event>
 5   0  0.3701250E-08  0.3674045E+04  0.7818609E-02  0.8073738E-01
        1   -1    0    0  501    0  0.00000000000E+00  0.00000000000E+00  0.25452301477E+04  0.25452301477E+04  0.50400001928E-02 0.  1.
       -1   -1    0    0    0  501  0.00000000000E+00  0.00000000000E+00 -0.13258726416E+04  0.13258726416E+04  0.50400001928E-02 0. -1.
    10030    2    1    2    0    0  0.00000000000E+00  0.00000000000E+00  0.12193575061E+04  0.38711027893E+04  0.36740446483E+04 0.  0.
        3    1    3    3  502    0 -0.54346117885E+02  0.63562488562E+03 -0.12054134856E+04  0.13638160350E+04  0.10100000352E+00 0. -1.
       -3    1    3    3    0  502  0.54346117885E+02 -0.63562488562E+03  0.24247709917E+04  0.25072867543E+04  0.10100000352E+00 0.  1.
</event>
<event>
 5   0  0.1174870E-07  0.3806115E+04  0.7818609E-02  0.8044844E-01
       -2   -1    0    0    0  501  0.00000000000E+00  0.00000000000E+00  0.16042072308E+04  0.16042072308E+04  0.25500000920E-02 0. -1.
        2   -1    0    0  501    0  0.00000000000E+00  0.00000000000E+00 -0.22575806817E+04  0.22575806817E+04  0.25500000920E-02 0.  1.
    10030    2    1    2    0    0  0.00000000000E+00  0.00000000000E+00 -0.65337345092E+03  0.38617879124E+04  0.38061146875E+04 0.  0.
        5    1    3    3  502    0 -0.10832773909E+04  0.92812704080E+03 -0.16047528887E+04  0.21471291609E+04  0.46999998093E+01 0.  1.
       -5    1    3    3    0  502  0.10832773909E+04 -0.92812704080E+03  0.95137943782E+03  0.17146587516E+04  0.46999998093E+01 0. -1.
</event>
<event>
 5   0  0.3889225E-08  0.3802398E+04  0.7818609E-02  0.8045641E-01
        1   -1    0    0  501    0  0.00000000000E+00  0.00000000000E+00  0.19907599679E+04  0.19907599679E+04  0.50400001928E-02 0. -1.
       -1   -1    0    0    0  501  0.00000000000E+00  0.00000000000E+00 -0.18156669956E+04  0.18156669956E+04  0.50400001928E-02 0.  1.
    10030    2    1    2    0    0  0.00000000000E+00  0.00000000000E+00  0.17509297226E+03  0.38064269635E+04  0.38023977540E+04 0.  0.
        5    1    3    3  502    0 -0.83825689725E+02 -0.23115569899E+03  0.19747697153E+04  0.19900244275E+04  0.46999998093E+01 0. -1.
       -5    1    3    3    0  502  0.83825689725E+02  0.23115569899E+03 -0.17996767430E+04  0.18164025360E+04  0.46999998093E+01 0.  1.
</event>
<event>
 5   0  0.7858367E-08  0.3793544E+04  0.7818609E-02  0.8047542E-01
       -2   -1    0    0    0  501  0.00000000000E+00  0.00000000000E+00  0.23392248273E+04  0.23392248273E+04  0.25500000920E-02 0. -1.
        2   -1    0    0  501    0  0.00000000000E+00  0.00000000000E+00 -0.15380070124E+04  0.15380070124E+04  0.25500000920E-02 0.  1.
    10030    2    1    2    0    0  0.00000000000E+00  0.00000000000E+00  0.80121781488E+03  0.38772318397E+04  0.37935440885E+04 0.  0.
        2    1    3    3  502    0 -0.15992683872E+04 -0.15502886855E+03  0.14308393038E+04  0.21515098042E+04  0.25500000920E-02 0. -1.
       -2    1    3    3    0  502  0.15992683872E+04  0.15502886855E+03 -0.62962148891E+03  0.17257220354E+04  0.25500000920E-02 0.  1.
</event>
<event>
 5   0  0.1193861E-07  0.3808660E+04  0.7818609E-02  0.8044299E-01
        2   -1    0    0  501    0  0.00000000000E+00  0.00000000000E+00  0.14555572089E+04  0.14555572089E+04  0.25500000920E-02 0. -1.
       -2   -1    0    0    0  501  0.00000000000E+00  0.00000000000E+00 -0.24914671862E+04  0.24914671862E+04  0.25500000920E-02 0.  1.
    10030    2    1    2    0    0  0.00000000000E+00  0.00000000000E+00 -0.10359099772E+04  0.39470243951E+04  0.38086601443E+04 0.  0.
        3    1    3    3  502    0 -0.16460964396E+04  0.94755984654E+03 -0.66068972566E+03  0.20109734148E+04  0.10100000352E+00 0.  1.
       -3    1    3    3    0  502  0.16460964396E+04 -0.94755984654E+03 -0.37522025158E+03  0.19360509804E+04  0.10100000352E+00 0. -1.
</event>
<event>
 5   0  0.7858367E-08  0.3803849E+04  0.7818609E-02  0.8045330E-01
        2   -1    0    0  501    0  0.00000000000E+00  0.00000000000E+00  0.21248534923E+04  0.21248534923E+04  0.25500000920E-02 0. -1.
       -2   -1    0    0    0  501  0.00000000000E+00  0.00000000000E+00 -0.17023836795E+04  0.17023836796E+04  0.25500000920E-02 0.  1.
    10030    2    1    2    0    0  0.00000000000E+00  0.00000000000E+00  0.42246981272E+03  0.38272371718E+04  0.38038485284E+04 0.  0.
        2    1    3    3  502    0 -0.46462667407E+03 -0.69397929944E+03  0.19304926774E+04  0.21033989617E+04  0.25500000920E-02 0. -1.
       -2    1    3    3    0  502  0.46462667407E+03  0.69397929944E+03 -0.15080228647E+04  0.17238382102E+04  0.25500000920E-02 0.  1.
</event>
<event>
 5   0  0.3701250E-08  0.3802014E+04  0.7818609E-02  0.8045723E-01
       -1   -1    0    0    0  501  0.00000000000E+00  0.00000000000E+00  0.17611558745E+04  0.17611558745E+04  0.50400001928E-02 0. -1.
        1   -1    0    0  501    0  0.00000000000E+00  0.00000000000E+00 -0.20519632207E+04  0.20519632207E+04  0.50400001928E-02 0.  1.
    10030    2    1    2    0    0  0.00000000000E+00  0.00000000000E+00 -0.29080734617E+03  0.38131190952E+04  0.38020137193E+04 0.  0.
        1    1    3    3  502    0 -0.14478581471E+04 -0.10696871377E+04  0.46736647657E+03  0.18598266613E+04  0.50400001928E-02 0. -1.
       -1    1    3    3    0  502  0.14478581471E+04  0.10696871377E+04 -0.75817382274E+03  0.19532924339E+04  0.50400001928E-02 0.  1.
</event>
<event>
 5   0  0.3701250E-08  0.3864269E+04  0.7818609E-02  0.8032502E-01
       -1   -1    0    0    0  501  0.00000000000E+00  0.00000000000E+00  0.23328119251E+04  0.23328119251E+04  0.50400001928E-02 0.  1.
        1   -1    0    0  501    0  0.00000000000E+00  0.00000000000E+00 -0.16002765461E+04  0.16002765461E+04  0.50400001928E-02 0. -1.
    10030    2    1    2    0    0  0.00000000000E+00  0.00000000000E+00  0.73253537893E+03  0.39330884712E+04  0.38642692506E+04 0.  0.
        3    1    3    3  502    0  0.57201685087E+03  0.18273116236E+04  0.62947153824E+03  0.20155657953E+04  0.10100000352E+00 0.  1.
       -3    1    3    3    0  502 -0.57201685087E+03 -0.18273116236E+04  0.10306384069E+03  0.19175226760E+04  0.10100000352E+00 0. -1.
</event>
<event>
 5   0  0.1193861E-07  0.3800322E+04  0.7818609E-02  0.8046086E-01
        2   -1    0    0  501    0  0.00000000000E+00  0.00000000000E+00  0.19940094357E+04  0.19940094357E+04  0.25500000920E-02 0. -1.
       -2   -1    0    0    0  501  0.00000000000E+00  0.00000000000E+00 -0.18107299425E+04  0.18107299425E+04  0.25500000920E-02 0.  1.
    10030    2    1    2    0    0  0.00000000000E+00  0.00000000000E+00  0.18327949326E+03  0.38047393782E+04  0.38003224025E+04 0.  0.
        3    1    3    3  502    0  0.19948137767E+02 -0.74130768671E+03 -0.16598728361E+04  0.18179969353E+04  0.10100000352E+00 0.  1.
       -3    1    3    3    0  502 -0.19948137767E+02  0.74130768671E+03  0.18431523294E+04  0.19867424428E+04  0.10100000352E+00 0. -1.
</event>
<event>
 5   0  0.3701250E-08  0.3771296E+04  0.7818609E-02  0.8052343E-01
        1   -1    0    0  501    0  0.00000000000E+00  0.00000000000E+00  0.20664597067E+04  0.20664597067E+04  0.50400001928E-02 0. -1.
       -1   -1    0    0    0  501  0.00000000000E+00  0.00000000000E+00 -0.17206567510E+04  0.17206567510E+04  0.50400001928E-02 0.  1.
    10030    2    1    2    0    0  0.00000000000E+00  0.00000000000E+00  0.34580295569E+03  0.37871164578E+04  0.37712957164E+04 0.  0.
        3    1    3    3  502    0 -0.28690269481E+03 -0.98392822119E+03  0.17623363436E+04  0.20386900939E+04  0.10100000352E+00 0. -1.
       -3    1    3    3    0  502  0.28690269481E+03  0.98392822119E+03 -0.14165333879E+04  0.17484263639E+04  0.10100000352E+00 0.  1.
</event>
<event>
 5   0  0.3701250E-08  0.3781505E+04  0.7818609E-02  0.8050135E-01
       -1   -1    0    0    0  501  0.00000000000E+00  0.00000000000E+00  0.14709130036E+04  0.14709130036E+04  0.50400001928E-02 0. -1.
        1   -1    0    0  501    0  0.00000000000E+00  0.00000000000E+00 -0.24304261769E+04  0.24304261769E+04  0.50400001928E-02 0.  1.
    10030    2    1    2    0    0  0.00000000000E+00  0.00000000000E+00 -0.95951317328E+03  0.39013391806E+04  0.37815052389E+04 0.  0.
        2    1    3    3  502    0 -0.13789922698E+04  0.12919791362E+04 -0.54594330308E+03  0.19669478536E+04  0.25500000920E-02 0. -1.
       -2    1    3    3    0  502  0.13789922698E+04 -0.12919791362E+04 -0.41356987020E+03  0.19343913270E+04  0.25500000920E-02 0.  1.
</event>
<event>
 5   0  0.1174870E-07  0.3796496E+04  0.7818609E-02  0.8046907E-01
        2   -1    0    0  501    0  0.00000000000E+00  0.00000000000E+00  0.12129735538E+04  0.12129735538E+04  0.25500000920E-02 0. -1.
       -2   -1    0    0    0  501  0.00000000000E+00  0.00000000000E+00 -0.29706704138E+04  0.29706704138E+04  0.25500000920E-02 0.  1.
    10030    2    1    2    0    0  0.00000000000E+00  0.00000000000E+00 -0.17576968600E+04  0.41836439676E+04  0.37964955677E+04 0.  0.
        5    1    3    3  502    0  0.14839689951E+04  0.30367424140E+03 -0.21396065675E+04  0.26215110865E+04  0.46999998093E+01 0.  1.
       -5    1    3    3    0  502 -0.14839689951E+04 -0.30367424140E+03  0.38190970742E+03  0.15621328810E+04  0.46999998093E+01 0. -1.
</event>
<event>
 5   0  0.3701250E-08  0.3789663E+04  0.7818609E-02  0.8048377E-01
        1   -1    0    0  501    0  0.00000000000E+00  0.00000000000E+00  0.24599662561E+04  0.24599662561E+04  0.50400001928E-02 0.  1.
       -1   -1    0    0    0  501  0.00000000000E+00  0.00000000000E+00 -0.14595264483E+04  0.14595264483E+04  0.50400001928E-02 0. -1.
    10030    2    1    2    0    0  0.00000000000E+00  0.00000000000E+00  0.10004398078E+04  0.39194927044E+04  0.37896626830E+04 0.  0.
        1    1    3    3  502    0  0.37791492400E+03  0.42719341205E+02  0.24200846409E+04  0.24497865828E+04  0.50400001928E-02 0.  1.
       -1    1    3    3    0  502 -0.37791492400E+03 -0.42719341205E+02 -0.14196448331E+04  0.14697061217E+04  0.50400001928E-02 0. -1.
</event>
<event>
 5   0  0.1193861E-07  0.3821832E+04  0.7818609E-02  0.8041486E-01
        2   -1    0    0  501    0  0.00000000000E+00  0.00000000000E+00  0.15160552911E+04  0.15160552911E+04  0.25500000920E-02 0. -1.
       -2   -1    0    0    0  501  0.00000000000E+00  0.00000000000E+00 -0.24086186428E+04  0.24086186428E+04  0.25500000920E-02 0.  1.
    10030    2    1    2    0    0  0.00000000000E+00  0.00000000000E+00 -0.89256335167E+03  0.39246739339E+04  0.38218315178E+04 0.  0.
        3    1    3    3  502    0 -0.75312741028E+03 -0.11769043439E+04 -0.17849295208E+04  0.22667770370E+04  0.10100000352E+00 0.  1.
       -3    1    3    3    0  502  0.75312741028E+03  0.11769043439E+04  0.89236616914E+03  0.16578968969E+04  0.10100000352E+00 0. -1.
</event>
<event>
 5   0  0.1150235E-07  0.3812819E+04  0.7818609E-02  0.8043410E-01
        2   -1    0    0  501    0  0.00000000000E+00  0.00000000000E+00  0.24871883990E+04  0.24871883990E+04  0.25500000920E-02 0.  1.
       -2   -1    0    0    0  501  0.00000000000E+00  0.00000000000E+00 -0.14612470432E+04  0.14612470432E+04  0.25500000920E-02 0. -1.
    10030    2    1    2    0    0  0.00000000000E+00  0.00000000000E+00  0.10259413558E+04  0.39484354423E+04  0.38128187442E+04 0.  0.
        4    1    3    3  502    0  0.33172515356E+03  0.17252368043E+03  0.24488440203E+04  0.24772251910E+04  0.12699999809E+01 0.  1.
       -4    1    3    3    0  502 -0.33172515356E+03 -0.17252368043E+03 -0.14229026646E+04  0.14712102513E+04  0.12699999809E+01 0. -1.
</event>
<event>
 5   0  0.1193861E-07  0.3812909E+04  0.7818609E-02  0.8043390E-01
       -2   -1    0    0    0  501  0.00000000000E+00  0.00000000000E+00  0.15443808286E+04  0.15443808286E+04  0.25500000920E-02 0. -1.
        2   -1    0    0  501    0  0.00000000000E+00  0.00000000000E+00 -0.23534149070E+04  0.23534149070E+04  0.25500000920E-02 0.  1.
    10030    2    1    2    0    0  0.00000000000E+00  0.00000000000E+00 -0.80903407836E+03  0.38977957356E+04  0.38129090543E+04 0.  0.
        3    1    3    3  502    0 -0.68645303818E+03  0.20534440554E+03 -0.22105362601E+04  0.23237587366E+04  0.10100000352E+00 0.  1.
       -3    1    3    3    0  502  0.68645303818E+03 -0.20534440554E+03  0.14015021818E+04  0.15740369990E+04  0.10100000352E+00 0. -1.
</event>
<event>
 5   0  0.1174870E-07  0.3799697E+04  0.7818609E-02  0.8046220E-01
        2   -1    0    0  501    0  0.00000000000E+00  0.00000000000E+00  0.16944109908E+04  0.16944109908E+04  0.25500000920E-02 0.  1.
       -2   -1    0    0    0  501  0.00000000000E+00  0.00000000000E+00 -0.21301937156E+04  0.21301937156E+04  0.25500000920E-02 0. -1.
    10030    2    1    2    0    0  0.00000000000E+00  0.00000000000E+00 -0.43578272482E+03  0.38246047063E+04  0.37996966427E+04 0.  0.
        5    1    3    3  502    0 -0.75838157207E+02 -0.13317100608E+04 -0.15796079275E+04  0.20674589251E+04  0.46999998093E+01 0. -1.
       -5    1    3    3    0  502  0.75838157207E+02  0.13317100608E+04  0.11438252027E+04  0.17571457813E+04  0.46999998093E+01 0.  1.
</event>
<event>
 5   0  0.1150235E-07  0.3791938E+04  0.7818609E-02  0.8047887E-01
       -2   -1    0    0    0  501  0.00000000000E+00  0.00000000000E+00  0.15331335250E+04  0.15331335250E+04  0.25500000920E-02 0. -1.
        2   -1    0    0  501    0  0.00000000000E+00  0.00000000000E+00 -0.23446739307E+04  0.23446739307E+04  0.25500000920E-02 0.  1.
    10030    2    1    2    0    0  0.00000000000E+00  0.00000000000E+00 -0.81154040565E+03  0.38778074557E+04  0.37919378731E+04 0.  0.
        4    1    3    3  502    0  0.12023420176E+04  0.14605597955E+04 -0.27708195480E+03  0.19119720882E+04  0.12699999809E+01 0. -1.
       -4    1    3    3    0  502 -0.12023420176E+04 -0.14605597955E+04 -0.53445845085E+03  0.19658353675E+04  0.12699999809E+01 0.  1.
</event>
<event>
 5   0  0.3701250E-08  0.3793826E+04  0.7818609E-02  0.8047481E-01
       -1   -1    0    0    0  501  0.00000000000E+00  0.00000000000E+00  0.24745421897E+04  0.24745421897E+04  0.50400001928E-02 0. -1.
        1   -1    0    0  501    0  0.00000000000E+00  0.00000000000E+00 -0.14541189755E+04  0.14541189756E+04  0.50400001928E-02 0.  1.
    10030    2    1    2    0    0  0.00000000000E+00  0.00000000000E+00  0.10204232141E+04  0.39286611652E+04  0.37938259074E+04 0.  0.
        3    1    3    3  502    0  0.18100536312E+04 -0.54834118667E+03  0.35905622044E+03  0.19250697609E+04  0.10100000352E+00 0. -1.
       -3    1    3    3    0  502 -0.18100536312E+04  0.54834118667E+03  0.66136699370E+03  0.20035914043E+04  0.10100000352E+00 0.  1.
</event>
<event>
 5   0  0.1174870E-07  0.3771503E+04  0.7818609E-02  0.8052298E-01
       -2   -1    0    0    0  501  0.00000000000E+00  0.00000000000E+00  0.22640103447E+04  0.22640103447E+04  0.25500000920E-02 0. -1.
        2   -1    0    0  501    0  0.00000000000E+00  0.00000000000E+00 -0.15706901837E+04  0.15706901837E+04  0.25500000920E-02 0.  1.
    10030    2    1    2    0    0  0.00000000000E+00  0.00000000000E+00  0.69332016095E+03  0.38347005284E+04  0.37715030554E+04 0.  0.
        5    1    3    3  502    0 -0.66049759502E+02 -0.13787490143E+04 -0.95967441683E+03  0.16811628391E+04  0.46999998093E+01 0.  1.
       -5    1    3    3    0  502  0.66049759502E+02  0.13787490143E+04  0.16529945778E+04  0.21535376893E+04  0.46999998093E+01 0. -1.
</event>
<event>
 5   0  0.3701250E-08  0.3775836E+04  0.7818609E-02  0.8051360E-01
        3   -1    0    0  501    0  0.00000000000E+00  0.00000000000E+00  0.17244008050E+04  0.17244008080E+04  0.10100000352E+00 0.  1.
       -3   -1    0    0    0  501  0.00000000000E+00  0.00000000000E+00 -0.20669410657E+04  0.20669410682E+04  0.10100000352E+00 0. -1.
    10030    2    1    2    0    0  0.00000000000E+00  0.00000000000E+00 -0.34254026066E+03  0.37913418762E+04  0.37758362507E+04 0.  0.
        3    1    3    3  502    0  0.86609810902E+03 -0.15923844484E+04  0.35855253692E+03  0.18478025051E+04  0.10100000352E+00 0. -1.
       -3    1    3    3    0  502 -0.86609810902E+03  0.15923844484E+04 -0.70109279758E+03  0.19435393711E+04  0.10100000352E+00 0.  1.
</event>
<event>
 5   0  0.3701250E-08  0.3792021E+04  0.7818609E-02  0.8047869E-01
        3   -1    0    0  501    0  0.00000000000E+00  0.00000000000E+00  0.19636417562E+04  0.19636417588E+04  0.10100000352E+00 0.  1.
       -3   -1    0    0    0  501  0.00000000000E+00  0.00000000000E+00 -0.18307088304E+04  0.18307088332E+04  0.10100000352E+00 0. -1.
    10030    2    1    2    0    0  0.00000000000E+00  0.00000000000E+00  0.13293292581E+03  0.37943505920E+04  0.37920212621E+04 0.  0.
        5    1    3    3  502    0  0.10129584190E+02  0.16838984154E+04 -0.80539978777E+03  0.18666299553E+04  0.46999998093E+01 0. -1.
       -5    1    3    3    0  502 -0.10129584190E+02 -0.16838984154E+04  0.93833271358E+03  0.19277206367E+04  0.46999998093E+01 0.  1.
</event>
<event>
 5   0  0.3889225E-08  0.3803236E+04  0.7818609E-02  0.8045461E-01
        1   -1    0    0  501    0  0.00000000000E+00  0.00000000000E+00  0.13324191628E+04  0.13324191628E+04  0.50400001928E-02 0.  1.
       -1   -1    0    0    0  501  0.00000000000E+00  0.00000000000E+00 -0.27139739582E+04  0.27139739582E+04  0.50400001928E-02 0. -1.
    10030    2    1    2    0    0  0.00000000000E+00  0.00000000000E+00 -0.13815547954E+04  0.40463931210E+04  0.38032359429E+04 0.  0.
        5    1    3    3  502    0 -0.12498584483E+04  0.14232925362E+04 -0.86950896899E+03  0.20842206509E+04  0.46999998093E+01 0.  1.
       -5    1    3    3    0  502  0.12498584483E+04 -0.14232925362E+04 -0.51204582640E+03  0.19621724702E+04  0.46999998093E+01 0. -1.
</event>
<event>
 5   0  0.1174870E-07  0.3798296E+04  0.7818609E-02  0.8046521E-01
       -2   -1    0    0    0  501  0.00000000000E+00  0.00000000000E+00  0.17021720737E+04  0.17021720737E+04  0.25500000920E-02 0. -1.
        2   -1    0    0  501    0  0.00000000000E+00  0.00000000000E+00 -0.21189180328E+04  0.21189180328E+04  0.25500000920E-02 0.  1.
    10030    2    1    2    0    0  0.00000000000E+00  0.00000000000E+00 -0.41674595916E+03  0.38210901065E+04  0.37982959874E+04 0.  0.
        5    1    3    3  502    0 -0.32195507846E+03 -0.17423012325E+03 -0.20830824421E+04  0.21150096357E+04  0.46999998093E+01 0.  1.
       -5    1    3    3    0  502  0.32195507846E+03  0.17423012325E+03  0.16663364830E+04  0.17060804708E+04  0.46999998093E+01 0. -1.
</event>
<event>
 5   0  0.3701250E-08  0.3800839E+04  0.7818609E-02  0.8045975E-01
       -1   -1    0    0    0  501  0.00000000000E+00  0.00000000000E+00  0.12908388830E+04  0.12908388830E+04  0.50400001928E-02 0. -1.
        1   -1    0    0  501    0  0.00000000000E+00  0.00000000000E+00 -0.27978661459E+04  0.27978661459E+04  0.50400001928E-02 0.  1.
    10030    2    1    2    0    0  0.00000000000E+00  0.00000000000E+00 -0.15070272629E+04  0.40887050289E+04  0.38008390708E+04 0.  0.
        3    1    3    3  502    0 -0.14091485120E+04 -0.50828072821E+03  0.50447640830E+03  0.15806787417E+04  0.10100000352E+00 0. -1.
       -3    1    3    3    0  502  0.14091485120E+04  0.50828072821E+03 -0.20115036712E+04  0.25080262872E+04  0.10100000352E+00 0.  1.
</event>
<event>
 5   0  0.3701250E-08  0.3787915E+04  0.7818609E-02  0.8048753E-01
        1   -1    0    0  501    0  0.00000000000E+00  0.00000000000E+00  0.14425996660E+04  0.14425996660E+04  0.50400001928E-02 0.  1.
       -1   -1    0    0    0  501  0.00000000000E+00  0.00000000000E+00 -0.24865355329E+04  0.24865355329E+04  0.50400001928E-02 0. -1.
    10030    2    1    2    0    0  0.00000000000E+00  0.00000000000E+00 -0.10439358669E+04  0.39291351989E+04  0.37879151676E+04 0.  0.
        3    1    3    3  502    0 -0.50986568196E+03 -0.69832502356E+03 -0.22698582770E+04  0.24289663357E+04  0.10100000352E+00 0. -1.
       -3    1    3    3    0  502  0.50986568196E+03  0.69832502356E+03  0.12259224101E+04  0.15001688632E+04  0.10100000352E+00 0.  1.
</event>
<event>
 5   0  0.1174870E-07  0.3800901E+04  0.7818609E-02  0.8045962E-01
        2   -1    0    0  501    0  0.00000000000E+00  0.00000000000E+00  0.15163765904E+04  0.15163765904E+04  0.25500000920E-02 0. -1.
       -2   -1    0    0    0  501  0.00000000000E+00  0.00000000000E+00 -0.23818041077E+04  0.23818041077E+04  0.25500000920E-02 0.  1.
    10030    2    1    2    0    0  0.00000000000E+00  0.00000000000E+00 -0.86542751729E+03  0.38981806981E+04  0.38009009415E+04 0.  0.
        5    1    3    3  502    0 -0.59797685372E+03  0.21740726007E+03 -0.22693137618E+04  0.23568303447E+04  0.46999998093E+01 0.  1.
       -5    1    3    3    0  502  0.59797685372E+03 -0.21740726007E+03  0.14038862445E+04  0.15413503534E+04  0.46999998093E+01 0. -1.
</event>
<event>
 5   0  0.3701250E-08  0.3799499E+04  0.7818609E-02  0.8046263E-01
       -1   -1    0    0    0  501  0.00000000000E+00  0.00000000000E+00  0.18764161583E+04  0.18764161583E+04  0.50400001928E-02 0. -1.
        1   -1    0    0  501    0  0.00000000000E+00  0.00000000000E+00 -0.19233724933E+04  0.19233724933E+04  0.50400001928E-02 0.  1.
    10030    2    1    2    0    0  0.00000000000E+00  0.00000000000E+00 -0.46956335007E+02  0.37997886516E+04  0.37994985063E+04 0.  0.
        1    1    3    3  502    0 -0.15711285916E+03 -0.18808505192E+04 -0.23974476540E+03  0.19025668657E+04  0.50400001928E-02 0. -1.
       -1    1    3    3    0  502  0.15711285916E+03  0.18808505192E+04  0.19278843039E+03  0.18972217859E+04  0.50400001928E-02 0.  1.
</event>
<event>
 5   0  0.3889225E-08  0.3782903E+04  0.7818609E-02  0.8049834E-01
       -1   -1    0    0    0  501  0.00000000000E+00  0.00000000000E+00  0.18754740922E+04  0.18754740922E+04  0.50400001928E-02 0. -1.
        1   -1    0    0  501    0  0.00000000000E+00  0.00000000000E+00 -0.19075645709E+04  0.19075645709E+04  0.50400001928E-02 0.  1.
    10030    2    1    2    0    0  0.00000000000E+00  0.00000000000E+00 -0.32090478720E+02  0.37830386631E+04  0.37829025533E+04 0.  0.
        5    1    3    3  502    0 -0.16531634995E+04  0.44955353576E+03 -0.81764622545E+03  0.18983190927E+04  0.46999998093E+01 0.  1.
       -5    1    3    3    0  502  0.16531634995E+04 -0.44955353576E+03  0.78555574673E+03  0.18847195704E+04  0.46999998093E+01 0. -1.
</event>
<event>
 5   0  0.3701250E-08  0.3801343E+04  0.7818609E-02  0.8045867E-01
       -1   -1    0    0    0  501  0.00000000000E+00  0.00000000000E+00  0.18529133681E+04  0.18529133681E+04  0.50400001928E-02 0. -1.
        1   -1    0    0  501    0  0.00000000000E+00  0.00000000000E+00 -0.19496606457E+04  0.19496606457E+04  0.50400001928E-02 0.  1.
    10030    2    1    2    0    0  0.00000000000E+00  0.00000000000E+00 -0.96747277672E+02  0.38025740138E+04  0.38013430646E+04 0.  0.
        4    1    3    3  502    0 -0.14045344925E+03 -0.14216234563E+04 -0.13024981815E+04  0.19331951657E+04  0.12699999809E+01 0.  1.
       -4    1    3    3    0  502  0.14045344925E+03  0.14216234563E+04  0.12057509038E+04  0.18693788481E+04  0.12699999809E+01 0. -1.
</event>
<event>
 5   0  0.3701250E-08  0.3788993E+04  0.7818609E-02  0.8048521E-01
        1   -1    0    0  501    0  0.00000000000E+00  0.00000000000E+00  0.17504389965E+04  0.17504389965E+04  0.50400001928E-02 0. -1.
       -1   -1    0    0    0  501  0.00000000000E+00  0.00000000000E+00 -0.20504098344E+04  0.20504098344E+04  0.50400001928E-02 0.  1.
    10030    2    1    2    0    0  0.00000000000E+00  0.00000000000E+00 -0.29997083789E+03  0.38008488310E+04  0.37889931819E+04 0.  0.
        2    1    3    3  502    0  0.11504493579E+04  0.12050191940E+04 -0.10547567865E+04  0.19718308400E+04  0.25500000920E-02 0.  1.
       -2    1    3    3    0  502 -0.11504493579E+04 -0.12050191940E+04  0.75478594861E+03  0.18290179909E+04  0.25500000920E-02 0. -1.
</event>
<event>
 5   0  0.7858367E-08  0.3799030E+04  0.7818609E-02  0.8046363E-01
        2   -1    0    0  501    0  0.00000000000E+00  0.00000000000E+00  0.12847099159E+04  0.12847099159E+04  0.25500000920E-02 0.  1.
       -2   -1    0    0    0  501  0.00000000000E+00  0.00000000000E+00 -0.28085379890E+04  0.28085379890E+04  0.25500000920E-02 0. -1.
    10030    2    1    2    0    0  0.00000000000E+00  0.00000000000E+00 -0.15238280730E+04  0.40932479049E+04  0.37990296675E+04 0.  0.
        2    1    3    3  502    0  0.15686609583E+04  0.10249506819E+04 -0.42645708708E+03  0.19217405521E+04  0.25500000920E-02 0.  1.
       -2    1    3    3    0  502 -0.15686609583E+04 -0.10249506819E+04 -0.10973709860E+04  0.21715073528E+04  0.25500000920E-02 0. -1.
</event>
<event>
 5   0  0.1193861E-07  0.3801445E+04  0.7818609E-02  0.8045845E-01
       -2   -1    0    0    0  501  0.00000000000E+00  0.00000000000E+00  0.27812864027E+04  0.27812864027E+04  0.25500000920E-02 0.  1.
        2   -1    0    0  501    0  0.00000000000E+00  0.00000000000E+00 -0.12989477645E+04  0.12989477645E+04  0.25500000920E-02 0. -1.
    10030    2    1    2    0    0  0.00000000000E+00  0.00000000000E+00  0.14823386381E+04  0.40802341672E+04  0.38014448597E+04 0.  0.
        3    1    3    3  502    0  0.16101634622E+04  0.62323765140E+02  0.18231848444E+04  0.24332105568E+04  0.10100000352E+00 0.  1.
       -3    1    3    3    0  502 -0.16101634622E+04 -0.62323765140E+02 -0.34084620627E+03  0.16470236104E+04  0.10100000352E+00 0. -1.
</event>
<event>
 5   0  0.7858367E-08  0.3798735E+04  0.7818609E-02  0.8046426E-01
       -2   -1    0    0    0  501  0.00000000000E+00  0.00000000000E+00  0.14195118210E+04  0.14195118210E+04  0.25500000920E-02 0.  1.
        2   -1    0    0  501    0  0.00000000000E+00  0.00000000000E+00 -0.25414354108E+04  0.25414354108E+04  0.25500000920E-02 0. -1.
    10030    2    1    2    0    0  0.00000000000E+00  0.00000000000E+00 -0.11219235898E+04  0.39609472317E+04  0.37987353726E+04 0.  0.
        2    1    3    3  502    0  0.34041764749E+03  0.15512889848E+04 -0.16471825422E+04  0.22881416076E+04  0.25500000920E-02 0. -1.
       -2    1    3    3    0  502 -0.34041764749E+03 -0.15512889848E+04  0.52525895246E+03  0.16728056241E+04  0.25500000920E-02 0.  1.
</event>
<event>
 5   0  0.3701250E-08  0.3763350E+04  0.7818609E-02  0.8054066E-01
        1   -1    0    0  501    0  0.00000000000E+00  0.00000000000E+00  0.16724630362E+04  0.16724630362E+04  0.50400001928E-02 0. -1.
       -1   -1    0    0    0  501  0.00000000000E+00  0.00000000000E+00 -0.21170574472E+04  0.21170574472E+04  0.50400001928E-02 0.  1.
    10030    2    1    2    0    0  0.00000000000E+00  0.00000000000E+00 -0.44459441107E+03  0.37895204834E+04  0.37633497451E+04 0.  0.
        3    1    3    3  502    0  0.78509076327E+03  0.12681262938E+04 -0.13775279162E+04  0.20302943072E+04  0.10100000352E+00 0.  1.
       -3    1    3    3    0  502 -0.78509076327E+03 -0.12681262938E+04  0.93293350516E+03  0.17592261762E+04  0.10100000352E+00 0. -1.
</event>
<event>
 5   0  0.1150235E-07  0.3791133E+04  0.7818609E-02  0.8048060E-01
        2   -1    0    0  501    0  0.00000000000E+00  0.00000000000E+00  0.20500599333E+04  0.20500599333E+04  0.25500000920E-02 0.  1.
       -2   -1    0    0    0  501  0.00000000000E+00  0.00000000000E+00 -0.17527158738E+04  0.17527158738E+04  0.25500000920E-02 0. -1.
    10030    2    1    2    0    0  0.00000000000E+00  0.00000000000E+00  0.29734405954E+03  0.38027758071E+04  0.37911331221E+04 0.  0.
        4    1    3    3  502    0  0.40283086583E+03  0.12502595584E+04  0.15195253222E+04  0.20085767318E+04  0.12699999809E+01 0.  1.
       -4    1    3    3    0  502 -0.40283086583E+03 -0.12502595584E+04 -0.12221812627E+04  0.17941990753E+04  0.12699999809E+01 0. -1.
</event>
<event>
 5   0  0.1193861E-07  0.3795413E+04  0.7818609E-02  0.8047140E-01
       -2   -1    0    0    0  501  0.00000000000E+00  0.00000000000E+00  0.30059383345E+04  0.30059383345E+04  0.25500000920E-02 0.  1.
        2   -1    0    0  501    0  0.00000000000E+00  0.00000000000E+00 -0.11980582312E+04  0.11980582312E+04  0.25500000920E-02 0. -1.
    10030    2    1    2    0    0  0.00000000000E+00  0.00000000000E+00  0.18078801033E+04  0.42039965657E+04  0.37954125805E+04 0.  0.
        3    1    3    3  502    0  0.91600904666E+02  0.19487391969E+03  0.29923628881E+04  0.30001003708E+04  0.10100000352E+00 0.  1.
       -3    1    3    3    0  502 -0.91600904666E+02 -0.19487391969E+03 -0.11844827848E+04  0.12038961949E+04  0.10100000352E+00 0. -1.
</event>
<event>
 5   0  0.3701250E-08  0.3548461E+04  0.7818609E-02  0.8102400E-01
        1   -1    0    0  501    0  0.00000000000E+00  0.00000000000E+00  0.17020131147E+04  0.17020131147E+04  0.50400001928E-02 0. -1.
       -1   -1    0    0    0  501  0.00000000000E+00  0.00000000000E+00 -0.18495118989E+04  0.18495118989E+04  0.50400001928E-02 0.  1.
    10030    2    1    2    0    0  0.00000000000E+00  0.00000000000E+00 -0.14749878420E+03  0.35515250135E+04  0.35484607974E+04 0.  0.
        4    1    3    3  502    0 -0.12427150682E+04 -0.36912394755E+03  0.11386176661E+04  0.17254115543E+04  0.12699999809E+01 0. -1.
       -4    1    3    3    0  502  0.12427150682E+04  0.36912394755E+03 -0.12861164503E+04  0.18261134592E+04  0.12699999809E+01 0.  1.
</event>
<event>
 5   0  0.3701250E-08  0.3796320E+04  0.7818609E-02  0.8046945E-01
        1   -1    0    0  501    0  0.00000000000E+00  0.00000000000E+00  0.23872317073E+04  0.23872317073E+04  0.50400001928E-02 0. -1.
       -1   -1    0    0    0  501  0.00000000000E+00  0.00000000000E+00 -0.15092839241E+04  0.15092839241E+04  0.50400001928E-02 0.  1.
    10030    2    1    2    0    0  0.00000000000E+00  0.00000000000E+00  0.87794778322E+03  0.38965156314E+04  0.37963195012E+04 0.  0.
        2    1    3    3  502    0  0.15290422113E+04  0.10901448223E+04  0.72309129528E+03  0.20122740467E+04  0.25500000920E-02 0. -1.
       -2    1    3    3    0  502 -0.15290422113E+04 -0.10901448223E+04  0.15485648793E+03  0.18842415847E+04  0.25500000920E-02 0.  1.
</event>
<event>
 5   0  0.1174870E-07  0.3799773E+04  0.7818609E-02  0.8046204E-01
        2   -1    0    0  501    0  0.00000000000E+00  0.00000000000E+00  0.18076321762E+04  0.18076321762E+04  0.25500000920E-02 0. -1.
       -2   -1    0    0    0  501  0.00000000000E+00  0.00000000000E+00 -0.19968487783E+04  0.19968487783E+04  0.25500000920E-02 0.  1.
    10030    2    1    2    0    0  0.00000000000E+00  0.00000000000E+00 -0.18921660212E+03  0.38044809545E+04  0.37997726788E+04 0.  0.
        5    1    3    3  502    0 -0.98107222868E+03 -0.89494443088E+03  0.12657944415E+04  0.18345805816E+04  0.46999998093E+01 0. -1.
       -5    1    3    3    0  502  0.98107222868E+03  0.89494443088E+03 -0.14550110436E+04  0.19699003729E+04  0.46999998093E+01 0.  1.
</event>
<event>
 5   0  0.3701250E-08  0.3803423E+04  0.7818609E-02  0.8045421E-01
       -1   -1    0    0    0  501  0.00000000000E+00  0.00000000000E+00  0.16715263878E+04  0.16715263878E+04  0.50400001928E-02 0.  1.
        1   -1    0    0  501    0  0.00000000000E+00  0.00000000000E+00 -0.21635949447E+04  0.21635949447E+04  0.50400001928E-02 0. -1.
    10030    2    1    2    0    0  0.00000000000E+00  0.00000000000E+00 -0.49206855693E+03  0.38351213325E+04  0.38034226915E+04 0.  0.
        3    1    3    3  502    0  0.13233240659E+04  0.17881702461E+03  0.11192606800E+04  0.17423853167E+04  0.10100000352E+00 0.  1.
       -3    1    3    3    0  502 -0.13233240659E+04 -0.17881702461E+03 -0.16113292370E+04  0.20927360158E+04  0.10100000352E+00 0. -1.
</event>
<event>
 5   0  0.3701250E-08  0.3802842E+04  0.7818609E-02  0.8045545E-01
        1   -1    0    0  501    0  0.00000000000E+00  0.00000000000E+00  0.16100227946E+04  0.16100227946E+04  0.50400001928E-02 0.  1.
       -1   -1    0    0    0  501  0.00000000000E+00  0.00000000000E+00 -0.22455598223E+04  0.22455598224E+04  0.50400001928E-02 0. -1.
    10030    2    1    2    0    0  0.00000000000E+00  0.00000000000E+00 -0.63553702774E+03  0.38555826170E+04  0.38028423584E+04 0.  0.
        2    1    3    3  502    0  0.16045694727E+04  0.89108328294E+03 -0.82137646009E+03  0.20108037943E+04  0.25500000920E-02 0. -1.
       -2    1    3    3    0  502 -0.16045694727E+04 -0.89108328294E+03  0.18583943235E+03  0.18447788227E+04  0.25500000920E-02 0.  1.
</event>
<event>
 5   0  0.7858367E-08  0.3801355E+04  0.7818609E-02  0.8045864E-01
        2   -1    0    0  501    0  0.00000000000E+00  0.00000000000E+00  0.18828824970E+04  0.18828824970E+04  0.25500000920E-02 0. -1.
       -2   -1    0    0    0  501  0.00000000000E+00  0.00000000000E+00 -0.19186402472E+04  0.19186402472E+04  0.25500000920E-02 0.  1.
    10030    2    1    2    0    0  0.00000000000E+00  0.00000000000E+00 -0.35757750214E+02  0.38015227441E+04  0.38013545688E+04 0.  0.
        2    1    3    3  502    0 -0.15285446193E+04  0.56273244634E+03 -0.99744131645E+03  0.19099752980E+04  0.25500000920E-02 0.  1.
       -2    1    3    3    0  502  0.15285446193E+04 -0.56273244634E+03  0.96168356623E+03  0.18915474461E+04  0.25500000920E-02 0. -1.
</event>
<event>
 5   0  0.7858367E-08  0.3779157E+04  0.7818609E-02  0.8050643E-01
        2   -1    0    0  501    0  0.00000000000E+00  0.00000000000E+00  0.15192208930E+04  0.15192208930E+04  0.25500000920E-02 0.  1.
       -2   -1    0    0    0  501  0.00000000000E+00  0.00000000000E+00 -0.23502220908E+04  0.23502220908E+04  0.25500000920E-02 0. -1.
    10030    2    1    2    0    0  0.00000000000E+00  0.00000000000E+00 -0.83100119775E+03  0.38694429838E+04  0.37791567862E+04 0.  0.
        2    1    3    3  502    0  0.17925912191E+04  0.22913722880E+03  0.14960848597E+03  0.18133587200E+04  0.25500000920E-02 0.  1.
       -2    1    3    3    0  502 -0.17925912191E+04 -0.22913722880E+03 -0.98060968372E+03  0.20560842639E+04  0.25500000920E-02 0. -1.
</event>
<event>
 5   0  0.1193861E-07  0.3799830E+04  0.7818609E-02  0.8046191E-01
        2   -1    0    0  501    0  0.00000000000E+00  0.00000000000E+00  0.20217348571E+04  0.20217348571E+04  0.25500000920E-02 0.  1.
       -2   -1    0    0    0  501  0.00000000000E+00  0.00000000000E+00 -0.17854350105E+04  0.17854350105E+04  0.25500000920E-02 0. -1.
    10030    2    1    2    0    0  0.00000000000E+00  0.00000000000E+00  0.23629984661E+03  0.38071698677E+04  0.37998295730E+04 0.  0.
        3    1    3    3  502    0  0.61993788003E+03 -0.14492544514E+04 -0.94456613607E+03  0.18376252707E+04  0.10100000352E+00 0. -1.
       -3    1    3    3    0  502 -0.61993788003E+03  0.14492544514E+04  0.11808659827E+04  0.19695445969E+04  0.10100000352E+00 0.  1.
</event>
<event>
 5   0  0.3701250E-08  0.3749188E+04  0.7818609E-02  0.8057148E-01
        1   -1    0    0  501    0  0.00000000000E+00  0.00000000000E+00  0.27046055960E+04  0.27046055960E+04  0.50400001928E-02 0. -1.
       -1   -1    0    0    0  501  0.00000000000E+00  0.00000000000E+00 -0.12993034085E+04  0.12993034086E+04  0.50400001928E-02 0.  1.
    10030    2    1    2    0    0  0.00000000000E+00  0.00000000000E+00  0.14053021875E+04  0.40039090046E+04  0.37491883227E+04 0.  0.
        4    1    3    3  502    0 -0.35047547468E+03 -0.13163865481E+04  0.20779305011E+04  0.24846535740E+04  0.12699999809E+01 0. -1.
       -4    1    3    3    0  502  0.35047547468E+03  0.13163865481E+04 -0.67262831363E+03  0.15192554306E+04  0.12699999809E+01 0.  1.
</event>
<event>
 5   0  0.3701250E-08  0.3798740E+04  0.7818609E-02  0.8046425E-01
        1   -1    0    0  501    0  0.00000000000E+00  0.00000000000E+00  0.23116665865E+04  0.23116665865E+04  0.50400001928E-02 0. -1.
       -1   -1    0    0    0  501  0.00000000000E+00  0.00000000000E+00 -0.15606083940E+04  0.15606083940E+04  0.50400001928E-02 0.  1.
    10030    2    1    2    0    0  0.00000000000E+00  0.00000000000E+00  0.75105819250E+03  0.38722749805E+04  0.37987399379E+04 0.  0.
        2    1    3    3  502    0 -0.94616803549E+03 -0.10709047488E+04 -0.89990512732E+03  0.16887569898E+04  0.25500000920E-02 0.  1.
       -2    1    3    3    0  502  0.94616803549E+03  0.10709047488E+04  0.16509633198E+04  0.21835179907E+04  0.25500000920E-02 0. -1.
</event>
<event>
 5   0  0.3701250E-08  0.3810023E+04  0.7818609E-02  0.8044007E-01
       -1   -1    0    0    0  501  0.00000000000E+00  0.00000000000E+00  0.21337798502E+04  0.21337798502E+04  0.50400001928E-02 0. -1.
        1   -1    0    0  501    0  0.00000000000E+00  0.00000000000E+00 -0.17007701982E+04  0.17007701982E+04  0.50400001928E-02 0.  1.
    10030    2    1    2    0    0  0.00000000000E+00  0.00000000000E+00  0.43300965204E+03  0.38345500484E+04  0.38100231909E+04 0.  0.
        2    1    3    3  502    0  0.58724574443E+03 -0.17660103144E+04  0.62584062531E+03  0.19634985315E+04  0.25500000920E-02 0. -1.
       -2    1    3    3    0  502 -0.58724574443E+03  0.17660103144E+04 -0.19283097326E+03  0.18710515169E+04  0.25500000920E-02 0.  1.
</event>
<event>
 5   0  0.1143283E-07  0.3811137E+04  0.7818609E-02  0.8043769E-01
       -2   -1    0    0    0  501  0.00000000000E+00  0.00000000000E+00  0.21393993622E+04  0.21393993622E+04  0.25500000920E-02 0.  1.
        2   -1    0    0  501    0  0.00000000000E+00  0.00000000000E+00 -0.16972949689E+04  0.16972949689E+04  0.25500000920E-02 0. -1.
    10030    2    1    2    0    0  0.00000000000E+00  0.00000000000E+00  0.44210439333E+03  0.38366943311E+04  0.38111372444E+04 0.  0.
        1    1    3    3  502    0 -0.15137292315E+04 -0.10278506687E+04  0.75691730051E+03  0.19800951955E+04  0.50400001928E-02 0. -1.
       -1    1    3    3    0  502  0.15137292315E+04  0.10278506687E+04 -0.31481290718E+03  0.18565991355E+04  0.50400001928E-02 0.  1.
</event>
<event>
 5   0  0.7858367E-08  0.3770519E+04  0.7818609E-02  0.8052511E-01
        2   -1    0    0  501    0  0.00000000000E+00  0.00000000000E+00  0.14910337595E+04  0.14910337595E+04  0.25500000920E-02 0.  1.
       -2   -1    0    0    0  501  0.00000000000E+00  0.00000000000E+00 -0.23837181531E+04  0.23837181531E+04  0.25500000920E-02 0. -1.
    10030    2    1    2    0    0  0.00000000000E+00  0.00000000000E+00 -0.89268439362E+03  0.38747519126E+04  0.37705194546E+04 0.  0.
        2    1    3    3  502    0 -0.64707882184E+03 -0.80495077803E+03 -0.20671383791E+04  0.23107829485E+04  0.25500000920E-02 0. -1.
       -2    1    3    3    0  502  0.64707882184E+03  0.80495077803E+03  0.11744539854E+04  0.15639689641E+04  0.25500000920E-02 0.  1.
</event>
<event>
 5   0  0.7858367E-08  0.3797418E+04  0.7818609E-02  0.8046709E-01
        2   -1    0    0  501    0  0.00000000000E+00  0.00000000000E+00  0.11341352643E+04  0.11341352643E+04  0.25500000920E-02 0. -1.
       -2   -1    0    0    0  501  0.00000000000E+00  0.00000000000E+00 -0.31787171712E+04  0.31787171712E+04  0.25500000920E-02 0.  1.
    10030    2    1    2    0    0  0.00000000000E+00  0.00000000000E+00 -0.20445819069E+04  0.43128524355E+04  0.37974176695E+04 0.  0.
        2    1    3    3  502    0  0.14941809900E+04 -0.36132488423E+03 -0.22879901805E+04  0.27564527148E+04  0.25500000920E-02 0.  1.
       -2    1    3    3    0  502 -0.14941809900E+04  0.36132488423E+03  0.24340827368E+03  0.15563997207E+04  0.25500000920E-02 0. -1.
</event>
<event>
 5   0  0.3701250E-08  0.3805834E+04  0.7818609E-02  0.8044904E-01
        1   -1    0    0  501    0  0.00000000000E+00  0.00000000000E+00  0.19611472531E+04  0.19611472531E+04  0.50400001928E-02 0. -1.
       -1   -1    0    0    0  501  0.00000000000E+00  0.00000000000E+00 -0.18464158085E+04  0.18464158086E+04  0.50400001928E-02 0.  1.
    10030    2    1    2    0    0  0.00000000000E+00  0.00000000000E+00  0.11473144452E+03  0.38075630616E+04  0.38058340957E+04 0.  0.
        2    1    3    3  502    0  0.87375848541E+03 -0.15399626389E+04  0.75493026044E+03  0.19248009035E+04  0.25500000920E-02 0.  1.
       -2    1    3    3    0  502 -0.87375848541E+03  0.15399626389E+04 -0.64019881592E+03  0.18827621581E+04  0.25500000920E-02 0. -1.
</event>
<event>
 5   0  0.3889225E-08  0.3777927E+04  0.7818609E-02  0.8050908E-01
        1   -1    0    0  501    0  0.00000000000E+00  0.00000000000E+00  0.13301572945E+04  0.13301572946E+04  0.50400001928E-02 0. -1.
       -1   -1    0    0    0  501  0.00000000000E+00  0.00000000000E+00 -0.26825278170E+04  0.26825278170E+04  0.50400001928E-02 0.  1.
    10030    2    1    2    0    0  0.00000000000E+00  0.00000000000E+00 -0.13523705224E+04  0.40126851115E+04  0.37779274443E+04 0.  0.
        5    1    3    3  502    0 -0.11479444074E+04 -0.12163534442E+04  0.25636442583E+03  0.16920510845E+04  0.46999998093E+01 0. -1.
       -5    1    3    3    0  502  0.11479444074E+04  0.12163534442E+04 -0.16087349483E+04  0.23206340271E+04  0.46999998093E+01 0.  1.
</event>
<event>
 5   0  0.1150235E-07  0.3807113E+04  0.7818609E-02  0.8044630E-01
        2   -1    0    0  501    0  0.00000000000E+00  0.00000000000E+00  0.28841754076E+04  0.28841754076E+04  0.25500000920E-02 0. -1.
       -2   -1    0    0    0  501  0.00000000000E+00  0.00000000000E+00 -0.12563475852E+04  0.12563475852E+04  0.25500000920E-02 0.  1.
    10030    2    1    2    0    0  0.00000000000E+00  0.00000000000E+00  0.16278278224E+04  0.41405229928E+04  0.38071127163E+04 0.  0.
        4    1    3    3  502    0 -0.14931260029E+04 -0.34436370096E+03  0.20422070006E+04  0.25531593498E+04  0.12699999809E+01 0. -1.
       -4    1    3    3    0  502  0.14931260029E+04  0.34436370096E+03 -0.41437917816E+03  0.15873636431E+04  0.12699999809E+01 0.  1.
</event>
<event>
 5   0  0.1193861E-07  0.3800606E+04  0.7818609E-02  0.8046025E-01
       -2   -1    0    0    0  501  0.00000000000E+00  0.00000000000E+00  0.13831888436E+04  0.13831888436E+04  0.25500000920E-02 0.  1.
        2   -1    0    0  501    0  0.00000000000E+00  0.00000000000E+00 -0.26107442609E+04  0.26107442609E+04  0.25500000920E-02 0. -1.
    10030    2    1    2    0    0  0.00000000000E+00  0.00000000000E+00 -0.12275554173E+04  0.39939331045E+04  0.38006064438E+04 0.  0.
        3    1    3    3  502    0  0.56831417141E+03 -0.97518034555E+03  0.99277628184E+03  0.15031841071E+04  0.10100000352E+00 0.  1.
       -3    1    3    3    0  502 -0.56831417141E+03  0.97518034555E+03 -0.22203316991E+04  0.24907489974E+04  0.10100000352E+00 0. -1.
</event>
<event>
 5   0  0.1174870E-07  0.3828510E+04  0.7818609E-02  0.8040064E-01
       -2   -1    0    0    0  501  0.00000000000E+00  0.00000000000E+00  0.21378549910E+04  0.21378549910E+04  0.25500000920E-02 0. -1.
        2   -1    0    0  501    0  0.00000000000E+00  0.00000000000E+00 -0.17140417460E+04  0.17140417460E+04  0.25500000920E-02 0.  1.
    10030    2    1    2    0    0  0.00000000000E+00  0.00000000000E+00  0.42381324496E+03  0.38518967370E+04  0.38285102593E+04 0.  0.
        5    1    3    3  502    0 -0.16067761775E+03  0.13062561660E+04 -0.11866305764E+04  0.17720712973E+04  0.46999998093E+01 0.  1.
       -5    1    3    3    0  502  0.16067761775E+03 -0.13062561660E+04  0.16104438213E+04  0.20798254397E+04  0.46999998093E+01 0. -1.
</event>
<event>
 5   0  0.1193861E-07  0.3813493E+04  0.7818609E-02  0.8043265E-01
        2   -1    0    0  501    0  0.00000000000E+00  0.00000000000E+00  0.14264458909E+04  0.14264458909E+04  0.25500000920E-02 0.  1.
       -2   -1    0    0    0  501  0.00000000000E+00  0.00000000000E+00 -0.25487700544E+04  0.25487700545E+04  0.25500000920E-02 0. -1.
    10030    2    1    2    0    0  0.00000000000E+00  0.00000000000E+00 -0.11223241636E+04  0.39752159453E+04  0.38134931866E+04 0.  0.
        3    1    3    3  502    0  0.13892247871E+04  0.93607850751E+03 -0.15105515207E+04  0.22556494382E+04  0.10100000352E+00 0. -1.
       -3    1    3    3    0  502 -0.13892247871E+04 -0.93607850751E+03  0.38822735709E+03  0.17195665071E+04  0.10100000352E+00 0.  1.
</event>
<event>
 5   0  0.7858367E-08  0.3797088E+04  0.7818609E-02  0.8046780E-01
       -2   -1    0    0    0  501  0.00000000000E+00  0.00000000000E+00  0.30179055337E+04  0.30179055337E+04  0.25500000920E-02 0.  1.
        2   -1    0    0  501    0  0.00000000000E+00  0.00000000000E+00 -0.11943609848E+04  0.11943609848E+04  0.25500000920E-02 0. -1.
    10030    2    1    2    0    0  0.00000000000E+00  0.00000000000E+00  0.18235445490E+04  0.42122665185E+04  0.37970876341E+04 0.  0.
        2    1    3    3  502    0  0.10068786279E+04  0.35252402048E+03 -0.83042036083E+03  0.13519155787E+04  0.25500000920E-02 0. -1.
       -2    1    3    3    0  502 -0.10068786279E+04 -0.35252402048E+03  0.26539649098E+04  0.28603509398E+04  0.25500000920E-02 0.  1.
</event>
<event>
 5   0  0.1193861E-07  0.3802842E+04  0.7818609E-02  0.8045545E-01
        2   -1    0    0  501    0  0.00000000000E+00  0.00000000000E+00  0.24185063696E+04  0.24185063696E+04  0.25500000920E-02 0.  1.
       -2   -1    0    0    0  501  0.00000000000E+00  0.00000000000E+00 -0.14948902686E+04  0.14948902686E+04  0.25500000920E-02 0. -1.
    10030    2    1    2    0    0  0.00000000000E+00  0.00000000000E+00  0.92361610094E+03  0.39133966382E+04  0.38028419039E+04 0.  0.
        3    1    3    3  502    0  0.44091635180E+03 -0.17787729839E+04  0.98345811047E+03  0.20798149973E+04  0.10100000352E+00 0.  1.
       -3    1    3    3    0  502 -0.44091635180E+03  0.17787729839E+04 -0.59842009524E+02  0.18335816409E+04  0.10100000352E+00 0. -1.
</event>
<event>
 5   0  0.3701250E-08  0.3799820E+04  0.7818609E-02  0.8046193E-01
       -1   -1    0    0    0  501  0.00000000000E+00  0.00000000000E+00  0.20831197923E+04  0.20831197923E+04  0.50400001928E-02 0. -1.
        1   -1    0    0  501    0  0.00000000000E+00  0.00000000000E+00 -0.17328136515E+04  0.17328136515E+04  0.50400001928E-02 0.  1.
    10030    2    1    2    0    0  0.00000000000E+00  0.00000000000E+00  0.35030614077E+03  0.38159334438E+04  0.37998202136E+04 0.  0.
        3    1    3    3  502    0 -0.16450724881E+04  0.58075711121E+03 -0.58044439413E+03  0.18386021914E+04  0.10100000352E+00 0. -1.
       -3    1    3    3    0  502  0.16450724881E+04 -0.58075711121E+03  0.93075053491E+03  0.19773312524E+04  0.10100000352E+00 0.  1.
</event>
<event>
 5   0  0.3889225E-08  0.3781424E+04  0.7818609E-02  0.8050153E-01
       -1   -1    0    0    0  501  0.00000000000E+00  0.00000000000E+00  0.15331156472E+04  0.15331156472E+04  0.50400001928E-02 0. -1.
        1   -1    0    0  501    0  0.00000000000E+00  0.00000000000E+00 -0.23317166928E+04  0.23317166928E+04  0.50400001928E-02 0.  1.
    10030    2    1    2    0    0  0.00000000000E+00  0.00000000000E+00 -0.79860104553E+03  0.38648323400E+04  0.37814237248E+04 0.  0.
        5    1    3    3  502    0 -0.90138201438E+02 -0.14070779801E+04 -0.16867586539E+04  0.21984472211E+04  0.46999998093E+01 0.  1.
       -5    1    3    3    0  502  0.90138201438E+02  0.14070779801E+04  0.88815760833E+03  0.16663851189E+04  0.46999998093E+01 0. -1.
</event>
<event>
 5   0  0.1150235E-07  0.3801324E+04  0.7818609E-02  0.8045871E-01
        2   -1    0    0  501    0  0.00000000000E+00  0.00000000000E+00  0.20487251571E+04  0.20487251571E+04  0.25500000920E-02 0. -1.
       -2   -1    0    0    0  501  0.00000000000E+00  0.00000000000E+00 -0.17632995306E+04  0.17632995306E+04  0.25500000920E-02 0.  1.
    10030    2    1    2    0    0  0.00000000000E+00  0.00000000000E+00  0.28542562653E+03  0.38120246877E+04  0.38013240366E+04 0.  0.
        4    1    3    3  502    0  0.13479786776E+04 -0.12160932180E+04  0.70695578910E+03  0.19482600778E+04  0.12699999809E+01 0. -1.
       -4    1    3    3    0  502 -0.13479786776E+04  0.12160932180E+04 -0.42153016258E+03  0.18637646099E+04  0.12699999809E+01 0.  1.
</event>
<event>
 5   0  0.3701250E-08  0.3808455E+04  0.7818609E-02  0.8044343E-01
       -1   -1    0    0    0  501  0.00000000000E+00  0.00000000000E+00  0.25317737054E+04  0.25317737054E+04  0.50400001928E-02 0.  1.
        1   -1    0    0  501    0  0.00000000000E+00  0.00000000000E+00 -0.14322299077E+04  0.14322299077E+04  0.50400001928E-02 0. -1.
    10030    2    1    2    0    0  0.00000000000E+00  0.00000000000E+00  0.10995437977E+04  0.39640036130E+04  0.38084548154E+04 0.  0.
        2    1    3    3  502    0  0.55095970084E+03 -0.14960208898E+03  0.24405985797E+04  0.25064833541E+04  0.25500000920E-02 0.  1.
       -2    1    3    3    0  502 -0.55095970084E+03  0.14960208898E+03 -0.13410547820E+04  0.14575202590E+04  0.25500000920E-02 0. -1.
</event>
<event>
 5   0  0.7858367E-08  0.3805553E+04  0.7818609E-02  0.8044964E-01
        2   -1    0    0  501    0  0.00000000000E+00  0.00000000000E+00  0.19738357300E+04  0.19738357300E+04  0.25500000920E-02 0. -1.
       -2   -1    0    0    0  501  0.00000000000E+00  0.00000000000E+00 -0.18342751216E+04  0.18342751216E+04  0.25500000920E-02 0.  1.
    10030    2    1    2    0    0  0.00000000000E+00  0.00000000000E+00  0.13956060834E+03  0.38081108516E+04  0.38055526661E+04 0.  0.
        2    1    3    3  502    0  0.16202536402E+04  0.72122702376E+03 -0.62000701705E+03  0.18787759258E+04  0.25500000920E-02 0.  1.
       -2    1    3    3    0  502 -0.16202536402E+04 -0.72122702376E+03  0.75956762539E+03  0.19293349258E+04  0.25500000920E-02 0. -1.
</event>
<event>
 5   0  0.3701250E-08  0.3821598E+04  0.7818609E-02  0.8041536E-01
        1   -1    0    0  501    0  0.00000000000E+00  0.00000000000E+00  0.27690878213E+04  0.27690878213E+04  0.50400001928E-02 0. -1.
       -1   -1    0    0    0  501  0.00000000000E+00  0.00000000000E+00 -0.13185401338E+04  0.13185401338E+04  0.50400001928E-02 0.  1.
    10030    2    1    2    0    0  0.00000000000E+00  0.00000000000E+00  0.14505476875E+04  0.40876279550E+04  0.38215983181E+04 0.  0.
        1    1    3    3  502    0 -0.40655223418E+03  0.32667176363E+03  0.26914858008E+04  0.27415497399E+04  0.50400001928E-02 0. -1.
       -1    1    3    3    0  502  0.40655223418E+03 -0.32667176363E+03 -0.12409381133E+04  0.13460782152E+04  0.50400001928E-02 0.  1.
</event>
<event>
 5   0  0.1150235E-07  0.3798963E+04  0.7818609E-02  0.8046377E-01
        2   -1    0    0  501    0  0.00000000000E+00  0.00000000000E+00  0.26472486478E+04  0.26472486478E+04  0.25500000920E-02 0.  1.
       -2   -1    0    0    0  501  0.00000000000E+00  0.00000000000E+00 -0.13629359233E+04  0.13629359233E+04  0.25500000920E-02 0. -1.
    10030    2    1    2    0    0  0.00000000000E+00  0.00000000000E+00  0.12843127245E+04  0.40101845711E+04  0.37989631638E+04 0.  0.
        4    1    3    3  502    0 -0.17948964757E+04  0.61527720255E+03  0.54887291879E+03  0.19752170738E+04  0.12699999809E+01 0.  1.
       -4    1    3    3    0  502  0.17948964757E+04 -0.61527720255E+03  0.73543980567E+03  0.20349674973E+04  0.12699999809E+01 0. -1.
</event>
<event>
 5   0  0.3701250E-08  0.3754788E+04  0.7818609E-02  0.8055927E-01
       -1   -1    0    0    0  501  0.00000000000E+00  0.00000000000E+00  0.27740363432E+04  0.27740363432E+04  0.50400001928E-02 0. -1.
        1   -1    0    0  501    0  0.00000000000E+00  0.00000000000E+00 -0.12705705785E+04  0.12705705785E+04  0.50400001928E-02 0.  1.
    10030    2    1    2    0    0  0.00000000000E+00  0.00000000000E+00  0.15034657647E+04  0.40446069217E+04  0.37547883889E+04 0.  0.
        2    1    3    3  502    0 -0.90435106508E+03  0.71301897750E+03  0.23488636042E+04  0.26159906617E+04  0.25500000920E-02 0. -1.
       -2    1    3    3    0  502  0.90435106508E+03 -0.71301897750E+03 -0.84539783947E+03  0.14286162599E+04  0.25500000920E-02 0.  1.
</event>
<event>
 5   0  0.1174870E-07  0.3803048E+04  0.7818609E-02  0.8045501E-01
       -2   -1    0    0    0  501  0.00000000000E+00  0.00000000000E+00  0.17579080427E+04  0.17579080427E+04  0.25500000920E-02 0.  1.
        2   -1    0    0  501    0  0.00000000000E+00  0.00000000000E+00 -0.20568733713E+04  0.20568733713E+04  0.25500000920E-02 0. -1.
    10030    2    1    2    0    0  0.00000000000E+00  0.00000000000E+00 -0.29896532860E+03  0.38147814140E+04  0.38030483785E+04 0.  0.
        5    1    3    3  502    0  0.12892385965E+04  0.49540996089E+02 -0.15506392201E+04  0.20171996802E+04  0.46999998093E+01 0. -1.
       -5    1    3    3    0  502 -0.12892385965E+04 -0.49540996089E+02  0.12516738915E+04  0.17975817338E+04  0.46999998093E+01 0.  1.
</event>
<event>
 5   0  0.3701250E-08  0.3798079E+04  0.7818609E-02  0.8046567E-01
       -1   -1    0    0    0  501  0.00000000000E+00  0.00000000000E+00  0.23992479063E+04  0.23992479063E+04  0.50400001928E-02 0.  1.
        1   -1    0    0  501    0  0.00000000000E+00  0.00000000000E+00 -0.15031175861E+04  0.15031175861E+04  0.50400001928E-02 0. -1.
    10030    2    1    2    0    0  0.00000000000E+00  0.00000000000E+00  0.89613032015E+03  0.39023654924E+04  0.37980793680E+04 0.  0.
        2    1    3    3  502    0 -0.55417260936E+03 -0.20130933315E+03  0.23028236285E+04  0.23771052548E+04  0.25500000920E-02 0.  1.
       -2    1    3    3    0  502  0.55417260936E+03  0.20130933315E+03 -0.14066933083E+04  0.15252602376E+04  0.25500000920E-02 0. -1.
</event>
<event>
 5   0  0.3701250E-08  0.3800760E+04  0.7818609E-02  0.8045992E-01
        1   -1    0    0  501    0  0.00000000000E+00  0.00000000000E+00  0.16702554820E+04  0.16702554820E+04  0.50400001928E-02 0. -1.
       -1   -1    0    0    0  501  0.00000000000E+00  0.00000000000E+00 -0.21622102082E+04  0.21622102082E+04  0.50400001928E-02 0.  1.
    10030    2    1    2    0    0  0.00000000000E+00  0.00000000000E+00 -0.49195472622E+03  0.38324656902E+04  0.38007596365E+04 0.  0.
        3    1    3    3  502    0  0.86027703362E+03 -0.16641934703E+04 -0.56774270551E+03  0.19575362758E+04  0.10100000352E+00 0. -1.
       -3    1    3    3    0  502 -0.86027703362E+03  0.16641934703E+04  0.75787979289E+02  0.18749294144E+04  0.10100000352E+00 0.  1.
</event>
<event>
 5   0  0.1150235E-07  0.3794956E+04  0.7818609E-02  0.8047238E-01
       -2   -1    0    0    0  501  0.00000000000E+00  0.00000000000E+00  0.13746588661E+04  0.13746588661E+04  0.25500000920E-02 0.  1.
        2   -1    0    0  501    0  0.00000000000E+00  0.00000000000E+00 -0.26191386869E+04  0.26191386869E+04  0.25500000920E-02 0. -1.
    10030    2    1    2    0    0  0.00000000000E+00  0.00000000000E+00 -0.12444798208E+04  0.39937975529E+04  0.37949557138E+04 0.  0.
        4    1    3    3  502    0 -0.82514445177E+02 -0.60554327299E+03  0.12682486800E+04  0.14078166132E+04  0.12699999809E+01 0.  1.
       -4    1    3    3    0  502  0.82514445177E+02  0.60554327299E+03 -0.25127285008E+04  0.25859809398E+04  0.12699999809E+01 0. -1.
</event>
<event>
 5   0  0.3701250E-08  0.3801521E+04  0.7818609E-02  0.8045828E-01
        1   -1    0    0  501    0  0.00000000000E+00  0.00000000000E+00  0.26643965435E+04  0.26643965435E+04  0.50400001928E-02 0. -1.
       -1   -1    0    0    0  501  0.00000000000E+00  0.00000000000E+00 -0.13559885582E+04  0.13559885582E+04  0.50400001928E-02 0.  1.
    10030    2    1    2    0    0  0.00000000000E+00  0.00000000000E+00  0.13084079853E+04  0.40203851018E+04  0.38015213942E+04 0.  0.
        3    1    3    3  502    0 -0.47855464569E+03 -0.85108422161E+03  0.23789011674E+04  0.25714839442E+04  0.10100000352E+00 0. -1.
       -3    1    3    3    0  502  0.47855464569E+03  0.85108422161E+03 -0.10704931821E+04  0.14489011575E+04  0.10100000352E+00 0.  1.
</event>
<event>
 5   0  0.1143283E-07  0.3802492E+04  0.7818609E-02  0.8045620E-01
        2   -1    0    0  501    0  0.00000000000E+00  0.00000000000E+00  0.24190640886E+04  0.24190640886E+04  0.25500000920E-02 0.  1.
       -2   -1    0    0    0  501  0.00000000000E+00  0.00000000000E+00 -0.14942702220E+04  0.14942702220E+04  0.25500000920E-02 0. -1.
    10030    2    1    2    0    0  0.00000000000E+00  0.00000000000E+00  0.92479386661E+03  0.39133343106E+04  0.38024915162E+04 0.  0.
        1    1    3    3  502    0  0.44546422992E+03  0.15200935965E+04  0.15445287567E+04  0.22123950828E+04  0.50400001928E-02 0.  1.
       -1    1    3    3    0  502 -0.44546422992E+03 -0.15200935965E+04 -0.61973489006E+03  0.17009392277E+04  0.50400001928E-02 0. -1.
</event>
<event>
 5   0  0.3701250E-08  0.3789425E+04  0.7818609E-02  0.8048428E-01
       -1   -1    0    0    0  501  0.00000000000E+00  0.00000000000E+00  0.15709509596E+04  0.15709509596E+04  0.50400001928E-02 0.  1.
        1   -1    0    0  501    0  0.00000000000E+00  0.00000000000E+00 -0.22851988056E+04  0.22851988056E+04  0.50400001928E-02 0. -1.
    10030    2    1    2    0    0  0.00000000000E+00  0.00000000000E+00 -0.71424784599E+03  0.38561497652E+04  0.37894248938E+04 0.  0.
        1    1    3    3  502    0 -0.44704710766E+03 -0.12301163410E+04  0.10369985123E+04  0.16698512639E+04  0.50400001928E-02 0.  1.
       -1    1    3    3    0  502  0.44704710766E+03  0.12301163410E+04 -0.17512463583E+04  0.21862985012E+04  0.50400001928E-02 0. -1.
</event>
<event>
 5   0  0.3701250E-08  0.3799121E+04  0.7818609E-02  0.8046344E-01
        1   -1    0    0  501    0  0.00000000000E+00  0.00000000000E+00  0.24227493735E+04  0.24227493735E+04  0.50400001928E-02 0. -1.
       -1   -1    0    0    0  501  0.00000000000E+00  0.00000000000E+00 -0.14893533594E+04  0.14893533594E+04  0.50400001928E-02 0.  1.
    10030    2    1    2    0    0  0.00000000000E+00  0.00000000000E+00  0.93339601410E+03  0.39121027329E+04  0.37991209080E+04 0.  0.
        3    1    3    3  502    0  0.93301728646E+03 -0.83977843878E+03 -0.10013864738E+04  0.16057783045E+04  0.10100000352E+00 0.  1.
       -3    1    3    3    0  502 -0.93301728646E+03  0.83977843878E+03  0.19347824879E+04  0.23063244284E+04  0.10100000352E+00 0. -1.
</event>
<event>
 5   0  0.7858367E-08  0.3808514E+04  0.7818609E-02  0.8044330E-01
       -2   -1    0    0    0  501  0.00000000000E+00  0.00000000000E+00  0.11046591636E+04  0.11046591636E+04  0.25500000920E-02 0.  1.
        2   -1    0    0  501    0  0.00000000000E+00  0.00000000000E+00 -0.32826358642E+04  0.32826358642E+04  0.25500000920E-02 0. -1.
    10030    2    1    2    0    0  0.00000000000E+00  0.00000000000E+00 -0.21779767007E+04  0.43872950278E+04  0.38085135095E+04 0.  0.
        2    1    3    3  502    0  0.10599218529E+04  0.30465446631E+03 -0.28773070384E+04  0.30814192300E+04  0.25500000920E-02 0. -1.
       -2    1    3    3    0  502 -0.10599218529E+04 -0.30465446631E+03  0.69933033769E+03  0.13058757978E+04  0.25500000920E-02 0.  1.
</event>
<event>
 5   0  0.7858367E-08  0.3785848E+04  0.7818609E-02  0.8049199E-01
       -2   -1    0    0    0  501  0.00000000000E+00  0.00000000000E+00  0.15254822665E+04  0.15254822665E+04  0.25500000920E-02 0.  1.
        2   -1    0    0  501    0  0.00000000000E+00  0.00000000000E+00 -0.23488711120E+04  0.23488711120E+04  0.25500000920E-02 0. -1.
    10030    2    1    2    0    0  0.00000000000E+00  0.00000000000E+00 -0.82338884552E+03  0.38743533785E+04  0.37858479778E+04 0.  0.
        2    1    3    3  502    0 -0.60073296854E+03  0.17882159683E+04 -0.25129880816E+03  0.19030889469E+04  0.25500000920E-02 0.  1.
       -2    1    3    3    0  502  0.60073296854E+03 -0.17882159683E+04 -0.57209003736E+03  0.19712644317E+04  0.25500000920E-02 0. -1.
</event>
<event>
 5   0  0.3701250E-08  0.3803045E+04  0.7818609E-02  0.8045502E-01
       -1   -1    0    0    0  501  0.00000000000E+00  0.00000000000E+00  0.20919210066E+04  0.20919210066E+04  0.50400001928E-02 0. -1.
        1   -1    0    0  501    0  0.00000000000E+00  0.00000000000E+00 -0.17284528708E+04  0.17284528708E+04  0.50400001928E-02 0.  1.
    10030    2    1    2    0    0  0.00000000000E+00  0.00000000000E+00  0.36346813580E+03  0.38203738774E+04  0.38030445011E+04 0.  0.
        4    1    3    3  502    0  0.15810584414E+04  0.99679845764E+03  0.53323174290E+03  0.19436282219E+04  0.12699999809E+01 0. -1.
       -4    1    3    3    0  502 -0.15810584414E+04 -0.99679845764E+03 -0.16976360711E+03  0.18767456555E+04  0.12699999809E+01 0.  1.
</event>
<event>
 5   0  0.3701250E-08  0.3755833E+04  0.7818609E-02  0.8055700E-01
       -3   -1    0    0    0  501  0.00000000000E+00  0.00000000000E+00  0.17185235050E+04  0.17185235079E+04  0.10100000352E+00 0. -1.
        3   -1    0    0  501    0  0.00000000000E+00  0.00000000000E+00 -0.20520934854E+04  0.20520934879E+04  0.10100000352E+00 0.  1.
    10030    2    1    2    0    0  0.00000000000E+00  0.00000000000E+00 -0.33356998045E+03  0.37706169958E+04  0.37558332760E+04 0.  0.
        1    1    3    3  502    0 -0.55819908764E+02  0.40498860865E+03 -0.20068768845E+04  0.20480933731E+04  0.50400001928E-02 0.  1.
       -1    1    3    3    0  502  0.55819908764E+02 -0.40498860865E+03  0.16733069041E+04  0.17225236227E+04  0.50400001928E-02 0. -1.
</event>
<event>
 5   0  0.1193861E-07  0.3793197E+04  0.7818609E-02  0.8047616E-01
        2   -1    0    0  501    0  0.00000000000E+00  0.00000000000E+00  0.16770013030E+04  0.16770013031E+04  0.25500000920E-02 0. -1.
       -2   -1    0    0    0  501  0.00000000000E+00  0.00000000000E+00 -0.21449510952E+04  0.21449510952E+04  0.25500000920E-02 0.  1.
    10030    2    1    2    0    0  0.00000000000E+00  0.00000000000E+00 -0.46794979215E+03  0.38219523982E+04  0.37931969533E+04 0.  0.
        3    1    3    3  502    0  0.18650765255E+04  0.38817211872E+02  0.11077170981E+03  0.18687663321E+04  0.10100000352E+00 0. -1.
       -3    1    3    3    0  502 -0.18650765255E+04 -0.38817211872E+02 -0.57872150196E+03  0.19531860662E+04  0.10100000352E+00 0.  1.
</event>
<event>
 5   0  0.3701250E-08  0.3801791E+04  0.7818609E-02  0.8045771E-01
        1   -1    0    0  501    0  0.00000000000E+00  0.00000000000E+00  0.15672526680E+04  0.15672526680E+04  0.50400001928E-02 0. -1.
       -1   -1    0    0    0  501  0.00000000000E+00  0.00000000000E+00 -0.23055660329E+04  0.23055660329E+04  0.50400001928E-02 0.  1.
    10030    2    1    2    0    0  0.00000000000E+00  0.00000000000E+00 -0.73831336487E+03  0.38728187008E+04  0.38017914284E+04 0.  0.
        4    1    3    3  502    0 -0.10675351692E+04  0.15422739290E+04 -0.54908884610E+02  0.18765012145E+04  0.12699999809E+01 0.  1.
       -4    1    3    3    0  502  0.10675351692E+04 -0.15422739290E+04 -0.68340448026E+03  0.19963174863E+04  0.12699999809E+01 0. -1.
</event>
<event>
 5   0  0.7858367E-08  0.3803389E+04  0.7818609E-02  0.8045428E-01
        2   -1    0    0  501    0  0.00000000000E+00  0.00000000000E+00  0.24119773946E+04  0.24119773946E+04  0.25500000920E-02 0.  1.
       -2   -1    0    0    0  501  0.00000000000E+00  0.00000000000E+00 -0.14993681443E+04  0.14993681443E+04  0.25500000920E-02 0. -1.
    10030    2    1    2    0    0  0.00000000000E+00  0.00000000000E+00  0.91260925021E+03  0.39113455389E+04  0.38033890520E+04 0.  0.
        2    1    3    3  502    0  0.10288009812E+04 -0.35637437362E+03 -0.11471202578E+04  0.15815558919E+04  0.25500000920E-02 0. -1.
       -2    1    3    3    0  502 -0.10288009812E+04  0.35637437362E+03  0.20597295080E+04  0.23297896470E+04  0.25500000920E-02 0.  1.
</event>
<event>
 5   0  0.3701250E-08  0.3824055E+04  0.7818609E-02  0.8041012E-01
       -1   -1    0    0    0  501  0.00000000000E+00  0.00000000000E+00  0.19400238806E+04  0.19400238806E+04  0.50400001928E-02 0.  1.
        1   -1    0    0  501    0  0.00000000000E+00  0.00000000000E+00 -0.18844348754E+04  0.18844348754E+04  0.50400001928E-02 0. -1.
    10030    2    1    2    0    0  0.00000000000E+00  0.00000000000E+00  0.55589005194E+02  0.38244587560E+04  0.38240547380E+04 0.  0.
        2    1    3    3  502    0  0.93958087965E+03 -0.14492373452E+04  0.84809305131E+03  0.19241525241E+04  0.25500000920E-02 0.  1.
       -2    1    3    3    0  502 -0.93958087965E+03  0.14492373452E+04 -0.79250404611E+03  0.19003062320E+04  0.25500000920E-02 0. -1.
</event>
<event>
 5   0  0.3701250E-08  0.3798584E+04  0.7818609E-02  0.8046459E-01
       -1   -1    0    0    0  501  0.00000000000E+00  0.00000000000E+00  0.19957796725E+04  0.19957796725E+04  0.50400001928E-02 0. -1.
        1   -1    0    0  501    0  0.00000000000E+00  0.00000000000E+00 -0.18074693782E+04  0.18074693782E+04  0.50400001928E-02 0.  1.
    10030    2    1    2    0    0  0.00000000000E+00  0.00000000000E+00  0.18831029437E+03  0.38032490507E+04  0.37985842856E+04 0.  0.
        2    1    3    3  502    0  0.18940188227E+04  0.12413383838E+03  0.26291875682E+02  0.18982644108E+04  0.25500000920E-02 0. -1.
       -2    1    3    3    0  502 -0.18940188227E+04 -0.12413383838E+03  0.16201841868E+03  0.19049846399E+04  0.25500000920E-02 0.  1.
</event>
<event>
 5   0  0.7858367E-08  0.3795538E+04  0.7818609E-02  0.8047113E-01
       -2   -1    0    0    0  501  0.00000000000E+00  0.00000000000E+00  0.16206188063E+04  0.16206188063E+04  0.25500000920E-02 0. -1.
        2   -1    0    0  501    0  0.00000000000E+00  0.00000000000E+00 -0.22223163866E+04  0.22223163866E+04  0.25500000920E-02 0.  1.
    10030    2    1    2    0    0  0.00000000000E+00  0.00000000000E+00 -0.60169758022E+03  0.38429351929E+04  0.37955382910E+04 0.  0.
        2    1    3    3  502    0 -0.89017852693E+03  0.13520628109E+04 -0.13036900004E+04  0.20784848500E+04  0.25500000920E-02 0.  1.
       -2    1    3    3    0  502  0.89017852693E+03 -0.13520628109E+04  0.70199242021E+03  0.17644503429E+04  0.25500000920E-02 0. -1.
</event>
<event>
 5   0  0.3889225E-08  0.3705656E+04  0.7818609E-02  0.8066710E-01
       -1   -1    0    0    0  501  0.00000000000E+00  0.00000000000E+00  0.12743144896E+04  0.12743144896E+04  0.50400001928E-02 0.  1.
        1   -1    0    0  501    0  0.00000000000E+00  0.00000000000E+00 -0.26939749665E+04  0.26939749665E+04  0.50400001928E-02 0. -1.
    10030    2    1    2    0    0  0.00000000000E+00  0.00000000000E+00 -0.14196604769E+04  0.39682894561E+04  0.37056558579E+04 0.  0.
        5    1    3    3  502    0 -0.99385355259E+03  0.38773838712E+02 -0.23838565807E+04  0.25830297292E+04  0.46999998093E+01 0. -1.
       -5    1    3    3    0  502  0.99385355259E+03 -0.38773838712E+02  0.96419610373E+03  0.13852597269E+04  0.46999998093E+01 0.  1.
</event>
<event>
 5   0  0.3701250E-08  0.3777044E+04  0.7818609E-02  0.8051099E-01
       -1   -1    0    0    0  501  0.00000000000E+00  0.00000000000E+00  0.14348650559E+04  0.14348650559E+04  0.50400001928E-02 0.  1.
        1   -1    0    0  501    0  0.00000000000E+00  0.00000000000E+00 -0.24856109172E+04  0.24856109172E+04  0.50400001928E-02 0. -1.
    10030    2    1    2    0    0  0.00000000000E+00  0.00000000000E+00 -0.10507458613E+04  0.39204759732E+04  0.37770444783E+04 0.  0.
        4    1    3    3  502    0 -0.18018539405E+04 -0.28704258877E+03 -0.19586820227E+02  0.18246797876E+04  0.12699999809E+01 0. -1.
       -4    1    3    3    0  502  0.18018539405E+04  0.28704258877E+03 -0.10311590411E+04  0.20957961856E+04  0.12699999809E+01 0.  1.
</event>
<event>
 5   0  0.3889225E-08  0.3816135E+04  0.7818609E-02  0.8042701E-01
        1   -1    0    0  501    0  0.00000000000E+00  0.00000000000E+00  0.26557402928E+04  0.26557402928E+04  0.50400001928E-02 0.  1.
       -1   -1    0    0    0  501  0.00000000000E+00  0.00000000000E+00 -0.13708875430E+04  0.13708875430E+04  0.50400001928E-02 0. -1.
    10030    2    1    2    0    0  0.00000000000E+00  0.00000000000E+00  0.12848527498E+04  0.40266278358E+04  0.38161348430E+04 0.  0.
        5    1    3    3  502    0 -0.36465632105E+02 -0.79747470068E+02 -0.13687541907E+04  0.13715682724E+04  0.46999998093E+01 0. -1.
       -5    1    3    3    0  502  0.36465632105E+02  0.79747470068E+02  0.26536069404E+04  0.26550595635E+04  0.46999998093E+01 0.  1.
</event>
<event>
 5   0  0.7858367E-08  0.3800222E+04  0.7818609E-02  0.8046107E-01
        2   -1    0    0  501    0  0.00000000000E+00  0.00000000000E+00  0.29910195128E+04  0.29910195128E+04  0.25500000920E-02 0. -1.
       -2   -1    0    0    0  501  0.00000000000E+00  0.00000000000E+00 -0.12070871499E+04  0.12070871499E+04  0.25500000920E-02 0.  1.
    10030    2    1    2    0    0  0.00000000000E+00  0.00000000000E+00  0.17839323628E+04  0.41981066627E+04  0.38002216878E+04 0.  0.
        2    1    3    3  502    0  0.62635897518E+03  0.14048670733E+04  0.21243110000E+04  0.26227226853E+04  0.25500000920E-02 0. -1.
       -2    1    3    3    0  502 -0.62635897518E+03 -0.14048670733E+04 -0.34037863716E+03  0.15753839773E+04  0.25500000920E-02 0.  1.
</event>
<event>
 5   0  0.7858367E-08  0.3798538E+04  0.7818609E-02  0.8046469E-01
       -2   -1    0    0    0  501  0.00000000000E+00  0.00000000000E+00  0.14688174375E+04  0.14688174375E+04  0.25500000920E-02 0. -1.
        2   -1    0    0  501    0  0.00000000000E+00  0.00000000000E+00 -0.24558692762E+04  0.24558692762E+04  0.25500000920E-02 0.  1.
    10030    2    1    2    0    0  0.00000000000E+00  0.00000000000E+00 -0.98705183871E+03  0.39246867136E+04  0.37985384647E+04 0.  0.
        2    1    3    3  502    0 -0.16176405868E+04  0.26532574357E+03  0.49752889163E+03  0.17130948066E+04  0.25500000920E-02 0. -1.
       -2    1    3    3    0  502  0.16176405868E+04 -0.26532574357E+03 -0.14845807303E+04  0.22115919070E+04  0.25500000920E-02 0.  1.
</event>
<event>
 5   0  0.3701250E-08  0.3815770E+04  0.7818609E-02  0.8042779E-01
        1   -1    0    0  501    0  0.00000000000E+00  0.00000000000E+00  0.12464131392E+04  0.12464131392E+04  0.50400001928E-02 0.  1.
       -1   -1    0    0    0  501  0.00000000000E+00  0.00000000000E+00 -0.29203997258E+04  0.29203997258E+04  0.50400001928E-02 0. -1.
    10030    2    1    2    0    0  0.00000000000E+00  0.00000000000E+00 -0.16739865866E+04  0.41668128650E+04  0.38157696943E+04 0.  0.
        4    1    3    3  502    0 -0.41565410451E+03  0.25760671203E+02 -0.28701607348E+04  0.29002165787E+04  0.12699999809E+01 0. -1.
       -4    1    3    3    0  502  0.41565410451E+03 -0.25760671203E+02  0.11961741482E+04  0.12665962863E+04  0.12699999809E+01 0.  1.
</event>
<event>
 5   0  0.1193861E-07  0.3765519E+04  0.7818609E-02  0.8053595E-01
        2   -1    0    0  501    0  0.00000000000E+00  0.00000000000E+00  0.20586095381E+04  0.20586095381E+04  0.25500000920E-02 0.  1.
       -2   -1    0    0    0  501  0.00000000000E+00  0.00000000000E+00 -0.17219311124E+04  0.17219311124E+04  0.25500000920E-02 0. -1.
    10030    2    1    2    0    0  0.00000000000E+00  0.00000000000E+00  0.33667842573E+03  0.37805406505E+04  0.37655192534E+04 0.  0.
        3    1    3    3  502    0 -0.17918732832E+04  0.48147142900E+03  0.48923778520E+03  0.19188481495E+04  0.10100000352E+00 0.  1.
       -3    1    3    3    0  502  0.17918732832E+04 -0.48147142900E+03 -0.15255935947E+03  0.18616925010E+04  0.10100000352E+00 0. -1.
</event>
<event>
 5   0  0.1143283E-07  0.3801769E+04  0.7818609E-02  0.8045775E-01
        2   -1    0    0  501    0  0.00000000000E+00  0.00000000000E+00  0.26987361964E+04  0.26987361964E+04  0.25500000920E-02 0. -1.
       -2   -1    0    0    0  501  0.00000000000E+00  0.00000000000E+00 -0.13389086929E+04  0.13389086929E+04  0.25500000920E-02 0.  1.
    10030    2    1    2    0    0  0.00000000000E+00  0.00000000000E+00  0.13598275036E+04  0.40376448893E+04  0.38017687216E+04 0.  0.
        1    1    3    3  502    0 -0.15025421911E+04  0.11345495619E+04  0.95792916764E+03  0.21124545047E+04  0.50400001928E-02 0. -1.
       -1    1    3    3    0  502  0.15025421911E+04 -0.11345495619E+04  0.40189833594E+03  0.19251903846E+04  0.50400001928E-02 0.  1.
</event>
<event>
 5   0  0.1150235E-07  0.3810443E+04  0.7818609E-02  0.8043918E-01
        2   -1    0    0  501    0  0.00000000000E+00  0.00000000000E+00  0.19012506037E+04  0.19012506037E+04  0.25500000920E-02 0.  1.
       -2   -1    0    0    0  501  0.00000000000E+00  0.00000000000E+00 -0.19092007597E+04  0.19092007597E+04  0.25500000920E-02 0. -1.
    10030    2    1    2    0    0  0.00000000000E+00  0.00000000000E+00 -0.79501560338E+01  0.38104513635E+04  0.38104430698E+04 0.  0.
        4    1    3    3  502    0 -0.91797410071E+03  0.16681586899E+04 -0.70590686755E+02  0.19053646691E+04  0.12699999809E+01 0. -1.
       -4    1    3    3    0  502  0.91797410071E+03 -0.16681586899E+04  0.62640530722E+02  0.19050866944E+04  0.12699999809E+01 0.  1.
</event>
<event>
 5   0  0.3701250E-08  0.3803911E+04  0.7818609E-02  0.8045316E-01
        1   -1    0    0  501    0  0.00000000000E+00  0.00000000000E+00  0.22683566785E+04  0.22683566785E+04  0.50400001928E-02 0. -1.
       -1   -1    0    0    0  501  0.00000000000E+00  0.00000000000E+00 -0.15947384650E+04  0.15947384650E+04  0.50400001928E-02 0.  1.
    10030    2    1    2    0    0  0.00000000000E+00  0.00000000000E+00  0.67361821356E+03  0.38630951435E+04  0.38039114856E+04 0.  0.
        2    1    3    3  502    0  0.12101398330E+04  0.32329432231E+03  0.17903279131E+04  0.21850015265E+04  0.25500000920E-02 0. -1.
       -2    1    3    3    0  502 -0.12101398330E+04 -0.32329432231E+03 -0.11167096996E+04  0.16780936170E+04  0.25500000920E-02 0.  1.
</event>
<event>
 5   0  0.3701250E-08  0.3794627E+04  0.7818609E-02  0.8047309E-01
        1   -1    0    0  501    0  0.00000000000E+00  0.00000000000E+00  0.20653412376E+04  0.20653412376E+04  0.50400001928E-02 0. -1.
       -1   -1    0    0    0  501  0.00000000000E+00  0.00000000000E+00 -0.17429559701E+04  0.17429559701E+04  0.50400001928E-02 0.  1.
    10030    2    1    2    0    0  0.00000000000E+00  0.00000000000E+00  0.32238526755E+03  0.38082972077E+04  0.37946271703E+04 0.  0.
        4    1    3    3  502    0  0.14028383001E+03  0.18752386307E+04  0.41428707460E+03  0.19255739062E+04  0.12699999809E+01 0.  1.
       -4    1    3    3    0  502 -0.14028383001E+03 -0.18752386307E+04 -0.91901807052E+02  0.18827233015E+04  0.12699999809E+01 0. -1.
</event>
<event>
 5   0  0.1193861E-07  0.3789159E+04  0.7818609E-02  0.8048485E-01
        2   -1    0    0  501    0  0.00000000000E+00  0.00000000000E+00  0.22640759941E+04  0.22640759941E+04  0.25500000920E-02 0.  1.
       -2   -1    0    0    0  501  0.00000000000E+00  0.00000000000E+00 -0.15853844057E+04  0.15853844057E+04  0.25500000920E-02 0. -1.
    10030    2    1    2    0    0  0.00000000000E+00  0.00000000000E+00  0.67869158844E+03  0.38494603998E+04  0.37891586265E+04 0.  0.
        3    1    3    3  502    0  0.25519028135E+03 -0.53067834196E+02  0.22457739916E+04  0.22608492002E+04  0.10100000352E+00 0.  1.
       -3    1    3    3    0  502 -0.25519028135E+03  0.53067834196E+02 -0.15670824032E+04  0.15886111995E+04  0.10100000352E+00 0. -1.
</event>
<event>
 5   0  0.3701250E-08  0.3781020E+04  0.7818609E-02  0.8050240E-01
       -1   -1    0    0    0  501  0.00000000000E+00  0.00000000000E+00  0.13254727106E+04  0.13254727106E+04  0.50400001928E-02 0. -1.
        1   -1    0    0  501    0  0.00000000000E+00  0.00000000000E+00 -0.26964179093E+04  0.26964179093E+04  0.50400001928E-02 0.  1.
    10030    2    1    2    0    0  0.00000000000E+00  0.00000000000E+00 -0.13709451987E+04  0.40218906199E+04  0.37810201560E+04 0.  0.
        4    1    3    3  502    0  0.92786304238E+03 -0.15367514453E+04 -0.13161088490E+04  0.22259108125E+04  0.12699999809E+01 0.  1.
       -4    1    3    3    0  502 -0.92786304238E+03  0.15367514453E+04 -0.54836349687E+02  0.17959798073E+04  0.12699999809E+01 0. -1.
</event>
<event>
 5   0  0.1143283E-07  0.3716091E+04  0.7818609E-02  0.8064405E-01
       -2   -1    0    0    0  501  0.00000000000E+00  0.00000000000E+00  0.14654637117E+04  0.14654637117E+04  0.25500000920E-02 0.  1.
        2   -1    0    0  501    0  0.00000000000E+00  0.00000000000E+00 -0.23557962278E+04  0.23557962278E+04  0.25500000920E-02 0. -1.
    10030    2    1    2    0    0  0.00000000000E+00  0.00000000000E+00 -0.89033251614E+03  0.38212599395E+04  0.37160914327E+04 0.  0.
        1    1    3    3  502    0 -0.79820830819E+02  0.17714727639E+04  0.12537556815E+03  0.17776968671E+04  0.50400001928E-02 0.  1.
       -1    1    3    3    0  502  0.79820830819E+02 -0.17714727639E+04 -0.10157080843E+04  0.20435630724E+04  0.50400001928E-02 0. -1.
</event>
<event>
 5   0  0.1193861E-07  0.3830929E+04  0.7818609E-02  0.8039550E-01
       -2   -1    0    0    0  501  0.00000000000E+00  0.00000000000E+00  0.22396655136E+04  0.22396655136E+04  0.25500000920E-02 0. -1.
        2   -1    0    0  501    0  0.00000000000E+00  0.00000000000E+00 -0.16381926745E+04  0.16381926745E+04  0.25500000920E-02 0.  1.
    10030    2    1    2    0    0  0.00000000000E+00  0.00000000000E+00  0.60147283906E+03  0.38778581881E+04  0.38309286800E+04 0.  0.
        3    1    3    3  502    0  0.14664165423E+04 -0.53869959353E+03 -0.82118610864E+03  0.17649139817E+04  0.10100000352E+00 0.  1.
       -3    1    3    3    0  502 -0.14664165423E+04  0.53869959353E+03  0.14226589477E+04  0.21129442064E+04  0.10100000352E+00 0. -1.
</event>
<event>
 5   0  0.3701250E-08  0.3867302E+04  0.7818609E-02  0.8031864E-01
        1   -1    0    0  501    0  0.00000000000E+00  0.00000000000E+00  0.21236490823E+04  0.21236490823E+04  0.50400001928E-02 0.  1.
       -1   -1    0    0    0  501  0.00000000000E+00  0.00000000000E+00 -0.17606516742E+04  0.17606516742E+04  0.50400001928E-02 0. -1.
    10030    2    1    2    0    0  0.00000000000E+00  0.00000000000E+00  0.36299740808E+03  0.38843007565E+04  0.38673020633E+04 0.  0.
        4    1    3    3  502    0 -0.17542397896E+04  0.80231565904E+03  0.31601663539E+03  0.19547214080E+04  0.12699999809E+01 0. -1.
       -4    1    3    3    0  502  0.17542397896E+04 -0.80231565904E+03  0.46980772688E+02  0.19295793485E+04  0.12699999809E+01 0.  1.
</event>
<event>
 5   0  0.3701250E-08  0.3856915E+04  0.7818609E-02  0.8034050E-01
       -1   -1    0    0    0  501  0.00000000000E+00  0.00000000000E+00  0.21475844050E+04  0.21475844051E+04  0.50400001928E-02 0. -1.
        1   -1    0    0  501    0  0.00000000000E+00  0.00000000000E+00 -0.17316893266E+04  0.17316893266E+04  0.50400001928E-02 0.  1.
    10030    2    1    2    0    0  0.00000000000E+00  0.00000000000E+00  0.41589507844E+03  0.38792737317E+04  0.38569153438E+04 0.  0.
        3    1    3    3  502    0  0.14960642475E+04 -0.33634246790E+03 -0.96828222910E+03  0.18135338358E+04  0.10100000352E+00 0.  1.
       -3    1    3    3    0  502 -0.14960642475E+04  0.33634246790E+03  0.13841773075E+04  0.20657398958E+04  0.10100000352E+00 0. -1.
</event>
<event>
 5   0  0.3701250E-08  0.3814767E+04  0.7818609E-02  0.8042993E-01
        1   -1    0    0  501    0  0.00000000000E+00  0.00000000000E+00  0.16273421400E+04  0.16273421400E+04  0.50400001928E-02 0. -1.
       -1   -1    0    0    0  501  0.00000000000E+00  0.00000000000E+00 -0.22356158970E+04  0.22356158970E+04  0.50400001928E-02 0.  1.
    10030    2    1    2    0    0  0.00000000000E+00  0.00000000000E+00 -0.60827375705E+03  0.38629580370E+04  0.38147670744E+04 0.  0.
        2    1    3    3  502    0  0.18525741883E+04 -0.44232191374E+03 -0.20070865349E+03  0.19151928786E+04  0.25500000920E-02 0.  1.
       -2    1    3    3    0  502 -0.18525741883E+04  0.44232191374E+03 -0.40756510356E+03  0.19477651584E+04  0.25500000920E-02 0. -1.
</event>
<event>
 5   0  0.1174870E-07  0.3799318E+04  0.7818609E-02  0.8046301E-01
       -2   -1    0    0    0  501  0.00000000000E+00  0.00000000000E+00  0.29688560127E+04  0.29688560127E+04  0.25500000920E-02 0. -1.
        2   -1    0    0  501    0  0.00000000000E+00  0.00000000000E+00 -0.12155204018E+04  0.12155204018E+04  0.25500000920E-02 0.  1.
    10030    2    1    2    0    0  0.00000000000E+00  0.00000000000E+00  0.17533356109E+04  0.41843764144E+04  0.37993183880E+04 0.  0.
        5    1    3    3  502    0  0.12145953406E+04  0.14451985179E+04  0.11098896974E+04  0.21899127444E+04  0.46999998093E+01 0.  1.
       -5    1    3    3    0  502 -0.12145953406E+04 -0.14451985179E+04  0.64344591347E+03  0.19944636701E+04  0.46999998093E+01 0. -1.
</event>
<event>
 5   0  0.3701250E-08  0.3814285E+04  0.7818609E-02  0.8043096E-01
        1   -1    0    0  501    0  0.00000000000E+00  0.00000000000E+00  0.12970059086E+04  0.12970059086E+04  0.50400001928E-02 0. -1.
       -1   -1    0    0    0  501  0.00000000000E+00  0.00000000000E+00 -0.28042987237E+04  0.28042987237E+04  0.50400001928E-02 0.  1.
    10030    2    1    2    0    0  0.00000000000E+00  0.00000000000E+00 -0.15072928152E+04  0.41013046323E+04  0.38142847372E+04 0.  0.
        4    1    3    3  502    0 -0.13941269469E+04  0.32728971544E+03 -0.21079825836E+04  0.25483917845E+04  0.12699999809E+01 0.  1.
       -4    1    3    3    0  502  0.13941269469E+04 -0.32728971544E+03  0.60068976841E+03  0.15529128477E+04  0.12699999809E+01 0. -1.
</event>
<event>
 5   0  0.3889225E-08  0.3802370E+04  0.7818609E-02  0.8045647E-01
       -1   -1    0    0    0  501  0.00000000000E+00  0.00000000000E+00  0.19936886962E+04  0.19936886962E+04  0.50400001928E-02 0.  1.
        1   -1    0    0  501    0  0.00000000000E+00  0.00000000000E+00 -0.18129728559E+04  0.18129728559E+04  0.50400001928E-02 0. -1.
    10030    2    1    2    0    0  0.00000000000E+00  0.00000000000E+00  0.18071584029E+03  0.38066615521E+04  0.38023695188E+04 0.  0.
        5    1    3    3  502    0 -0.63205914484E+03 -0.17916593904E+04  0.16071715942E+03  0.19066709808E+04  0.46999998093E+01 0. -1.
       -5    1    3    3    0  502  0.63205914484E+03  0.17916593904E+04  0.19998680863E+02  0.18999905713E+04  0.46999998093E+01 0.  1.
</event>
<event>
 5   0  0.3701250E-08  0.3812156E+04  0.7818609E-02  0.8043551E-01
       -1   -1    0    0    0  501  0.00000000000E+00  0.00000000000E+00  0.15284083638E+04  0.15284083638E+04  0.50400001928E-02 0. -1.
        1   -1    0    0  501    0  0.00000000000E+00  0.00000000000E+00 -0.23770693466E+04  0.23770693466E+04  0.50400001928E-02 0.  1.
    10030    2    1    2    0    0  0.00000000000E+00  0.00000000000E+00 -0.84866098285E+03  0.39054777104E+04  0.38121556478E+04 0.  0.
        2    1    3    3  502    0  0.21760152805E+03  0.13631139651E+04 -0.17709286868E+04  0.22453548763E+04  0.25500000920E-02 0. -1.
       -2    1    3    3    0  502 -0.21760152805E+03 -0.13631139651E+04  0.92226770391E+03  0.16601228341E+04  0.25500000920E-02 0.  1.
</event>
<event>
 5   0  0.3889225E-08  0.3830777E+04  0.7818609E-02  0.8039582E-01
       -1   -1    0    0    0  501  0.00000000000E+00  0.00000000000E+00  0.19942471413E+04  0.19942471413E+04  0.50400001928E-02 0. -1.
        1   -1    0    0  501    0  0.00000000000E+00  0.00000000000E+00 -0.18396477773E+04  0.18396477773E+04  0.50400001928E-02 0.  1.
    10030    2    1    2    0    0  0.00000000000E+00  0.00000000000E+00  0.15459936403E+03  0.38338949186E+04  0.38307765901E+04 0.  0.
        5    1    3    3  502    0  0.82526654077E+03 -0.14873966767E+04  0.95851429184E+03  0.19524818756E+04  0.46999998093E+01 0. -1.
       -5    1    3    3    0  502 -0.82526654077E+03  0.14873966767E+04 -0.80391492781E+03  0.18814130430E+04  0.46999998093E+01 0.  1.
</event>
<event>
 5   0  0.7858367E-08  0.3775962E+04  0.7818609E-02  0.8051333E-01
        2   -1    0    0  501    0  0.00000000000E+00  0.00000000000E+00  0.19043945628E+04  0.19043945628E+04  0.25500000920E-02 0.  1.
       -2   -1    0    0    0  501  0.00000000000E+00  0.00000000000E+00 -0.18717092380E+04  0.18717092380E+04  0.25500000920E-02 0. -1.
    10030    2    1    2    0    0  0.00000000000E+00  0.00000000000E+00  0.32685324806E+02  0.37761038008E+04  0.37759623388E+04 0.  0.
        2    1    3    3  502    0 -0.78144867069E+03 -0.76234758174E+03 -0.15240517076E+04  0.18747185036E+04  0.25500000920E-02 0. -1.
       -2    1    3    3    0  502  0.78144867069E+03  0.76234758174E+03  0.15567370324E+04  0.19013852972E+04  0.25500000920E-02 0.  1.
</event>
<event>
 5   0  0.1150235E-07  0.3817996E+04  0.7818609E-02  0.8042304E-01
        2   -1    0    0  501    0  0.00000000000E+00  0.00000000000E+00  0.15553958443E+04  0.15553958443E+04  0.25500000920E-02 0. -1.
       -2   -1    0    0    0  501  0.00000000000E+00  0.00000000000E+00 -0.23429872729E+04  0.23429872729E+04  0.25500000920E-02 0.  1.
    10030    2    1    2    0    0  0.00000000000E+00  0.00000000000E+00 -0.78759142864E+03  0.38983831172E+04  0.38179956351E+04 0.  0.
        4    1    3    3  502    0 -0.22613080648E+03 -0.76709601299E+03  0.13761079200E+04  0.15916174336E+04  0.12699999809E+01 0. -1.
       -4    1    3    3    0  502  0.22613080648E+03  0.76709601299E+03 -0.21636993486E+04  0.23067656836E+04  0.12699999809E+01 0.  1.
</event>
<event>
 5   0  0.1143283E-07  0.3803262E+04  0.7818609E-02  0.8045455E-01
       -2   -1    0    0    0  501  0.00000000000E+00  0.00000000000E+00  0.25701172742E+04  0.25701172742E+04  0.25500000920E-02 0. -1.
        2   -1    0    0  501    0  0.00000000000E+00  0.00000000000E+00 -0.14070173825E+04  0.14070173825E+04  0.25500000920E-02 0.  1.
    10030    2    1    2    0    0  0.00000000000E+00  0.00000000000E+00  0.11630998917E+04  0.39771346567E+04  0.38032615896E+04 0.  0.
        1    1    3    3  502    0 -0.83647007233E+03 -0.47360425661E+03  0.22973595301E+04  0.24903501730E+04  0.50400001928E-02 0. -1.
       -1    1    3    3    0  502  0.83647007233E+03  0.47360425661E+03 -0.11342596383E+04  0.14867844837E+04  0.50400001928E-02 0.  1.
</event>
<event>
 5   0  0.3701250E-08  0.3776204E+04  0.7818609E-02  0.8051281E-01
       -1   -1    0    0    0  501  0.00000000000E+00  0.00000000000E+00  0.21152762326E+04  0.21152762326E+04  0.50400001928E-02 0.  1.
        1   -1    0    0  501    0  0.00000000000E+00  0.00000000000E+00 -0.16853252585E+04  0.16853252585E+04  0.50400001928E-02 0. -1.
    10030    2    1    2    0    0  0.00000000000E+00  0.00000000000E+00  0.42995097410E+03  0.38006014912E+04  0.37762036299E+04 0.  0.
        4    1    3    3  502    0 -0.39823753513E+03 -0.10404093134E+04  0.17492532181E+04  0.20738691154E+04  0.12699999809E+01 0.  1.
       -4    1    3    3    0  502  0.39823753513E+03  0.10404093134E+04 -0.13193022440E+04  0.17267323758E+04  0.12699999809E+01 0. -1.
</event>
<event>
 5   0  0.3701250E-08  0.3806643E+04  0.7818609E-02  0.8044731E-01
       -1   -1    0    0    0  501  0.00000000000E+00  0.00000000000E+00  0.18604806825E+04  0.18604806825E+04  0.50400001928E-02 0.  1.
        1   -1    0    0  501    0  0.00000000000E+00  0.00000000000E+00 -0.19471485486E+04  0.19471485486E+04  0.50400001928E-02 0. -1.
    10030    2    1    2    0    0  0.00000000000E+00  0.00000000000E+00 -0.86667866154E+02  0.38076292311E+04  0.38066427522E+04 0.  0.
        3    1    3    3  502    0 -0.76353804723E+03 -0.14510735725E+04  0.92336744333E+03  0.18818109118E+04  0.10100000352E+00 0.  1.
       -3    1    3    3    0  502  0.76353804723E+03  0.14510735725E+04 -0.10100353095E+04  0.19258183193E+04  0.10100000352E+00 0. -1.
</event>
<event>
 5   0  0.3889225E-08  0.3804561E+04  0.7818609E-02  0.8045177E-01
       -1   -1    0    0    0  501  0.00000000000E+00  0.00000000000E+00  0.19849891132E+04  0.19849891132E+04  0.50400001928E-02 0.  1.
        1   -1    0    0  501    0  0.00000000000E+00  0.00000000000E+00 -0.18230184087E+04  0.18230184087E+04  0.50400001928E-02 0. -1.
    10030    2    1    2    0    0  0.00000000000E+00  0.00000000000E+00  0.16197070443E+03  0.38080075219E+04  0.38045613121E+04 0.  0.
        5    1    3    3  502    0 -0.91923703344E+03  0.84720174388E+03  0.15161258632E+04  0.19650463713E+04  0.46999998093E+01 0.  1.
       -5    1    3    3    0  502  0.91923703344E+03 -0.84720174388E+03 -0.13541551588E+04  0.18429611506E+04  0.46999998093E+01 0. -1.
</event>
<event>
 5   0  0.3889225E-08  0.3792769E+04  0.7818609E-02  0.8047709E-01
        1   -1    0    0  501    0  0.00000000000E+00  0.00000000000E+00  0.29515888718E+04  0.29515888718E+04  0.50400001928E-02 0.  1.
       -1   -1    0    0    0  501  0.00000000000E+00  0.00000000000E+00 -0.12184194348E+04  0.12184194348E+04  0.50400001928E-02 0. -1.
    10030    2    1    2    0    0  0.00000000000E+00  0.00000000000E+00  0.17331694370E+04  0.41700083066E+04  0.37927685113E+04 0.  0.
        5    1    3    3  502    0  0.12243845396E+04  0.15813720518E+03  0.24492486049E+04  0.27428025257E+04  0.46999998093E+01 0.  1.
       -5    1    3    3    0  502 -0.12243845396E+04 -0.15813720518E+03 -0.71607916789E+03  0.14272057809E+04  0.46999998093E+01 0. -1.
</event>
<event>
 5   0  0.7858367E-08  0.3804949E+04  0.7818609E-02  0.8045094E-01
        2   -1    0    0  501    0  0.00000000000E+00  0.00000000000E+00  0.29727411820E+04  0.29727411820E+04  0.25500000920E-02 0.  1.
       -2   -1    0    0    0  501  0.00000000000E+00  0.00000000000E+00 -0.12175325126E+04  0.12175325126E+04  0.25500000920E-02 0. -1.
    10030    2    1    2    0    0  0.00000000000E+00  0.00000000000E+00  0.17552086695E+04  0.41902736946E+04  0.38049489041E+04 0.  0.
        2    1    3    3  502    0  0.81754013175E+03 -0.11631481490E+04  0.22697950661E+04  0.26782933233E+04  0.25500000920E-02 0.  1.
       -2    1    3    3    0  502 -0.81754013175E+03  0.11631481490E+04 -0.51458639663E+03  0.15119803713E+04  0.25500000920E-02 0. -1.
</event>
<event>
 5   0  0.7858367E-08  0.3823210E+04  0.7818609E-02  0.8041192E-01
       -2   -1    0    0    0  501  0.00000000000E+00  0.00000000000E+00  0.15028708810E+04  0.15028708810E+04  0.25500000920E-02 0.  1.
        2   -1    0    0  501    0  0.00000000000E+00  0.00000000000E+00 -0.24315022086E+04  0.24315022086E+04  0.25500000920E-02 0. -1.
    10030    2    1    2    0    0  0.00000000000E+00  0.00000000000E+00 -0.92863132760E+03  0.39343730897E+04  0.38232100997E+04 0.  0.
        2    1    3    3  502    0 -0.69723379422E+03 -0.17799108458E+04 -0.46846829892E+03  0.19681666926E+04  0.25500000920E-02 0. -1.
       -2    1    3    3    0  502  0.69723379422E+03  0.17799108458E+04 -0.46016302868E+03  0.19662063971E+04  0.25500000920E-02 0.  1.
</event>
<event>
 5   0  0.3701250E-08  0.3788218E+04  0.7818609E-02  0.8048688E-01
       -1   -1    0    0    0  501  0.00000000000E+00  0.00000000000E+00  0.17329325050E+04  0.17329325050E+04  0.50400001928E-02 0. -1.
        1   -1    0    0  501    0  0.00000000000E+00  0.00000000000E+00 -0.20702765680E+04  0.20702765681E+04  0.50400001928E-02 0.  1.
    10030    2    1    2    0    0  0.00000000000E+00  0.00000000000E+00 -0.33734406301E+03  0.38032090731E+04  0.37882183460E+04 0.  0.
        1    1    3    3  502    0  0.42813015332E+03 -0.10718697832E+04 -0.16764303454E+04  0.20353424684E+04  0.50400001928E-02 0.  1.
       -1    1    3    3    0  502 -0.42813015332E+03  0.10718697832E+04  0.13390862824E+04  0.17678666047E+04  0.50400001928E-02 0. -1.
</event>
<event>
 5   0  0.3701250E-08  0.3813430E+04  0.7818609E-02  0.8043279E-01
        1   -1    0    0  501    0  0.00000000000E+00  0.00000000000E+00  0.20394223434E+04  0.20394223434E+04  0.50400001928E-02 0. -1.
       -1   -1    0    0    0  501  0.00000000000E+00  0.00000000000E+00 -0.17826427872E+04  0.17826427872E+04  0.50400001928E-02 0.  1.
    10030    2    1    2    0    0  0.00000000000E+00  0.00000000000E+00  0.25677955625E+03  0.38220651306E+04  0.38134297059E+04 0.  0.
        4    1    3    3  502    0 -0.11973447106E+04 -0.57845141800E+03  0.14979831846E+04  0.20030465879E+04  0.12699999809E+01 0. -1.
       -4    1    3    3    0  502  0.11973447106E+04  0.57845141800E+03 -0.12412036283E+04  0.18190185428E+04  0.12699999809E+01 0.  1.
</event>
<event>
 5   0  0.1143283E-07  0.3773868E+04  0.7818609E-02  0.8051786E-01
       -2   -1    0    0    0  501  0.00000000000E+00  0.00000000000E+00  0.15245031581E+04  0.15245031581E+04  0.25500000920E-02 0.  1.
        2   -1    0    0  501    0  0.00000000000E+00  0.00000000000E+00 -0.23355277383E+04  0.23355277383E+04  0.25500000920E-02 0. -1.
    10030    2    1    2    0    0  0.00000000000E+00  0.00000000000E+00 -0.81102458021E+03  0.38600308964E+04  0.37738677311E+04 0.  0.
        1    1    3    3  502    0 -0.14192045034E+04  0.10770286349E+04 -0.10413049847E+04  0.20636007788E+04  0.50400001928E-02 0. -1.
       -1    1    3    3    0  502  0.14192045034E+04 -0.10770286349E+04  0.23028040449E+03  0.17964301177E+04  0.50400001928E-02 0.  1.
</event>
<event>
 5   0  0.1174870E-07  0.3799615E+04  0.7818609E-02  0.8046237E-01
        2   -1    0    0  501    0  0.00000000000E+00  0.00000000000E+00  0.18772110447E+04  0.18772110447E+04  0.25500000920E-02 0. -1.
       -2   -1    0    0    0  501  0.00000000000E+00  0.00000000000E+00 -0.19226761783E+04  0.19226761783E+04  0.25500000920E-02 0.  1.
    10030    2    1    2    0    0  0.00000000000E+00  0.00000000000E+00 -0.45465133654E+02  0.37998872230E+04  0.37996152212E+04 0.  0.
        5    1    3    3  502    0  0.16806305279E+04 -0.70559721031E+03 -0.55836447869E+03  0.19063523744E+04  0.46999998093E+01 0.  1.
       -5    1    3    3    0  502 -0.16806305279E+04  0.70559721031E+03  0.51289934503E+03  0.18935348485E+04  0.46999998093E+01 0. -1.
</event>
<event>
 5   0  0.3701250E-08  0.3808618E+04  0.7818609E-02  0.8044308E-01
        1   -1    0    0  501    0  0.00000000000E+00  0.00000000000E+00  0.17723389892E+04  0.17723389892E+04  0.50400001928E-02 0. -1.
       -1   -1    0    0    0  501  0.00000000000E+00  0.00000000000E+00 -0.20461054347E+04  0.20461054347E+04  0.50400001928E-02 0.  1.
    10030    2    1    2    0    0  0.00000000000E+00  0.00000000000E+00 -0.27376644555E+03  0.38184444239E+04  0.38086178269E+04 0.  0.
        2    1    3    3  502    0 -0.75243778188E+03 -0.52951513030E+03 -0.18084712632E+04  0.20290680616E+04  0.25500000920E-02 0.  1.
       -2    1    3    3    0  502  0.75243778188E+03  0.52951513030E+03  0.15347048176E+04  0.17893763623E+04  0.25500000920E-02 0. -1.
</event>
<event>
 5   0  0.3701250E-08  0.3795357E+04  0.7818609E-02  0.8047152E-01
        1   -1    0    0  501    0  0.00000000000E+00  0.00000000000E+00  0.22567119646E+04  0.22567119646E+04  0.50400001928E-02 0.  1.
       -1   -1    0    0    0  501  0.00000000000E+00  0.00000000000E+00 -0.15957656381E+04  0.15957656381E+04  0.50400001928E-02 0. -1.
    10030    2    1    2    0    0  0.00000000000E+00  0.00000000000E+00  0.66094632646E+03  0.38524776028E+04  0.37953568519E+04 0.  0.
        2    1    3    3  502    0  0.13704411603E+04  0.36098271293E+03 -0.95056917487E+03  0.17064581006E+04  0.25500000920E-02 0. -1.
       -2    1    3    3    0  502 -0.13704411603E+04 -0.36098271293E+03  0.16115155013E+04  0.21460195022E+04  0.25500000920E-02 0.  1.
</event>
<event>
 5   0  0.3701250E-08  0.3803193E+04  0.7818609E-02  0.8045470E-01
        1   -1    0    0  501    0  0.00000000000E+00  0.00000000000E+00  0.11696185847E+04  0.11696185847E+04  0.50400001928E-02 0.  1.
       -1   -1    0    0    0  501  0.00000000000E+00  0.00000000000E+00 -0.30916650413E+04  0.30916650413E+04  0.50400001928E-02 0. -1.
    10030    2    1    2    0    0  0.00000000000E+00  0.00000000000E+00 -0.19220464566E+04  0.42612836260E+04  0.38031928113E+04 0.  0.
        3    1    3    3  502    0 -0.17427457149E+04  0.68140392679E+03 -0.13403162227E+04  0.23017214265E+04  0.10100000352E+00 0. -1.
       -3    1    3    3    0  502  0.17427457149E+04 -0.68140392679E+03 -0.58173023389E+03  0.19595621995E+04  0.10100000352E+00 0.  1.
</event>
<event>
 5   0  0.1193861E-07  0.3803187E+04  0.7818609E-02  0.8045471E-01
       -2   -1    0    0    0  501  0.00000000000E+00  0.00000000000E+00  0.22558422718E+04  0.22558422718E+04  0.25500000920E-02 0.  1.
        2   -1    0    0  501    0  0.00000000000E+00  0.00000000000E+00 -0.16029745752E+04  0.16029745752E+04  0.25500000920E-02 0. -1.
    10030    2    1    2    0    0  0.00000000000E+00  0.00000000000E+00  0.65286769661E+03  0.38588168470E+04  0.38031869832E+04 0.  0.
        3    1    3    3  502    0  0.67869425517E+03  0.58978532680E+03  0.20265279401E+04  0.22170449084E+04  0.10100000352E+00 0.  1.
       -3    1    3    3    0  502 -0.67869425517E+03 -0.58978532680E+03 -0.13736602435E+04  0.16417719386E+04  0.10100000352E+00 0. -1.
</event>
<event>
 5   0  0.3701250E-08  0.3801359E+04  0.7818609E-02  0.8045863E-01
        1   -1    0    0  501    0  0.00000000000E+00  0.00000000000E+00  0.30182745736E+04  0.30182745736E+04  0.50400001928E-02 0.  1.
       -1   -1    0    0    0  501  0.00000000000E+00  0.00000000000E+00 -0.11969032690E+04  0.11969032690E+04  0.50400001928E-02 0. -1.
    10030    2    1    2    0    0  0.00000000000E+00  0.00000000000E+00  0.18213713046E+04  0.42151778426E+04  0.38013590748E+04 0.  0.
        3    1    3    3  502    0  0.14928061129E+04  0.29392498581E+03 -0.35250128182E+03  0.15617679572E+04  0.10100000352E+00 0. -1.
       -3    1    3    3    0  502 -0.14928061129E+04 -0.29392498581E+03  0.21738725864E+04  0.26534098855E+04  0.10100000352E+00 0.  1.
</event>
<event>
 5   0  0.3701250E-08  0.3794393E+04  0.7818609E-02  0.8047359E-01
        1   -1    0    0  501    0  0.00000000000E+00  0.00000000000E+00  0.17674757798E+04  0.17674757798E+04  0.50400001928E-02 0. -1.
       -1   -1    0    0    0  501  0.00000000000E+00  0.00000000000E+00 -0.20364373440E+04  0.20364373440E+04  0.50400001928E-02 0.  1.
    10030    2    1    2    0    0  0.00000000000E+00  0.00000000000E+00 -0.26896156425E+03  0.38039131238E+04  0.37943925378E+04 0.  0.
        2    1    3    3  502    0 -0.42684862901E+02  0.15026078262E+04  0.10258781206E+04  0.18199115900E+04  0.25500000920E-02 0. -1.
       -2    1    3    3    0  502  0.42684862901E+02 -0.15026078262E+04 -0.12948396849E+04  0.19840015339E+04  0.25500000920E-02 0.  1.
</event>
<event>
 5   0  0.1143283E-07  0.3797540E+04  0.7818609E-02  0.8046683E-01
        2   -1    0    0  501    0  0.00000000000E+00  0.00000000000E+00  0.22761523533E+04  0.22761523533E+04  0.25500000920E-02 0. -1.
       -2   -1    0    0    0  501  0.00000000000E+00  0.00000000000E+00 -0.15839573591E+04  0.15839573591E+04  0.25500000920E-02 0.  1.
    10030    2    1    2    0    0  0.00000000000E+00  0.00000000000E+00  0.69219499419E+03  0.38601097125E+04  0.37975403990E+04 0.  0.
        1    1    3    3  502    0  0.37497430792E+03 -0.16189936868E+04 -0.58750261043E+03  0.17626416558E+04  0.50400001928E-02 0.  1.
       -1    1    3    3    0  502 -0.37497430792E+03  0.16189936868E+04  0.12796976046E+04  0.20974680567E+04  0.50400001928E-02 0. -1.
</event>
<event>
 5   0  0.1193861E-07  0.3797216E+04  0.7818609E-02  0.8046752E-01
        2   -1    0    0  501    0  0.00000000000E+00  0.00000000000E+00  0.28863751493E+04  0.28863751493E+04  0.25500000920E-02 0.  1.
       -2   -1    0    0    0  501  0.00000000000E+00  0.00000000000E+00 -0.12488720446E+04  0.12488720446E+04  0.25500000920E-02 0. -1.
    10030    2    1    2    0    0  0.00000000000E+00  0.00000000000E+00  0.16375031047E+04  0.41352471939E+04  0.37972164722E+04 0.  0.
        3    1    3    3  502    0 -0.95217418195E+03 -0.12078331864E+04  0.20310504802E+04  0.25476779117E+04  0.10100000352E+00 0.  1.
       -3    1    3    3    0  502  0.95217418195E+03  0.12078331864E+04 -0.39354737545E+03  0.15875692822E+04  0.10100000352E+00 0. -1.
</event>
<event>
 5   0  0.1174870E-07  0.3799084E+04  0.7818609E-02  0.8046352E-01
        2   -1    0    0  501    0  0.00000000000E+00  0.00000000000E+00  0.22376837351E+04  0.22376837351E+04  0.25500000920E-02 0. -1.
       -2   -1    0    0    0  501  0.00000000000E+00  0.00000000000E+00 -0.16124975297E+04  0.16124975297E+04  0.25500000920E-02 0.  1.
    10030    2    1    2    0    0  0.00000000000E+00  0.00000000000E+00  0.62518620545E+03  0.38501812648E+04  0.37990838344E+04 0.  0.
        5    1    3    3  502    0 -0.14168308518E+04 -0.46383231730E+03 -0.88039172721E+03  0.17313756856E+04  0.46999998093E+01 0.  1.
       -5    1    3    3    0  502  0.14168308518E+04  0.46383231730E+03  0.15055779327E+04  0.21188055792E+04  0.46999998093E+01 0. -1.
</event>
<event>
 5   0  0.1193861E-07  0.3803267E+04  0.7818609E-02  0.8045454E-01
       -2   -1    0    0    0  501  0.00000000000E+00  0.00000000000E+00  0.14645161327E+04  0.14645161327E+04  0.25500000920E-02 0.  1.
        2   -1    0    0  501    0  0.00000000000E+00  0.00000000000E+00 -0.24692182940E+04  0.24692182940E+04  0.25500000920E-02 0. -1.
    10030    2    1    2    0    0  0.00000000000E+00  0.00000000000E+00 -0.10047021612E+04  0.39337344267E+04  0.38032670307E+04 0.  0.
        3    1    3    3  502    0 -0.11414202866E+03  0.51446528926E+03 -0.23921881728E+04  0.24495442843E+04  0.10100000352E+00 0. -1.
       -3    1    3    3    0  502  0.11414202866E+03 -0.51446528926E+03  0.13874860115E+04  0.14841901424E+04  0.10100000352E+00 0.  1.
</event>
<event>
 5   0  0.7858367E-08  0.3805321E+04  0.7818609E-02  0.8045014E-01
        2   -1    0    0  501    0  0.00000000000E+00  0.00000000000E+00  0.17253466403E+04  0.17253466403E+04  0.25500000920E-02 0.  1.
       -2   -1    0    0    0  501  0.00000000000E+00  0.00000000000E+00 -0.20981970852E+04  0.20981970852E+04  0.25500000920E-02 0. -1.
    10030    2    1    2    0    0  0.00000000000E+00  0.00000000000E+00 -0.37285044494E+03  0.38235437255E+04  0.38053211647E+04 0.  0.
        2    1    3    3  502    0 -0.16509035008E+04 -0.89121595102E+03  0.13190264081E+03  0.18807303227E+04  0.25500000920E-02 0.  1.
       -2    1    3    3    0  502  0.16509035008E+04  0.89121595102E+03 -0.50475308575E+03  0.19428134027E+04  0.25500000920E-02 0. -1.
</event>
<event>
 5   0  0.7858367E-08  0.3774349E+04  0.7818609E-02  0.8051682E-01
       -2   -1    0    0    0  501  0.00000000000E+00  0.00000000000E+00  0.14917792189E+04  0.14917792189E+04  0.25500000920E-02 0.  1.
        2   -1    0    0  501    0  0.00000000000E+00  0.00000000000E+00 -0.23873688918E+04  0.23873688918E+04  0.25500000920E-02 0. -1.
    10030    2    1    2    0    0  0.00000000000E+00  0.00000000000E+00 -0.89558967290E+03  0.38791481106E+04  0.37743488448E+04 0.  0.
        2    1    3    3  502    0  0.84939627199E+03  0.86686666158E+03 -0.19330842740E+04  0.22824869433E+04  0.25500000920E-02 0. -1.
       -2    1    3    3    0  502 -0.84939627199E+03 -0.86686666158E+03  0.10374946011E+04  0.15966611673E+04  0.25500000920E-02 0.  1.
</event>
<event>
 5   0  0.1193861E-07  0.3790393E+04  0.7818609E-02  0.8048220E-01
       -2   -1    0    0    0  501  0.00000000000E+00  0.00000000000E+00  0.21127640494E+04  0.21127640494E+04  0.25500000920E-02 0. -1.
        2   -1    0    0  501    0  0.00000000000E+00  0.00000000000E+00 -0.17000335912E+04  0.17000335912E+04  0.25500000920E-02 0.  1.
    10030    2    1    2    0    0  0.00000000000E+00  0.00000000000E+00  0.41273045819E+03  0.38127976406E+04  0.37903930426E+04 0.  0.
        3    1    3    3  502    0 -0.17040261964E+04  0.56179772891E+03  0.82025763644E+03  0.19728518866E+04  0.10100000352E+00 0. -1.
       -3    1    3    3    0  502  0.17040261964E+04 -0.56179772891E+03 -0.40752717825E+03  0.18399457540E+04  0.10100000352E+00 0.  1.
</event>
<event>
 5   0  0.1193861E-07  0.3804361E+04  0.7818609E-02  0.8045220E-01
       -2   -1    0    0    0  501  0.00000000000E+00  0.00000000000E+00  0.31522041719E+04  0.31522041719E+04  0.25500000920E-02 0. -1.
        2   -1    0    0  501    0  0.00000000000E+00  0.00000000000E+00 -0.11478603908E+04  0.11478603908E+04  0.25500000920E-02 0.  1.
    10030    2    1    2    0    0  0.00000000000E+00  0.00000000000E+00  0.20043437811E+04  0.43000645627E+04  0.38043608202E+04 0.  0.
        3    1    3    3  502    0 -0.16175780029E+04  0.49252653428E+03  0.19869919355E+04  0.26090760710E+04  0.10100000352E+00 0. -1.
       -3    1    3    3    0  502  0.16175780029E+04 -0.49252653428E+03  0.17351845644E+02  0.16909884917E+04  0.10100000352E+00 0.  1.
</event>
<event>
 5   0  0.1150235E-07  0.3844056E+04  0.7818609E-02  0.8036766E-01
        2   -1    0    0  501    0  0.00000000000E+00  0.00000000000E+00  0.23228363940E+04  0.23228363940E+04  0.25500000920E-02 0. -1.
       -2   -1    0    0    0  501  0.00000000000E+00  0.00000000000E+00 -0.15903795671E+04  0.15903795671E+04  0.25500000920E-02 0.  1.
    10030    2    1    2    0    0  0.00000000000E+00  0.00000000000E+00  0.73245682690E+03  0.39132159610E+04  0.38440559510E+04 0.  0.
        4    1    3    3  502    0  0.20396744167E+03  0.15615583978E+04  0.14879249625E+04  0.21665617125E+04  0.12699999809E+01 0. -1.
       -4    1    3    3    0  502 -0.20396744167E+03 -0.15615583978E+04 -0.75546813557E+03  0.17466542485E+04  0.12699999809E+01 0.  1.
</event>
<event>
 5   0  0.3889225E-08  0.3794284E+04  0.7818609E-02  0.8047383E-01
       -1   -1    0    0    0  501  0.00000000000E+00  0.00000000000E+00  0.18698807330E+04  0.18698807330E+04  0.50400001928E-02 0. -1.
        1   -1    0    0  501    0  0.00000000000E+00  0.00000000000E+00 -0.19248003994E+04  0.19248003995E+04  0.50400001928E-02 0.  1.
    10030    2    1    2    0    0  0.00000000000E+00  0.00000000000E+00 -0.54919666473E+02  0.37946811324E+04  0.37942836909E+04 0.  0.
        5    1    3    3  502    0  0.81289396741E+03  0.96525513701E+03 -0.14441571922E+04  0.19178441458E+04  0.46999998093E+01 0.  1.
       -5    1    3    3    0  502 -0.81289396741E+03 -0.96525513701E+03  0.13892375257E+04  0.18768369867E+04  0.46999998093E+01 0. -1.
</event>
<event>
 5   0  0.1143283E-07  0.3790680E+04  0.7818609E-02  0.8048158E-01
       -2   -1    0    0    0  501  0.00000000000E+00  0.00000000000E+00  0.18236749919E+04  0.18236749919E+04  0.25500000920E-02 0.  1.
        2   -1    0    0  501    0  0.00000000000E+00  0.00000000000E+00 -0.19698209715E+04  0.19698209715E+04  0.25500000920E-02 0. -1.
    10030    2    1    2    0    0  0.00000000000E+00  0.00000000000E+00 -0.14614597961E+03  0.37934959635E+04  0.37906797514E+04 0.  0.
        1    1    3    3  502    0  0.70745634777E+03 -0.24213743296E+03  0.16698259731E+04  0.18296020882E+04  0.50400001928E-02 0.  1.
       -1    1    3    3    0  502 -0.70745634777E+03  0.24213743296E+03 -0.18159719527E+04  0.19638938753E+04  0.50400001928E-02 0. -1.
</event>
<event>
 5   0  0.1174870E-07  0.3794576E+04  0.7818609E-02  0.8047320E-01
       -2   -1    0    0    0  501  0.00000000000E+00  0.00000000000E+00  0.22950379260E+04  0.22950379260E+04  0.25500000920E-02 0. -1.
        2   -1    0    0  501    0  0.00000000000E+00  0.00000000000E+00 -0.15684714572E+04  0.15684714572E+04  0.25500000920E-02 0.  1.
    10030    2    1    2    0    0  0.00000000000E+00  0.00000000000E+00  0.72656646874E+03  0.38635093832E+04  0.37945758551E+04 0.  0.
        5    1    3    3  502    0  0.24004724452E+03  0.50728449744E+03 -0.14820204698E+04  0.15847293157E+04  0.46999998093E+01 0.  1.
       -5    1    3    3    0  502 -0.24004724452E+03 -0.50728449744E+03  0.22085869386E+04  0.22787800675E+04  0.46999998093E+01 0. -1.
</event>
<event>
 5   0  0.1193861E-07  0.3799757E+04  0.7818609E-02  0.8046207E-01
        2   -1    0    0  501    0  0.00000000000E+00  0.00000000000E+00  0.13231075996E+04  0.13231075996E+04  0.25500000920E-02 0. -1.
       -2   -1    0    0    0  501  0.00000000000E+00  0.00000000000E+00 -0.27280760209E+04  0.27280760209E+04  0.25500000920E-02 0.  1.
    10030    2    1    2    0    0  0.00000000000E+00  0.00000000000E+00 -0.14049684213E+04  0.40511836206E+04  0.37997568952E+04 0.  0.
        3    1    3    3  502    0 -0.61644227741E+03  0.76303616214E+03  0.10322332478E+04  0.14239841131E+04  0.10100000352E+00 0. -1.
       -3    1    3    3    0  502  0.61644227741E+03 -0.76303616214E+03 -0.24372016691E+04  0.26271995075E+04  0.10100000352E+00 0.  1.
</event>
<event>
 5   0  0.3701250E-08  0.3793534E+04  0.7818609E-02  0.8047544E-01
       -1   -1    0    0    0  501  0.00000000000E+00  0.00000000000E+00  0.13766573702E+04  0.13766573702E+04  0.50400001928E-02 0. -1.
        1   -1    0    0  501    0  0.00000000000E+00  0.00000000000E+00 -0.26133777600E+04  0.26133777600E+04  0.50400001928E-02 0.  1.
    10030    2    1    2    0    0  0.00000000000E+00  0.00000000000E+00 -0.12367203898E+04  0.39900351302E+04  0.37935343701E+04 0.  0.
        4    1    3    3  502    0  0.27032813862E+03 -0.14424857522E+04 -0.18822188337E+04  0.23867534014E+04  0.12699999809E+01 0.  1.
       -4    1    3    3    0  502 -0.27032813862E+03  0.14424857522E+04  0.64549844394E+03  0.16032817288E+04  0.12699999809E+01 0. -1.
</event>
<event>
 5   0  0.3701250E-08  0.3835304E+04  0.7818609E-02  0.8038621E-01
       -1   -1    0    0    0  501  0.00000000000E+00  0.00000000000E+00  0.16718078433E+04  0.16718078433E+04  0.50400001928E-02 0. -1.
        1   -1    0    0  501    0  0.00000000000E+00  0.00000000000E+00 -0.21996476871E+04  0.21996476871E+04  0.50400001928E-02 0.  1.
    10030    2    1    2    0    0  0.00000000000E+00  0.00000000000E+00 -0.52783984383E+03  0.38714555304E+04  0.38353035112E+04 0.  0.
        1    1    3    3  502    0  0.17700772805E+04 -0.67975512952E+03 -0.55323567684E+03  0.19751734935E+04  0.50400001928E-02 0.  1.
       -1    1    3    3    0  502 -0.17700772805E+04  0.67975512952E+03  0.25395833009E+02  0.18962820369E+04  0.50400001928E-02 0. -1.
</event>
<event>
 5   0  0.3889225E-08  0.3765557E+04  0.7818609E-02  0.8053587E-01
        1   -1    0    0  501    0  0.00000000000E+00  0.00000000000E+00  0.29784722762E+04  0.29784722762E+04  0.50400001928E-02 0.  1.
       -1   -1    0    0    0  501  0.00000000000E+00  0.00000000000E+00 -0.11901588265E+04  0.11901588265E+04  0.50400001928E-02 0. -1.
    10030    2    1    2    0    0  0.00000000000E+00  0.00000000000E+00  0.17883134497E+04  0.41686311027E+04  0.37655571003E+04 0.  0.
        5    1    3    3  502    0  0.11094273618E+04 -0.83898900461E+03 -0.51056673368E+03  0.14816990587E+04  0.46999998093E+01 0. -1.
       -5    1    3    3    0  502 -0.11094273618E+04  0.83898900461E+03  0.22988801834E+04  0.26869320439E+04  0.46999998093E+01 0.  1.
</event>
<event>
 5   0  0.1150235E-07  0.3812277E+04  0.7818609E-02  0.8043525E-01
        2   -1    0    0  501    0  0.00000000000E+00  0.00000000000E+00  0.20175590847E+04  0.20175590847E+04  0.25500000920E-02 0. -1.
       -2   -1    0    0    0  501  0.00000000000E+00  0.00000000000E+00 -0.18008714495E+04  0.18008714495E+04  0.25500000920E-02 0.  1.
    10030    2    1    2    0    0  0.00000000000E+00  0.00000000000E+00  0.21668763518E+03  0.38184305342E+04  0.38122773001E+04 0.  0.
        4    1    3    3  502    0 -0.10768740731E+04 -0.78563564300E+03  0.14730707427E+04  0.19866605545E+04  0.12699999809E+01 0. -1.
       -4    1    3    3    0  502  0.10768740731E+04  0.78563564300E+03 -0.12563831075E+04  0.18317699797E+04  0.12699999809E+01 0.  1.
</event>
<event>
 5   0  0.3701250E-08  0.3681878E+04  0.7818609E-02  0.8071990E-01
       -1   -1    0    0    0  501  0.00000000000E+00  0.00000000000E+00  0.26664870493E+04  0.26664870493E+04  0.50400001928E-02 0.  1.
        1   -1    0    0  501    0  0.00000000000E+00  0.00000000000E+00 -0.12709818745E+04  0.12709818745E+04  0.50400001928E-02 0. -1.
    10030    2    1    2    0    0  0.00000000000E+00  0.00000000000E+00  0.13955051748E+04  0.39374689238E+04  0.36818781665E+04 0.  0.
        2    1    3    3  502    0  0.17687351736E+04  0.50915572697E+03  0.65783820208E+03  0.19545881328E+04  0.25500000920E-02 0. -1.
       -2    1    3    3    0  502 -0.17687351736E+04 -0.50915572697E+03  0.73766697269E+03  0.19828807910E+04  0.25500000920E-02 0.  1.
</event>
<event>
 5   0  0.7858367E-08  0.3758461E+04  0.7818609E-02  0.8055128E-01
       -2   -1    0    0    0  501  0.00000000000E+00  0.00000000000E+00  0.15283307344E+04  0.15283307344E+04  0.25500000920E-02 0.  1.
        2   -1    0    0  501    0  0.00000000000E+00  0.00000000000E+00 -0.23106957198E+04  0.23106957198E+04  0.25500000920E-02 0. -1.
    10030    2    1    2    0    0  0.00000000000E+00  0.00000000000E+00 -0.78236498533E+03  0.38390264542E+04  0.37584610076E+04 0.  0.
        2    1    3    3  502    0 -0.61935382587E+03  0.15819577402E+04 -0.12117189635E+04  0.20867324457E+04  0.25500000920E-02 0. -1.
       -2    1    3    3    0  502  0.61935382587E+03 -0.15819577402E+04  0.42935397815E+03  0.17522940085E+04  0.25500000920E-02 0.  1.
</event>
<event>
 5   0  0.1143283E-07  0.3798929E+04  0.7818609E-02  0.8046385E-01
       -2   -1    0    0    0  501  0.00000000000E+00  0.00000000000E+00  0.21083342928E+04  0.21083342928E+04  0.25500000920E-02 0. -1.
        2   -1    0    0  501    0  0.00000000000E+00  0.00000000000E+00 -0.17112875625E+04  0.17112875625E+04  0.25500000920E-02 0.  1.
    10030    2    1    2    0    0  0.00000000000E+00  0.00000000000E+00  0.39704673031E+03  0.38196218553E+04  0.37989294559E+04 0.  0.
        1    1    3    3  502    0  0.11331137148E+04 -0.14784868695E+04 -0.17511366234E+03  0.18709716483E+04  0.50400001928E-02 0.  1.
       -1    1    3    3    0  502 -0.11331137148E+04  0.14784868695E+04  0.57216039265E+03  0.19486502069E+04  0.50400001928E-02 0. -1.
</event>
<event>
 5   0  0.1174870E-07  0.3838330E+04  0.7818609E-02  0.8037979E-01
       -2   -1    0    0    0  501  0.00000000000E+00  0.00000000000E+00  0.24180302811E+04  0.24180302811E+04  0.25500000920E-02 0.  1.
        2   -1    0    0  501    0  0.00000000000E+00  0.00000000000E+00 -0.15232212384E+04  0.15232212384E+04  0.25500000920E-02 0. -1.
    10030    2    1    2    0    0  0.00000000000E+00  0.00000000000E+00  0.89480904268E+03  0.39412515196E+04  0.38383304076E+04 0.  0.
        5    1    3    3  502    0  0.13783849342E+04 -0.13353749909E+04  0.44610723713E+03  0.19703312286E+04  0.46999998093E+01 0. -1.
       -5    1    3    3    0  502 -0.13783849342E+04  0.13353749909E+04  0.44870180554E+03  0.19709202910E+04  0.46999998093E+01 0.  1.
</event>
<event>
 5   0  0.1174870E-07  0.3801649E+04  0.7818609E-02  0.8045801E-01
        2   -1    0    0  501    0  0.00000000000E+00  0.00000000000E+00  0.31127279862E+04  0.31127279862E+04  0.25500000920E-02 0. -1.
       -2   -1    0    0    0  501  0.00000000000E+00  0.00000000000E+00 -0.11607614388E+04  0.11607614388E+04  0.25500000920E-02 0.  1.
    10030    2    1    2    0    0  0.00000000000E+00  0.00000000000E+00  0.19519665475E+04  0.42734894250E+04  0.38016494398E+04 0.  0.
        5    1    3    3  502    0  0.14198924286E+04  0.43979173255E+03 -0.35579657626E+03  0.15284386054E+04  0.46999998093E+01 0.  1.
       -5    1    3    3    0  502 -0.14198924286E+04 -0.43979173255E+03  0.23077631237E+04  0.27450508196E+04  0.46999998093E+01 0. -1.
</event>
<event>
 5   0  0.3701250E-08  0.3802801E+04  0.7818609E-02  0.8045554E-01
        1   -1    0    0  501    0  0.00000000000E+00  0.00000000000E+00  0.32796798751E+04  0.32796798751E+04  0.50400001928E-02 0.  1.
       -1   -1    0    0    0  501  0.00000000000E+00  0.00000000000E+00 -0.11023404352E+04  0.11023404352E+04  0.50400001928E-02 0. -1.
    10030    2    1    2    0    0  0.00000000000E+00  0.00000000000E+00  0.21773394399E+04  0.43820203103E+04  0.38028009365E+04 0.  0.
        4    1    3    3  502    0  0.10422127372E+04  0.15747282302E+04  0.83269585654E+03  0.20638217925E+04  0.12699999809E+01 0. -1.
       -4    1    3    3    0  502 -0.10422127372E+04 -0.15747282302E+04  0.13446435834E+04  0.23181985178E+04  0.12699999809E+01 0.  1.
</event>
<event>
 5   0  0.1150235E-07  0.3802439E+04  0.7818609E-02  0.8045632E-01
        2   -1    0    0  501    0  0.00000000000E+00  0.00000000000E+00  0.10708703630E+04  0.10708703630E+04  0.25500000920E-02 0. -1.
       -2   -1    0    0    0  501  0.00000000000E+00  0.00000000000E+00 -0.33754182963E+04  0.33754182963E+04  0.25500000920E-02 0.  1.
    10030    2    1    2    0    0  0.00000000000E+00  0.00000000000E+00 -0.23045479333E+04  0.44462886593E+04  0.38024389101E+04 0.  0.
        4    1    3    3  502    0  0.15732557902E+04  0.87453797422E+03 -0.18680342696E+04  0.25941287738E+04  0.12699999809E+01 0.  1.
       -4    1    3    3    0  502 -0.15732557902E+04 -0.87453797422E+03 -0.43651366363E+03  0.18521598854E+04  0.12699999809E+01 0. -1.
</event>
<event>
 5   0  0.1143283E-07  0.3801072E+04  0.7818609E-02  0.8045925E-01
       -2   -1    0    0    0  501  0.00000000000E+00  0.00000000000E+00  0.27130345272E+04  0.27130345272E+04  0.25500000920E-02 0.  1.
        2   -1    0    0  501    0  0.00000000000E+00  0.00000000000E+00 -0.13313645014E+04  0.13313645014E+04  0.25500000920E-02 0. -1.
    10030    2    1    2    0    0  0.00000000000E+00  0.00000000000E+00  0.13816700258E+04  0.40443990286E+04  0.38010724068E+04 0.  0.
        1    1    3    3  502    0 -0.55721418725E+02  0.43577054796E+03 -0.12765971011E+04  0.13500744444E+04  0.50400001928E-02 0. -1.
       -1    1    3    3    0  502  0.55721418725E+02 -0.43577054796E+03  0.26582671269E+04  0.26943245842E+04  0.50400001928E-02 0.  1.
</event>
<event>
 5   0  0.3701250E-08  0.3799914E+04  0.7818609E-02  0.8046173E-01
       -1   -1    0    0    0  501  0.00000000000E+00  0.00000000000E+00  0.11912372510E+04  0.11912372510E+04  0.50400001928E-02 0. -1.
        1   -1    0    0  501    0  0.00000000000E+00  0.00000000000E+00 -0.30303260333E+04  0.30303260333E+04  0.50400001928E-02 0.  1.
    10030    2    1    2    0    0  0.00000000000E+00  0.00000000000E+00 -0.18390887823E+04  0.42215632843E+04  0.37999143430E+04 0.  0.
        1    1    3    3  502    0  0.16561891317E+04 -0.90662889157E+03 -0.11549502057E+04  0.22133342189E+04  0.50400001928E-02 0. -1.
       -1    1    3    3    0  502 -0.16561891317E+04  0.90662889157E+03 -0.68413857664E+03  0.20082290654E+04  0.50400001928E-02 0.  1.
</event>
<event>
 5   0  0.3701250E-08  0.3779706E+04  0.7818609E-02  0.8050524E-01
        1   -1    0    0  501    0  0.00000000000E+00  0.00000000000E+00  0.19189371911E+04  0.19189371911E+04  0.50400001928E-02 0. -1.
       -1   -1    0    0    0  501  0.00000000000E+00  0.00000000000E+00 -0.18612096033E+04  0.18612096033E+04  0.50400001928E-02 0.  1.
    10030    2    1    2    0    0  0.00000000000E+00  0.00000000000E+00  0.57727587824E+02  0.37801467944E+04  0.37797059823E+04 0.  0.
        1    1    3    3  502    0  0.96010872550E+03 -0.40747244758E+03 -0.15472964550E+04  0.18660034512E+04  0.50400001928E-02 0.  1.
       -1    1    3    3    0  502 -0.96010872550E+03  0.40747244758E+03  0.16050240428E+04  0.19141433432E+04  0.50400001928E-02 0. -1.
</event>
<event>
 5   0  0.1174870E-07  0.3773417E+04  0.7818609E-02  0.8051884E-01
       -2   -1    0    0    0  501  0.00000000000E+00  0.00000000000E+00  0.13036116462E+04  0.13036116462E+04  0.25500000920E-02 0.  1.
        2   -1    0    0  501    0  0.00000000000E+00  0.00000000000E+00 -0.27306213911E+04  0.27306213911E+04  0.25500000920E-02 0. -1.
    10030    2    1    2    0    0  0.00000000000E+00  0.00000000000E+00 -0.14270097449E+04  0.40342330372E+04  0.37734174679E+04 0.  0.
        5    1    3    3  502    0 -0.36071032847E+03 -0.97829092412E+03 -0.23946018036E+04  0.26117628072E+04  0.46999998093E+01 0. -1.
       -5    1    3    3    0  502  0.36071032847E+03  0.97829092412E+03  0.96759205873E+03  0.14224702301E+04  0.46999998093E+01 0.  1.
</event>
<event>
 5   0  0.3701250E-08  0.3786544E+04  0.7818609E-02  0.8049049E-01
        1   -1    0    0  501    0  0.00000000000E+00  0.00000000000E+00  0.22120421359E+04  0.22120421359E+04  0.50400001928E-02 0. -1.
       -1   -1    0    0    0  501  0.00000000000E+00  0.00000000000E+00 -0.16204390133E+04  0.16204390133E+04  0.50400001928E-02 0.  1.
    10030    2    1    2    0    0  0.00000000000E+00  0.00000000000E+00  0.59160312259E+03  0.38324811493E+04  0.37865442695E+04 0.  0.
        2    1    3    3  502    0 -0.11129182336E+04 -0.28043016186E+03 -0.12282049379E+04  0.16809864485E+04  0.25500000920E-02 0. -1.
       -2    1    3    3    0  502  0.11129182336E+04  0.28043016186E+03  0.18198080605E+04  0.21514947008E+04  0.25500000920E-02 0.  1.
</event>
<event>
 5   0  0.1193861E-07  0.3809410E+04  0.7818609E-02  0.8044138E-01
        2   -1    0    0  501    0  0.00000000000E+00  0.00000000000E+00  0.22774445127E+04  0.22774445127E+04  0.25500000920E-02 0.  1.
       -2   -1    0    0    0  501  0.00000000000E+00  0.00000000000E+00 -0.15929703136E+04  0.15929703136E+04  0.25500000920E-02 0. -1.
    10030    2    1    2    0    0  0.00000000000E+00  0.00000000000E+00  0.68447419910E+03  0.38704148263E+04  0.38094101904E+04 0.  0.
        3    1    3    3  502    0  0.58127037199E+02 -0.59712540526E+03  0.21789378627E+04  0.22600238321E+04  0.10100000352E+00 0.  1.
       -3    1    3    3    0  502 -0.58127037199E+02  0.59712540526E+03 -0.14944636636E+04  0.16103909942E+04  0.10100000352E+00 0. -1.
</event>
<event>
 5   0  0.3889225E-08  0.3630539E+04  0.7818609E-02  0.8083532E-01
        1   -1    0    0  501    0  0.00000000000E+00  0.00000000000E+00  0.20738812371E+04  0.20738812371E+04  0.50400001928E-02 0. -1.
       -1   -1    0    0    0  501  0.00000000000E+00  0.00000000000E+00 -0.15889065089E+04  0.15889065089E+04  0.50400001928E-02 0.  1.
    10030    2    1    2    0    0  0.00000000000E+00  0.00000000000E+00  0.48497472817E+03  0.36627877460E+04  0.36305390213E+04 0.  0.
        5    1    3    3  502    0 -0.17461874815E+04  0.49597935152E+03  0.23857105406E+03  0.18308753304E+04  0.46999998093E+01 0. -1.
       -5    1    3    3    0  502  0.17461874815E+04 -0.49597935152E+03  0.24640367411E+03  0.18319124156E+04  0.46999998093E+01 0.  1.
</event>
<event>
 5   0  0.3701250E-08  0.3811554E+04  0.7818609E-02  0.8043680E-01
        1   -1    0    0  501    0  0.00000000000E+00  0.00000000000E+00  0.23960197554E+04  0.23960197554E+04  0.50400001928E-02 0.  1.
       -1   -1    0    0    0  501  0.00000000000E+00  0.00000000000E+00 -0.15158416232E+04  0.15158416232E+04  0.50400001928E-02 0. -1.
    10030    2    1    2    0    0  0.00000000000E+00  0.00000000000E+00  0.88017813215E+03  0.39118613786E+04  0.38115542632E+04 0.  0.
        1    1    3    3  502    0 -0.13219001275E+04  0.82808813283E+02  0.18464458746E+04  0.22723643226E+04  0.50400001928E-02 0.  1.
       -1    1    3    3    0  502  0.13219001275E+04 -0.82808813283E+02 -0.96626774243E+03  0.16394970561E+04  0.50400001928E-02 0. -1.
</event>
<event>
 5   0  0.3701250E-08  0.3803802E+04  0.7818609E-02  0.8045340E-01
       -1   -1    0    0    0  501  0.00000000000E+00  0.00000000000E+00  0.17898360183E+04  0.17898360183E+04  0.50400001928E-02 0. -1.
        1   -1    0    0  501    0  0.00000000000E+00  0.00000000000E+00 -0.20209820976E+04  0.20209820976E+04  0.50400001928E-02 0.  1.
    10030    2    1    2    0    0  0.00000000000E+00  0.00000000000E+00 -0.23114607933E+03  0.38108181159E+04  0.38038015462E+04 0.  0.
        3    1    3    3  502    0  0.13082610549E+04 -0.12305768679E+04  0.51116875593E+03  0.18673938853E+04  0.10100000352E+00 0. -1.
       -3    1    3    3    0  502 -0.13082610549E+04  0.12305768679E+04 -0.74231483526E+03  0.19434242307E+04  0.10100000352E+00 0.  1.
</event>
<event>
 5   0  0.3701250E-08  0.3750883E+04  0.7818609E-02  0.8056778E-01
       -1   -1    0    0    0  501  0.00000000000E+00  0.00000000000E+00  0.19396042448E+04  0.19396042448E+04  0.50400001928E-02 0.  1.
        1   -1    0    0  501    0  0.00000000000E+00  0.00000000000E+00 -0.18134009743E+04  0.18134009743E+04  0.50400001928E-02 0. -1.
    10030    2    1    2    0    0  0.00000000000E+00  0.00000000000E+00  0.12620327047E+03  0.37530052192E+04  0.37508826841E+04 0.  0.
        4    1    3    3  502    0 -0.69524404388E+03 -0.10602423825E+04 -0.13196356706E+04  0.18300049470E+04  0.12699999809E+01 0. -1.
       -4    1    3    3    0  502  0.69524404388E+03  0.10602423825E+04  0.14458389411E+04  0.19230002721E+04  0.12699999809E+01 0.  1.
</event>
<event>
 5   0  0.7858367E-08  0.3797282E+04  0.7818609E-02  0.8046738E-01
       -2   -1    0    0    0  501  0.00000000000E+00  0.00000000000E+00  0.33139147945E+04  0.33139147945E+04  0.25500000920E-02 0.  1.
        2   -1    0    0  501    0  0.00000000000E+00  0.00000000000E+00 -0.10877881134E+04  0.10877881134E+04  0.25500000920E-02 0. -1.
    10030    2    1    2    0    0  0.00000000000E+00  0.00000000000E+00  0.22261266811E+04  0.44017029079E+04  0.37972817237E+04 0.  0.
        2    1    3    3  502    0  0.11885966505E+03 -0.14248853775E+04 -0.33493289193E+03  0.14685387299E+04  0.25500000920E-02 0. -1.
       -2    1    3    3    0  502 -0.11885966505E+03  0.14248853775E+04  0.25610595730E+04  0.29331641781E+04  0.25500000920E-02 0.  1.
</event>
<event>
 5   0  0.1150235E-07  0.3787293E+04  0.7818609E-02  0.8048887E-01
       -2   -1    0    0    0  501  0.00000000000E+00  0.00000000000E+00  0.17344284445E+04  0.17344284445E+04  0.25500000920E-02 0.  1.
        2   -1    0    0  501    0  0.00000000000E+00  0.00000000000E+00 -0.20674804251E+04  0.20674804251E+04  0.25500000920E-02 0. -1.
    10030    2    1    2    0    0  0.00000000000E+00  0.00000000000E+00 -0.33305198054E+03  0.38019088696E+04  0.37872928895E+04 0.  0.
        4    1    3    3  502    0 -0.13446427719E+04  0.13278530492E+04 -0.45074205642E+02  0.18903151063E+04  0.12699999809E+01 0. -1.
       -4    1    3    3    0  502  0.13446427719E+04 -0.13278530492E+04 -0.28797777490E+03  0.19115937633E+04  0.12699999809E+01 0.  1.
</event>
<event>
 5   0  0.3889225E-08  0.3784791E+04  0.7818609E-02  0.8049427E-01
       -1   -1    0    0    0  501  0.00000000000E+00  0.00000000000E+00  0.18027528983E+04  0.18027528983E+04  0.50400001928E-02 0. -1.
        1   -1    0    0  501    0  0.00000000000E+00  0.00000000000E+00 -0.19864959639E+04  0.19864959639E+04  0.50400001928E-02 0.  1.
    10030    2    1    2    0    0  0.00000000000E+00  0.00000000000E+00 -0.18374306559E+03  0.37892488622E+04  0.37847913318E+04 0.  0.
        5    1    3    3  502    0 -0.84311823822E+03  0.13758369456E+04  0.89790982371E+03  0.18466293093E+04  0.46999998093E+01 0.  1.
       -5    1    3    3    0  502  0.84311823822E+03 -0.13758369456E+04 -0.10816528893E+04  0.19426195529E+04  0.46999998093E+01 0. -1.
</event>
<event>
 5   0  0.3701250E-08  0.3807549E+04  0.7818609E-02  0.8044537E-01
        1   -1    0    0  501    0  0.00000000000E+00  0.00000000000E+00  0.24295374240E+04  0.24295374240E+04  0.50400001928E-02 0.  1.
       -1   -1    0    0    0  501  0.00000000000E+00  0.00000000000E+00 -0.14917889381E+04  0.14917889382E+04  0.50400001928E-02 0. -1.
    10030    2    1    2    0    0  0.00000000000E+00  0.00000000000E+00  0.93774848589E+03  0.39213263622E+04  0.38075488462E+04 0.  0.
        2    1    3    3  502    0  0.64975972726E+03  0.61276458173E+03 -0.12626417758E+04  0.15465873366E+04  0.25500000920E-02 0. -1.
       -2    1    3    3    0  502 -0.64975972726E+03 -0.61276458173E+03  0.22003902617E+04  0.23747390256E+04  0.25500000920E-02 0.  1.
</event>
<event>
 5   0  0.3701250E-08  0.3792586E+04  0.7818609E-02  0.8047748E-01
       -1   -1    0    0    0  501  0.00000000000E+00  0.00000000000E+00  0.19622270185E+04  0.19622270185E+04  0.50400001928E-02 0.  1.
        1   -1    0    0  501    0  0.00000000000E+00  0.00000000000E+00 -0.18325745248E+04  0.18325745248E+04  0.50400001928E-02 0. -1.
    10030    2    1    2    0    0  0.00000000000E+00  0.00000000000E+00  0.12965249370E+03  0.37948015433E+04  0.37925860549E+04 0.  0.
        3    1    3    3  502    0 -0.30090366438E+03 -0.17609587912E+04  0.70112882824E+03  0.19191405690E+04  0.10100000352E+00 0.  1.
       -3    1    3    3    0  502  0.30090366438E+03  0.17609587912E+04 -0.57147633454E+03  0.18756609743E+04  0.10100000352E+00 0. -1.
</event>
<event>
 5   0  0.7858367E-08  0.3803674E+04  0.7818609E-02  0.8045367E-01
       -2   -1    0    0    0  501  0.00000000000E+00  0.00000000000E+00  0.18311301593E+04  0.18311301593E+04  0.25500000920E-02 0.  1.
        2   -1    0    0  501    0  0.00000000000E+00  0.00000000000E+00 -0.19752744324E+04  0.19752744324E+04  0.25500000920E-02 0. -1.
    10030    2    1    2    0    0  0.00000000000E+00  0.00000000000E+00 -0.14414427313E+03  0.38064045917E+04  0.38036743215E+04 0.  0.
        2    1    3    3  502    0 -0.10643174504E+04 -0.15721638815E+04  0.39872723771E+02  0.18989630695E+04  0.25500000920E-02 0. -1.
       -2    1    3    3    0  502  0.10643174504E+04  0.15721638815E+04 -0.18401699690E+03  0.19074415222E+04  0.25500000920E-02 0.  1.
</event>
<event>
 5   0  0.1143283E-07  0.3807764E+04  0.7818609E-02  0.8044491E-01
        2   -1    0    0  501    0  0.00000000000E+00  0.00000000000E+00  0.20273123958E+04  0.20273123958E+04  0.25500000920E-02 0.  1.
       -2   -1    0    0    0  501  0.00000000000E+00  0.00000000000E+00 -0.17879668162E+04  0.17879668162E+04  0.25500000920E-02 0. -1.
    10030    2    1    2    0    0  0.00000000000E+00  0.00000000000E+00  0.23934557965E+03  0.38152792120E+04  0.38077643256E+04 0.  0.
        1    1    3    3  502    0  0.12014869392E+04  0.14115721727E+04 -0.31553501051E+03  0.18803375247E+04  0.50400001928E-02 0. -1.
       -1    1    3    3    0  502 -0.12014869392E+04 -0.14115721727E+04  0.55488059016E+03  0.19349416873E+04  0.50400001928E-02 0.  1.
</event>
<event>
 5   0  0.3701250E-08  0.3798142E+04  0.7818609E-02  0.8046554E-01
       -1   -1    0    0    0  501  0.00000000000E+00  0.00000000000E+00  0.17224825118E+04  0.17224825118E+04  0.50400001928E-02 0.  1.
        1   -1    0    0  501    0  0.00000000000E+00  0.00000000000E+00 -0.20937636762E+04  0.20937636762E+04  0.50400001928E-02 0. -1.
    10030    2    1    2    0    0  0.00000000000E+00  0.00000000000E+00 -0.37128116445E+03  0.38162461880E+04  0.37981423439E+04 0.  0.
        4    1    3    3  502    0 -0.15931883780E+04  0.10315387098E+04 -0.25035554600E+03  0.19144191886E+04  0.12699999809E+01 0.  1.
       -4    1    3    3    0  502  0.15931883780E+04 -0.10315387098E+04 -0.12092561846E+03  0.19018269994E+04  0.12699999809E+01 0. -1.
</event>
<event>
 5   0  0.7858367E-08  0.3785285E+04  0.7818609E-02  0.8049320E-01
        2   -1    0    0  501    0  0.00000000000E+00  0.00000000000E+00  0.23047718980E+04  0.23047718980E+04  0.25500000920E-02 0.  1.
       -2   -1    0    0    0  501  0.00000000000E+00  0.00000000000E+00 -0.15542084082E+04  0.15542084082E+04  0.25500000920E-02 0. -1.
    10030    2    1    2    0    0  0.00000000000E+00  0.00000000000E+00  0.75056348984E+03  0.38589803062E+04  0.37852851215E+04 0.  0.
        2    1    3    3  502    0 -0.14707792043E+04  0.62093489622E+03  0.14116079451E+04  0.21310534024E+04  0.25500000920E-02 0.  1.
       -2    1    3    3    0  502  0.14707792043E+04 -0.62093489622E+03 -0.66104445529E+03  0.17279269038E+04  0.25500000920E-02 0. -1.
</event>
<event>
 5   0  0.3701250E-08  0.3797688E+04  0.7818609E-02  0.8046651E-01
       -1   -1    0    0    0  501  0.00000000000E+00  0.00000000000E+00  0.12589124395E+04  0.12589124395E+04  0.50400001928E-02 0.  1.
        1   -1    0    0  501    0  0.00000000000E+00  0.00000000000E+00 -0.28640664523E+04  0.28640664523E+04  0.50400001928E-02 0. -1.
    10030    2    1    2    0    0  0.00000000000E+00  0.00000000000E+00 -0.16051540128E+04  0.41229788918E+04  0.37976881832E+04 0.  0.
        2    1    3    3  502    0  0.76934047844E+03  0.81944566131E+03  0.85894787223E+03  0.14146262442E+04  0.25500000920E-02 0.  1.
       -2    1    3    3    0  502 -0.76934047844E+03 -0.81944566131E+03 -0.24641018851E+04  0.27083526476E+04  0.25500000920E-02 0. -1.
</event>
<event>
 5   0  0.3701250E-08  0.3798713E+04  0.7818609E-02  0.8046431E-01
        3   -1    0    0  501    0  0.00000000000E+00  0.00000000000E+00  0.26318721870E+04  0.26318721890E+04  0.10100000352E+00 0.  1.
       -3   -1    0    0    0  501  0.00000000000E+00  0.00000000000E+00 -0.13707182105E+04  0.13707182142E+04  0.10100000352E+00 0. -1.
    10030    2    1    2    0    0  0.00000000000E+00  0.00000000000E+00  0.12611539766E+04  0.40025904031E+04  0.37987130166E+04 0.  0.
        4    1    3    3  502    0 -0.58652959107E+03  0.62421101025E+03  0.24168189129E+04  0.25641122474E+04  0.12699999809E+01 0.  1.
       -4    1    3    3    0  502  0.58652959107E+03 -0.62421101025E+03 -0.11556649364E+04  0.14384781557E+04  0.12699999809E+01 0. -1.
</event>
<event>
 5   0  0.3701250E-08  0.3803542E+04  0.7818609E-02  0.8045395E-01
        1   -1    0    0  501    0  0.00000000000E+00  0.00000000000E+00  0.12627832653E+04  0.12627832653E+04  0.50400001928E-02 0. -1.
       -1   -1    0    0    0  501  0.00000000000E+00  0.00000000000E+00 -0.28640961317E+04  0.28640961317E+04  0.50400001928E-02 0.  1.
    10030    2    1    2    0    0  0.00000000000E+00  0.00000000000E+00 -0.16013128664E+04  0.41268793969E+04  0.38035418574E+04 0.  0.
        1    1    3    3  502    0 -0.11862952932E+03 -0.75563573302E+03  0.10885301441E+04  0.13303970087E+04  0.50400001928E-02 0. -1.
       -1    1    3    3    0  502  0.11862952932E+03  0.75563573302E+03 -0.26898430105E+04  0.27964823882E+04  0.50400001928E-02 0.  1.
</event>
<event>
 5   0  0.1193861E-07  0.3806965E+04  0.7818609E-02  0.8044662E-01
       -2   -1    0    0    0  501  0.00000000000E+00  0.00000000000E+00  0.25944465798E+04  0.25944465798E+04  0.25500000920E-02 0.  1.
        2   -1    0    0  501    0  0.00000000000E+00  0.00000000000E+00 -0.13965389839E+04  0.13965389839E+04  0.25500000920E-02 0. -1.
    10030    2    1    2    0    0  0.00000000000E+00  0.00000000000E+00  0.11979075959E+04  0.39909855637E+04  0.38069650854E+04 0.  0.
        3    1    3    3  502    0 -0.11192256033E+04 -0.15149156347E+04  0.88721896792E+03  0.20820165318E+04  0.10100000352E+00 0. -1.
       -3    1    3    3    0  502  0.11192256033E+04  0.15149156347E+04  0.31068862796E+03  0.19089690320E+04  0.10100000352E+00 0.  1.
</event>
<event>
 5   0  0.7858367E-08  0.3781834E+04  0.7818609E-02  0.8050064E-01
        2   -1    0    0  501    0  0.00000000000E+00  0.00000000000E+00  0.12027838910E+04  0.12027838910E+04  0.25500000920E-02 0. -1.
       -2   -1    0    0    0  501  0.00000000000E+00  0.00000000000E+00 -0.29727431851E+04  0.29727431851E+04  0.25500000920E-02 0.  1.
    10030    2    1    2    0    0  0.00000000000E+00  0.00000000000E+00 -0.17699592941E+04  0.41755270761E+04  0.37818342720E+04 0.  0.
        2    1    3    3  502    0  0.18135259299E+04 -0.15662361216E+03 -0.14502970097E+04  0.23273952545E+04  0.25500000920E-02 0.  1.
       -2    1    3    3    0  502 -0.18135259299E+04  0.15662361216E+03 -0.31966228442E+03  0.18481318217E+04  0.25500000920E-02 0. -1.
</event>
<event>
 5   0  0.3889225E-08  0.3791322E+04  0.7818609E-02  0.8048020E-01
       -1   -1    0    0    0  501  0.00000000000E+00  0.00000000000E+00  0.14916025195E+04  0.14916025195E+04  0.50400001928E-02 0.  1.
        1   -1    0    0  501    0  0.00000000000E+00  0.00000000000E+00 -0.24091739170E+04  0.24091739170E+04  0.50400001928E-02 0. -1.
    10030    2    1    2    0    0  0.00000000000E+00  0.00000000000E+00 -0.91757139744E+03  0.39007764365E+04  0.37913216084E+04 0.  0.
        5    1    3    3  502    0 -0.84452750411E+03  0.15087425338E+04  0.34081037843E+03  0.17623009228E+04  0.46999998093E+01 0.  1.
       -5    1    3    3    0  502  0.84452750411E+03 -0.15087425338E+04 -0.12583817759E+04  0.21384755136E+04  0.46999998093E+01 0. -1.
</event>
<event>
 5   0  0.3889225E-08  0.3788159E+04  0.7818609E-02  0.8048701E-01
        1   -1    0    0  501    0  0.00000000000E+00  0.00000000000E+00  0.31276210492E+04  0.31276210493E+04  0.50400001928E-02 0.  1.
       -1   -1    0    0    0  501  0.00000000000E+00  0.00000000000E+00 -0.11470500559E+04  0.11470500559E+04  0.50400001928E-02 0. -1.
    10030    2    1    2    0    0  0.00000000000E+00  0.00000000000E+00  0.19805709934E+04  0.42746711051E+04  0.37881593944E+04 0.  0.
        5    1    3    3  502    0  0.48751245275E+03 -0.14029366573E+04  0.23166660998E+04  0.27518836392E+04  0.46999998093E+01 0.  1.
       -5    1    3    3    0  502 -0.48751245275E+03  0.14029366573E+04 -0.33609510640E+03  0.15227874659E+04  0.46999998093E+01 0. -1.
</event>
<event>
 5   0  0.1174870E-07  0.3779612E+04  0.7818609E-02  0.8050544E-01
        2   -1    0    0  501    0  0.00000000000E+00  0.00000000000E+00  0.10466121307E+04  0.10466121307E+04  0.25500000920E-02 0. -1.
       -2   -1    0    0    0  501  0.00000000000E+00  0.00000000000E+00 -0.34123108368E+04  0.34123108368E+04  0.25500000920E-02 0.  1.
    10030    2    1    2    0    0  0.00000000000E+00  0.00000000000E+00 -0.23656987061E+04  0.44589229675E+04  0.37796115755E+04 0.  0.
        5    1    3    3  502    0  0.14778211791E+04 -0.63448007975E+03 -0.23535934652E+04  0.28506042690E+04  0.46999998093E+01 0.  1.
       -5    1    3    3    0  502 -0.14778211791E+04  0.63448007975E+03 -0.12105240913E+02  0.16083186985E+04  0.46999998093E+01 0. -1.
</event>
<event>
 5   0  0.3701250E-08  0.3813517E+04  0.7818609E-02  0.8043260E-01
        1   -1    0    0  501    0  0.00000000000E+00  0.00000000000E+00  0.21189099466E+04  0.21189099466E+04  0.50400001928E-02 0.  1.
       -1   -1    0    0    0  501  0.00000000000E+00  0.00000000000E+00 -0.17158484980E+04  0.17158484980E+04  0.50400001928E-02 0. -1.
    10030    2    1    2    0    0  0.00000000000E+00  0.00000000000E+00  0.40306144859E+03  0.38347584446E+04  0.38135172475E+04 0.  0.
        4    1    3    3  502    0  0.26478506726E+03  0.97002340630E+03  0.18306379715E+04  0.20886104319E+04  0.12699999809E+01 0.  1.
       -4    1    3    3    0  502 -0.26478506726E+03 -0.97002340630E+03 -0.14275765229E+04  0.17461480127E+04  0.12699999809E+01 0. -1.
</event>
<event>
 5   0  0.7858367E-08  0.3769407E+04  0.7818609E-02  0.8052752E-01
        2   -1    0    0  501    0  0.00000000000E+00  0.00000000000E+00  0.18159934050E+04  0.18159934050E+04  0.25500000920E-02 0. -1.
       -2   -1    0    0    0  501  0.00000000000E+00  0.00000000000E+00 -0.19560130259E+04  0.19560130259E+04  0.25500000920E-02 0.  1.
    10030    2    1    2    0    0  0.00000000000E+00  0.00000000000E+00 -0.14001962087E+03  0.37720064309E+04  0.37694067200E+04 0.  0.
        2    1    3    3  502    0  0.68288575883E+03  0.11381113532E+04  0.12689998727E+04  0.18362982026E+04  0.25500000920E-02 0. -1.
       -2    1    3    3    0  502 -0.68288575883E+03 -0.11381113532E+04 -0.14090194936E+04  0.19357082283E+04  0.25500000920E-02 0.  1.
</event>
<event>
 5   0  0.3701250E-08  0.3804768E+04  0.7818609E-02  0.8045133E-01
       -1   -1    0    0    0  501  0.00000000000E+00  0.00000000000E+00  0.23009623523E+04  0.23009623523E+04  0.50400001928E-02 0.  1.
        1   -1    0    0  501    0  0.00000000000E+00  0.00000000000E+00 -0.15728479991E+04  0.15728479991E+04  0.50400001928E-02 0. -1.
    10030    2    1    2    0    0  0.00000000000E+00  0.00000000000E+00  0.72811435317E+03  0.38738103514E+04  0.38047675523E+04 0.  0.
        1    1    3    3  502    0  0.88205957099E+03  0.34244835898E+03  0.20443886776E+04  0.22527372307E+04  0.50400001928E-02 0.  1.
       -1    1    3    3    0  502 -0.88205957099E+03 -0.34244835898E+03 -0.13162743245E+04  0.16210731207E+04  0.50400001928E-02 0. -1.
</event>
<event>
 5   0  0.1174870E-07  0.3811224E+04  0.7818609E-02  0.8043751E-01
        2   -1    0    0  501    0  0.00000000000E+00  0.00000000000E+00  0.22549588265E+04  0.22549588265E+04  0.25500000920E-02 0. -1.
       -2   -1    0    0    0  501  0.00000000000E+00  0.00000000000E+00 -0.16103870873E+04  0.16103870873E+04  0.25500000920E-02 0.  1.
    10030    2    1    2    0    0  0.00000000000E+00  0.00000000000E+00  0.64457173927E+03  0.38653459138E+04  0.38112237282E+04 0.  0.
        5    1    3    3  502    0 -0.53955212891E+03 -0.11540892298E+04  0.17595539722E+04  0.21723468234E+04  0.46999998093E+01 0. -1.
       -5    1    3    3    0  502  0.53955212891E+03  0.11540892298E+04 -0.11149822329E+04  0.16929990904E+04  0.46999998093E+01 0.  1.
</event>
<event>
 5   0  0.3701250E-08  0.3804287E+04  0.7818609E-02  0.8045236E-01
       -1   -1    0    0    0  501  0.00000000000E+00  0.00000000000E+00  0.12661255696E+04  0.12661255696E+04  0.50400001928E-02 0. -1.
        1   -1    0    0  501    0  0.00000000000E+00  0.00000000000E+00 -0.28576544585E+04  0.28576544585E+04  0.50400001928E-02 0.  1.
    10030    2    1    2    0    0  0.00000000000E+00  0.00000000000E+00 -0.15915288889E+04  0.41237800282E+04  0.38042867290E+04 0.  0.
        3    1    3    3  502    0 -0.67986186109E+03  0.24864437302E+03 -0.27024994843E+04  0.27977740522E+04  0.10100000352E+00 0.  1.
       -3    1    3    3    0  502  0.67986186109E+03 -0.24864437302E+03  0.11109705954E+04  0.13260059760E+04  0.10100000352E+00 0. -1.
</event>
<event>
 5   0  0.3889225E-08  0.3807680E+04  0.7818609E-02  0.8044509E-01
       -1   -1    0    0    0  501  0.00000000000E+00  0.00000000000E+00  0.18487692827E+04  0.18487692827E+04  0.50400001928E-02 0. -1.
        1   -1    0    0  501    0  0.00000000000E+00  0.00000000000E+00 -0.19605511189E+04  0.19605511189E+04  0.50400001928E-02 0.  1.
    10030    2    1    2    0    0  0.00000000000E+00  0.00000000000E+00 -0.11178183622E+03  0.38093204017E+04  0.38076799687E+04 0.  0.
        5    1    3    3  502    0 -0.87392669400E+02  0.17272222219E+04 -0.85225554088E+03  0.19280289623E+04  0.46999998093E+01 0.  1.
       -5    1    3    3    0  502  0.87392669400E+02 -0.17272222219E+04  0.74047370466E+03  0.18812914394E+04  0.46999998093E+01 0. -1.
</event>
<event>
 5   0  0.3889225E-08  0.3779346E+04  0.7818609E-02  0.8050602E-01
        1   -1    0    0  501    0  0.00000000000E+00  0.00000000000E+00  0.22122086158E+04  0.22122086158E+04  0.50400001928E-02 0. -1.
       -1   -1    0    0    0  501  0.00000000000E+00  0.00000000000E+00 -0.16141627923E+04  0.16141627923E+04  0.50400001928E-02 0.  1.
    10030    2    1    2    0    0  0.00000000000E+00  0.00000000000E+00  0.59804582346E+03  0.38263714081E+04  0.37793464178E+04 0.  0.
        5    1    3    3  502    0  0.39210917297E+03  0.37097819219E+03 -0.15344400513E+04  0.16266231228E+04  0.46999998093E+01 0.  1.
       -5    1    3    3    0  502 -0.39210917297E+03 -0.37097819219E+03  0.21324858748E+04  0.21997482853E+04  0.46999998093E+01 0. -1.
</event>
<event>
 5   0  0.7858367E-08  0.3794175E+04  0.7818609E-02  0.8047406E-01
       -2   -1    0    0    0  501  0.00000000000E+00  0.00000000000E+00  0.14625477653E+04  0.14625477653E+04  0.25500000920E-02 0. -1.
        2   -1    0    0  501    0  0.00000000000E+00  0.00000000000E+00 -0.24607342935E+04  0.24607342935E+04  0.25500000920E-02 0.  1.
    10030    2    1    2    0    0  0.00000000000E+00  0.00000000000E+00 -0.99818652824E+03  0.39232820588E+04  0.37941752421E+04 0.  0.
        2    1    3    3  502    0  0.84403839187E+03  0.69498915707E+03  0.11039933356E+04  0.15537734778E+04  0.25500000920E-02 0. -1.
       -2    1    3    3    0  502 -0.84403839187E+03 -0.69498915707E+03 -0.21021798638E+04  0.23695085810E+04  0.25500000920E-02 0.  1.
</event>
<event>
 5   0  0.3889225E-08  0.3793898E+04  0.7818609E-02  0.8047466E-01
        1   -1    0    0  501    0  0.00000000000E+00  0.00000000000E+00  0.27782823570E+04  0.27782823570E+04  0.50400001928E-02 0. -1.
       -1   -1    0    0    0  501  0.00000000000E+00  0.00000000000E+00 -0.12951943709E+04  0.12951943709E+04  0.50400001928E-02 0.  1.
    10030    2    1    2    0    0  0.00000000000E+00  0.00000000000E+00  0.14830879861E+04  0.40734767279E+04  0.37938980848E+04 0.  0.
        5    1    3    3  502    0  0.15048464154E+04 -0.97248952073E+03  0.72663407589E+02  0.17932095981E+04  0.46999998093E+01 0.  1.
       -5    1    3    3    0  502 -0.15048464154E+04  0.97248952073E+03  0.14104245785E+04  0.22802671298E+04  0.46999998093E+01 0. -1.
</event>
<event>
 5   0  0.3701250E-08  0.3813127E+04  0.7818609E-02  0.8043344E-01
       -1   -1    0    0    0  501  0.00000000000E+00  0.00000000000E+00  0.18896490197E+04  0.18896490197E+04  0.50400001928E-02 0.  1.
        1   -1    0    0  501    0  0.00000000000E+00  0.00000000000E+00 -0.19236290075E+04  0.19236290075E+04  0.50400001928E-02 0. -1.
    10030    2    1    2    0    0  0.00000000000E+00  0.00000000000E+00 -0.33979987877E+02  0.38132780272E+04  0.38131266270E+04 0.  0.
        1    1    3    3  502    0 -0.10541873307E+04 -0.25363486481E+03  0.15513012404E+04  0.18926640250E+04  0.50400001928E-02 0.  1.
       -1    1    3    3    0  502  0.10541873307E+04  0.25363486481E+03 -0.15852812283E+04  0.19206140023E+04  0.50400001928E-02 0. -1.
</event>
<event>
 5   0  0.7858367E-08  0.3793026E+04  0.7818609E-02  0.8047653E-01
        2   -1    0    0  501    0  0.00000000000E+00  0.00000000000E+00  0.12514008140E+04  0.12514008140E+04  0.25500000920E-02 0.  1.
       -2   -1    0    0    0  501  0.00000000000E+00  0.00000000000E+00 -0.28741882091E+04  0.28741882091E+04  0.25500000920E-02 0. -1.
    10030    2    1    2    0    0  0.00000000000E+00  0.00000000000E+00 -0.16227873951E+04  0.41255890231E+04  0.37930259500E+04 0.  0.
        2    1    3    3  502    0 -0.10219329831E+04  0.11553556000E+04 -0.20115746785E+04  0.25348819048E+04  0.25500000920E-02 0. -1.
       -2    1    3    3    0  502  0.10219329831E+04 -0.11553556000E+04  0.38878728333E+03  0.15907071183E+04  0.25500000920E-02 0.  1.
</event>
<event>
 5   0  0.1174870E-07  0.3845457E+04  0.7818609E-02  0.8036470E-01
        2   -1    0    0  501    0  0.00000000000E+00  0.00000000000E+00  0.16571149694E+04  0.16571149694E+04  0.25500000920E-02 0. -1.
       -2   -1    0    0    0  501  0.00000000000E+00  0.00000000000E+00 -0.22309160260E+04  0.22309160260E+04  0.25500000920E-02 0.  1.
    10030    2    1    2    0    0  0.00000000000E+00  0.00000000000E+00 -0.57380105659E+03  0.38880309954E+04  0.38454567178E+04 0.  0.
        5    1    3    3  502    0  0.12004586583E+04 -0.14150122061E+04  0.22216330656E+03  0.18688871444E+04  0.46999998093E+01 0. -1.
       -5    1    3    3    0  502 -0.12004586583E+04  0.14150122061E+04 -0.79596436315E+03  0.20191438510E+04  0.46999998093E+01 0.  1.
</event>
<event>
 5   0  0.1174870E-07  0.3796965E+04  0.7818609E-02  0.8046806E-01
       -2   -1    0    0    0  501  0.00000000000E+00  0.00000000000E+00  0.18817561073E+04  0.18817561073E+04  0.25500000920E-02 0. -1.
        2   -1    0    0  501    0  0.00000000000E+00  0.00000000000E+00 -0.19153578302E+04  0.19153578302E+04  0.25500000920E-02 0.  1.
    10030    2    1    2    0    0  0.00000000000E+00  0.00000000000E+00 -0.33601722878E+02  0.37971139374E+04  0.37969652590E+04 0.  0.
        5    1    3    3  502    0 -0.16470846588E+04  0.14666562425E+03  0.91587466972E+03  0.18903034622E+04  0.46999998093E+01 0.  1.
       -5    1    3    3    0  502  0.16470846588E+04 -0.14666562425E+03 -0.94947639260E+03  0.19068104753E+04  0.46999998093E+01 0. -1.
</event>
<event>
 5   0  0.3701250E-08  0.3800636E+04  0.7818609E-02  0.8046018E-01
       -1   -1    0    0    0  501  0.00000000000E+00  0.00000000000E+00  0.12773797637E+04  0.12773797637E+04  0.50400001928E-02 0.  1.
        1   -1    0    0  501    0  0.00000000000E+00  0.00000000000E+00 -0.28270442978E+04  0.28270442978E+04  0.50400001928E-02 0. -1.
    10030    2    1    2    0    0  0.00000000000E+00  0.00000000000E+00 -0.15496645341E+04  0.41044240616E+04  0.38006363558E+04 0.  0.
        2    1    3    3  502    0 -0.17637846241E+03  0.11919491672E+04 -0.23617635843E+04  0.26513731173E+04  0.25500000920E-02 0. -1.
       -2    1    3    3    0  502  0.17637846241E+03 -0.11919491672E+04  0.81209905024E+03  0.14530509442E+04  0.25500000920E-02 0.  1.
</event>
<event>
 5   0  0.3701250E-08  0.3794404E+04  0.7818609E-02  0.8047357E-01
       -1   -1    0    0    0  501  0.00000000000E+00  0.00000000000E+00  0.23646037984E+04  0.23646037984E+04  0.50400001928E-02 0. -1.
        1   -1    0    0  501    0  0.00000000000E+00  0.00000000000E+00 -0.15221896552E+04  0.15221896552E+04  0.50400001928E-02 0.  1.
    10030    2    1    2    0    0  0.00000000000E+00  0.00000000000E+00  0.84241414317E+03  0.38867934536E+04  0.37944040063E+04 0.  0.
        4    1    3    3  502    0 -0.24714535172E+03 -0.14707460199E+04 -0.78003542993E+03  0.16830423538E+04  0.12699999809E+01 0.  1.
       -4    1    3    3    0  502  0.24714535172E+03  0.14707460199E+04  0.16224495731E+04  0.22037510998E+04  0.12699999809E+01 0. -1.
</event>
<event>
 5   0  0.3889225E-08  0.3803885E+04  0.7818609E-02  0.8045322E-01
       -1   -1    0    0    0  501  0.00000000000E+00  0.00000000000E+00  0.14565600198E+04  0.14565600198E+04  0.50400001928E-02 0. -1.
        1   -1    0    0  501    0  0.00000000000E+00  0.00000000000E+00 -0.24835120436E+04  0.24835120436E+04  0.50400001928E-02 0.  1.
    10030    2    1    2    0    0  0.00000000000E+00  0.00000000000E+00 -0.10269520238E+04  0.39400720635E+04  0.38038845154E+04 0.  0.
        5    1    3    3  502    0 -0.39377158355E+03  0.18426554955E+04 -0.24551149999E+03  0.19001929696E+04  0.46999998093E+01 0. -1.
       -5    1    3    3    0  502  0.39377158355E+03 -0.18426554955E+04 -0.78144052379E+03  0.20398790938E+04  0.46999998093E+01 0.  1.
</event>
<event>
 5   0  0.3701250E-08  0.3785630E+04  0.7818609E-02  0.8049246E-01
        1   -1    0    0  501    0  0.00000000000E+00  0.00000000000E+00  0.22064746059E+04  0.22064746059E+04  0.50400001928E-02 0.  1.
       -1   -1    0    0    0  501  0.00000000000E+00  0.00000000000E+00 -0.16237431215E+04  0.16237431215E+04  0.50400001928E-02 0. -1.
    10030    2    1    2    0    0  0.00000000000E+00  0.00000000000E+00  0.58273148436E+03  0.38302177274E+04  0.37856296513E+04 0.  0.
        3    1    3    3  502    0 -0.68179076450E+03 -0.15446558180E+04 -0.57425043843E+03  0.17834135300E+04  0.10100000352E+00 0. -1.
       -3    1    3    3    0  502  0.68179076450E+03  0.15446558180E+04  0.11569819228E+04  0.20468041974E+04  0.10100000352E+00 0.  1.
</event>
<event>
 5   0  0.1193861E-07  0.3791759E+04  0.7818609E-02  0.8047926E-01
       -2   -1    0    0    0  501  0.00000000000E+00  0.00000000000E+00  0.15621899032E+04  0.15621899032E+04  0.25500000920E-02 0. -1.
        2   -1    0    0  501    0  0.00000000000E+00  0.00000000000E+00 -0.23008458973E+04  0.23008458973E+04  0.25500000920E-02 0.  1.
    10030    2    1    2    0    0  0.00000000000E+00  0.00000000000E+00 -0.73865599417E+03  0.38630358005E+04  0.37917585522E+04 0.  0.
        3    1    3    3  502    0 -0.10679171999E+04 -0.36070760955E+03  0.11837294981E+04  0.16345557991E+04  0.10100000352E+00 0. -1.
       -3    1    3    3    0  502  0.10679171999E+04  0.36070760955E+03 -0.19223854923E+04  0.22284800014E+04  0.10100000352E+00 0.  1.
</event>
<event>
 5   0  0.3889225E-08  0.3697007E+04  0.7818609E-02  0.8068626E-01
       -1   -1    0    0    0  501  0.00000000000E+00  0.00000000000E+00  0.28708371176E+04  0.28708371176E+04  0.50400001928E-02 0.  1.
        1   -1    0    0  501    0  0.00000000000E+00  0.00000000000E+00 -0.11902327979E+04  0.11902327980E+04  0.50400001928E-02 0. -1.
    10030    2    1    2    0    0  0.00000000000E+00  0.00000000000E+00  0.16806043197E+04  0.40610699156E+04  0.36970066243E+04 0.  0.
        5    1    3    3  502    0 -0.10319238936E+04 -0.10240155048E+04  0.20944258721E+04  0.25495326043E+04  0.46999998093E+01 0.  1.
       -5    1    3    3    0  502  0.10319238936E+04  0.10240155048E+04 -0.41382155247E+03  0.15115373113E+04  0.46999998093E+01 0. -1.
</event>
<event>
 5   0  0.1150235E-07  0.3807650E+04  0.7818609E-02  0.8044515E-01
        2   -1    0    0  501    0  0.00000000000E+00  0.00000000000E+00  0.25374724044E+04  0.25374724044E+04  0.25500000920E-02 0.  1.
       -2   -1    0    0    0  501  0.00000000000E+00  0.00000000000E+00 -0.14284098415E+04  0.14284098415E+04  0.25500000920E-02 0. -1.
    10030    2    1    2    0    0  0.00000000000E+00  0.00000000000E+00  0.11090625629E+04  0.39658822460E+04  0.38076504856E+04 0.  0.
        4    1    3    3  502    0  0.11120967576E+04 -0.10870520630E+04 -0.58933631584E+03  0.16630575131E+04  0.12699999809E+01 0. -1.
       -4    1    3    3    0  502 -0.11120967576E+04  0.10870520630E+04  0.16983988788E+04  0.23028247328E+04  0.12699999809E+01 0.  1.
</event>
<event>
 5   0  0.3701250E-08  0.3798356E+04  0.7818609E-02  0.8046508E-01
        1   -1    0    0  501    0  0.00000000000E+00  0.00000000000E+00  0.19413013545E+04  0.19413013545E+04  0.50400001928E-02 0.  1.
       -1   -1    0    0    0  501  0.00000000000E+00  0.00000000000E+00 -0.18579682096E+04  0.18579682096E+04  0.50400001928E-02 0. -1.
    10030    2    1    2    0    0  0.00000000000E+00  0.00000000000E+00  0.83333144950E+02  0.37992695641E+04  0.37983555399E+04 0.  0.
        3    1    3    3  502    0  0.58151791794E+02 -0.55728474515E+03 -0.17734128373E+04  0.18598228463E+04  0.10100000352E+00 0. -1.
       -3    1    3    3    0  502 -0.58151791794E+02  0.55728474515E+03  0.18567459823E+04  0.19394467177E+04  0.10100000352E+00 0.  1.
</event>
<event>
 5   0  0.3701250E-08  0.3783840E+04  0.7818609E-02  0.8049632E-01
       -1   -1    0    0    0  501  0.00000000000E+00  0.00000000000E+00  0.16289688946E+04  0.16289688946E+04  0.50400001928E-02 0. -1.
        1   -1    0    0  501    0  0.00000000000E+00  0.00000000000E+00 -0.21973176260E+04  0.21973176260E+04  0.50400001928E-02 0.  1.
    10030    2    1    2    0    0  0.00000000000E+00  0.00000000000E+00 -0.56834873136E+03  0.38262865206E+04  0.37838404112E+04 0.  0.
        2    1    3    3  502    0  0.18237454180E+03  0.11055069864E+04  0.12573791902E+04  0.16841640652E+04  0.25500000920E-02 0. -1.
       -2    1    3    3    0  502 -0.18237454180E+03 -0.11055069864E+04 -0.18257279216E+04  0.21421224554E+04  0.25500000920E-02 0.  1.
</event>
<event>
 5   0  0.3701250E-08  0.3800295E+04  0.7818609E-02  0.8046092E-01
       -3   -1    0    0    0  501  0.00000000000E+00  0.00000000000E+00  0.13952236960E+04  0.13952236996E+04  0.10100000352E+00 0.  1.
        3   -1    0    0  501    0  0.00000000000E+00  0.00000000000E+00 -0.25878008478E+04  0.25878008498E+04  0.10100000352E+00 0. -1.
    10030    2    1    2    0    0  0.00000000000E+00  0.00000000000E+00 -0.11925771518E+04  0.39830245494E+04  0.38002952909E+04 0.  0.
        4    1    3    3  502    0  0.18804405775E+04  0.23684958767E+03 -0.73847665388E+03  0.20340855129E+04  0.12699999809E+01 0. -1.
       -4    1    3    3    0  502 -0.18804405775E+04 -0.23684958767E+03 -0.45410049794E+03  0.19489390364E+04  0.12699999809E+01 0.  1.
</event>
<event>
 5   0  0.1150235E-07  0.3798975E+04  0.7818609E-02  0.8046375E-01
       -2   -1    0    0    0  501  0.00000000000E+00  0.00000000000E+00  0.24766633642E+04  0.24766633642E+04  0.25500000920E-02 0. -1.
        2   -1    0    0  501    0  0.00000000000E+00  0.00000000000E+00 -0.14568198484E+04  0.14568198484E+04  0.25500000920E-02 0.  1.
    10030    2    1    2    0    0  0.00000000000E+00  0.00000000000E+00  0.10198435158E+04  0.39334832125E+04  0.37989747810E+04 0.  0.
        4    1    3    3  502    0  0.79358680815E+03 -0.12853167982E+03 -0.12719855642E+04  0.15047422713E+04  0.12699999809E+01 0.  1.
       -4    1    3    3    0  502 -0.79358680815E+03  0.12853167982E+03  0.22918290800E+04  0.24287409412E+04  0.12699999809E+01 0. -1.
</event>
<event>
 5   0  0.1193861E-07  0.3796609E+04  0.7818609E-02  0.8046883E-01
       -2   -1    0    0    0  501  0.00000000000E+00  0.00000000000E+00  0.14389818274E+04  0.14389818274E+04  0.25500000920E-02 0. -1.
        2   -1    0    0  501    0  0.00000000000E+00  0.00000000000E+00 -0.25042426314E+04  0.25042426314E+04  0.25500000920E-02 0.  1.
    10030    2    1    2    0    0  0.00000000000E+00  0.00000000000E+00 -0.10652608040E+04  0.39432244587E+04  0.37966088225E+04 0.  0.
        3    1    3    3  502    0  0.10467495760E+04 -0.10519153757E+04 -0.17621311565E+04  0.23037614580E+04  0.10100000352E+00 0.  1.
       -3    1    3    3    0  502 -0.10467495760E+04  0.10519153757E+04  0.69687035243E+03  0.16394630008E+04  0.10100000352E+00 0. -1.
</event>
<event>
 5   0  0.1143283E-07  0.3717218E+04  0.7818609E-02  0.8064157E-01
        2   -1    0    0  501    0  0.00000000000E+00  0.00000000000E+00  0.21064158717E+04  0.21064158717E+04  0.25500000920E-02 0.  1.
       -2   -1    0    0    0  501  0.00000000000E+00  0.00000000000E+00 -0.16399550383E+04  0.16399550383E+04  0.25500000920E-02 0. -1.
    10030    2    1    2    0    0  0.00000000000E+00  0.00000000000E+00  0.46646083338E+03  0.37463709100E+04  0.37172179498E+04 0.  0.
        1    1    3    3  502    0 -0.10410922768E+04  0.15384472784E+04  0.29481747534E+03  0.18808536628E+04  0.50400001928E-02 0. -1.
       -1    1    3    3    0  502  0.10410922768E+04 -0.15384472784E+04  0.17164335805E+03  0.18655172472E+04  0.50400001928E-02 0.  1.
</event>
<event>
 5   0  0.1143283E-07  0.3747387E+04  0.7818609E-02  0.8057541E-01
       -2   -1    0    0    0  501  0.00000000000E+00  0.00000000000E+00  0.29940250862E+04  0.29940250862E+04  0.25500000920E-02 0.  1.
        2   -1    0    0  501    0  0.00000000000E+00  0.00000000000E+00 -0.11725777631E+04  0.11725777631E+04  0.25500000920E-02 0. -1.
    10030    2    1    2    0    0  0.00000000000E+00  0.00000000000E+00  0.18214473231E+04  0.41666028493E+04  0.37473869500E+04 0.  0.
        1    1    3    3  502    0 -0.45268041769E+03 -0.18108039140E+04  0.72871353903E+03  0.20037349619E+04  0.50400001928E-02 0. -1.
       -1    1    3    3    0  502  0.45268041769E+03  0.18108039140E+04  0.10927337841E+04  0.21628678874E+04  0.50400001928E-02 0.  1.
</event>
<event>
 5   0  0.7858367E-08  0.3809006E+04  0.7818609E-02  0.8044225E-01
        2   -1    0    0  501    0  0.00000000000E+00  0.00000000000E+00  0.23001907640E+04  0.23001907640E+04  0.25500000920E-02 0.  1.
       -2   -1    0    0    0  501  0.00000000000E+00  0.00000000000E+00 -0.15768831027E+04  0.15768831027E+04  0.25500000920E-02 0. -1.
    10030    2    1    2    0    0  0.00000000000E+00  0.00000000000E+00  0.72330766125E+03  0.38770738667E+04  0.38090061427E+04 0.  0.
        2    1    3    3  502    0  0.21719155013E+03  0.18858713531E+04  0.20578662839E+03  0.19094583175E+04  0.25500000920E-02 0.  1.
       -2    1    3    3    0  502 -0.21719155013E+03 -0.18858713531E+04  0.51752103286E+03  0.19676155492E+04  0.25500000920E-02 0. -1.
</event>
<event>
 5   0  0.1150235E-07  0.3809908E+04  0.7818609E-02  0.8044032E-01
       -2   -1    0    0    0  501  0.00000000000E+00  0.00000000000E+00  0.28316761061E+04  0.28316761061E+04  0.25500000920E-02 0. -1.
        2   -1    0    0  501    0  0.00000000000E+00  0.00000000000E+00 -0.12815202911E+04  0.12815202911E+04  0.25500000920E-02 0.  1.
    10030    2    1    2    0    0  0.00000000000E+00  0.00000000000E+00  0.15501558150E+04  0.41131963971E+04  0.38099083389E+04 0.  0.
        4    1    3    3  502    0  0.17143119759E+04  0.51313911277E+03  0.14802769664E+04  0.23223692234E+04  0.12699999809E+01 0.  1.
       -4    1    3    3    0  502 -0.17143119759E+04 -0.51313911277E+03  0.69878848649E+02  0.17908271737E+04  0.12699999809E+01 0. -1.
</event>
<event>
 5   0  0.3889225E-08  0.3793235E+04  0.7818609E-02  0.8047608E-01
        1   -1    0    0  501    0  0.00000000000E+00  0.00000000000E+00  0.15105641402E+04  0.15105641402E+04  0.50400001928E-02 0. -1.
       -1   -1    0    0    0  501  0.00000000000E+00  0.00000000000E+00 -0.23813340257E+04  0.23813340257E+04  0.50400001928E-02 0.  1.
    10030    2    1    2    0    0  0.00000000000E+00  0.00000000000E+00 -0.87076988554E+03  0.38918981659E+04  0.37932349177E+04 0.  0.
        5    1    3    3  502    0 -0.30396487314E+03 -0.50738679086E+03 -0.22842827797E+04  0.23596198650E+04  0.46999998093E+01 0.  1.
       -5    1    3    3    0  502  0.30396487314E+03  0.50738679086E+03  0.14135128942E+04  0.15322783010E+04  0.46999998093E+01 0. -1.
</event>
<event>
 5   0  0.3701250E-08  0.3796401E+04  0.7818609E-02  0.8046928E-01
        1   -1    0    0  501    0  0.00000000000E+00  0.00000000000E+00  0.19885174820E+04  0.19885174820E+04  0.50400001928E-02 0.  1.
       -1   -1    0    0    0  501  0.00000000000E+00  0.00000000000E+00 -0.18119857540E+04  0.18119857540E+04  0.50400001928E-02 0. -1.
    10030    2    1    2    0    0  0.00000000000E+00  0.00000000000E+00  0.17653172797E+03  0.38005032361E+04  0.37964011111E+04 0.  0.
        3    1    3    3  502    0 -0.45988142575E+03  0.10409028754E+03 -0.17524268777E+04  0.18147522380E+04  0.10100000352E+00 0. -1.
       -3    1    3    3    0  502  0.45988142575E+03 -0.10409028754E+03  0.19289586056E+04  0.19857509980E+04  0.10100000352E+00 0.  1.
</event>
<event>
 5   0  0.7858367E-08  0.3779344E+04  0.7818609E-02  0.8050602E-01
       -2   -1    0    0    0  501  0.00000000000E+00  0.00000000000E+00  0.20901916827E+04  0.20901916827E+04  0.25500000920E-02 0.  1.
        2   -1    0    0  501    0  0.00000000000E+00  0.00000000000E+00 -0.17083891379E+04  0.17083891379E+04  0.25500000920E-02 0. -1.
    10030    2    1    2    0    0  0.00000000000E+00  0.00000000000E+00  0.38180254486E+03  0.37985808206E+04  0.37793442642E+04 0.  0.
        2    1    3    3  502    0 -0.81604185517E+03  0.11634918616E+04 -0.10609192155E+04  0.17734675647E+04  0.25500000920E-02 0. -1.
       -2    1    3    3    0  502  0.81604185517E+03 -0.11634918616E+04  0.14427217603E+04  0.20251132559E+04  0.25500000920E-02 0.  1.
</event>
<event>
 5   0  0.3701250E-08  0.3789629E+04  0.7818609E-02  0.8048384E-01
        1   -1    0    0  501    0  0.00000000000E+00  0.00000000000E+00  0.10039655308E+04  0.10039655308E+04  0.50400001928E-02 0. -1.
       -1   -1    0    0    0  501  0.00000000000E+00  0.00000000000E+00 -0.35761411055E+04  0.35761411055E+04  0.50400001928E-02 0.  1.
    10030    2    1    2    0    0  0.00000000000E+00  0.00000000000E+00 -0.25721755747E+04  0.45801066364E+04  0.37896292184E+04 0.  0.
        3    1    3    3  502    0 -0.21673178724E+03 -0.17675177887E+03  0.97888419195E+03  0.10180511433E+04  0.10100000352E+00 0. -1.
       -3    1    3    3    0  502  0.21673178724E+03  0.17675177887E+03 -0.35510597667E+04  0.35620554931E+04  0.10100000352E+00 0.  1.
</event>
<event>
 5   0  0.3701250E-08  0.3806593E+04  0.7818609E-02  0.8044741E-01
       -1   -1    0    0    0  501  0.00000000000E+00  0.00000000000E+00  0.17035894906E+04  0.17035894906E+04  0.50400001928E-02 0. -1.
        1   -1    0    0  501    0  0.00000000000E+00  0.00000000000E+00 -0.21264151555E+04  0.21264151555E+04  0.50400001928E-02 0.  1.
    10030    2    1    2    0    0  0.00000000000E+00  0.00000000000E+00 -0.42282566496E+03  0.38300046461E+04  0.38065934964E+04 0.  0.
        3    1    3    3  502    0 -0.51622691276E+02 -0.17934535803E+04  0.42762944583E+03  0.18444531981E+04  0.10100000352E+00 0. -1.
       -3    1    3    3    0  502  0.51622691276E+02  0.17934535803E+04 -0.85045511078E+03  0.19855514480E+04  0.10100000352E+00 0.  1.
</event>
<event>
 5   0  0.1174870E-07  0.3784855E+04  0.7818609E-02  0.8049413E-01
        2   -1    0    0  501    0  0.00000000000E+00  0.00000000000E+00  0.13250285880E+04  0.13250285880E+04  0.25500000920E-02 0. -1.
       -2   -1    0    0    0  501  0.00000000000E+00  0.00000000000E+00 -0.27027956945E+04  0.27027956945E+04  0.25500000920E-02 0.  1.
    10030    2    1    2    0    0  0.00000000000E+00  0.00000000000E+00 -0.13777671065E+04  0.40278242824E+04  0.37848548519E+04 0.  0.
        5    1    3    3  502    0 -0.42164774657E+03 -0.18222724593E+04 -0.99509771227E+03  0.21186564811E+04  0.46999998093E+01 0.  1.
       -5    1    3    3    0  502  0.42164774657E+03  0.18222724593E+04 -0.38266939423E+03  0.19091678013E+04  0.46999998093E+01 0. -1.
</event>
<event>
 5   0  0.1143283E-07  0.3634316E+04  0.7818609E-02  0.8082676E-01
       -2   -1    0    0    0  501  0.00000000000E+00  0.00000000000E+00  0.16092855819E+04  0.16092855819E+04  0.25500000920E-02 0. -1.
        2   -1    0    0  501    0  0.00000000000E+00  0.00000000000E+00 -0.20518817849E+04  0.20518817849E+04  0.25500000920E-02 0.  1.
    10030    2    1    2    0    0  0.00000000000E+00  0.00000000000E+00 -0.44259620300E+03  0.36611673667E+04  0.36343163165E+04 0.  0.
        1    1    3    3  502    0  0.10574579526E+04  0.15945369121E+03 -0.17013090725E+04  0.20095012718E+04  0.50400001928E-02 0.  1.
       -1    1    3    3    0  502 -0.10574579526E+04 -0.15945369121E+03  0.12587128695E+04  0.16516660949E+04  0.50400001928E-02 0. -1.
</event>
<event>
 5   0  0.3889225E-08  0.3800557E+04  0.7818609E-02  0.8046035E-01
       -1   -1    0    0    0  501  0.00000000000E+00  0.00000000000E+00  0.16769740142E+04  0.16769740142E+04  0.50400001928E-02 0. -1.
        1   -1    0    0  501    0  0.00000000000E+00  0.00000000000E+00 -0.21533175331E+04  0.21533175331E+04  0.50400001928E-02 0.  1.
    10030    2    1    2    0    0  0.00000000000E+00  0.00000000000E+00 -0.47634351885E+03  0.38302915473E+04  0.38005565631E+04 0.  0.
        5    1    3    3  502    0  0.16488508800E+03  0.18772874407E+04 -0.48429594184E+03  0.19457543207E+04  0.46999998093E+01 0. -1.
       -5    1    3    3    0  502 -0.16488508800E+03 -0.18772874407E+04  0.79524229871E+01  0.18845372266E+04  0.46999998093E+01 0.  1.
</event>
<event>
 5   0  0.7858367E-08  0.3791429E+04  0.7818609E-02  0.8047997E-01
       -2   -1    0    0    0  501  0.00000000000E+00  0.00000000000E+00  0.16772176840E+04  0.16772176840E+04  0.25500000920E-02 0.  1.
        2   -1    0    0  501    0  0.00000000000E+00  0.00000000000E+00 -0.21426756580E+04  0.21426756581E+04  0.25500000920E-02 0. -1.
    10030    2    1    2    0    0  0.00000000000E+00  0.00000000000E+00 -0.46545797408E+03  0.38198933420E+04  0.37914290207E+04 0.  0.
        2    1    3    3  502    0  0.70691474949E+03 -0.13541101822E+04 -0.13638287055E+04  0.20477723474E+04  0.25500000920E-02 0. -1.
       -2    1    3    3    0  502 -0.70691474949E+03  0.13541101822E+04  0.89837073147E+03  0.17721209947E+04  0.25500000920E-02 0.  1.
</event>
<event>
 5   0  0.3701250E-08  0.3796696E+04  0.7818609E-02  0.8046864E-01
       -1   -1    0    0    0  501  0.00000000000E+00  0.00000000000E+00  0.18363000069E+04  0.18363000069E+04  0.50400001928E-02 0.  1.
        1   -1    0    0  501    0  0.00000000000E+00  0.00000000000E+00 -0.19624925957E+04  0.19624925957E+04  0.50400001928E-02 0. -1.
    10030    2    1    2    0    0  0.00000000000E+00  0.00000000000E+00 -0.12619258884E+03  0.37987926026E+04  0.37966960200E+04 0.  0.
        1    1    3    3  502    0  0.97443033879E+03  0.12235444846E+04  0.10132065968E+04  0.18636424547E+04  0.50400001928E-02 0.  1.
       -1    1    3    3    0  502 -0.97443033879E+03 -0.12235444846E+04 -0.11393991856E+04  0.19351501480E+04  0.50400001928E-02 0. -1.
</event>
<event>
 5   0  0.3889225E-08  0.3799716E+04  0.7818609E-02  0.8046216E-01
       -1   -1    0    0    0  501  0.00000000000E+00  0.00000000000E+00  0.18528825563E+04  0.18528825563E+04  0.50400001928E-02 0.  1.
        1   -1    0    0  501    0  0.00000000000E+00  0.00000000000E+00 -0.19480246443E+04  0.19480246443E+04  0.50400001928E-02 0. -1.
    10030    2    1    2    0    0  0.00000000000E+00  0.00000000000E+00 -0.95142087992E+02  0.38009072006E+04  0.37997162434E+04 0.  0.
        5    1    3    3  502    0  0.73176237771E+03 -0.16632656124E+04 -0.60228080213E+03  0.19143387708E+04  0.46999998093E+01 0.  1.
       -5    1    3    3    0  502 -0.73176237771E+03  0.16632656124E+04  0.50713871414E+03  0.18865684298E+04  0.46999998093E+01 0. -1.
</event>
<event>
 5   0  0.1143283E-07  0.3853054E+04  0.7818609E-02  0.8034864E-01
        2   -1    0    0  501    0  0.00000000000E+00  0.00000000000E+00  0.15647999001E+04  0.15647999001E+04  0.25500000920E-02 0. -1.
       -2   -1    0    0    0  501  0.00000000000E+00  0.00000000000E+00 -0.23718730059E+04  0.23718730059E+04  0.25500000920E-02 0.  1.
    10030    2    1    2    0    0  0.00000000000E+00  0.00000000000E+00 -0.80707310577E+03  0.39366729061E+04  0.38530541874E+04 0.  0.
        1    1    3    3  502    0  0.11531414273E+04  0.79121526652E+03 -0.17573397639E+04  0.22458850806E+04  0.50400001928E-02 0.  1.
       -1    1    3    3    0  502 -0.11531414273E+04 -0.79121526652E+03  0.95026665812E+03  0.16907878255E+04  0.50400001928E-02 0. -1.
</event>
<event>
 5   0  0.1174870E-07  0.3670728E+04  0.7818609E-02  0.8074480E-01
        2   -1    0    0  501    0  0.00000000000E+00  0.00000000000E+00  0.22892056195E+04  0.22892056195E+04  0.25500000920E-02 0. -1.
       -2   -1    0    0    0  501  0.00000000000E+00  0.00000000000E+00 -0.14714974660E+04  0.14714974660E+04  0.25500000920E-02 0.  1.
    10030    2    1    2    0    0  0.00000000000E+00  0.00000000000E+00  0.81770815353E+03  0.37607030855E+04  0.36707275945E+04 0.  0.
        5    1    3    3  502    0 -0.28185105058E+03  0.15139636693E+04  0.14318340224E+04  0.21027830997E+04  0.46999998093E+01 0. -1.
       -5    1    3    3    0  502  0.28185105058E+03 -0.15139636693E+04 -0.61412586888E+03  0.16579199858E+04  0.46999998093E+01 0.  1.
</event>
<event>
 5   0  0.3701250E-08  0.3802506E+04  0.7818609E-02  0.8045617E-01
        1   -1    0    0  501    0  0.00000000000E+00  0.00000000000E+00  0.19729346355E+04  0.19729346355E+04  0.50400001928E-02 0.  1.
       -1   -1    0    0    0  501  0.00000000000E+00  0.00000000000E+00 -0.18321758013E+04  0.18321758013E+04  0.50400001928E-02 0. -1.
    10030    2    1    2    0    0  0.00000000000E+00  0.00000000000E+00  0.14075883424E+03  0.38051104368E+04  0.38025060667E+04 0.  0.
        3    1    3    3  502    0  0.66524328225E+03  0.66670474706E+03  0.17230914308E+04  0.19636924233E+04  0.10100000352E+00 0.  1.
       -3    1    3    3    0  502 -0.66524328225E+03 -0.66670474706E+03 -0.15823325965E+04  0.18414180135E+04  0.10100000352E+00 0. -1.
</event>
<event>
 5   0  0.3889225E-08  0.3818419E+04  0.7818609E-02  0.8042214E-01
       -1   -1    0    0    0  501  0.00000000000E+00  0.00000000000E+00  0.15682486613E+04  0.15682486613E+04  0.50400001928E-02 0. -1.
        1   -1    0    0  501    0  0.00000000000E+00  0.00000000000E+00 -0.23243005274E+04  0.23243005274E+04  0.50400001928E-02 0.  1.
    10030    2    1    2    0    0  0.00000000000E+00  0.00000000000E+00 -0.75605186604E+03  0.38925491887E+04  0.38184191444E+04 0.  0.
        5    1    3    3  502    0  0.18787003157E+04  0.33083270215E+03 -0.45760518839E+03  0.19617313148E+04  0.46999998093E+01 0. -1.
       -5    1    3    3    0  502 -0.18787003157E+04 -0.33083270215E+03 -0.29844667765E+03  0.19308178739E+04  0.46999998093E+01 0.  1.
</event>
<event>
 5   0  0.3701250E-08  0.3791895E+04  0.7818609E-02  0.8047896E-01
       -4   -1    0    0    0  501  0.00000000000E+00  0.00000000000E+00  0.21370475273E+04  0.21370479047E+04  0.12699999809E+01 0.  1.
        4   -1    0    0  501    0  0.00000000000E+00  0.00000000000E+00 -0.16820478620E+04  0.16820483414E+04  0.12699999809E+01 0. -1.
    10030    2    1    2    0    0  0.00000000000E+00  0.00000000000E+00  0.45499966531E+03  0.38190962461E+04  0.37918954946E+04 0.  0.
        2    1    3    3  502    0 -0.90165788024E+03  0.15535415776E+04  0.83859725148E+03  0.19823530756E+04  0.25500000920E-02 0. -1.
       -2    1    3    3    0  502  0.90165788024E+03 -0.15535415776E+04 -0.38359758617E+03  0.18367431705E+04  0.25500000920E-02 0.  1.
</event>
<event>
 5   0  0.7858367E-08  0.3800977E+04  0.7818609E-02  0.8045945E-01
       -2   -1    0    0    0  501  0.00000000000E+00  0.00000000000E+00  0.29579700695E+04  0.29579700695E+04  0.25500000920E-02 0. -1.
        2   -1    0    0  501    0  0.00000000000E+00  0.00000000000E+00 -0.12210593398E+04  0.12210593398E+04  0.25500000920E-02 0.  1.
    10030    2    1    2    0    0  0.00000000000E+00  0.00000000000E+00  0.17369107297E+04  0.41790294093E+04  0.38009772323E+04 0.  0.
        2    1    3    3  502    0 -0.78873805104E+03  0.17287519588E+04  0.90599730763E+03  0.21051180893E+04  0.25500000920E-02 0.  1.
       -2    1    3    3    0  502  0.78873805104E+03 -0.17287519588E+04  0.83091342209E+03  0.20739113200E+04  0.25500000920E-02 0. -1.
</event>
<event>
 5   0  0.3701250E-08  0.3795199E+04  0.7818609E-02  0.8047186E-01
        1   -1    0    0  501    0  0.00000000000E+00  0.00000000000E+00  0.13032334880E+04  0.13032334880E+04  0.50400001928E-02 0. -1.
       -1   -1    0    0    0  501  0.00000000000E+00  0.00000000000E+00 -0.27630386031E+04  0.27630386031E+04  0.50400001928E-02 0.  1.
    10030    2    1    2    0    0  0.00000000000E+00  0.00000000000E+00 -0.14598051151E+04  0.40662720911E+04  0.37951993024E+04 0.  0.
        4    1    3    3  502    0  0.67509807905E+03  0.16979758019E+04 -0.12783253092E+04  0.22300216253E+04  0.12699999809E+01 0. -1.
       -4    1    3    3    0  502 -0.67509807905E+03 -0.16979758019E+04 -0.18147980592E+03  0.18362504658E+04  0.12699999809E+01 0.  1.
</event>
<event>
 5   0  0.3701250E-08  0.3919355E+04  0.7818609E-02  0.8021016E-01
       -1   -1    0    0    0  501  0.00000000000E+00  0.00000000000E+00  0.30707484385E+04  0.30707484385E+04  0.50400001928E-02 0. -1.
        1   -1    0    0  501    0  0.00000000000E+00  0.00000000000E+00 -0.12506191421E+04  0.12506191421E+04  0.50400001928E-02 0.  1.
    10030    2    1    2    0    0  0.00000000000E+00  0.00000000000E+00  0.18201292964E+04  0.43213675806E+04  0.39193554458E+04 0.  0.
        3    1    3    3  502    0  0.57947408931E+03 -0.52542547638E+03 -0.10710300976E+04  0.13262607706E+04  0.10100000352E+00 0.  1.
       -3    1    3    3    0  502 -0.57947408931E+03  0.52542547638E+03  0.28911593940E+04  0.29951068100E+04  0.10100000352E+00 0. -1.
</event>
<event>
 5   0  0.1174870E-07  0.3805386E+04  0.7818609E-02  0.8045000E-01
        2   -1    0    0  501    0  0.00000000000E+00  0.00000000000E+00  0.32104620519E+04  0.32104620519E+04  0.25500000920E-02 0.  1.
       -2   -1    0    0    0  501  0.00000000000E+00  0.00000000000E+00 -0.11276384493E+04  0.11276384493E+04  0.25500000920E-02 0. -1.
    10030    2    1    2    0    0  0.00000000000E+00  0.00000000000E+00  0.20828236026E+04  0.43381005012E+04  0.38053858935E+04 0.  0.
        5    1    3    3  502    0 -0.62744740995E+02  0.95458798107E+03 -0.83353094840E+03  0.12688463453E+04  0.46999998093E+01 0. -1.
       -5    1    3    3    0  502  0.62744740995E+02 -0.95458798107E+03  0.29163545510E+04  0.30692541558E+04  0.46999998093E+01 0.  1.
</event>
<event>
 5   0  0.1150235E-07  0.3814949E+04  0.7818609E-02  0.8042954E-01
        2   -1    0    0  501    0  0.00000000000E+00  0.00000000000E+00  0.25056287674E+04  0.25056287674E+04  0.25500000920E-02 0.  1.
       -2   -1    0    0    0  501  0.00000000000E+00  0.00000000000E+00 -0.14521143377E+04  0.14521143377E+04  0.25500000920E-02 0. -1.
    10030    2    1    2    0    0  0.00000000000E+00  0.00000000000E+00  0.10535144297E+04  0.39577431051E+04  0.38149492568E+04 0.  0.
        4    1    3    3  502    0  0.94582072161E+03 -0.15917179436E+04  0.10025238201E+04  0.21055162009E+04  0.12699999809E+01 0.  1.
       -4    1    3    3    0  502 -0.94582072161E+03  0.15917179436E+04  0.50990609631E+02  0.18522269042E+04  0.12699999809E+01 0. -1.
</event>
<event>
 5   0  0.1193861E-07  0.3678998E+04  0.7818609E-02  0.8072632E-01
        2   -1    0    0  501    0  0.00000000000E+00  0.00000000000E+00  0.19046141952E+04  0.19046141952E+04  0.25500000920E-02 0.  1.
       -2   -1    0    0    0  501  0.00000000000E+00  0.00000000000E+00 -0.17766100362E+04  0.17766100362E+04  0.25500000920E-02 0. -1.
    10030    2    1    2    0    0  0.00000000000E+00  0.00000000000E+00  0.12800415907E+03  0.36812242314E+04  0.36789980670E+04 0.  0.
        3    1    3    3  502    0  0.32064559315E+03 -0.46403692246E+02 -0.17478364844E+04  0.17776105550E+04  0.10100000352E+00 0. -1.
       -3    1    3    3    0  502 -0.32064559315E+03  0.46403692246E+02  0.18758406434E+04  0.19036136764E+04  0.10100000352E+00 0.  1.
</event>
<event>
 5   0  0.1193861E-07  0.3774220E+04  0.7818609E-02  0.8051710E-01
        2   -1    0    0  501    0  0.00000000000E+00  0.00000000000E+00  0.19689023106E+04  0.19689023106E+04  0.25500000920E-02 0.  1.
       -2   -1    0    0    0  501  0.00000000000E+00  0.00000000000E+00 -0.18087156957E+04  0.18087156957E+04  0.25500000920E-02 0. -1.
    10030    2    1    2    0    0  0.00000000000E+00  0.00000000000E+00  0.16018661490E+03  0.37776180063E+04  0.37742201910E+04 0.  0.
        3    1    3    3  502    0  0.44223849379E+03 -0.83267806649E+03  0.17162688858E+04  0.19581896094E+04  0.10100000352E+00 0.  1.
       -3    1    3    3    0  502 -0.44223849379E+03  0.83267806649E+03 -0.15560822709E+04  0.18194283970E+04  0.10100000352E+00 0. -1.
</event>
<event>
 5   0  0.3701250E-08  0.3763806E+04  0.7818609E-02  0.8053967E-01
        1   -1    0    0  501    0  0.00000000000E+00  0.00000000000E+00  0.18827932135E+04  0.18827932135E+04  0.50400001928E-02 0. -1.
       -1   -1    0    0    0  501  0.00000000000E+00  0.00000000000E+00 -0.18810130273E+04  0.18810130273E+04  0.50400001928E-02 0.  1.
    10030    2    1    2    0    0  0.00000000000E+00  0.00000000000E+00  0.17801861391E+01  0.37638062408E+04  0.37638058198E+04 0.  0.
        4    1    3    3  502    0 -0.37826136827E+03  0.64320680888E+03 -0.17267559805E+04  0.18810859871E+04  0.12699999809E+01 0.  1.
       -4    1    3    3    0  502  0.37826136827E+03 -0.64320680888E+03  0.17285361666E+04  0.18827202538E+04  0.12699999809E+01 0. -1.
</event>
<event>
 5   0  0.1150235E-07  0.3797090E+04  0.7818609E-02  0.8046780E-01
       -2   -1    0    0    0  501  0.00000000000E+00  0.00000000000E+00  0.21067848147E+04  0.21067848147E+04  0.25500000920E-02 0.  1.
        2   -1    0    0  501    0  0.00000000000E+00  0.00000000000E+00 -0.17108883499E+04  0.17108883499E+04  0.25500000920E-02 0. -1.
    10030    2    1    2    0    0  0.00000000000E+00  0.00000000000E+00  0.39589646484E+03  0.38176731646E+04  0.37970902518E+04 0.  0.
        4    1    3    3  502    0 -0.33488043535E+03 -0.53037027294E+03  0.19995977420E+04  0.20956694098E+04  0.12699999809E+01 0.  1.
       -4    1    3    3    0  502  0.33488043535E+03  0.53037027294E+03 -0.16037012771E+04  0.17220037548E+04  0.12699999809E+01 0. -1.
</event>
<event>
 5   0  0.3701250E-08  0.3800342E+04  0.7818609E-02  0.8046082E-01
       -1   -1    0    0    0  501  0.00000000000E+00  0.00000000000E+00  0.15048103614E+04  0.15048103614E+04  0.50400001928E-02 0. -1.
        1   -1    0    0  501    0  0.00000000000E+00  0.00000000000E+00 -0.23994048842E+04  0.23994048842E+04  0.50400001928E-02 0.  1.
    10030    2    1    2    0    0  0.00000000000E+00  0.00000000000E+00 -0.89459452274E+03  0.39042152456E+04  0.38003417378E+04 0.  0.
        2    1    3    3  502    0  0.59358469930E+02  0.31360610822E+03 -0.23716690979E+04  0.23930496294E+04  0.25500000920E-02 0.  1.
       -2    1    3    3    0  502 -0.59358469930E+02 -0.31360610822E+03  0.14770745751E+04  0.15111656162E+04  0.25500000920E-02 0. -1.
</event>
<event>
 5   0  0.3701250E-08  0.3801349E+04  0.7818609E-02  0.8045865E-01
        1   -1    0    0  501    0  0.00000000000E+00  0.00000000000E+00  0.24837324351E+04  0.24837324351E+04  0.50400001928E-02 0. -1.
       -1   -1    0    0    0  501  0.00000000000E+00  0.00000000000E+00 -0.14544899733E+04  0.14544899733E+04  0.50400001928E-02 0.  1.
    10030    2    1    2    0    0  0.00000000000E+00  0.00000000000E+00  0.10292424618E+04  0.39382224084E+04  0.38013491937E+04 0.  0.
        1    1    3    3  502    0  0.14524489829E+04 -0.20099697059E+03 -0.73828548959E+03  0.16416678392E+04  0.50400001928E-02 0.  1.
       -1    1    3    3    0  502 -0.14524489829E+04  0.20099697059E+03  0.17675279513E+04  0.22965545691E+04  0.50400001928E-02 0. -1.
</event>
<event>
 5   0  0.3889225E-08  0.3798518E+04  0.7818609E-02  0.8046473E-01
        1   -1    0    0  501    0  0.00000000000E+00  0.00000000000E+00  0.20160253627E+04  0.20160253627E+04  0.50400001928E-02 0. -1.
       -1   -1    0    0    0  501  0.00000000000E+00  0.00000000000E+00 -0.17892557476E+04  0.17892557476E+04  0.50400001928E-02 0.  1.
    10030    2    1    2    0    0  0.00000000000E+00  0.00000000000E+00  0.22676961516E+03  0.38052811103E+04  0.37985181150E+04 0.  0.
        5    1    3    3  502    0  0.38948726266E+02  0.71133870978E+03 -0.16503301168E+04  0.17975347974E+04  0.46999998093E+01 0.  1.
       -5    1    3    3    0  502 -0.38948726266E+02 -0.71133870978E+03  0.18770997320E+04  0.20077463129E+04  0.46999998093E+01 0. -1.
</event>
<event>
 5   0  0.7858367E-08  0.3823799E+04  0.7818609E-02  0.8041067E-01
       -2   -1    0    0    0  501  0.00000000000E+00  0.00000000000E+00  0.18445516831E+04  0.18445516831E+04  0.25500000920E-02 0.  1.
        2   -1    0    0  501    0  0.00000000000E+00  0.00000000000E+00 -0.19817058241E+04  0.19817058241E+04  0.25500000920E-02 0. -1.
    10030    2    1    2    0    0  0.00000000000E+00  0.00000000000E+00 -0.13715414100E+03  0.38262575073E+04  0.38237985373E+04 0.  0.
        2    1    3    3  502    0  0.49399598681E+03  0.20008008218E+03  0.17687122617E+04  0.18472701857E+04  0.25500000920E-02 0.  1.
       -2    1    3    3    0  502 -0.49399598681E+03 -0.20008008218E+03 -0.19058664027E+04  0.19789873216E+04  0.25500000920E-02 0. -1.
</event>
<event>
 5   0  0.1150235E-07  0.3792986E+04  0.7818609E-02  0.8047662E-01
       -2   -1    0    0    0  501  0.00000000000E+00  0.00000000000E+00  0.21504587671E+04  0.21504587671E+04  0.25500000920E-02 0.  1.
        2   -1    0    0  501    0  0.00000000000E+00  0.00000000000E+00 -0.16725203786E+04  0.16725203786E+04  0.25500000920E-02 0. -1.
    10030    2    1    2    0    0  0.00000000000E+00  0.00000000000E+00  0.47793838848E+03  0.38229791457E+04  0.37929862174E+04 0.  0.
        4    1    3    3  502    0  0.84126429303E+03 -0.15310264633E+04 -0.50505281984E+03  0.18184739772E+04  0.12699999809E+01 0. -1.
       -4    1    3    3    0  502 -0.84126429303E+03  0.15310264633E+04  0.98299120832E+03  0.20045051685E+04  0.12699999809E+01 0.  1.
</event>
<event>
 5   0  0.1193861E-07  0.3789710E+04  0.7818609E-02  0.8048367E-01
       -2   -1    0    0    0  501  0.00000000000E+00  0.00000000000E+00  0.17324888077E+04  0.17324888077E+04  0.25500000920E-02 0. -1.
        2   -1    0    0  501    0  0.00000000000E+00  0.00000000000E+00 -0.20724379590E+04  0.20724379590E+04  0.25500000920E-02 0.  1.
    10030    2    1    2    0    0  0.00000000000E+00  0.00000000000E+00 -0.33994915134E+03  0.38049267667E+04  0.37897100515E+04 0.  0.
        3    1    3    3  502    0 -0.13722515677E+04  0.55873383576E+03 -0.13559107225E+04  0.20084202155E+04  0.10100000352E+00 0.  1.
       -3    1    3    3    0  502  0.13722515677E+04 -0.55873383576E+03  0.10159615712E+04  0.17965065512E+04  0.10100000352E+00 0. -1.
</event>
<event>
 5   0  0.3889225E-08  0.3639277E+04  0.7818609E-02  0.8081554E-01
        1   -1    0    0  501    0  0.00000000000E+00  0.00000000000E+00  0.10976900295E+04  0.10976900295E+04  0.50400001928E-02 0.  1.
       -1   -1    0    0    0  501  0.00000000000E+00  0.00000000000E+00 -0.30164112988E+04  0.30164112988E+04  0.50400001928E-02 0. -1.
    10030    2    1    2    0    0  0.00000000000E+00  0.00000000000E+00 -0.19187212693E+04  0.41141013282E+04  0.36392771851E+04 0.  0.
        5    1    3    3  502    0  0.17518228074E+04 -0.45212539921E+03 -0.11790390048E+04  0.21595035518E+04  0.46999998093E+01 0. -1.
       -5    1    3    3    0  502 -0.17518228074E+04  0.45212539921E+03 -0.73968226450E+03  0.19545977765E+04  0.46999998093E+01 0.  1.
</event>
<event>
 5   0  0.1174870E-07  0.3807222E+04  0.7818609E-02  0.8044607E-01
        2   -1    0    0  501    0  0.00000000000E+00  0.00000000000E+00  0.28391914138E+04  0.28391914138E+04  0.25500000920E-02 0.  1.
       -2   -1    0    0    0  501  0.00000000000E+00  0.00000000000E+00 -0.12763265997E+04  0.12763265997E+04  0.25500000920E-02 0. -1.
    10030    2    1    2    0    0  0.00000000000E+00  0.00000000000E+00  0.15628648141E+04  0.41155180135E+04  0.38072223592E+04 0.  0.
        5    1    3    3  502    0  0.12852889678E+04  0.35857013288E+03 -0.68613931067E+03  0.15004497708E+04  0.46999998093E+01 0. -1.
       -5    1    3    3    0  502 -0.12852889678E+04 -0.35857013288E+03  0.22490041248E+04  0.26150682427E+04  0.46999998093E+01 0.  1.
</event>
<event>
 5   0  0.7858367E-08  0.3806886E+04  0.7818609E-02  0.8044679E-01
       -2   -1    0    0    0  501  0.00000000000E+00  0.00000000000E+00  0.25358012741E+04  0.25358012741E+04  0.25500000920E-02 0. -1.
        2   -1    0    0  501    0  0.00000000000E+00  0.00000000000E+00 -0.14287773287E+04  0.14287773287E+04  0.25500000920E-02 0.  1.
    10030    2    1    2    0    0  0.00000000000E+00  0.00000000000E+00  0.11070239454E+04  0.39645786027E+04  0.38068860610E+04 0.  0.
        2    1    3    3  502    0 -0.51391038374E+03  0.78450637574E+03 -0.11714634034E+04  0.15006267496E+04  0.25500000920E-02 0.  1.
       -2    1    3    3    0  502  0.51391038374E+03 -0.78450637574E+03  0.22784873488E+04  0.24639518532E+04  0.25500000920E-02 0. -1.
</event>
<event>
 5   0  0.1150235E-07  0.3810433E+04  0.7818609E-02  0.8043920E-01
       -2   -1    0    0    0  501  0.00000000000E+00  0.00000000000E+00  0.12948039442E+04  0.12948039442E+04  0.25500000920E-02 0.  1.
        2   -1    0    0  501    0  0.00000000000E+00  0.00000000000E+00 -0.28033968796E+04  0.28033968796E+04  0.25500000920E-02 0. -1.
    10030    2    1    2    0    0  0.00000000000E+00  0.00000000000E+00 -0.15085929355E+04  0.40982008238E+04  0.38104326982E+04 0.  0.
        4    1    3    3  502    0 -0.45544683894E+03 -0.17095237052E+04 -0.15147626099E+04  0.23290363884E+04  0.12699999809E+01 0. -1.
       -4    1    3    3    0  502  0.45544683894E+03  0.17095237052E+04  0.61696743821E+01  0.17691644354E+04  0.12699999809E+01 0.  1.
</event>
<event>
 5   0  0.3701250E-08  0.3804267E+04  0.7818609E-02  0.8045240E-01
       -1   -1    0    0    0  501  0.00000000000E+00  0.00000000000E+00  0.11729860508E+04  0.11729860508E+04  0.50400001928E-02 0.  1.
        1   -1    0    0  501    0  0.00000000000E+00  0.00000000000E+00 -0.30845312388E+04  0.30845312388E+04  0.50400001928E-02 0. -1.
    10030    2    1    2    0    0  0.00000000000E+00  0.00000000000E+00 -0.19115451881E+04  0.42575172896E+04  0.38042671391E+04 0.  0.
        4    1    3    3  502    0 -0.18452058895E+04  0.39064193424E+03 -0.12315557740E+04  0.22525801057E+04  0.12699999809E+01 0.  1.
       -4    1    3    3    0  502  0.18452058895E+04 -0.39064193424E+03 -0.67998941407E+03  0.20049371839E+04  0.12699999809E+01 0. -1.
</event>
<event>
 5   0  0.3701250E-08  0.3817533E+04  0.7818609E-02  0.8042403E-01
        1   -1    0    0  501    0  0.00000000000E+00  0.00000000000E+00  0.21560578471E+04  0.21560578471E+04  0.50400001928E-02 0. -1.
       -1   -1    0    0    0  501  0.00000000000E+00  0.00000000000E+00 -0.16898382876E+04  0.16898382876E+04  0.50400001928E-02 0.  1.
    10030    2    1    2    0    0  0.00000000000E+00  0.00000000000E+00  0.46621955943E+03  0.38458961347E+04  0.38175327636E+04 0.  0.
        3    1    3    3  502    0  0.76404670966E+03  0.75615739860E+03  0.18221199383E+04  0.21155761546E+04  0.10100000352E+00 0. -1.
       -3    1    3    3    0  502 -0.76404670966E+03 -0.75615739860E+03 -0.13559003789E+04  0.17303199801E+04  0.10100000352E+00 0.  1.
</event>
<event>
 5   0  0.1193861E-07  0.3789060E+04  0.7818609E-02  0.8048507E-01
        2   -1    0    0  501    0  0.00000000000E+00  0.00000000000E+00  0.27605831696E+04  0.27605831696E+04  0.25500000920E-02 0. -1.
       -2   -1    0    0    0  501  0.00000000000E+00  0.00000000000E+00 -0.13001762117E+04  0.13001762117E+04  0.25500000920E-02 0.  1.
    10030    2    1    2    0    0  0.00000000000E+00  0.00000000000E+00  0.14604069579E+04  0.40607593813E+04  0.37890603413E+04 0.  0.
        3    1    3    3  502    0  0.14156680138E+04  0.26646324307E+02 -0.61879264419E+03  0.15452282351E+04  0.10100000352E+00 0.  1.
       -3    1    3    3    0  502 -0.14156680138E+04 -0.26646324307E+02  0.20791996020E+04  0.25155311462E+04  0.10100000352E+00 0. -1.
</event>
<event>
 5   0  0.1174870E-07  0.3801688E+04  0.7818609E-02  0.8045793E-01
        2   -1    0    0  501    0  0.00000000000E+00  0.00000000000E+00  0.30453236360E+04  0.30453236360E+04  0.25500000920E-02 0.  1.
       -2   -1    0    0    0  501  0.00000000000E+00  0.00000000000E+00 -0.11864773307E+04  0.11864773307E+04  0.25500000920E-02 0. -1.
    10030    2    1    2    0    0  0.00000000000E+00  0.00000000000E+00  0.18588463053E+04  0.42318009667E+04  0.38016877614E+04 0.  0.
        5    1    3    3  502    0 -0.24960516374E+03 -0.78933304644E+02 -0.11663081535E+04  0.11953367740E+04  0.46999998093E+01 0. -1.
       -5    1    3    3    0  502  0.24960516374E+03  0.78933304644E+02  0.30251544588E+04  0.30364641928E+04  0.46999998093E+01 0.  1.
</event>
<event>
 5   0  0.1174870E-07  0.3798309E+04  0.7818609E-02  0.8046518E-01
        2   -1    0    0  501    0  0.00000000000E+00  0.00000000000E+00  0.14446369724E+04  0.14446369724E+04  0.25500000920E-02 0. -1.
       -2   -1    0    0    0  501  0.00000000000E+00  0.00000000000E+00 -0.24966738658E+04  0.24966738658E+04  0.25500000920E-02 0.  1.
    10030    2    1    2    0    0  0.00000000000E+00  0.00000000000E+00 -0.10520368933E+04  0.39413108382E+04  0.37983087682E+04 0.  0.
        5    1    3    3  502    0 -0.15341817111E+04 -0.46382009042E+03 -0.15831594636E+04  0.22528334550E+04  0.46999998093E+01 0.  1.
       -5    1    3    3    0  502  0.15341817111E+04  0.46382009042E+03  0.53112257031E+03  0.16884773832E+04  0.46999998093E+01 0. -1.
</event>
<event>
 5   0  0.1150235E-07  0.3816252E+04  0.7818609E-02  0.8042676E-01
       -2   -1    0    0    0  501  0.00000000000E+00  0.00000000000E+00  0.19707956374E+04  0.19707956374E+04  0.25500000920E-02 0.  1.
        2   -1    0    0  501    0  0.00000000000E+00  0.00000000000E+00 -0.18474494772E+04  0.18474494772E+04  0.25500000920E-02 0. -1.
    10030    2    1    2    0    0  0.00000000000E+00  0.00000000000E+00  0.12334616027E+03  0.38182451146E+04  0.38162522820E+04 0.  0.
        4    1    3    3  502    0 -0.15074217499E+04 -0.11533017074E+04  0.25803711831E+03  0.19154659819E+04  0.12699999809E+01 0.  1.
       -4    1    3    3    0  502  0.15074217499E+04  0.11533017074E+04 -0.13469095804E+03  0.19027791327E+04  0.12699999809E+01 0. -1.
</event>
<event>
 5   0  0.1150235E-07  0.3797242E+04  0.7818609E-02  0.8046747E-01
       -2   -1    0    0    0  501  0.00000000000E+00  0.00000000000E+00  0.14421600457E+04  0.14421600457E+04  0.25500000920E-02 0. -1.
        2   -1    0    0  501    0  0.00000000000E+00  0.00000000000E+00 -0.24995575512E+04  0.24995575512E+04  0.25500000920E-02 0.  1.
    10030    2    1    2    0    0  0.00000000000E+00  0.00000000000E+00 -0.10573975055E+04  0.39417175969E+04  0.37972421741E+04 0.  0.
        4    1    3    3  502    0  0.89017354450E+03  0.64519720563E+03  0.10781209435E+04  0.15398164680E+04  0.12699999809E+01 0. -1.
       -4    1    3    3    0  502 -0.89017354450E+03 -0.64519720563E+03 -0.21355184490E+04  0.24019011288E+04  0.12699999809E+01 0.  1.
</event>
<event>
 5   0  0.3889225E-08  0.3794749E+04  0.7818609E-02  0.8047283E-01
        1   -1    0    0  501    0  0.00000000000E+00  0.00000000000E+00  0.20457438060E+04  0.20457438060E+04  0.50400001928E-02 0.  1.
       -1   -1    0    0    0  501  0.00000000000E+00  0.00000000000E+00 -0.17597661278E+04  0.17597661278E+04  0.50400001928E-02 0. -1.
    10030    2    1    2    0    0  0.00000000000E+00  0.00000000000E+00  0.28597767820E+03  0.38055099338E+04  0.37947493492E+04 0.  0.
        5    1    3    3  502    0 -0.12694864041E+04  0.14460374699E+03  0.15496432791E+04  0.20084626848E+04  0.46999998093E+01 0.  1.
       -5    1    3    3    0  502  0.12694864041E+04 -0.14460374699E+03 -0.12636656009E+04  0.17970472489E+04  0.46999998093E+01 0. -1.
</event>
<event>
 5   0  0.1143283E-07  0.3758488E+04  0.7818609E-02  0.8055122E-01
        2   -1    0    0  501    0  0.00000000000E+00  0.00000000000E+00  0.30396253572E+04  0.30396253572E+04  0.25500000920E-02 0.  1.
       -2   -1    0    0    0  501  0.00000000000E+00  0.00000000000E+00 -0.11618400578E+04  0.11618400578E+04  0.25500000920E-02 0. -1.
    10030    2    1    2    0    0  0.00000000000E+00  0.00000000000E+00  0.18777852994E+04  0.42014654150E+04  0.37584882603E+04 0.  0.
        1    1    3    3  502    0 -0.18226843487E+04  0.82541971648E+02  0.43577212114E+03  0.18758701324E+04  0.50400001928E-02 0. -1.
       -1    1    3    3    0  502  0.18226843487E+04 -0.82541971648E+02  0.14420131783E+04  0.23255952826E+04  0.50400001928E-02 0.  1.
</event>
<event>
 5   0  0.7858367E-08  0.3783876E+04  0.7818609E-02  0.8049624E-01
       -2   -1    0    0    0  501  0.00000000000E+00  0.00000000000E+00  0.11086749922E+04  0.11086749922E+04  0.25500000920E-02 0.  1.
        2   -1    0    0  501    0  0.00000000000E+00  0.00000000000E+00 -0.32285642758E+04  0.32285642758E+04  0.25500000920E-02 0. -1.
    10030    2    1    2    0    0  0.00000000000E+00  0.00000000000E+00 -0.21198892836E+04  0.43372392681E+04  0.37838755125E+04 0.  0.
        2    1    3    3  502    0 -0.71235266891E+03 -0.13824241473E+04  0.17506758728E+03  0.15649892997E+04  0.25500000920E-02 0. -1.
       -2    1    3    3    0  502  0.71235266891E+03  0.13824241473E+04 -0.22949568709E+04  0.27722499684E+04  0.25500000920E-02 0.  1.
</event>
<event>
 5   0  0.3701250E-08  0.3801973E+04  0.7818609E-02  0.8045732E-01
        1   -1    0    0  501    0  0.00000000000E+00  0.00000000000E+00  0.23761732053E+04  0.23761732053E+04  0.50400001928E-02 0. -1.
       -1   -1    0    0    0  501  0.00000000000E+00  0.00000000000E+00 -0.15208275498E+04  0.15208275498E+04  0.50400001928E-02 0.  1.
    10030    2    1    2    0    0  0.00000000000E+00  0.00000000000E+00  0.85534565549E+03  0.38970007552E+04  0.38019730004E+04 0.  0.
        1    1    3    3  502    0  0.62892026286E+03 -0.28428247014E+03 -0.13878674383E+04  0.15500107245E+04  0.50400001928E-02 0.  1.
       -1    1    3    3    0  502 -0.62892026286E+03  0.28428247014E+03  0.22432130938E+04  0.23469900307E+04  0.50400001928E-02 0. -1.
</event>
<event>
 5   0  0.1174870E-07  0.3804949E+04  0.7818609E-02  0.8045094E-01
        2   -1    0    0  501    0  0.00000000000E+00  0.00000000000E+00  0.17472508705E+04  0.17472508705E+04  0.25500000920E-02 0.  1.
       -2   -1    0    0    0  501  0.00000000000E+00  0.00000000000E+00 -0.20714881925E+04  0.20714881925E+04  0.25500000920E-02 0. -1.
    10030    2    1    2    0    0  0.00000000000E+00  0.00000000000E+00 -0.32423732196E+03  0.38187390630E+04  0.38049491706E+04 0.  0.
        5    1    3    3  502    0 -0.18892517656E+04  0.14512464194E+03 -0.33318893588E+03  0.19238945794E+04  0.46999998093E+01 0. -1.
       -5    1    3    3    0  502  0.18892517656E+04 -0.14512464194E+03  0.89516139164E+01  0.18948444836E+04  0.46999998093E+01 0.  1.
</event>
<event>
 5   0  0.7858367E-08  0.3795668E+04  0.7818609E-02  0.8047085E-01
        2   -1    0    0  501    0  0.00000000000E+00  0.00000000000E+00  0.30066882970E+04  0.30066882970E+04  0.25500000920E-02 0.  1.
       -2   -1    0    0    0  501  0.00000000000E+00  0.00000000000E+00 -0.11979206913E+04  0.11979206913E+04  0.25500000920E-02 0. -1.
    10030    2    1    2    0    0  0.00000000000E+00  0.00000000000E+00  0.18087676057E+04  0.42046089883E+04  0.37956681221E+04 0.  0.
        2    1    3    3  502    0  0.37606310445E+03  0.16497003081E+04  0.18565493255E+04  0.25119136058E+04  0.25500000920E-02 0. -1.
       -2    1    3    3    0  502 -0.37606310445E+03 -0.16497003081E+04 -0.47781719842E+02  0.16926953824E+04  0.25500000920E-02 0.  1.
</event>
<event>
 5   0  0.3701250E-08  0.3801886E+04  0.7818609E-02  0.8045750E-01
        1   -1    0    0  501    0  0.00000000000E+00  0.00000000000E+00  0.19606815161E+04  0.19606815161E+04  0.50400001928E-02 0.  1.
       -1   -1    0    0    0  501  0.00000000000E+00  0.00000000000E+00 -0.18430246746E+04  0.18430246747E+04  0.50400001928E-02 0. -1.
    10030    2    1    2    0    0  0.00000000000E+00  0.00000000000E+00  0.11765684145E+03  0.38037061908E+04  0.38018860653E+04 0.  0.
        1    1    3    3  502    0  0.12371830513E+04  0.90669001857E+03  0.11822532203E+04  0.19366030490E+04  0.50400001928E-02 0.  1.
       -1    1    3    3    0  502 -0.12371830513E+04 -0.90669001857E+03 -0.10645963789E+04  0.18671031418E+04  0.50400001928E-02 0. -1.
</event>
<event>
 5   0  0.1193861E-07  0.3803989E+04  0.7818609E-02  0.8045299E-01
       -2   -1    0    0    0  501  0.00000000000E+00  0.00000000000E+00  0.12445923907E+04  0.12445923907E+04  0.25500000920E-02 0.  1.
        2   -1    0    0  501    0  0.00000000000E+00  0.00000000000E+00 -0.29066412919E+04  0.29066412919E+04  0.25500000920E-02 0. -1.
    10030    2    1    2    0    0  0.00000000000E+00  0.00000000000E+00 -0.16620489011E+04  0.41512336826E+04  0.38039892925E+04 0.  0.
        3    1    3    3  502    0 -0.84091303449E+03  0.16381077393E+04 -0.13510210359E+04  0.22838103132E+04  0.10100000352E+00 0. -1.
       -3    1    3    3    0  502  0.84091303449E+03 -0.16381077393E+04 -0.31102786522E+03  0.18674233693E+04  0.10100000352E+00 0.  1.
</event>
<event>
 5   0  0.1174870E-07  0.3850139E+04  0.7818609E-02  0.8035480E-01
        2   -1    0    0  501    0  0.00000000000E+00  0.00000000000E+00  0.19076558241E+04  0.19076558241E+04  0.25500000920E-02 0. -1.
       -2   -1    0    0    0  501  0.00000000000E+00  0.00000000000E+00 -0.19426420024E+04  0.19426420024E+04  0.25500000920E-02 0.  1.
    10030    2    1    2    0    0  0.00000000000E+00  0.00000000000E+00 -0.34986178324E+02  0.38502978265E+04  0.38501388703E+04 0.  0.
        5    1    3    3  502    0 -0.49697994209E+03 -0.16852093845E+04 -0.80425964698E+03  0.19322979590E+04  0.46999998093E+01 0.  1.
       -5    1    3    3    0  502  0.49697994209E+03  0.16852093845E+04  0.76927346866E+03  0.19179998676E+04  0.46999998093E+01 0. -1.
</event>
<event>
 5   0  0.1143283E-07  0.3818490E+04  0.7818609E-02  0.8042198E-01
        2   -1    0    0  501    0  0.00000000000E+00  0.00000000000E+00  0.13073380685E+04  0.13073380685E+04  0.25500000920E-02 0. -1.
       -2   -1    0    0    0  501  0.00000000000E+00  0.00000000000E+00 -0.27882745019E+04  0.27882745019E+04  0.25500000920E-02 0.  1.
    10030    2    1    2    0    0  0.00000000000E+00  0.00000000000E+00 -0.14809364334E+04  0.40956125703E+04  0.38184904880E+04 0.  0.
        1    1    3    3  502    0 -0.36826821489E+03  0.29103323928E+03  0.12444874963E+04  0.13300642665E+04  0.50400001928E-02 0. -1.
       -1    1    3    3    0  502  0.36826821489E+03 -0.29103323928E+03 -0.27254239297E+04  0.27655483039E+04  0.50400001928E-02 0.  1.
</event>
<event>
 5   0  0.1174870E-07  0.3804347E+04  0.7818609E-02  0.8045223E-01
        2   -1    0    0  501    0  0.00000000000E+00  0.00000000000E+00  0.26360390187E+04  0.26360390187E+04  0.25500000920E-02 0. -1.
       -2   -1    0    0    0  501  0.00000000000E+00  0.00000000000E+00 -0.13726143374E+04  0.13726143374E+04  0.25500000920E-02 0.  1.
    10030    2    1    2    0    0  0.00000000000E+00  0.00000000000E+00  0.12634246813E+04  0.40086533562E+04  0.38043474874E+04 0.  0.
        5    1    3    3  502    0 -0.75754512971E+03  0.57667282261E+03  0.23669081467E+04  0.25512158734E+04  0.46999998093E+01 0. -1.
       -5    1    3    3    0  502  0.75754512971E+03 -0.57667282261E+03 -0.11034834654E+04  0.14574374828E+04  0.46999998093E+01 0.  1.
</event>
<event>
 5   0  0.3889225E-08  0.3839973E+04  0.7818609E-02  0.8037631E-01
       -1   -1    0    0    0  501  0.00000000000E+00  0.00000000000E+00  0.21305362079E+04  0.21305362079E+04  0.50400001928E-02 0. -1.
        1   -1    0    0  501    0  0.00000000000E+00  0.00000000000E+00 -0.17302443780E+04  0.17302443780E+04  0.50400001928E-02 0.  1.
    10030    2    1    2    0    0  0.00000000000E+00  0.00000000000E+00  0.40029182984E+03  0.38607805859E+04  0.38399730707E+04 0.  0.
        5    1    3    3  502    0  0.11196382794E+03 -0.18167637719E+04 -0.41403216466E+03  0.18667113395E+04  0.46999998093E+01 0.  1.
       -5    1    3    3    0  502 -0.11196382794E+03  0.18167637719E+04  0.81432399449E+03  0.19940692464E+04  0.46999998093E+01 0. -1.
</event>
<event>
 5   0  0.7858367E-08  0.3786655E+04  0.7818609E-02  0.8049025E-01
       -2   -1    0    0    0  501  0.00000000000E+00  0.00000000000E+00  0.22258813207E+04  0.22258813207E+04  0.25500000920E-02 0. -1.
        2   -1    0    0  501    0  0.00000000000E+00  0.00000000000E+00 -0.16104586871E+04  0.16104586871E+04  0.25500000920E-02 0.  1.
    10030    2    1    2    0    0  0.00000000000E+00  0.00000000000E+00  0.61542263363E+03  0.38363400078E+04  0.37866554685E+04 0.  0.
        2    1    3    3  502    0  0.43507053234E+03  0.18118709265E+04  0.64756362423E+03  0.19726888426E+04  0.25500000920E-02 0. -1.
       -2    1    3    3    0  502 -0.43507053234E+03 -0.18118709265E+04 -0.32140990598E+02  0.18636511652E+04  0.25500000920E-02 0.  1.
</event>
<event>
 5   0  0.1143283E-07  0.3795941E+04  0.7818609E-02  0.8047027E-01
        2   -1    0    0  501    0  0.00000000000E+00  0.00000000000E+00  0.25169182086E+04  0.25169182086E+04  0.25500000920E-02 0.  1.
       -2   -1    0    0    0  501  0.00000000000E+00  0.00000000000E+00 -0.14312310082E+04  0.14312310082E+04  0.25500000920E-02 0. -1.
    10030    2    1    2    0    0  0.00000000000E+00  0.00000000000E+00  0.10856872004E+04  0.39481492168E+04  0.37959406661E+04 0.  0.
        1    1    3    3  502    0  0.46204331222E+02  0.15473214753E+04  0.16850360822E+04  0.22881619668E+04  0.50400001928E-02 0.  1.
       -1    1    3    3    0  502 -0.46204331222E+02 -0.15473214753E+04 -0.59934888172E+03  0.16599872500E+04  0.50400001928E-02 0. -1.
</event>
<event>
 5   0  0.3701250E-08  0.3806864E+04  0.7818609E-02  0.8044683E-01
        1   -1    0    0  501    0  0.00000000000E+00  0.00000000000E+00  0.24825426923E+04  0.24825426923E+04  0.50400001928E-02 0.  1.
       -1   -1    0    0    0  501  0.00000000000E+00  0.00000000000E+00 -0.14594125798E+04  0.14594125798E+04  0.50400001928E-02 0. -1.
    10030    2    1    2    0    0  0.00000000000E+00  0.00000000000E+00  0.10231301125E+04  0.39419552722E+04  0.38068643449E+04 0.  0.
        2    1    3    3  502    0  0.15825787037E+04 -0.60114801186E+03 -0.38943865193E+03  0.17371231244E+04  0.25500000920E-02 0. -1.
       -2    1    3    3    0  502 -0.15825787037E+04  0.60114801186E+03  0.14125687644E+04  0.22048321478E+04  0.25500000920E-02 0.  1.
</event>
<event>
 5   0  0.3701250E-08  0.3797153E+04  0.7818609E-02  0.8046766E-01
        1   -1    0    0  501    0  0.00000000000E+00  0.00000000000E+00  0.20029718240E+04  0.20029718240E+04  0.50400001928E-02 0.  1.
       -1   -1    0    0    0  501  0.00000000000E+00  0.00000000000E+00 -0.17996227252E+04  0.17996227252E+04  0.50400001928E-02 0. -1.
    10030    2    1    2    0    0  0.00000000000E+00  0.00000000000E+00  0.20334909885E+03  0.38025945492E+04  0.37971534667E+04 0.  0.
        1    1    3    3  502    0 -0.12795469789E+04 -0.13176193789E+04  0.58322981235E+03  0.19270491205E+04  0.50400001928E-02 0.  1.
       -1    1    3    3    0  502  0.12795469789E+04  0.13176193789E+04 -0.37988071351E+03  0.18755454287E+04  0.50400001928E-02 0. -1.
</event>
<event>
 5   0  0.7858367E-08  0.3791257E+04  0.7818609E-02  0.8048034E-01
       -2   -1    0    0    0  501  0.00000000000E+00  0.00000000000E+00  0.15620313667E+04  0.15620313667E+04  0.25500000920E-02 0. -1.
        2   -1    0    0  501    0  0.00000000000E+00  0.00000000000E+00 -0.23004702570E+04  0.23004702570E+04  0.25500000920E-02 0.  1.
    10030    2    1    2    0    0  0.00000000000E+00  0.00000000000E+00 -0.73843889024E+03  0.38625016237E+04  0.37912566252E+04 0.  0.
        2    1    3    3  502    0 -0.72655861253E+03  0.56695826028E+03  0.13184356237E+04  0.16086023685E+04  0.25500000920E-02 0. -1.
       -2    1    3    3    0  502  0.72655861253E+03 -0.56695826028E+03 -0.20568745139E+04  0.22538992551E+04  0.25500000920E-02 0.  1.
</event>
<event>
 5   0  0.3701250E-08  0.3788030E+04  0.7818609E-02  0.8048728E-01
       -1   -1    0    0    0  501  0.00000000000E+00  0.00000000000E+00  0.27282485319E+04  0.27282485319E+04  0.50400001928E-02 0. -1.
        1   -1    0    0  501    0  0.00000000000E+00  0.00000000000E+00 -0.13148705185E+04  0.13148705185E+04  0.50400001928E-02 0.  1.
    10030    2    1    2    0    0  0.00000000000E+00  0.00000000000E+00  0.14133780134E+04  0.40431190504E+04  0.37880303915E+04 0.  0.
        1    1    3    3  502    0 -0.91095167358E+03  0.77377436070E+03  0.22748932526E+04  0.25697663363E+04  0.50400001928E-02 0. -1.
       -1    1    3    3    0  502  0.91095167358E+03 -0.77377436070E+03 -0.86151523913E+03  0.14733527141E+04  0.50400001928E-02 0.  1.
</event>
<event>
 5   0  0.3701250E-08  0.3794359E+04  0.7818609E-02  0.8047367E-01
       -1   -1    0    0    0  501  0.00000000000E+00  0.00000000000E+00  0.10999070490E+04  0.10999070490E+04  0.50400001928E-02 0.  1.
        1   -1    0    0  501    0  0.00000000000E+00  0.00000000000E+00 -0.32723578974E+04  0.32723578974E+04  0.50400001928E-02 0. -1.
    10030    2    1    2    0    0  0.00000000000E+00  0.00000000000E+00 -0.21724508484E+04  0.43722649465E+04  0.37943587170E+04 0.  0.
        4    1    3    3  502    0  0.27932811446E+03  0.13867206181E+04  0.37055168665E+03  0.14623024425E+04  0.12699999809E+01 0.  1.
       -4    1    3    3    0  502 -0.27932811446E+03 -0.13867206181E+04 -0.25430025350E+04  0.29099625039E+04  0.12699999809E+01 0. -1.
</event>
<event>
 5   0  0.3701250E-08  0.3774874E+04  0.7818609E-02  0.8051568E-01
        1   -1    0    0  501    0  0.00000000000E+00  0.00000000000E+00  0.12095066582E+04  0.12095066582E+04  0.50400001928E-02 0. -1.
       -1   -1    0    0    0  501  0.00000000000E+00  0.00000000000E+00 -0.29453479973E+04  0.29453479973E+04  0.50400001928E-02 0.  1.
    10030    2    1    2    0    0  0.00000000000E+00  0.00000000000E+00 -0.17358413391E+04  0.41548546555E+04  0.37748737798E+04 0.  0.
        2    1    3    3  502    0  0.30006619069E+03  0.85859493206E+03  0.95239787015E+03  0.13169231865E+04  0.25500000920E-02 0. -1.
       -2    1    3    3    0  502 -0.30006619069E+03 -0.85859493206E+03 -0.26882392093E+04  0.28379314689E+04  0.25500000920E-02 0.  1.
</event>
<event>
 5   0  0.1150235E-07  0.3798683E+04  0.7818609E-02  0.8046437E-01
       -2   -1    0    0    0  501  0.00000000000E+00  0.00000000000E+00  0.12767701941E+04  0.12767701941E+04  0.25500000920E-02 0.  1.
        2   -1    0    0  501    0  0.00000000000E+00  0.00000000000E+00 -0.28254879041E+04  0.28254879041E+04  0.25500000920E-02 0. -1.
    10030    2    1    2    0    0  0.00000000000E+00  0.00000000000E+00 -0.15487177100E+04  0.41022580983E+04  0.37986833192E+04 0.  0.
        4    1    3    3  502    0 -0.79174821864E+03 -0.53568162654E+03  0.99804488114E+03  0.13819968323E+04  0.12699999809E+01 0.  1.
       -4    1    3    3    0  502  0.79174821864E+03  0.53568162654E+03 -0.25467625911E+04  0.27202612660E+04  0.12699999809E+01 0. -1.
</event>
<event>
 5   0  0.1174870E-07  0.3791832E+04  0.7818609E-02  0.8047910E-01
       -2   -1    0    0    0  501  0.00000000000E+00  0.00000000000E+00  0.20618573287E+04  0.20618573287E+04  0.25500000920E-02 0.  1.
        2   -1    0    0  501    0  0.00000000000E+00  0.00000000000E+00 -0.17433294642E+04  0.17433294642E+04  0.25500000920E-02 0. -1.
    10030    2    1    2    0    0  0.00000000000E+00  0.00000000000E+00  0.31852786442E+03  0.38051867929E+04  0.37918315533E+04 0.  0.
        5    1    3    3  502    0 -0.80933951728E+03  0.80171290565E+03  0.16800885275E+04  0.20298998959E+04  0.46999998093E+01 0.  1.
       -5    1    3    3    0  502  0.80933951728E+03 -0.80171290565E+03 -0.13615606631E+04  0.17752868970E+04  0.46999998093E+01 0. -1.
</event>
<event>
 5   0  0.1150235E-07  0.3786957E+04  0.7818609E-02  0.8048960E-01
        2   -1    0    0  501    0  0.00000000000E+00  0.00000000000E+00  0.26685452390E+04  0.26685452390E+04  0.25500000920E-02 0.  1.
       -2   -1    0    0    0  501  0.00000000000E+00  0.00000000000E+00 -0.13435266956E+04  0.13435266956E+04  0.25500000920E-02 0. -1.
    10030    2    1    2    0    0  0.00000000000E+00  0.00000000000E+00  0.13250185434E+04  0.40120719346E+04  0.37869574949E+04 0.  0.
        4    1    3    3  502    0 -0.11762149230E+03 -0.16058798605E+04  0.17180135383E+04  0.23546246139E+04  0.12699999809E+01 0. -1.
       -4    1    3    3    0  502  0.11762149230E+03  0.16058798605E+04 -0.39299499490E+03  0.16574473206E+04  0.12699999809E+01 0.  1.
</event>
<event>
 5   0  0.1150235E-07  0.3797552E+04  0.7818609E-02  0.8046680E-01
       -2   -1    0    0    0  501  0.00000000000E+00  0.00000000000E+00  0.13493389898E+04  0.13493389898E+04  0.25500000920E-02 0.  1.
        2   -1    0    0  501    0  0.00000000000E+00  0.00000000000E+00 -0.26719378252E+04  0.26719378252E+04  0.25500000920E-02 0. -1.
    10030    2    1    2    0    0  0.00000000000E+00  0.00000000000E+00 -0.13225988354E+04  0.40212768150E+04  0.37975517829E+04 0.  0.
        4    1    3    3  502    0  0.66611610516E+03  0.51037572890E+03  0.11423232027E+04  0.14174265281E+04  0.12699999809E+01 0.  1.
       -4    1    3    3    0  502 -0.66611610516E+03 -0.51037572890E+03 -0.24649220381E+04  0.26038502870E+04  0.12699999809E+01 0. -1.
</event>
<event>
 5   0  0.1174870E-07  0.3802634E+04  0.7818609E-02  0.8045590E-01
       -2   -1    0    0    0  501  0.00000000000E+00  0.00000000000E+00  0.26237973883E+04  0.26237973883E+04  0.25500000920E-02 0. -1.
        2   -1    0    0  501    0  0.00000000000E+00  0.00000000000E+00 -0.13777762225E+04  0.13777762225E+04  0.25500000920E-02 0.  1.
    10030    2    1    2    0    0  0.00000000000E+00  0.00000000000E+00  0.12460211658E+04  0.40015736108E+04  0.38026336422E+04 0.  0.
        5    1    3    3  502    0  0.63444509437E+03  0.31723870390E+02 -0.12627968870E+04  0.14135788091E+04  0.46999998093E+01 0.  1.
       -5    1    3    3    0  502 -0.63444509437E+03 -0.31723870390E+02  0.25088180528E+04  0.25879948017E+04  0.46999998093E+01 0. -1.
</event>
<event>
 5   0  0.1143283E-07  0.3781300E+04  0.7818609E-02  0.8050180E-01
       -2   -1    0    0    0  501  0.00000000000E+00  0.00000000000E+00  0.31802622089E+04  0.31802622089E+04  0.25500000920E-02 0.  1.
        2   -1    0    0  501    0  0.00000000000E+00  0.00000000000E+00 -0.11239817227E+04  0.11239817227E+04  0.25500000920E-02 0. -1.
    10030    2    1    2    0    0  0.00000000000E+00  0.00000000000E+00  0.20562804862E+04  0.43042439315E+04  0.37812995629E+04 0.  0.
        1    1    3    3  502    0 -0.90819859297E+02 -0.16814248149E+04  0.49522789211E+02  0.16846038590E+04  0.50400001928E-02 0. -1.
       -1    1    3    3    0  502  0.90819859297E+02  0.16814248149E+04  0.20067576970E+04  0.26196400725E+04  0.50400001928E-02 0.  1.
</event>
<event>
 5   0  0.1150235E-07  0.3811071E+04  0.7818609E-02  0.8043783E-01
       -2   -1    0    0    0  501  0.00000000000E+00  0.00000000000E+00  0.15159372710E+04  0.15159372710E+04  0.25500000920E-02 0. -1.
        2   -1    0    0  501    0  0.00000000000E+00  0.00000000000E+00 -0.23952608892E+04  0.23952608892E+04  0.25500000920E-02 0.  1.
    10030    2    1    2    0    0  0.00000000000E+00  0.00000000000E+00 -0.87932361816E+03  0.39111981602E+04  0.38110708499E+04 0.  0.
        4    1    3    3  502    0 -0.29025842825E+03  0.13532105514E+04  0.90457329413E+03  0.16533853783E+04  0.12699999809E+01 0. -1.
       -4    1    3    3    0  502  0.29025842825E+03 -0.13532105514E+04 -0.17838969123E+04  0.22578127819E+04  0.12699999809E+01 0.  1.
</event>
<event>
 5   0  0.3701250E-08  0.3806978E+04  0.7818609E-02  0.8044659E-01
       -1   -1    0    0    0  501  0.00000000000E+00  0.00000000000E+00  0.27688983123E+04  0.27688983123E+04  0.50400001928E-02 0. -1.
        1   -1    0    0  501    0  0.00000000000E+00  0.00000000000E+00 -0.13085601623E+04  0.13085601623E+04  0.50400001928E-02 0.  1.
    10030    2    1    2    0    0  0.00000000000E+00  0.00000000000E+00  0.14603381499E+04  0.40774584746E+04  0.38069778171E+04 0.  0.
        1    1    3    3  502    0  0.51057410943E+03  0.15256544430E+04 -0.35944206265E+03  0.16484859711E+04  0.50400001928E-02 0.  1.
       -1    1    3    3    0  502 -0.51057410943E+03 -0.15256544430E+04  0.18197802126E+04  0.24289725035E+04  0.50400001928E-02 0. -1.
</event>
<event>
 5   0  0.3701250E-08  0.3630427E+04  0.7818609E-02  0.8083557E-01
       -1   -1    0    0    0  501  0.00000000000E+00  0.00000000000E+00  0.13885079131E+04  0.13885079131E+04  0.50400001928E-02 0.  1.
        1   -1    0    0  501    0  0.00000000000E+00  0.00000000000E+00 -0.23730516011E+04  0.23730516011E+04  0.50400001928E-02 0. -1.
    10030    2    1    2    0    0  0.00000000000E+00  0.00000000000E+00 -0.98454368795E+03  0.37615595142E+04  0.36304274825E+04 0.  0.
        2    1    3    3  502    0  0.10567024621E+03  0.14129609765E+04 -0.16678807738E+04  0.21884814822E+04  0.25500000920E-02 0. -1.
       -2    1    3    3    0  502 -0.10567024621E+03 -0.14129609765E+04  0.68333708587E+03  0.15730780321E+04  0.25500000920E-02 0.  1.
</event>
<event>
 5   0  0.3701250E-08  0.3781896E+04  0.7818609E-02  0.8050051E-01
        1   -1    0    0  501    0  0.00000000000E+00  0.00000000000E+00  0.11599180350E+04  0.11599180350E+04  0.50400001928E-02 0.  1.
       -1   -1    0    0    0  501  0.00000000000E+00  0.00000000000E+00 -0.30827045448E+04  0.30827045448E+04  0.50400001928E-02 0. -1.
    10030    2    1    2    0    0  0.00000000000E+00  0.00000000000E+00 -0.19227865098E+04  0.42426225798E+04  0.37818961372E+04 0.  0.
        3    1    3    3  502    0 -0.39399247573E+03  0.16677798302E+04 -0.18581266035E+04  0.25277171752E+04  0.10100000352E+00 0. -1.
       -3    1    3    3    0  502  0.39399247573E+03 -0.16677798302E+04 -0.64659906305E+02  0.17149054046E+04  0.10100000352E+00 0.  1.
</event>
<event>
 5   0  0.1150235E-07  0.3795096E+04  0.7818609E-02  0.8047208E-01
       -2   -1    0    0    0  501  0.00000000000E+00  0.00000000000E+00  0.11430796023E+04  0.11430796023E+04  0.25500000920E-02 0.  1.
        2   -1    0    0  501    0  0.00000000000E+00  0.00000000000E+00 -0.31499898202E+04  0.31499898202E+04  0.25500000920E-02 0. -1.
    10030    2    1    2    0    0  0.00000000000E+00  0.00000000000E+00 -0.20069102179E+04  0.42930694226E+04  0.37950963682E+04 0.  0.
        4    1    3    3  502    0  0.41625268185E+03 -0.77400847682E+03  0.89898197462E+03  0.12571895724E+04  0.12699999809E+01 0.  1.
       -4    1    3    3    0  502 -0.41625268185E+03  0.77400847682E+03 -0.29058921925E+04  0.30358798502E+04  0.12699999809E+01 0. -1.
</event>
<event>
 5   0  0.3701250E-08  0.3673671E+04  0.7818609E-02  0.8073822E-01
        1   -1    0    0  501    0  0.00000000000E+00  0.00000000000E+00  0.21767742194E+04  0.21767742194E+04  0.50400001928E-02 0.  1.
       -1   -1    0    0    0  501  0.00000000000E+00  0.00000000000E+00 -0.15499841266E+04  0.15499841267E+04  0.50400001928E-02 0. -1.
    10030    2    1    2    0    0  0.00000000000E+00  0.00000000000E+00  0.62679009274E+03  0.37267583460E+04  0.36736714537E+04 0.  0.
        4    1    3    3  502    0  0.12650219941E+04  0.10457061284E+04  0.11500443649E+04  0.20040922151E+04  0.12699999809E+01 0.  1.
       -4    1    3    3    0  502 -0.12650219941E+04 -0.10457061284E+04 -0.52325427214E+03  0.17226661310E+04  0.12699999809E+01 0. -1.
</event>
<event>
 5   0  0.3889225E-08  0.3619790E+04  0.7818609E-02  0.8085974E-01
        1   -1    0    0  501    0  0.00000000000E+00  0.00000000000E+00  0.10323559639E+04  0.10323559639E+04  0.50400001928E-02 0. -1.
       -1   -1    0    0    0  501  0.00000000000E+00  0.00000000000E+00 -0.31730520145E+04  0.31730520145E+04  0.50400001928E-02 0.  1.
    10030    2    1    2    0    0  0.00000000000E+00  0.00000000000E+00 -0.21406960506E+04  0.42054079784E+04  0.36197895911E+04 0.  0.
        5    1    3    3  502    0  0.67778525822E+03  0.80414531978E+03  0.64092813830E+03  0.12316060734E+04  0.46999998093E+01 0. -1.
       -5    1    3    3    0  502 -0.67778525822E+03 -0.80414531978E+03 -0.27816241890E+04  0.29738019050E+04  0.46999998093E+01 0.  1.
</event>
<event>
 5   0  0.3701250E-08  0.3799422E+04  0.7818609E-02  0.8046279E-01
       -1   -1    0    0    0  501  0.00000000000E+00  0.00000000000E+00  0.11606254891E+04  0.11606254891E+04  0.50400001928E-02 0. -1.
        1   -1    0    0  501    0  0.00000000000E+00  0.00000000000E+00 -0.31094459655E+04  0.31094459655E+04  0.50400001928E-02 0.  1.
    10030    2    1    2    0    0  0.00000000000E+00  0.00000000000E+00 -0.19488204764E+04  0.42700714547E+04  0.37994221901E+04 0.  0.
        4    1    3    3  502    0  0.13876245283E+03 -0.21964750245E+03 -0.30893846393E+04  0.31002901648E+04  0.12699999809E+01 0.  1.
       -4    1    3    3    0  502 -0.13876245283E+03  0.21964750245E+03  0.11405641629E+04  0.11697812899E+04  0.12699999809E+01 0. -1.
</event>
<event>
 5   0  0.3701250E-08  0.3808250E+04  0.7818609E-02  0.8044387E-01
        1   -1    0    0  501    0  0.00000000000E+00  0.00000000000E+00  0.33904189229E+04  0.33904189229E+04  0.50400001928E-02 0.  1.
       -1   -1    0    0    0  501  0.00000000000E+00  0.00000000000E+00 -0.10693932626E+04  0.10693932626E+04  0.50400001928E-02 0. -1.
    10030    2    1    2    0    0  0.00000000000E+00  0.00000000000E+00  0.23210256603E+04  0.44598121856E+04  0.38082495473E+04 0.  0.
        2    1    3    3  502    0 -0.11939457778E+04 -0.31697791379E+03 -0.53644398859E+03  0.13467567231E+04  0.25500000920E-02 0. -1.
       -2    1    3    3    0  502  0.11939457778E+04  0.31697791379E+03  0.28574696489E+04  0.31130554625E+04  0.25500000920E-02 0.  1.
</event>
<event>
 5   0  0.1193861E-07  0.3803307E+04  0.7818609E-02  0.8045446E-01
       -2   -1    0    0    0  501  0.00000000000E+00  0.00000000000E+00  0.21866836983E+04  0.21866836983E+04  0.25500000920E-02 0.  1.
        2   -1    0    0  501    0  0.00000000000E+00  0.00000000000E+00 -0.16537762287E+04  0.16537762287E+04  0.25500000920E-02 0. -1.
    10030    2    1    2    0    0  0.00000000000E+00  0.00000000000E+00  0.53290746964E+03  0.38404599269E+04  0.38033067296E+04 0.  0.
        3    1    3    3  502    0 -0.74780921068E+03 -0.98038156838E+03 -0.11954174990E+04  0.17173787126E+04  0.10100000352E+00 0. -1.
       -3    1    3    3    0  502  0.74780921068E+03  0.98038156838E+03  0.17283249687E+04  0.21230812144E+04  0.10100000352E+00 0.  1.
</event>
<event>
 5   0  0.1150235E-07  0.3792245E+04  0.7818609E-02  0.8047821E-01
        2   -1    0    0  501    0  0.00000000000E+00  0.00000000000E+00  0.10741984083E+04  0.10741984083E+04  0.25500000920E-02 0.  1.
       -2   -1    0    0    0  501  0.00000000000E+00  0.00000000000E+00 -0.33469432578E+04  0.33469432578E+04  0.25500000920E-02 0. -1.
    10030    2    1    2    0    0  0.00000000000E+00  0.00000000000E+00 -0.22727448495E+04  0.44211416660E+04  0.37922453085E+04 0.  0.
        4    1    3    3  502    0 -0.10770583850E+04 -0.11288246279E+03  0.67817496089E+03  0.12777793650E+04  0.12699999809E+01 0.  1.
       -4    1    3    3    0  502  0.10770583850E+04  0.11288246279E+03 -0.29509198104E+04  0.31433623010E+04  0.12699999809E+01 0. -1.
</event>
<event>
 5   0  0.3701250E-08  0.3778939E+04  0.7818609E-02  0.8050690E-01
       -1   -1    0    0    0  501  0.00000000000E+00  0.00000000000E+00  0.14453349368E+04  0.14453349368E+04  0.50400001928E-02 0.  1.
        1   -1    0    0  501    0  0.00000000000E+00  0.00000000000E+00 -0.24700810455E+04  0.24700810455E+04  0.50400001928E-02 0. -1.
    10030    2    1    2    0    0  0.00000000000E+00  0.00000000000E+00 -0.10247461087E+04  0.39154159822E+04  0.37789387037E+04 0.  0.
        3    1    3    3  502    0  0.18008420884E+03  0.64896924094E+03  0.13167454276E+04  0.14789894960E+04  0.10100000352E+00 0.  1.
       -3    1    3    3    0  502 -0.18008420884E+03 -0.64896924094E+03 -0.23414915363E+04  0.24364264862E+04  0.10100000352E+00 0. -1.
</event>
<event>
 5   0  0.1174870E-07  0.3798202E+04  0.7818609E-02  0.8046541E-01
       -2   -1    0    0    0  501  0.00000000000E+00  0.00000000000E+00  0.18668318479E+04  0.18668318479E+04  0.25500000920E-02 0. -1.
        2   -1    0    0  501    0  0.00000000000E+00  0.00000000000E+00 -0.19319277279E+04  0.19319277279E+04  0.25500000920E-02 0.  1.
    10030    2    1    2    0    0  0.00000000000E+00  0.00000000000E+00 -0.65095879991E+02  0.37987595757E+04  0.37982017904E+04 0.  0.
        5    1    3    3  502    0  0.51634524265E+03 -0.74339189689E+03 -0.17023194579E+04  0.19279931402E+04  0.46999998093E+01 0.  1.
       -5    1    3    3    0  502 -0.51634524265E+03  0.74339189689E+03  0.16372235779E+04  0.18707664355E+04  0.46999998093E+01 0. -1.
</event>
<event>
 5   0  0.7858367E-08  0.3805033E+04  0.7818609E-02  0.8045076E-01
       -2   -1    0    0    0  501  0.00000000000E+00  0.00000000000E+00  0.12962847098E+04  0.12962847098E+04  0.25500000920E-02 0.  1.
        2   -1    0    0  501    0  0.00000000000E+00  0.00000000000E+00 -0.27922632784E+04  0.27922632784E+04  0.25500000920E-02 0. -1.
    10030    2    1    2    0    0  0.00000000000E+00  0.00000000000E+00 -0.14959785686E+04  0.40885479882E+04  0.38050325589E+04 0.  0.
        2    1    3    3  502    0 -0.96560187059E+03  0.53782132065E+03  0.91591723298E+03  0.14354592029E+04  0.25500000920E-02 0.  1.
       -2    1    3    3    0  502  0.96560187059E+03 -0.53782132065E+03 -0.24118958016E+04  0.26530887854E+04  0.25500000920E-02 0. -1.
</event>
<event>
 5   0  0.3701250E-08  0.3809352E+04  0.7818609E-02  0.8044151E-01
        1   -1    0    0  501    0  0.00000000000E+00  0.00000000000E+00  0.18286464337E+04  0.18286464337E+04  0.50400001928E-02 0.  1.
       -1   -1    0    0    0  501  0.00000000000E+00  0.00000000000E+00 -0.19838670245E+04  0.19838670245E+04  0.50400001928E-02 0. -1.
    10030    2    1    2    0    0  0.00000000000E+00  0.00000000000E+00 -0.15522059083E+03  0.38125134582E+04  0.38093523645E+04 0.  0.
        4    1    3    3  502    0  0.34364234776E+03  0.89936574875E+03 -0.17223975888E+04  0.19732217007E+04  0.12699999809E+01 0. -1.
       -4    1    3    3    0  502 -0.34364234776E+03 -0.89936574875E+03  0.15671769980E+04  0.18392917575E+04  0.12699999809E+01 0.  1.
</event>
<event>
 5   0  0.1150235E-07  0.3799615E+04  0.7818609E-02  0.8046237E-01
        2   -1    0    0  501    0  0.00000000000E+00  0.00000000000E+00  0.16484864724E+04  0.16484864724E+04  0.25500000920E-02 0.  1.
       -2   -1    0    0    0  501  0.00000000000E+00  0.00000000000E+00 -0.21894439282E+04  0.21894439282E+04  0.25500000920E-02 0. -1.
    10030    2    1    2    0    0  0.00000000000E+00  0.00000000000E+00 -0.54095745581E+03  0.38379304006E+04  0.37996150846E+04 0.  0.
        4    1    3    3  502    0  0.77018546338E+03 -0.82951373674E+03  0.12706818707E+04  0.17017381458E+04  0.12699999809E+01 0.  1.
       -4    1    3    3    0  502 -0.77018546338E+03  0.82951373674E+03 -0.18116393265E+04  0.21361922548E+04  0.12699999809E+01 0. -1.
</event>
<event>
 5   0  0.3701250E-08  0.3839487E+04  0.7818609E-02  0.8037734E-01
       -1   -1    0    0    0  501  0.00000000000E+00  0.00000000000E+00  0.17195545086E+04  0.17195545086E+04  0.50400001928E-02 0.  1.
        1   -1    0    0  501    0  0.00000000000E+00  0.00000000000E+00 -0.21432382313E+04  0.21432382313E+04  0.50400001928E-02 0. -1.
    10030    2    1    2    0    0  0.00000000000E+00  0.00000000000E+00 -0.42368372271E+03  0.38627927398E+04  0.38394869259E+04 0.  0.
        4    1    3    3  502    0 -0.16861253783E+04 -0.52210462061E+03  0.54759197048E+03  0.18480991871E+04  0.12699999809E+01 0.  1.
       -4    1    3    3    0  502  0.16861253783E+04  0.52210462061E+03 -0.97127569319E+03  0.20146935527E+04  0.12699999809E+01 0. -1.
</event>
<event>
 5   0  0.3701250E-08  0.3799142E+04  0.7818609E-02  0.8046339E-01
       -1   -1    0    0    0  501  0.00000000000E+00  0.00000000000E+00  0.28304901095E+04  0.28304901095E+04  0.50400001928E-02 0. -1.
        1   -1    0    0  501    0  0.00000000000E+00  0.00000000000E+00 -0.12748218800E+04  0.12748218800E+04  0.50400001928E-02 0.  1.
    10030    2    1    2    0    0  0.00000000000E+00  0.00000000000E+00  0.15556682295E+04  0.41053119896E+04  0.37991423889E+04 0.  0.
        1    1    3    3  502    0  0.76540882125E+03 -0.75021230765E+03  0.24725691368E+04  0.26948594224E+04  0.50400001928E-02 0. -1.
       -1    1    3    3    0  502 -0.76540882125E+03  0.75021230765E+03 -0.91690090733E+03  0.14104525671E+04  0.50400001928E-02 0.  1.
</event>
<event>
 5   0  0.1193861E-07  0.3721613E+04  0.7818609E-02  0.8063189E-01
       -2   -1    0    0    0  501  0.00000000000E+00  0.00000000000E+00  0.18172030716E+04  0.18172030716E+04  0.25500000920E-02 0.  1.
        2   -1    0    0  501    0  0.00000000000E+00  0.00000000000E+00 -0.19054559200E+04  0.19054559200E+04  0.25500000920E-02 0. -1.
    10030    2    1    2    0    0  0.00000000000E+00  0.00000000000E+00 -0.88252848372E+02  0.37226589915E+04  0.37216127421E+04 0.  0.
        3    1    3    3  502    0 -0.27501630995E+03 -0.43719277818E+02 -0.18844955527E+04  0.19049590138E+04  0.10100000352E+00 0. -1.
       -3    1    3    3    0  502  0.27501630995E+03  0.43719277818E+02  0.17962427043E+04  0.18176999777E+04  0.10100000352E+00 0.  1.
</event>
<event>
 5   0  0.3889225E-08  0.3845811E+04  0.7818609E-02  0.8036395E-01
       -1   -1    0    0    0  501  0.00000000000E+00  0.00000000000E+00  0.19973731770E+04  0.19973731770E+04  0.50400001928E-02 0. -1.
        1   -1    0    0  501    0  0.00000000000E+00  0.00000000000E+00 -0.18512142237E+04  0.18512142237E+04  0.50400001928E-02 0.  1.
    10030    2    1    2    0    0  0.00000000000E+00  0.00000000000E+00  0.14615895329E+03  0.38485874007E+04  0.38458110382E+04 0.  0.
        5    1    3    3  502    0 -0.76315022389E+03 -0.16069070405E+04 -0.65751266694E+03  0.18965477843E+04  0.46999998093E+01 0. -1.
       -5    1    3    3    0  502  0.76315022389E+03  0.16069070405E+04  0.80367162024E+03  0.19520396164E+04  0.46999998093E+01 0.  1.
</event>
<event>
 5   0  0.1143283E-07  0.3816575E+04  0.7818609E-02  0.8042607E-01
        2   -1    0    0  501    0  0.00000000000E+00  0.00000000000E+00  0.23265652796E+04  0.23265652796E+04  0.25500000920E-02 0.  1.
       -2   -1    0    0    0  501  0.00000000000E+00  0.00000000000E+00 -0.15652088088E+04  0.15652088088E+04  0.25500000920E-02 0. -1.
    10030    2    1    2    0    0  0.00000000000E+00  0.00000000000E+00  0.76135647088E+03  0.38917740884E+04  0.38165746265E+04 0.  0.
        1    1    3    3  502    0  0.14993203252E+04 -0.57203133977E+03  0.14336814376E+04  0.21518884162E+04  0.50400001928E-02 0.  1.
       -1    1    3    3    0  502 -0.14993203252E+04  0.57203133977E+03 -0.67232496676E+03  0.17398856722E+04  0.50400001928E-02 0. -1.
</event>
<event>
 5   0  0.7858367E-08  0.3944627E+04  0.7818609E-02  0.8015811E-01
        2   -1    0    0  501    0  0.00000000000E+00  0.00000000000E+00  0.25919328768E+04  0.25919328768E+04  0.25500000920E-02 0. -1.
       -2   -1    0    0    0  501  0.00000000000E+00  0.00000000000E+00 -0.15008184187E+04  0.15008184187E+04  0.25500000920E-02 0.  1.
    10030    2    1    2    0    0  0.00000000000E+00  0.00000000000E+00  0.10911144581E+04  0.40927512955E+04  0.39446270301E+04 0.  0.
        2    1    3    3  502    0 -0.32840261469E+03  0.77636697600E+03  0.23956087071E+04  0.25395934785E+04  0.25500000920E-02 0. -1.
       -2    1    3    3    0  502  0.32840261469E+03 -0.77636697600E+03 -0.13044942490E+04  0.15531578170E+04  0.25500000920E-02 0.  1.
</event>
<event>
 5   0  0.1143283E-07  0.3816184E+04  0.7818609E-02  0.8042691E-01
        2   -1    0    0  501    0  0.00000000000E+00  0.00000000000E+00  0.17602368558E+04  0.17602368558E+04  0.25500000920E-02 0.  1.
       -2   -1    0    0    0  501  0.00000000000E+00  0.00000000000E+00 -0.20683670544E+04  0.20683670545E+04  0.25500000920E-02 0. -1.
    10030    2    1    2    0    0  0.00000000000E+00  0.00000000000E+00 -0.30813019861E+03  0.38286039103E+04  0.38161844403E+04 0.  0.
        1    1    3    3  502    0 -0.49864243944E+03  0.17218882491E+04  0.50172302980E+03  0.18615234147E+04  0.50400001928E-02 0.  1.
       -1    1    3    3    0  502  0.49864243944E+03 -0.17218882491E+04 -0.80985322841E+03  0.19670804956E+04  0.50400001928E-02 0. -1.
</event>
<event>
 5   0  0.1143283E-07  0.3579637E+04  0.7818609E-02  0.8095172E-01
       -2   -1    0    0    0  501  0.00000000000E+00  0.00000000000E+00  0.17881175479E+04  0.17881175479E+04  0.25500000920E-02 0.  1.
        2   -1    0    0  501    0  0.00000000000E+00  0.00000000000E+00 -0.17915212372E+04  0.17915212372E+04  0.25500000920E-02 0. -1.
    10030    2    1    2    0    0  0.00000000000E+00  0.00000000000E+00 -0.34036893229E+01  0.35796387851E+04  0.35796371669E+04 0.  0.
        1    1    3    3  502    0  0.14755001756E+04 -0.25826294937E+03  0.97791589203E+03  0.17888879258E+04  0.50400001928E-02 0.  1.
       -1    1    3    3    0  502 -0.14755001756E+04  0.25826294937E+03 -0.98131958135E+03  0.17907508593E+04  0.50400001928E-02 0. -1.
</event>
<event>
 5   0  0.1174870E-07  0.3813084E+04  0.7818609E-02  0.8043353E-01
        2   -1    0    0  501    0  0.00000000000E+00  0.00000000000E+00  0.14941184867E+04  0.14941184867E+04  0.25500000920E-02 0. -1.
       -2   -1    0    0    0  501  0.00000000000E+00  0.00000000000E+00 -0.24328073102E+04  0.24328073102E+04  0.25500000920E-02 0.  1.
    10030    2    1    2    0    0  0.00000000000E+00  0.00000000000E+00 -0.93868882341E+03  0.39269257969E+04  0.38130839890E+04 0.  0.
        5    1    3    3  502    0  0.13026401347E+03  0.19020617909E+04 -0.47811435672E+03  0.19655592582E+04  0.46999998093E+01 0.  1.
       -5    1    3    3    0  502 -0.13026401347E+03 -0.19020617909E+04 -0.46057446670E+03  0.19613665387E+04  0.46999998093E+01 0. -1.
</event>
<event>
 5   0  0.3701250E-08  0.3789040E+04  0.7818609E-02  0.8048511E-01
        1   -1    0    0  501    0  0.00000000000E+00  0.00000000000E+00  0.16865107849E+04  0.16865107849E+04  0.50400001928E-02 0. -1.
       -1   -1    0    0    0  501  0.00000000000E+00  0.00000000000E+00 -0.21281840722E+04  0.21281840722E+04  0.50400001928E-02 0.  1.
    10030    2    1    2    0    0  0.00000000000E+00  0.00000000000E+00 -0.44167328732E+03  0.38146948570E+04  0.37890396619E+04 0.  0.
        2    1    3    3  502    0  0.15611785418E+04 -0.96799877691E+03 -0.68755430341E+03  0.19613849678E+04  0.25500000920E-02 0.  1.
       -2    1    3    3    0  502 -0.15611785418E+04  0.96799877691E+03  0.24588101609E+03  0.18533098893E+04  0.25500000920E-02 0. -1.
</event>
<event>
 5   0  0.1193861E-07  0.3800180E+04  0.7818609E-02  0.8046116E-01
        2   -1    0    0  501    0  0.00000000000E+00  0.00000000000E+00  0.29802790868E+04  0.29802790868E+04  0.25500000920E-02 0. -1.
       -2   -1    0    0    0  501  0.00000000000E+00  0.00000000000E+00 -0.12114108281E+04  0.12114108281E+04  0.25500000920E-02 0.  1.
    10030    2    1    2    0    0  0.00000000000E+00  0.00000000000E+00  0.17688682586E+04  0.41916899149E+04  0.38001801834E+04 0.  0.
        3    1    3    3  502    0  0.58938868259E+03 -0.73206445896E+03 -0.93707397327E+03  0.13271793522E+04  0.10100000352E+00 0.  1.
       -3    1    3    3    0  502 -0.58938868259E+03  0.73206445896E+03  0.27059422319E+04  0.28645105627E+04  0.10100000352E+00 0. -1.
</event>
<event>
 5   0  0.3701250E-08  0.3759955E+04  0.7818609E-02  0.8054803E-01
       -1   -1    0    0    0  501  0.00000000000E+00  0.00000000000E+00  0.26272926483E+04  0.26272926483E+04  0.50400001928E-02 0.  1.
        1   -1    0    0  501    0  0.00000000000E+00  0.00000000000E+00 -0.13452311689E+04  0.13452311689E+04  0.50400001928E-02 0. -1.
    10030    2    1    2    0    0  0.00000000000E+00  0.00000000000E+00  0.12820614794E+04  0.39725238173E+04  0.37599552979E+04 0.  0.
        1    1    3    3  502    0 -0.14468722577E+04 -0.21683204829E+03  0.18883955344E+04  0.23888267333E+04  0.50400001928E-02 0.  1.
       -1    1    3    3    0  502  0.14468722577E+04  0.21683204829E+03 -0.60633405505E+03  0.15836970839E+04  0.50400001928E-02 0. -1.
</event>
<event>
 5   0  0.3701250E-08  0.3798697E+04  0.7818609E-02  0.8046434E-01
       -1   -1    0    0    0  501  0.00000000000E+00  0.00000000000E+00  0.16256968029E+04  0.16256968029E+04  0.50400001928E-02 0. -1.
        1   -1    0    0  501    0  0.00000000000E+00  0.00000000000E+00 -0.22190642422E+04  0.22190642422E+04  0.50400001928E-02 0.  1.
    10030    2    1    2    0    0  0.00000000000E+00  0.00000000000E+00 -0.59336743930E+03  0.38447610450E+04  0.37986974840E+04 0.  0.
        4    1    3    3  502    0 -0.12503221718E+04  0.60328330448E+03  0.10152862378E+04  0.17199023334E+04  0.12699999809E+01 0. -1.
       -4    1    3    3    0  502  0.12503221718E+04 -0.60328330448E+03 -0.16086536771E+04  0.21248587117E+04  0.12699999809E+01 0.  1.
</event>
<event>
 5   0  0.3889225E-08  0.3812108E+04  0.7818609E-02  0.8043562E-01
        1   -1    0    0  501    0  0.00000000000E+00  0.00000000000E+00  0.21972820291E+04  0.21972820291E+04  0.50400001928E-02 0. -1.
       -1   -1    0    0    0  501  0.00000000000E+00  0.00000000000E+00 -0.16534250892E+04  0.16534250892E+04  0.50400001928E-02 0.  1.
    10030    2    1    2    0    0  0.00000000000E+00  0.00000000000E+00  0.54385693992E+03  0.38507071183E+04  0.38121076769E+04 0.  0.
        5    1    3    3  502    0  0.77880139839E+03  0.16682859344E+04 -0.22633026647E+03  0.18549816863E+04  0.46999998093E+01 0.  1.
       -5    1    3    3    0  502 -0.77880139839E+03 -0.16682859344E+04  0.77018720638E+03  0.19957254320E+04  0.46999998093E+01 0. -1.
</event>
<event>
 5   0  0.7858367E-08  0.3797544E+04  0.7818609E-02  0.8046682E-01
        2   -1    0    0  501    0  0.00000000000E+00  0.00000000000E+00  0.13935704311E+04  0.13935704311E+04  0.25500000920E-02 0. -1.
       -2   -1    0    0    0  501  0.00000000000E+00  0.00000000000E+00 -0.25871213491E+04  0.25871213491E+04  0.25500000920E-02 0.  1.
    10030    2    1    2    0    0  0.00000000000E+00  0.00000000000E+00 -0.11935509180E+04  0.39806917802E+04  0.37975443717E+04 0.  0.
        2    1    3    3  502    0 -0.13085063417E+04 -0.80877100443E+02 -0.20365559507E+04  0.24220425455E+04  0.25500000920E-02 0.  1.
       -2    1    3    3    0  502  0.13085063417E+04  0.80877100443E+02  0.84300503274E+03  0.15586492347E+04  0.25500000920E-02 0. -1.
</event>
<event>
 5   0  0.3701250E-08  0.3729987E+04  0.7818609E-02  0.8061349E-01
       -1   -1    0    0    0  501  0.00000000000E+00  0.00000000000E+00  0.23790285079E+04  0.23790285079E+04  0.50400001928E-02 0. -1.
        1   -1    0    0  501    0  0.00000000000E+00  0.00000000000E+00 -0.14620255603E+04  0.14620255603E+04  0.50400001928E-02 0.  1.
    10030    2    1    2    0    0  0.00000000000E+00  0.00000000000E+00  0.91700294761E+03  0.38410540683E+04  0.37299868565E+04 0.  0.
        1    1    3    3  502    0  0.36299666153E+03  0.14714516796E+04  0.15777243511E+04  0.21877273024E+04  0.50400001928E-02 0. -1.
       -1    1    3    3    0  502 -0.36299666153E+03 -0.14714516796E+04 -0.66072140346E+03  0.16533267659E+04  0.50400001928E-02 0.  1.
</event>
<event>
 5   0  0.7858367E-08  0.3784401E+04  0.7818609E-02  0.8049511E-01
       -2   -1    0    0    0  501  0.00000000000E+00  0.00000000000E+00  0.16457285681E+04  0.16457285681E+04  0.25500000920E-02 0.  1.
        2   -1    0    0  501    0  0.00000000000E+00  0.00000000000E+00 -0.21755855029E+04  0.21755855029E+04  0.25500000920E-02 0. -1.
    10030    2    1    2    0    0  0.00000000000E+00  0.00000000000E+00 -0.52985693474E+03  0.38213140710E+04  0.37844012549E+04 0.  0.
        2    1    3    3  502    0  0.18680674621E+04 -0.26087602909E+03 -0.41703263776E+03  0.19317475421E+04  0.25500000920E-02 0. -1.
       -2    1    3    3    0  502 -0.18680674621E+04  0.26087602909E+03 -0.11282429698E+03  0.18895665290E+04  0.25500000920E-02 0.  1.
</event>
<event>
 5   0  0.1193861E-07  0.3804228E+04  0.7818609E-02  0.8045248E-01
        2   -1    0    0  501    0  0.00000000000E+00  0.00000000000E+00  0.27773335911E+04  0.27773335911E+04  0.25500000920E-02 0. -1.
       -2   -1    0    0    0  501  0.00000000000E+00  0.00000000000E+00 -0.13027019033E+04  0.13027019033E+04  0.25500000920E-02 0.  1.
    10030    2    1    2    0    0  0.00000000000E+00  0.00000000000E+00  0.14746316879E+04  0.40800354944E+04  0.38042280453E+04 0.  0.
        3    1    3    3  502    0 -0.16548379105E+03 -0.18291891149E+04  0.20675869921E+03  0.18482604993E+04  0.10100000352E+00 0.  1.
       -3    1    3    3    0  502  0.16548379105E+03  0.18291891149E+04  0.12678729887E+04  0.22317749951E+04  0.10100000352E+00 0. -1.
</event>
<event>
 5   0  0.3701250E-08  0.3790463E+04  0.7818609E-02  0.8048205E-01
        1   -1    0    0  501    0  0.00000000000E+00  0.00000000000E+00  0.26321514856E+04  0.26321514856E+04  0.50400001928E-02 0. -1.
       -1   -1    0    0    0  501  0.00000000000E+00  0.00000000000E+00 -0.13646257847E+04  0.13646257847E+04  0.50400001928E-02 0.  1.
    10030    2    1    2    0    0  0.00000000000E+00  0.00000000000E+00  0.12675257009E+04  0.39967772702E+04  0.37904626558E+04 0.  0.
        3    1    3    3  502    0 -0.85298123750E+03 -0.90922084411E+03  0.21389194674E+04  0.24757293941E+04  0.10100000352E+00 0. -1.
       -3    1    3    3    0  502  0.85298123750E+03  0.90922084411E+03 -0.87139376647E+03  0.15210478761E+04  0.10100000352E+00 0.  1.
</event>
<event>
 5   0  0.3701250E-08  0.3812119E+04  0.7818609E-02  0.8043559E-01
       -3   -1    0    0    0  501  0.00000000000E+00  0.00000000000E+00  0.15933554799E+04  0.15933554831E+04  0.10100000352E+00 0.  1.
        3   -1    0    0  501    0  0.00000000000E+00  0.00000000000E+00 -0.22801331747E+04  0.22801331769E+04  0.10100000352E+00 0. -1.
    10030    2    1    2    0    0  0.00000000000E+00  0.00000000000E+00 -0.68677769479E+03  0.38734886600E+04  0.38121189380E+04 0.  0.
        4    1    3    3  502    0 -0.25717465129E+03  0.14551854003E+04 -0.15666625602E+04  0.21536333348E+04  0.12699999809E+01 0. -1.
       -4    1    3    3    0  502  0.25717465129E+03 -0.14551854003E+04  0.87988486540E+03  0.17198553252E+04  0.12699999809E+01 0.  1.
</event>
<event>
 5   0  0.3701250E-08  0.3834191E+04  0.7818609E-02  0.8038857E-01
        1   -1    0    0  501    0  0.00000000000E+00  0.00000000000E+00  0.14676105459E+04  0.14676105459E+04  0.50400001928E-02 0. -1.
       -1   -1    0    0    0  501  0.00000000000E+00  0.00000000000E+00 -0.25042436907E+04  0.25042436907E+04  0.50400001928E-02 0.  1.
    10030    2    1    2    0    0  0.00000000000E+00  0.00000000000E+00 -0.10366331448E+04  0.39718542366E+04  0.38341906317E+04 0.  0.
        3    1    3    3  502    0  0.15958352662E+04 -0.17548338128E+03 -0.16036801533E+04  0.22692013260E+04  0.10100000352E+00 0.  1.
       -3    1    3    3    0  502 -0.15958352662E+04  0.17548338128E+03  0.56704700850E+03  0.17026529106E+04  0.10100000352E+00 0. -1.
</event>
<event>
 5   0  0.7858367E-08  0.3805126E+04  0.7818609E-02  0.8045056E-01
        2   -1    0    0  501    0  0.00000000000E+00  0.00000000000E+00  0.17021408887E+04  0.17021408887E+04  0.25500000920E-02 0.  1.
       -2   -1    0    0    0  501  0.00000000000E+00  0.00000000000E+00 -0.21265842798E+04  0.21265842798E+04  0.25500000920E-02 0. -1.
    10030    2    1    2    0    0  0.00000000000E+00  0.00000000000E+00 -0.42444339110E+03  0.38287251685E+04  0.38051260457E+04 0.  0.
        2    1    3    3  502    0  0.13324332789E+04  0.41134249036E+03  0.10900869897E+04  0.17699917323E+04  0.25500000920E-02 0.  1.
       -2    1    3    3    0  502 -0.13324332789E+04 -0.41134249036E+03 -0.15145303808E+04  0.20587334363E+04  0.25500000920E-02 0. -1.
</event>
<event>
 5   0  0.3701250E-08  0.3802018E+04  0.7818609E-02  0.8045722E-01
        1   -1    0    0  501    0  0.00000000000E+00  0.00000000000E+00  0.22305762064E+04  0.22305762064E+04  0.50400001928E-02 0. -1.
       -1   -1    0    0    0  501  0.00000000000E+00  0.00000000000E+00 -0.16201355498E+04  0.16201355498E+04  0.50400001928E-02 0.  1.
    10030    2    1    2    0    0  0.00000000000E+00  0.00000000000E+00  0.61044065658E+03  0.38507117562E+04  0.38020183106E+04 0.  0.
        2    1    3    3  502    0 -0.90757886514E+03 -0.32266390817E+03 -0.13546791357E+04  0.16622174812E+04  0.25500000920E-02 0.  1.
       -2    1    3    3    0  502  0.90757886514E+03  0.32266390817E+03  0.19651197922E+04  0.21884942751E+04  0.25500000920E-02 0. -1.
</event>
<event>
 5   0  0.1193861E-07  0.3805936E+04  0.7818609E-02  0.8044882E-01
        2   -1    0    0  501    0  0.00000000000E+00  0.00000000000E+00  0.28426389511E+04  0.28426389511E+04  0.25500000920E-02 0.  1.
       -2   -1    0    0    0  501  0.00000000000E+00  0.00000000000E+00 -0.12739176060E+04  0.12739176060E+04  0.25500000920E-02 0. -1.
    10030    2    1    2    0    0  0.00000000000E+00  0.00000000000E+00  0.15687213451E+04  0.41165565570E+04  0.38059363143E+04 0.  0.
        3    1    3    3  502    0 -0.51339167214E+03 -0.36359113787E+03 -0.11581898501E+04  0.13180186886E+04  0.10100000352E+00 0. -1.
       -3    1    3    3    0  502  0.51339167214E+03  0.36359113787E+03  0.27269111951E+04  0.27985378684E+04  0.10100000352E+00 0.  1.
</event>
<event>
 5   0  0.1193861E-07  0.3602406E+04  0.7818609E-02  0.8089941E-01
       -2   -1    0    0    0  501  0.00000000000E+00  0.00000000000E+00  0.22636580807E+04  0.22636580807E+04  0.25500000920E-02 0. -1.
        2   -1    0    0  501    0  0.00000000000E+00  0.00000000000E+00 -0.14332257438E+04  0.14332257438E+04  0.25500000920E-02 0.  1.
    10030    2    1    2    0    0  0.00000000000E+00  0.00000000000E+00  0.83043233688E+03  0.36968838244E+04  0.36024064381E+04 0.  0.
        3    1    3    3  502    0 -0.82581190421E+03 -0.15160156463E+04  0.94256492488E+03  0.19669004522E+04  0.10100000352E+00 0.  1.
       -3    1    3    3    0  502  0.82581190421E+03  0.15160156463E+04 -0.11213258801E+03  0.17299833723E+04  0.10100000352E+00 0. -1.
</event>
<event>
 5   0  0.1150235E-07  0.3794683E+04  0.7818609E-02  0.8047297E-01
        2   -1    0    0  501    0  0.00000000000E+00  0.00000000000E+00  0.19178180020E+04  0.19178180020E+04  0.25500000920E-02 0. -1.
       -2   -1    0    0    0  501  0.00000000000E+00  0.00000000000E+00 -0.18770835492E+04  0.18770835492E+04  0.25500000920E-02 0.  1.
    10030    2    1    2    0    0  0.00000000000E+00  0.00000000000E+00  0.40734452801E+02  0.37949015511E+04  0.37946829231E+04 0.  0.
        4    1    3    3  502    0  0.11089247459E+04 -0.12474543713E+03 -0.15142007326E+04  0.18809787314E+04  0.12699999809E+01 0.  1.
       -4    1    3    3    0  502 -0.11089247459E+04  0.12474543713E+03  0.15549351854E+04  0.19139228198E+04  0.12699999809E+01 0. -1.
</event>
<event>
 5   0  0.3701250E-08  0.3809331E+04  0.7818609E-02  0.8044155E-01
       -1   -1    0    0    0  501  0.00000000000E+00  0.00000000000E+00  0.12863873194E+04  0.12863873194E+04  0.50400001928E-02 0.  1.
        1   -1    0    0  501    0  0.00000000000E+00  0.00000000000E+00 -0.28201081307E+04  0.28201081307E+04  0.50400001928E-02 0. -1.
    10030    2    1    2    0    0  0.00000000000E+00  0.00000000000E+00 -0.15337208112E+04  0.41064954501E+04  0.38093313527E+04 0.  0.
        4    1    3    3  502    0  0.47806454676E+03  0.11676105864E+04  0.77129317085E+03  0.14787680550E+04  0.12699999809E+01 0.  1.
       -4    1    3    3    0  502 -0.47806454676E+03 -0.11676105864E+04 -0.23050139821E+04  0.26277273951E+04  0.12699999809E+01 0. -1.
</event>
<event>
 5   0  0.1143283E-07  0.3797807E+04  0.7818609E-02  0.8046626E-01
        2   -1    0    0  501    0  0.00000000000E+00  0.00000000000E+00  0.10876983696E+04  0.10876983696E+04  0.25500000920E-02 0. -1.
       -2   -1    0    0    0  501  0.00000000000E+00  0.00000000000E+00 -0.33151053317E+04  0.33151053317E+04  0.25500000920E-02 0.  1.
    10030    2    1    2    0    0  0.00000000000E+00  0.00000000000E+00 -0.22274069621E+04  0.44028037013E+04  0.37978070854E+04 0.  0.
        1    1    3    3  502    0 -0.86143797787E+03 -0.16398403009E+04 -0.62917219928E+03  0.19562743311E+04  0.50400001928E-02 0. -1.
       -1    1    3    3    0  502  0.86143797787E+03  0.16398403009E+04 -0.15982347628E+04  0.24465293702E+04  0.50400001928E-02 0.  1.
</event>
<event>
 5   0  0.3701250E-08  0.3802220E+04  0.7818609E-02  0.8045679E-01
       -1   -1    0    0    0  501  0.00000000000E+00  0.00000000000E+00  0.26349536239E+04  0.26349536239E+04  0.50400001928E-02 0. -1.
        1   -1    0    0  501    0  0.00000000000E+00  0.00000000000E+00 -0.13716446176E+04  0.13716446176E+04  0.50400001928E-02 0.  1.
    10030    2    1    2    0    0  0.00000000000E+00  0.00000000000E+00  0.12633090063E+04  0.40065982415E+04  0.38022203806E+04 0.  0.
        4    1    3    3  502    0  0.78129650079E+03 -0.20632601909E+03 -0.11816641061E+04  0.14315468280E+04  0.12699999809E+01 0.  1.
       -4    1    3    3    0  502 -0.78129650079E+03  0.20632601909E+03  0.24449731124E+04  0.25750514134E+04  0.12699999809E+01 0. -1.
</event>
<event>
 5   0  0.7858367E-08  0.3789267E+04  0.7818609E-02  0.8048462E-01
       -2   -1    0    0    0  501  0.00000000000E+00  0.00000000000E+00  0.14645035036E+04  0.14645035036E+04  0.25500000920E-02 0.  1.
        2   -1    0    0  501    0  0.00000000000E+00  0.00000000000E+00 -0.24510946996E+04  0.24510946996E+04  0.25500000920E-02 0. -1.
    10030    2    1    2    0    0  0.00000000000E+00  0.00000000000E+00 -0.98659119606E+03  0.39155982032E+04  0.37892673567E+04 0.  0.
        2    1    3    3  502    0  0.12977070868E+04 -0.34395259158E+03 -0.18747620699E+04  0.23058794173E+04  0.25500000920E-02 0. -1.
       -2    1    3    3    0  502 -0.12977070868E+04  0.34395259158E+03  0.88817087383E+03  0.16097187859E+04  0.25500000920E-02 0.  1.
</event>
<event>
 5   0  0.3701250E-08  0.3736856E+04  0.7818609E-02  0.8059843E-01
        1   -1    0    0  501    0  0.00000000000E+00  0.00000000000E+00  0.11360625453E+04  0.11360625453E+04  0.50400001928E-02 0.  1.
       -1   -1    0    0    0  501  0.00000000000E+00  0.00000000000E+00 -0.30729141755E+04  0.30729141755E+04  0.50400001928E-02 0. -1.
    10030    2    1    2    0    0  0.00000000000E+00  0.00000000000E+00 -0.19368516302E+04  0.42089767208E+04  0.37368557369E+04 0.  0.
        1    1    3    3  502    0 -0.94472340431E+03 -0.11708990275E+04  0.27948557045E+03  0.15302349582E+04  0.50400001928E-02 0.  1.
       -1    1    3    3    0  502  0.94472340431E+03  0.11708990275E+04 -0.22163372007E+04  0.26787417626E+04  0.50400001928E-02 0. -1.
</event>
<event>
 5   0  0.1193861E-07  0.3810515E+04  0.7818609E-02  0.8043902E-01
       -2   -1    0    0    0  501  0.00000000000E+00  0.00000000000E+00  0.14994999284E+04  0.14994999284E+04  0.25500000920E-02 0. -1.
        2   -1    0    0  501    0  0.00000000000E+00  0.00000000000E+00 -0.24208115836E+04  0.24208115836E+04  0.25500000920E-02 0.  1.
    10030    2    1    2    0    0  0.00000000000E+00  0.00000000000E+00 -0.92131165514E+03  0.39203115120E+04  0.38105153438E+04 0.  0.
        3    1    3    3  502    0 -0.68410136300E+03 -0.10526178113E+04 -0.19351325242E+04  0.23066722412E+04  0.10100000352E+00 0.  1.
       -3    1    3    3    0  502  0.68410136300E+03  0.10526178113E+04  0.10138208691E+04  0.16136392708E+04  0.10100000352E+00 0. -1.
</event>
<event>
 5   0  0.1174870E-07  0.3758555E+04  0.7818609E-02  0.8055108E-01
        2   -1    0    0  501    0  0.00000000000E+00  0.00000000000E+00  0.23717032545E+04  0.23717032545E+04  0.25500000920E-02 0. -1.
       -2   -1    0    0    0  501  0.00000000000E+00  0.00000000000E+00 -0.14890917578E+04  0.14890917578E+04  0.25500000920E-02 0.  1.
    10030    2    1    2    0    0  0.00000000000E+00  0.00000000000E+00  0.88261149666E+03  0.38607950123E+04  0.37585549182E+04 0.  0.
        5    1    3    3  502    0  0.16273422301E+04  0.30268456395E+03 -0.47273144044E+03  0.17214406129E+04  0.46999998093E+01 0.  1.
       -5    1    3    3    0  502 -0.16273422301E+04 -0.30268456395E+03  0.13553429371E+04  0.21393543994E+04  0.46999998093E+01 0. -1.
</event>
<event>
 5   0  0.7858367E-08  0.3799412E+04  0.7818609E-02  0.8046281E-01
       -2   -1    0    0    0  501  0.00000000000E+00  0.00000000000E+00  0.12003936672E+04  0.12003936672E+04  0.25500000920E-02 0. -1.
        2   -1    0    0  501    0  0.00000000000E+00  0.00000000000E+00 -0.30064161794E+04  0.30064161794E+04  0.25500000920E-02 0.  1.
    10030    2    1    2    0    0  0.00000000000E+00  0.00000000000E+00 -0.18060225122E+04  0.42068098466E+04  0.37994120296E+04 0.  0.
        2    1    3    3  502    0  0.94501861420E+02 -0.43549022333E+03  0.11417039156E+04  0.12255897223E+04  0.25500000920E-02 0. -1.
       -2    1    3    3    0  502 -0.94501861420E+02  0.43549022333E+03 -0.29477264278E+04  0.29812201243E+04  0.25500000920E-02 0.  1.
</event>
<event>
 5   0  0.7858367E-08  0.3857777E+04  0.7818609E-02  0.8033869E-01
       -2   -1    0    0    0  501  0.00000000000E+00  0.00000000000E+00  0.21431171831E+04  0.21431171831E+04  0.25500000920E-02 0.  1.
        2   -1    0    0  501    0  0.00000000000E+00  0.00000000000E+00 -0.17360741216E+04  0.17360741216E+04  0.25500000920E-02 0. -1.
    10030    2    1    2    0    0  0.00000000000E+00  0.00000000000E+00  0.40704306157E+03  0.38791913047E+04  0.38577767074E+04 0.  0.
        2    1    3    3  502    0 -0.13631082322E+02 -0.10995960143E+04 -0.13899875415E+04  0.17723889434E+04  0.25500000920E-02 0. -1.
       -2    1    3    3    0  502  0.13631082322E+02  0.10995960143E+04  0.17970306031E+04  0.21068023613E+04  0.25500000920E-02 0.  1.
</event>
<event>
 5   0  0.1143283E-07  0.3804377E+04  0.7818609E-02  0.8045216E-01
        2   -1    0    0  501    0  0.00000000000E+00  0.00000000000E+00  0.20048022792E+04  0.20048022792E+04  0.25500000920E-02 0.  1.
       -2   -1    0    0    0  501  0.00000000000E+00  0.00000000000E+00 -0.18048271636E+04  0.18048271636E+04  0.25500000920E-02 0. -1.
    10030    2    1    2    0    0  0.00000000000E+00  0.00000000000E+00  0.19997511555E+03  0.38096294428E+04  0.38043772742E+04 0.  0.
        1    1    3    3  502    0 -0.17353747342E+04 -0.21626210638E+03  0.84937011173E+03  0.19441513196E+04  0.50400001928E-02 0.  1.
       -1    1    3    3    0  502  0.17353747342E+04  0.21626210638E+03 -0.64939499618E+03  0.18654781232E+04  0.50400001928E-02 0. -1.
</event>
<event>
 5   0  0.3701250E-08  0.3818750E+04  0.7818609E-02  0.8042143E-01
        1   -1    0    0  501    0  0.00000000000E+00  0.00000000000E+00  0.17505718139E+04  0.17505718139E+04  0.50400001928E-02 0.  1.
       -1   -1    0    0    0  501  0.00000000000E+00  0.00000000000E+00 -0.20825844525E+04  0.20825844525E+04  0.50400001928E-02 0. -1.
    10030    2    1    2    0    0  0.00000000000E+00  0.00000000000E+00 -0.33201263863E+03  0.38331562665E+04  0.38187503939E+04 0.  0.
        3    1    3    3  502    0 -0.10384143338E+04  0.94713762805E+03 -0.14632980300E+04  0.20289443437E+04  0.10100000352E+00 0. -1.
       -3    1    3    3    0  502  0.10384143338E+04 -0.94713762805E+03  0.11312853914E+04  0.18042119227E+04  0.10100000352E+00 0.  1.
</event>
<event>
 5   0  0.3701250E-08  0.3758995E+04  0.7818609E-02  0.8055012E-01
       -1   -1    0    0    0  501  0.00000000000E+00  0.00000000000E+00  0.25564140563E+04  0.25564140563E+04  0.50400001928E-02 0. -1.
        1   -1    0    0  501    0  0.00000000000E+00  0.00000000000E+00 -0.13818227600E+04  0.13818227600E+04  0.50400001928E-02 0.  1.
    10030    2    1    2    0    0  0.00000000000E+00  0.00000000000E+00  0.11745912963E+04  0.39382368163E+04  0.37589951461E+04 0.  0.
        3    1    3    3  502    0  0.46412694466E+03  0.17070658380E+04  0.12524083767E+04  0.21674903341E+04  0.10100000352E+00 0. -1.
       -3    1    3    3    0  502 -0.46412694466E+03 -0.17070658380E+04 -0.77817080398E+02  0.17707464822E+04  0.10100000352E+00 0.  1.
</event>
<event>
 5   0  0.3889225E-08  0.3818534E+04  0.7818609E-02  0.8042189E-01
       -1   -1    0    0    0  501  0.00000000000E+00  0.00000000000E+00  0.19435161447E+04  0.19435161447E+04  0.50400001928E-02 0. -1.
        1   -1    0    0  501    0  0.00000000000E+00  0.00000000000E+00 -0.18756216058E+04  0.18756216058E+04  0.50400001928E-02 0.  1.
    10030    2    1    2    0    0  0.00000000000E+00  0.00000000000E+00  0.67894538857E+02  0.38191377505E+04  0.38185342068E+04 0.  0.
        5    1    3    3  502    0 -0.66917383922E+03 -0.70373855000E+03 -0.16101608436E+04  0.18803408218E+04  0.46999998093E+01 0.  1.
       -5    1    3    3    0  502  0.66917383922E+03  0.70373855000E+03  0.16780553825E+04  0.19387969286E+04  0.46999998093E+01 0. -1.
</event>
<event>
 5   0  0.1193861E-07  0.3802087E+04  0.7818609E-02  0.8045707E-01
       -2   -1    0    0    0  501  0.00000000000E+00  0.00000000000E+00  0.14424263620E+04  0.14424263620E+04  0.25500000920E-02 0.  1.
        2   -1    0    0  501    0  0.00000000000E+00  0.00000000000E+00 -0.25054766838E+04  0.25054766838E+04  0.25500000920E-02 0. -1.
    10030    2    1    2    0    0  0.00000000000E+00  0.00000000000E+00 -0.10630503218E+04  0.39479030458E+04  0.38020865946E+04 0.  0.
        3    1    3    3  502    0  0.28354566758E+03  0.16724937644E+04  0.35948228386E+03  0.17340302939E+04  0.10100000352E+00 0.  1.
       -3    1    3    3    0  502 -0.28354566758E+03 -0.16724937644E+04 -0.14225326056E+04  0.22138727519E+04  0.10100000352E+00 0. -1.
</event>
<event>
 5   0  0.3701250E-08  0.3753785E+04  0.7818609E-02  0.8056146E-01
       -1   -1    0    0    0  501  0.00000000000E+00  0.00000000000E+00  0.12377255114E+04  0.12377255114E+04  0.50400001928E-02 0. -1.
        1   -1    0    0  501    0  0.00000000000E+00  0.00000000000E+00 -0.28461278337E+04  0.28461278337E+04  0.50400001928E-02 0.  1.
    10030    2    1    2    0    0  0.00000000000E+00  0.00000000000E+00 -0.16084023223E+04  0.40838533452E+04  0.37537847720E+04 0.  0.
        4    1    3    3  502    0  0.12867678959E+04  0.77885826777E+03  0.41715740214E+03  0.15609015761E+04  0.12699999809E+01 0. -1.
       -4    1    3    3    0  502 -0.12867678959E+04 -0.77885826777E+03 -0.20255597244E+04  0.25229517691E+04  0.12699999809E+01 0.  1.
</event>
<event>
 5   0  0.7858367E-08  0.3804066E+04  0.7818609E-02  0.8045283E-01
       -2   -1    0    0    0  501  0.00000000000E+00  0.00000000000E+00  0.17411195863E+04  0.17411195863E+04  0.25500000920E-02 0.  1.
        2   -1    0    0  501    0  0.00000000000E+00  0.00000000000E+00 -0.20778175298E+04  0.20778175298E+04  0.25500000920E-02 0. -1.
    10030    2    1    2    0    0  0.00000000000E+00  0.00000000000E+00 -0.33669794343E+03  0.38189371161E+04  0.38040656135E+04 0.  0.
        2    1    3    3  502    0  0.21983871954E+03  0.13749498203E+04 -0.14691431025E+04  0.20241535333E+04  0.25500000920E-02 0. -1.
       -2    1    3    3    0  502 -0.21983871954E+03 -0.13749498203E+04  0.11324451590E+04  0.17947835828E+04  0.25500000920E-02 0.  1.
</event>
<event>
 5   0  0.3701250E-08  0.3760842E+04  0.7818609E-02  0.8054611E-01
       -1   -1    0    0    0  501  0.00000000000E+00  0.00000000000E+00  0.11385888848E+04  0.11385888848E+04  0.50400001928E-02 0.  1.
        1   -1    0    0  501    0  0.00000000000E+00  0.00000000000E+00 -0.31055832927E+04  0.31055832927E+04  0.50400001928E-02 0. -1.
    10030    2    1    2    0    0  0.00000000000E+00  0.00000000000E+00 -0.19669944079E+04  0.42441721775E+04  0.37608417238E+04 0.  0.
        4    1    3    3  502    0  0.83227796683E+03 -0.14951979493E+04 -0.18632172938E+04  0.25297991656E+04  0.12699999809E+01 0.  1.
       -4    1    3    3    0  502 -0.83227796683E+03  0.14951979493E+04 -0.10377711401E+03  0.17143730119E+04  0.12699999809E+01 0. -1.
</event>
<event>
 5   0  0.3701250E-08  0.3784469E+04  0.7818609E-02  0.8049496E-01
       -1   -1    0    0    0  501  0.00000000000E+00  0.00000000000E+00  0.17209934039E+04  0.17209934039E+04  0.50400001928E-02 0. -1.
        1   -1    0    0  501    0  0.00000000000E+00  0.00000000000E+00 -0.20805145181E+04  0.20805145181E+04  0.50400001928E-02 0.  1.
    10030    2    1    2    0    0  0.00000000000E+00  0.00000000000E+00 -0.35952111418E+03  0.38015079221E+04  0.37844691900E+04 0.  0.
        4    1    3    3  502    0  0.75068187507E+03  0.13364710105E+04  0.93468123916E+03  0.17953575330E+04  0.12699999809E+01 0. -1.
       -4    1    3    3    0  502 -0.75068187507E+03 -0.13364710105E+04 -0.12942023533E+04  0.20061503891E+04  0.12699999809E+01 0.  1.
</event>
<event>
 5   0  0.1174870E-07  0.3803571E+04  0.7818609E-02  0.8045389E-01
       -2   -1    0    0    0  501  0.00000000000E+00  0.00000000000E+00  0.11583248818E+04  0.11583248818E+04  0.25500000920E-02 0.  1.
        2   -1    0    0  501    0  0.00000000000E+00  0.00000000000E+00 -0.31224303618E+04  0.31224303618E+04  0.25500000920E-02 0. -1.
    10030    2    1    2    0    0  0.00000000000E+00  0.00000000000E+00 -0.19641054800E+04  0.42807552436E+04  0.38035713637E+04 0.  0.
        5    1    3    3  502    0 -0.17322166720E+04 -0.69964173079E+03 -0.13826482370E+04  0.23241797236E+04  0.46999998093E+01 0. -1.
       -5    1    3    3    0  502  0.17322166720E+04  0.69964173079E+03 -0.58145724301E+03  0.19565755200E+04  0.46999998093E+01 0.  1.
</event>
<event>
 5   0  0.3701250E-08  0.3852694E+04  0.7818609E-02  0.8034941E-01
        1   -1    0    0  501    0  0.00000000000E+00  0.00000000000E+00  0.27866062316E+04  0.27866062316E+04  0.50400001928E-02 0.  1.
       -1   -1    0    0    0  501  0.00000000000E+00  0.00000000000E+00 -0.13316599818E+04  0.13316599818E+04  0.50400001928E-02 0. -1.
    10030    2    1    2    0    0  0.00000000000E+00  0.00000000000E+00  0.14549462498E+04  0.41182662134E+04  0.38526936051E+04 0.  0.
        3    1    3    3  502    0 -0.12365152437E+04 -0.53170747780E+03 -0.74560981849E+03  0.15387062103E+04  0.10100000352E+00 0. -1.
       -3    1    3    3    0  502  0.12365152437E+04  0.53170747780E+03  0.22005560683E+04  0.25795600032E+04  0.10100000352E+00 0.  1.
</event>
<event>
 5   0  0.7858367E-08  0.3799022E+04  0.7818609E-02  0.8046365E-01
       -2   -1    0    0    0  501  0.00000000000E+00  0.00000000000E+00  0.14561129578E+04  0.14561129578E+04  0.25500000920E-02 0.  1.
        2   -1    0    0  501    0  0.00000000000E+00  0.00000000000E+00 -0.24779272115E+04  0.24779272115E+04  0.25500000920E-02 0. -1.
    10030    2    1    2    0    0  0.00000000000E+00  0.00000000000E+00 -0.10218142537E+04  0.39340401694E+04  0.37990219380E+04 0.  0.
        2    1    3    3  502    0 -0.42535150063E+03  0.16855886801E+04  0.28181150579E+03  0.17611220350E+04  0.25500000920E-02 0.  1.
       -2    1    3    3    0  502  0.42535150063E+03 -0.16855886801E+04 -0.13036257595E+04  0.21729181343E+04  0.25500000920E-02 0. -1.
</event>
<event>
 5   0  0.7858367E-08  0.3807530E+04  0.7818609E-02  0.8044541E-01
       -2   -1    0    0    0  501  0.00000000000E+00  0.00000000000E+00  0.13357291937E+04  0.13357291937E+04  0.25500000920E-02 0. -1.
        2   -1    0    0  501    0  0.00000000000E+00  0.00000000000E+00 -0.27133645612E+04  0.27133645612E+04  0.25500000920E-02 0.  1.
    10030    2    1    2    0    0  0.00000000000E+00  0.00000000000E+00 -0.13776353675E+04  0.40490937549E+04  0.38075295179E+04 0.  0.
        2    1    3    3  502    0  0.96398312322E+03 -0.15088019729E+04 -0.79878482384E+00  0.17904601346E+04  0.25500000920E-02 0. -1.
       -2    1    3    3    0  502 -0.96398312322E+03  0.15088019729E+04 -0.13768365827E+04  0.22586336203E+04  0.25500000920E-02 0.  1.
</event>
<event>
 5   0  0.3701250E-08  0.3830158E+04  0.7818609E-02  0.8039714E-01
        1   -1    0    0  501    0  0.00000000000E+00  0.00000000000E+00  0.33046393591E+04  0.33046393591E+04  0.50400001928E-02 0.  1.
       -1   -1    0    0    0  501  0.00000000000E+00  0.00000000000E+00 -0.11098115772E+04  0.11098115772E+04  0.50400001928E-02 0. -1.
    10030    2    1    2    0    0  0.00000000000E+00  0.00000000000E+00  0.21948277819E+04  0.44144509363E+04  0.38301577092E+04 0.  0.
        2    1    3    3  502    0 -0.17039259660E+04 -0.27333881483E+03  0.20544122166E+04  0.26830369661E+04  0.25500000920E-02 0.  1.
       -2    1    3    3    0  502  0.17039259660E+04  0.27333881483E+03  0.14041556529E+03  0.17314139703E+04  0.25500000920E-02 0. -1.
</event>
<event>
 5   0  0.1150235E-07  0.3808888E+04  0.7818609E-02  0.8044250E-01
       -2   -1    0    0    0  501  0.00000000000E+00  0.00000000000E+00  0.18816632454E+04  0.18816632454E+04  0.25500000920E-02 0. -1.
        2   -1    0    0  501    0  0.00000000000E+00  0.00000000000E+00 -0.19275009041E+04  0.19275009041E+04  0.25500000920E-02 0.  1.
    10030    2    1    2    0    0  0.00000000000E+00  0.00000000000E+00 -0.45837658738E+02  0.38091641495E+04  0.38088883453E+04 0.  0.
        4    1    3    3  502    0 -0.15872371334E+04 -0.92180872968E+03  0.48491016363E+03  0.18984711036E+04  0.12699999809E+01 0. -1.
       -4    1    3    3    0  502  0.15872371334E+04  0.92180872968E+03 -0.53074782236E+03  0.19106930459E+04  0.12699999809E+01 0.  1.
</event>
<event>
 5   0  0.1150235E-07  0.3765215E+04  0.7818609E-02  0.8053661E-01
        2   -1    0    0  501    0  0.00000000000E+00  0.00000000000E+00  0.15905689494E+04  0.15905689494E+04  0.25500000920E-02 0. -1.
       -2   -1    0    0    0  501  0.00000000000E+00  0.00000000000E+00 -0.22282665246E+04  0.22282665246E+04  0.25500000920E-02 0.  1.
    10030    2    1    2    0    0  0.00000000000E+00  0.00000000000E+00 -0.63769757521E+03  0.38188354740E+04  0.37652152900E+04 0.  0.
        4    1    3    3  502    0  0.11097626063E+04 -0.59166915981E+03 -0.17397147264E+04  0.21466845085E+04  0.12699999809E+01 0.  1.
       -4    1    3    3    0  502 -0.11097626063E+04  0.59166915981E+03  0.11020171512E+04  0.16721509655E+04  0.12699999809E+01 0. -1.
</event>
<event>
 5   0  0.1150235E-07  0.3797070E+04  0.7818609E-02  0.8046784E-01
       -2   -1    0    0    0  501  0.00000000000E+00  0.00000000000E+00  0.19717477293E+04  0.19717477293E+04  0.25500000920E-02 0.  1.
        2   -1    0    0  501    0  0.00000000000E+00  0.00000000000E+00 -0.18280408248E+04  0.18280408248E+04  0.25500000920E-02 0. -1.
    10030    2    1    2    0    0  0.00000000000E+00  0.00000000000E+00  0.14370690455E+03  0.37997885541E+04  0.37970701049E+04 0.  0.
        4    1    3    3  502    0 -0.91025472549E+03  0.10410863822E+04  0.13735572630E+04  0.19491243388E+04  0.12699999809E+01 0.  1.
       -4    1    3    3    0  502  0.91025472549E+03 -0.10410863822E+04 -0.12298503585E+04  0.18506642153E+04  0.12699999809E+01 0. -1.
</event>
<event>
 5   0  0.3701250E-08  0.3759788E+04  0.7818609E-02  0.8054840E-01
        1   -1    0    0  501    0  0.00000000000E+00  0.00000000000E+00  0.17341874195E+04  0.17341874195E+04  0.50400001928E-02 0. -1.
       -1   -1    0    0    0  501  0.00000000000E+00  0.00000000000E+00 -0.20378431892E+04  0.20378431892E+04  0.50400001928E-02 0.  1.
    10030    2    1    2    0    0  0.00000000000E+00  0.00000000000E+00 -0.30365576969E+03  0.37720306087E+04  0.37597883034E+04 0.  0.
        3    1    3    3  502    0 -0.92517361706E+03 -0.11441114977E+04 -0.13257081392E+04  0.19805149384E+04  0.10100000352E+00 0.  1.
       -3    1    3    3    0  502  0.92517361706E+03  0.11441114977E+04  0.10220523695E+04  0.17915156703E+04  0.10100000352E+00 0. -1.
</event>
<event>
 5   0  0.1174870E-07  0.3806986E+04  0.7818609E-02  0.8044657E-01
        2   -1    0    0  501    0  0.00000000000E+00  0.00000000000E+00  0.28481334413E+04  0.28481334413E+04  0.25500000920E-02 0.  1.
       -2   -1    0    0    0  501  0.00000000000E+00  0.00000000000E+00 -0.12721614421E+04  0.12721614421E+04  0.25500000920E-02 0. -1.
    10030    2    1    2    0    0  0.00000000000E+00  0.00000000000E+00  0.15759719991E+04  0.41202948834E+04  0.38069859711E+04 0.  0.
        5    1    3    3  502    0  0.16868357150E+03 -0.11027756152E+04 -0.88124493795E+03  0.14216831347E+04  0.46999998093E+01 0. -1.
       -5    1    3    3    0  502 -0.16868357150E+03  0.11027756152E+04  0.24572169371E+04  0.26986117488E+04  0.46999998093E+01 0.  1.
</event>
<event>
 5   0  0.3701250E-08  0.3812903E+04  0.7818609E-02  0.8043392E-01
        1   -1    0    0  501    0  0.00000000000E+00  0.00000000000E+00  0.21293883735E+04  0.21293883735E+04  0.50400001928E-02 0. -1.
       -1   -1    0    0    0  501  0.00000000000E+00  0.00000000000E+00 -0.17068553267E+04  0.17068553267E+04  0.50400001928E-02 0.  1.
    10030    2    1    2    0    0  0.00000000000E+00  0.00000000000E+00  0.42253304682E+03  0.38362437003E+04  0.38129032970E+04 0.  0.
        3    1    3    3  502    0 -0.54431650504E+03  0.99612556606E+03  0.17523119648E+04  0.20878562770E+04  0.10100000352E+00 0. -1.
       -3    1    3    3    0  502  0.54431650504E+03 -0.99612556606E+03 -0.13297789180E+04  0.17483874233E+04  0.10100000352E+00 0.  1.
</event>
<event>
 5   0  0.3701250E-08  0.3811270E+04  0.7818609E-02  0.8043741E-01
       -1   -1    0    0    0  501  0.00000000000E+00  0.00000000000E+00  0.16776519865E+04  0.16776519865E+04  0.50400001928E-02 0.  1.
        1   -1    0    0  501    0  0.00000000000E+00  0.00000000000E+00 -0.21645991841E+04  0.21645991841E+04  0.50400001928E-02 0. -1.
    10030    2    1    2    0    0  0.00000000000E+00  0.00000000000E+00 -0.48694719763E+03  0.38422511706E+04  0.38112696684E+04 0.  0.
        3    1    3    3  502    0 -0.63895440614E+03 -0.17873662448E+04 -0.73272041934E+02  0.18995551134E+04  0.10100000352E+00 0.  1.
       -3    1    3    3    0  502  0.63895440614E+03  0.17873662448E+04 -0.41367515570E+03  0.19426960573E+04  0.10100000352E+00 0. -1.
</event>
<event>
 5   0  0.1193861E-07  0.3809228E+04  0.7818609E-02  0.8044178E-01
       -2   -1    0    0    0  501  0.00000000000E+00  0.00000000000E+00  0.14681657673E+04  0.14681657673E+04  0.25500000920E-02 0.  1.
        2   -1    0    0  501    0  0.00000000000E+00  0.00000000000E+00 -0.24708067939E+04  0.24708067939E+04  0.25500000920E-02 0. -1.
    10030    2    1    2    0    0  0.00000000000E+00  0.00000000000E+00 -0.10026410266E+04  0.39389725612E+04  0.38092277183E+04 0.  0.
        3    1    3    3  502    0  0.88202519934E+02 -0.12458564810E+04  0.98557670805E+03  0.15910058182E+04  0.10100000352E+00 0.  1.
       -3    1    3    3    0  502 -0.88202519934E+02  0.12458564810E+04 -0.19882177346E+04  0.23479667430E+04  0.10100000352E+00 0. -1.
</event>
<event>
 5   0  0.3701250E-08  0.3687394E+04  0.7818609E-02  0.8070761E-01
        1   -1    0    0  501    0  0.00000000000E+00  0.00000000000E+00  0.25502425289E+04  0.25502425289E+04  0.50400001928E-02 0. -1.
       -1   -1    0    0    0  501  0.00000000000E+00  0.00000000000E+00 -0.13329004300E+04  0.13329004300E+04  0.50400001928E-02 0.  1.
    10030    2    1    2    0    0  0.00000000000E+00  0.00000000000E+00  0.12173420989E+04  0.38831429589E+04  0.36873943989E+04 0.  0.
        1    1    3    3  502    0 -0.85740923895E+03 -0.62305771328E+03  0.21973542673E+04  0.24396141689E+04  0.50400001928E-02 0. -1.
       -1    1    3    3    0  502  0.85740923895E+03  0.62305771328E+03 -0.98001216841E+03  0.14435287899E+04  0.50400001928E-02 0.  1.
</event>
<event>
 5   0  0.3701250E-08  0.3801792E+04  0.7818609E-02  0.8045770E-01
       -1   -1    0    0    0  501  0.00000000000E+00  0.00000000000E+00  0.19801605919E+04  0.19801605919E+04  0.50400001928E-02 0.  1.
        1   -1    0    0  501    0  0.00000000000E+00  0.00000000000E+00 -0.18248043389E+04  0.18248043389E+04  0.50400001928E-02 0. -1.
    10030    2    1    2    0    0  0.00000000000E+00  0.00000000000E+00  0.15535625296E+03  0.38049649308E+04  0.38017920195E+04 0.  0.
        4    1    3    3  502    0 -0.16056959656E+04 -0.95961598805E+03 -0.26065969773E+03  0.18886681734E+04  0.12699999809E+01 0. -1.
       -4    1    3    3    0  502  0.16056959656E+04  0.95961598805E+03  0.41601595069E+03  0.19162967574E+04  0.12699999809E+01 0.  1.
</event>
<event>
 5   0  0.3889225E-08  0.3815309E+04  0.7818609E-02  0.8042878E-01
        1   -1    0    0  501    0  0.00000000000E+00  0.00000000000E+00  0.17314283715E+04  0.17314283715E+04  0.50400001928E-02 0. -1.
       -1   -1    0    0    0  501  0.00000000000E+00  0.00000000000E+00 -0.21018167439E+04  0.21018167439E+04  0.50400001928E-02 0.  1.
    10030    2    1    2    0    0  0.00000000000E+00  0.00000000000E+00 -0.37038837239E+03  0.38332451155E+04  0.38153087121E+04 0.  0.
        5    1    3    3  502    0 -0.42513670894E+03  0.66407832575E+03  0.15600332851E+04  0.17479894693E+04  0.46999998093E+01 0. -1.
       -5    1    3    3    0  502  0.42513670894E+03 -0.66407832575E+03 -0.19304216575E+04  0.20852556462E+04  0.46999998093E+01 0.  1.
</event>
<event>
 5   0  0.3701250E-08  0.3929715E+04  0.7818609E-02  0.8018877E-01
       -1   -1    0    0    0  501  0.00000000000E+00  0.00000000000E+00  0.18499715564E+04  0.18499715564E+04  0.50400001928E-02 0. -1.
        1   -1    0    0  501    0  0.00000000000E+00  0.00000000000E+00 -0.20868776073E+04  0.20868776073E+04  0.50400001928E-02 0.  1.
    10030    2    1    2    0    0  0.00000000000E+00  0.00000000000E+00 -0.23690605092E+03  0.39368491637E+04  0.39297146030E+04 0.  0.
        4    1    3    3  502    0 -0.87289770614E+03 -0.53689646992E+03 -0.17979376594E+04  0.20694901944E+04  0.12699999809E+01 0.  1.
       -4    1    3    3    0  502  0.87289770614E+03  0.53689646992E+03  0.15610316085E+04  0.18673589693E+04  0.12699999809E+01 0. -1.
</event>
<event>
 5   0  0.3701250E-08  0.3809866E+04  0.7818609E-02  0.8044041E-01
        1   -1    0    0  501    0  0.00000000000E+00  0.00000000000E+00  0.16939613416E+04  0.16939613416E+04  0.50400001928E-02 0.  1.
       -1   -1    0    0    0  501  0.00000000000E+00  0.00000000000E+00 -0.21421792607E+04  0.21421792607E+04  0.50400001928E-02 0. -1.
    10030    2    1    2    0    0  0.00000000000E+00  0.00000000000E+00 -0.44821791911E+03  0.38361406024E+04  0.38098655381E+04 0.  0.
        1    1    3    3  502    0  0.12548954951E+02 -0.12432476774E+04 -0.16773040949E+04  0.20878628524E+04  0.50400001928E-02 0. -1.
       -1    1    3    3    0  502 -0.12548954951E+02  0.12432476774E+04  0.12290861758E+04  0.17482777500E+04  0.50400001928E-02 0.  1.
</event>
<event>
 5   0  0.1150235E-07  0.3752372E+04  0.7818609E-02  0.8056454E-01
        2   -1    0    0  501    0  0.00000000000E+00  0.00000000000E+00  0.19335682257E+04  0.19335682257E+04  0.25500000920E-02 0.  1.
       -2   -1    0    0    0  501  0.00000000000E+00  0.00000000000E+00 -0.18205069528E+04  0.18205069528E+04  0.25500000920E-02 0. -1.
    10030    2    1    2    0    0  0.00000000000E+00  0.00000000000E+00  0.11306127298E+03  0.37540751785E+04  0.37523722622E+04 0.  0.
        4    1    3    3  502    0  0.10617564563E+04 -0.13699653605E+04 -0.66208561946E+03  0.18553950635E+04  0.12699999809E+01 0. -1.
       -4    1    3    3    0  502 -0.10617564563E+04  0.13699653605E+04  0.77514689244E+03  0.18986801150E+04  0.12699999809E+01 0.  1.
</event>
<event>
 5   0  0.3701250E-08  0.3797249E+04  0.7818609E-02  0.8046746E-01
        1   -1    0    0  501    0  0.00000000000E+00  0.00000000000E+00  0.19615128137E+04  0.19615128137E+04  0.50400001928E-02 0. -1.
       -1   -1    0    0    0  501  0.00000000000E+00  0.00000000000E+00 -0.18377522296E+04  0.18377522296E+04  0.50400001928E-02 0.  1.
    10030    2    1    2    0    0  0.00000000000E+00  0.00000000000E+00  0.12376058411E+03  0.37992650433E+04  0.37972487655E+04 0.  0.
        4    1    3    3  502    0 -0.83679417622E+03 -0.13100586027E+04  0.11525485110E+04  0.19351609026E+04  0.12699999809E+01 0. -1.
       -4    1    3    3    0  502  0.83679417622E+03  0.13100586027E+04 -0.10287879269E+04  0.18641041407E+04  0.12699999809E+01 0.  1.
</event>
<event>
 5   0  0.3701250E-08  0.3783961E+04  0.7818609E-02  0.8049606E-01
       -1   -1    0    0    0  501  0.00000000000E+00  0.00000000000E+00  0.14229574408E+04  0.14229574408E+04  0.50400001928E-02 0.  1.
        1   -1    0    0  501    0  0.00000000000E+00  0.00000000000E+00 -0.25155985585E+04  0.25155985585E+04  0.50400001928E-02 0. -1.
    10030    2    1    2    0    0  0.00000000000E+00  0.00000000000E+00 -0.10926411177E+04  0.39385559993E+04  0.37839607222E+04 0.  0.
        4    1    3    3  502    0 -0.46009009352E+03 -0.12786916630E+04  0.82383930814E+03  0.15891658446E+04  0.12699999809E+01 0.  1.
       -4    1    3    3    0  502  0.46009009352E+03  0.12786916630E+04 -0.19164804259E+04  0.23493901547E+04  0.12699999809E+01 0. -1.
</event>
<event>
 5   0  0.3701250E-08  0.3806737E+04  0.7818609E-02  0.8044711E-01
        1   -1    0    0  501    0  0.00000000000E+00  0.00000000000E+00  0.11057928304E+04  0.11057928304E+04  0.50400001928E-02 0.  1.
       -1   -1    0    0    0  501  0.00000000000E+00  0.00000000000E+00 -0.32762114812E+04  0.32762114812E+04  0.50400001928E-02 0. -1.
    10030    2    1    2    0    0  0.00000000000E+00  0.00000000000E+00 -0.21704186508E+04  0.43820043117E+04  0.38067367479E+04 0.  0.
        3    1    3    3  502    0 -0.35044411694E+03 -0.17388538480E+04 -0.18797206226E+04  0.25845257617E+04  0.10100000352E+00 0. -1.
       -3    1    3    3    0  502  0.35044411694E+03  0.17388538480E+04 -0.29069802824E+03  0.17974785500E+04  0.10100000352E+00 0.  1.
</event>
<event>
 5   0  0.3701250E-08  0.3840872E+04  0.7818609E-02  0.8037440E-01
        1   -1    0    0  501    0  0.00000000000E+00  0.00000000000E+00  0.30002045975E+04  0.30002045975E+04  0.50400001928E-02 0.  1.
       -1   -1    0    0    0  501  0.00000000000E+00  0.00000000000E+00 -0.12292743090E+04  0.12292743090E+04  0.50400001928E-02 0. -1.
    10030    2    1    2    0    0  0.00000000000E+00  0.00000000000E+00  0.17709302885E+04  0.42294789064E+04  0.38408720017E+04 0.  0.
        3    1    3    3  502    0  0.96408545027E+03 -0.50696231524E+02  0.27135656452E+04  0.28801856510E+04  0.10100000352E+00 0.  1.
       -3    1    3    3    0  502 -0.96408545027E+03  0.50696231524E+02 -0.94263535668E+03  0.13492932554E+04  0.10100000352E+00 0. -1.
</event>
<event>
 5   0  0.7858367E-08  0.3801825E+04  0.7818609E-02  0.8045763E-01
       -2   -1    0    0    0  501  0.00000000000E+00  0.00000000000E+00  0.22039023032E+04  0.22039023032E+04  0.25500000920E-02 0. -1.
        2   -1    0    0  501    0  0.00000000000E+00  0.00000000000E+00 -0.16395774005E+04  0.16395774005E+04  0.25500000920E-02 0.  1.
    10030    2    1    2    0    0  0.00000000000E+00  0.00000000000E+00  0.56432490276E+03  0.38434797037E+04  0.38018250403E+04 0.  0.
        2    1    3    3  502    0  0.16881104651E+04  0.19967081124E+03 -0.57797263624E+03  0.17954491759E+04  0.25500000920E-02 0.  1.
       -2    1    3    3    0  502 -0.16881104651E+04 -0.19967081124E+03  0.11422975390E+04  0.20480305278E+04  0.25500000920E-02 0. -1.
</event>
<event>
 5   0  0.3701250E-08  0.3814260E+04  0.7818609E-02  0.8043102E-01
       -1   -1    0    0    0  501  0.00000000000E+00  0.00000000000E+00  0.26400527538E+04  0.26400527538E+04  0.50400001928E-02 0. -1.
        1   -1    0    0  501    0  0.00000000000E+00  0.00000000000E+00 -0.13776786707E+04  0.13776786707E+04  0.50400001928E-02 0.  1.
    10030    2    1    2    0    0  0.00000000000E+00  0.00000000000E+00  0.12623740831E+04  0.40177314245E+04  0.38142597544E+04 0.  0.
        2    1    3    3  502    0 -0.17516235874E+04  0.28942717555E+03  0.13649014426E+04  0.22393993011E+04  0.25500000920E-02 0. -1.
       -2    1    3    3    0  502  0.17516235874E+04 -0.28942717555E+03 -0.10252735946E+03  0.17783321234E+04  0.25500000920E-02 0.  1.
</event>
<event>
 5   0  0.3701250E-08  0.3783504E+04  0.7818609E-02  0.8049704E-01
        1   -1    0    0  501    0  0.00000000000E+00  0.00000000000E+00  0.18780384786E+04  0.18780384786E+04  0.50400001928E-02 0. -1.
       -1   -1    0    0    0  501  0.00000000000E+00  0.00000000000E+00 -0.19055657294E+04  0.19055657294E+04  0.50400001928E-02 0.  1.
    10030    2    1    2    0    0  0.00000000000E+00  0.00000000000E+00 -0.27527250808E+02  0.37836042080E+04  0.37835040708E+04 0.  0.
        4    1    3    3  502    0  0.60714905855E+03 -0.16835681037E+04 -0.62671753747E+03  0.18962615916E+04  0.12699999809E+01 0.  1.
       -4    1    3    3    0  502 -0.60714905855E+03  0.16835681037E+04  0.59919028666E+03  0.18873426164E+04  0.12699999809E+01 0. -1.
</event>
<event>
 5   0  0.1150235E-07  0.3810176E+04  0.7818609E-02  0.8043975E-01
       -2   -1    0    0    0  501  0.00000000000E+00  0.00000000000E+00  0.14865278920E+04  0.14865278920E+04  0.25500000920E-02 0. -1.
        2   -1    0    0  501    0  0.00000000000E+00  0.00000000000E+00 -0.24415016670E+04  0.24415016670E+04  0.25500000920E-02 0.  1.
    10030    2    1    2    0    0  0.00000000000E+00  0.00000000000E+00 -0.95497377503E+03  0.39280295590E+04  0.38101760203E+04 0.  0.
        4    1    3    3  502    0 -0.18596509661E+04 -0.29508998515E+02 -0.90278347681E+03  0.20674119366E+04  0.12699999809E+01 0.  1.
       -4    1    3    3    0  502  0.18596509661E+04  0.29508998515E+02 -0.52190298222E+02  0.18606176224E+04  0.12699999809E+01 0. -1.
</event>
<event>
 5   0  0.1193861E-07  0.3816170E+04  0.7818609E-02  0.8042694E-01
       -2   -1    0    0    0  501  0.00000000000E+00  0.00000000000E+00  0.10220090482E+04  0.10220090482E+04  0.25500000920E-02 0. -1.
        2   -1    0    0  501    0  0.00000000000E+00  0.00000000000E+00 -0.35623838084E+04  0.35623838084E+04  0.25500000920E-02 0.  1.
    10030    2    1    2    0    0  0.00000000000E+00  0.00000000000E+00 -0.25403747602E+04  0.45843928566E+04  0.38161700619E+04 0.  0.
        3    1    3    3  502    0  0.95740857832E+03 -0.12569010906E+04  0.14906514942E+02  0.15800802992E+04  0.10100000352E+00 0. -1.
       -3    1    3    3    0  502 -0.95740857832E+03  0.12569010906E+04 -0.25552812751E+04  0.30043125574E+04  0.10100000352E+00 0.  1.
</event>
<event>
 5   0  0.3701250E-08  0.3780387E+04  0.7818609E-02  0.8050377E-01
       -1   -1    0    0    0  501  0.00000000000E+00  0.00000000000E+00  0.23899750996E+04  0.23899750996E+04  0.50400001928E-02 0. -1.
        1   -1    0    0  501    0  0.00000000000E+00  0.00000000000E+00 -0.14949242840E+04  0.14949242840E+04  0.50400001928E-02 0.  1.
    10030    2    1    2    0    0  0.00000000000E+00  0.00000000000E+00  0.89505081556E+03  0.38848993836E+04  0.37803871837E+04 0.  0.
        2    1    3    3  502    0  0.37495504504E+03  0.18491127876E+04  0.33025472071E+03  0.19154314312E+04  0.25500000920E-02 0.  1.
       -2    1    3    3    0  502 -0.37495504504E+03 -0.18491127876E+04  0.56479609485E+03  0.19694679524E+04  0.25500000920E-02 0. -1.
</event>
<event>
 5   0  0.7858367E-08  0.3792394E+04  0.7818609E-02  0.8047789E-01
        2   -1    0    0  501    0  0.00000000000E+00  0.00000000000E+00  0.15862470268E+04  0.15862470268E+04  0.25500000920E-02 0.  1.
       -2   -1    0    0    0  501  0.00000000000E+00  0.00000000000E+00 -0.22667110299E+04  0.22667110299E+04  0.25500000920E-02 0. -1.
    10030    2    1    2    0    0  0.00000000000E+00  0.00000000000E+00 -0.68046400302E+03  0.38529580567E+04  0.37923943001E+04 0.  0.
        2    1    3    3  502    0 -0.37540811161E+03  0.37885503915E+03 -0.21889344915E+04  0.22529750551E+04  0.25500000920E-02 0. -1.
       -2    1    3    3    0  502  0.37540811161E+03 -0.37885503915E+03  0.15084704884E+04  0.15999830016E+04  0.25500000920E-02 0.  1.
</event>
<event>
 5   0  0.1193861E-07  0.3796040E+04  0.7818609E-02  0.8047005E-01
       -2   -1    0    0    0  501  0.00000000000E+00  0.00000000000E+00  0.20886104538E+04  0.20886104538E+04  0.25500000920E-02 0. -1.
        2   -1    0    0  501    0  0.00000000000E+00  0.00000000000E+00 -0.17248215563E+04  0.17248215563E+04  0.25500000920E-02 0.  1.
    10030    2    1    2    0    0  0.00000000000E+00  0.00000000000E+00  0.36378889752E+03  0.38134320101E+04  0.37960402176E+04 0.  0.
        3    1    3    3  502    0 -0.13674875207E+04 -0.12562226801E+04 -0.21279589488E+03  0.18690638417E+04  0.10100000352E+00 0. -1.
       -3    1    3    3    0  502  0.13674875207E+04  0.12562226801E+04  0.57658479241E+03  0.19443681684E+04  0.10100000352E+00 0.  1.
</event>
<event>
 5   0  0.3889225E-08  0.3792994E+04  0.7818609E-02  0.8047660E-01
        1   -1    0    0  501    0  0.00000000000E+00  0.00000000000E+00  0.21341515185E+04  0.21341515185E+04  0.50400001928E-02 0. -1.
       -1   -1    0    0    0  501  0.00000000000E+00  0.00000000000E+00 -0.16853069843E+04  0.16853069844E+04  0.50400001928E-02 0.  1.
    10030    2    1    2    0    0  0.00000000000E+00  0.00000000000E+00  0.44884453417E+03  0.38194585029E+04  0.37929937832E+04 0.  0.
        5    1    3    3  502    0  0.37480162701E+03 -0.11204331761E+04 -0.12694486499E+04  0.17341766711E+04  0.46999998093E+01 0.  1.
       -5    1    3    3    0  502 -0.37480162701E+03  0.11204331761E+04  0.17182931841E+04  0.20852818318E+04  0.46999998093E+01 0. -1.
</event>
<event>
 5   0  0.7858367E-08  0.3808775E+04  0.7818609E-02  0.8044274E-01
       -2   -1    0    0    0  501  0.00000000000E+00  0.00000000000E+00  0.15522895849E+04  0.15522895849E+04  0.25500000920E-02 0. -1.
        2   -1    0    0  501    0  0.00000000000E+00  0.00000000000E+00 -0.23363504420E+04  0.23363504420E+04  0.25500000920E-02 0.  1.
    10030    2    1    2    0    0  0.00000000000E+00  0.00000000000E+00 -0.78406085716E+03  0.38886400269E+04  0.38087753716E+04 0.  0.
        2    1    3    3  502    0  0.11157184334E+04 -0.33059608057E+03  0.11470847406E+04  0.16339904508E+04  0.25500000920E-02 0. -1.
       -2    1    3    3    0  502 -0.11157184334E+04  0.33059608057E+03 -0.19311455978E+04  0.22546495761E+04  0.25500000920E-02 0.  1.
</event>
<event>
 5   0  0.3889225E-08  0.3820393E+04  0.7818609E-02  0.8041793E-01
        1   -1    0    0  501    0  0.00000000000E+00  0.00000000000E+00  0.16182270959E+04  0.16182270959E+04  0.50400001928E-02 0. -1.
       -1   -1    0    0    0  501  0.00000000000E+00  0.00000000000E+00 -0.22548445664E+04  0.22548445664E+04  0.50400001928E-02 0.  1.
    10030    2    1    2    0    0  0.00000000000E+00  0.00000000000E+00 -0.63661747052E+03  0.38730716624E+04  0.38203929508E+04 0.  0.
        5    1    3    3  502    0 -0.69258524346E+03  0.17468656004E+04  0.29370194787E+02  0.18793877843E+04  0.46999998093E+01 0. -1.
       -5    1    3    3    0  502  0.69258524346E+03 -0.17468656004E+04 -0.66598766531E+03  0.19936838781E+04  0.46999998093E+01 0.  1.
</event>
<event>
 5   0  0.7858367E-08  0.3805952E+04  0.7818609E-02  0.8044879E-01
        2   -1    0    0  501    0  0.00000000000E+00  0.00000000000E+00  0.27127231986E+04  0.27127231986E+04  0.25500000920E-02 0. -1.
       -2   -1    0    0    0  501  0.00000000000E+00  0.00000000000E+00 -0.13349378749E+04  0.13349378749E+04  0.25500000920E-02 0.  1.
    10030    2    1    2    0    0  0.00000000000E+00  0.00000000000E+00  0.13777853237E+04  0.40476610735E+04  0.38059516245E+04 0.  0.
        2    1    3    3  502    0 -0.97646800181E+03 -0.10149046840E+04  0.20499321793E+04  0.24871154408E+04  0.25500000920E-02 0. -1.
       -2    1    3    3    0  502  0.97646800181E+03  0.10149046840E+04 -0.67214685561E+03  0.15605456327E+04  0.25500000920E-02 0.  1.
</event>
<event>
 5   0  0.3701250E-08  0.3803846E+04  0.7818609E-02  0.8045330E-01
        1   -1    0    0  501    0  0.00000000000E+00  0.00000000000E+00  0.23846200983E+04  0.23846200983E+04  0.50400001928E-02 0. -1.
       -1   -1    0    0    0  501  0.00000000000E+00  0.00000000000E+00 -0.15169335936E+04  0.15169335936E+04  0.50400001928E-02 0.  1.
    10030    2    1    2    0    0  0.00000000000E+00  0.00000000000E+00  0.86768650466E+03  0.39015536919E+04  0.38038455990E+04 0.  0.
        3    1    3    3  502    0 -0.74634028483E+03 -0.76209982421E+03  0.20489302465E+04  0.23099643132E+04  0.10100000352E+00 0. -1.
       -3    1    3    3    0  502  0.74634028483E+03  0.76209982421E+03 -0.11812437418E+04  0.15915893788E+04  0.10100000352E+00 0.  1.
</event>
<event>
 5   0  0.1143283E-07  0.3792631E+04  0.7818609E-02  0.8047738E-01
        2   -1    0    0  501    0  0.00000000000E+00  0.00000000000E+00  0.23108757183E+04  0.23108757183E+04  0.25500000920E-02 0. -1.
       -2   -1    0    0    0  501  0.00000000000E+00  0.00000000000E+00 -0.15561257567E+04  0.15561257567E+04  0.25500000920E-02 0.  1.
    10030    2    1    2    0    0  0.00000000000E+00  0.00000000000E+00  0.75474996162E+03  0.38670014749E+04  0.37926313956E+04 0.  0.
        1    1    3    3  502    0  0.55575748025E+03  0.13672155343E+04  0.15914672222E+04  0.21704636863E+04  0.50400001928E-02 0. -1.
       -1    1    3    3    0  502 -0.55575748025E+03 -0.13672155343E+04 -0.83671726058E+03  0.16965377886E+04  0.50400001928E-02 0.  1.
</event>
<event>
 5   0  0.3701250E-08  0.3792330E+04  0.7818609E-02  0.8047803E-01
        1   -1    0    0  501    0  0.00000000000E+00  0.00000000000E+00  0.11340568541E+04  0.11340568541E+04  0.50400001928E-02 0.  1.
       -1   -1    0    0    0  501  0.00000000000E+00  0.00000000000E+00 -0.31704251850E+04  0.31704251850E+04  0.50400001928E-02 0. -1.
    10030    2    1    2    0    0  0.00000000000E+00  0.00000000000E+00 -0.20363683309E+04  0.43044820391E+04  0.37923303714E+04 0.  0.
        2    1    3    3  502    0 -0.70022442980E+03 -0.87897803371E+03  0.71533226245E+03  0.13321474699E+04  0.25500000920E-02 0.  1.
       -2    1    3    3    0  502  0.70022442980E+03  0.87897803371E+03 -0.27517005933E+04  0.29723345692E+04  0.25500000920E-02 0. -1.
</event>
<event>
 5   0  0.3701250E-08  0.3827482E+04  0.7818609E-02  0.8040283E-01
        1   -1    0    0  501    0  0.00000000000E+00  0.00000000000E+00  0.23628962077E+04  0.23628962078E+04  0.50400001928E-02 0.  1.
       -1   -1    0    0    0  501  0.00000000000E+00  0.00000000000E+00 -0.15499641822E+04  0.15499641822E+04  0.50400001928E-02 0. -1.
    10030    2    1    2    0    0  0.00000000000E+00  0.00000000000E+00  0.81293202556E+03  0.39128603899E+04  0.38274819337E+04 0.  0.
        1    1    3    3  502    0  0.97246922156E+03  0.27339345554E+03  0.20681355601E+04  0.23016570255E+04  0.50400001928E-02 0.  1.
       -1    1    3    3    0  502 -0.97246922156E+03 -0.27339345554E+03 -0.12552035345E+04  0.16112033644E+04  0.50400001928E-02 0. -1.
</event>
<event>
 5   0  0.7858367E-08  0.3782022E+04  0.7818609E-02  0.8050024E-01
       -2   -1    0    0    0  501  0.00000000000E+00  0.00000000000E+00  0.12094506154E+04  0.12094506154E+04  0.25500000920E-02 0. -1.
        2   -1    0    0  501    0  0.00000000000E+00  0.00000000000E+00 -0.29566496505E+04  0.29566496505E+04  0.25500000920E-02 0.  1.
    10030    2    1    2    0    0  0.00000000000E+00  0.00000000000E+00 -0.17471990350E+04  0.41661002659E+04  0.37820215438E+04 0.  0.
        2    1    3    3  502    0  0.37374449292E+03 -0.85562705601E+03  0.93782497746E+03  0.13233662733E+04  0.25500000920E-02 0. -1.
       -2    1    3    3    0  502 -0.37374449292E+03  0.85562705601E+03 -0.26850240125E+04  0.28427339926E+04  0.25500000920E-02 0.  1.
</event>
<event>
 5   0  0.3701250E-08  0.3794940E+04  0.7818609E-02  0.8047242E-01
        1   -1    0    0  501    0  0.00000000000E+00  0.00000000000E+00  0.22477578002E+04  0.22477578002E+04  0.50400001928E-02 0.  1.
       -1   -1    0    0    0  501  0.00000000000E+00  0.00000000000E+00 -0.16017704033E+04  0.16017704033E+04  0.50400001928E-02 0. -1.
    10030    2    1    2    0    0  0.00000000000E+00  0.00000000000E+00  0.64598739690E+03  0.38495282036E+04  0.37949397457E+04 0.  0.
        3    1    3    3  502    0  0.54923211068E+03 -0.98276805642E+03  0.18723487650E+04  0.21847605984E+04  0.10100000352E+00 0.  1.
       -3    1    3    3    0  502 -0.54923211068E+03  0.98276805642E+03 -0.12263613681E+04  0.16647676052E+04  0.10100000352E+00 0. -1.
</event>
<event>
 5   0  0.7858367E-08  0.3783141E+04  0.7818609E-02  0.8049783E-01
       -2   -1    0    0    0  501  0.00000000000E+00  0.00000000000E+00  0.27287756291E+04  0.27287756291E+04  0.25500000920E-02 0.  1.
        2   -1    0    0  501    0  0.00000000000E+00  0.00000000000E+00 -0.13112249475E+04  0.13112249475E+04  0.25500000920E-02 0. -1.
    10030    2    1    2    0    0  0.00000000000E+00  0.00000000000E+00  0.14175506816E+04  0.40400005765E+04  0.37831408543E+04 0.  0.
        2    1    3    3  502    0 -0.12499961597E+04 -0.13615220234E+04  0.27921289215E+03  0.18692759182E+04  0.25500000920E-02 0. -1.
       -2    1    3    3    0  502  0.12499961597E+04  0.13615220234E+04  0.11383377894E+04  0.21707246583E+04  0.25500000920E-02 0.  1.
</event>
<event>
 5   0  0.1143283E-07  0.3795158E+04  0.7818609E-02  0.8047195E-01
       -2   -1    0    0    0  501  0.00000000000E+00  0.00000000000E+00  0.19162729353E+04  0.19162729353E+04  0.25500000920E-02 0. -1.
        2   -1    0    0  501    0  0.00000000000E+00  0.00000000000E+00 -0.18790670172E+04  0.18790670172E+04  0.25500000920E-02 0.  1.
    10030    2    1    2    0    0  0.00000000000E+00  0.00000000000E+00  0.37205918076E+02  0.37953399525E+04  0.37951575823E+04 0.  0.
        1    1    3    3  502    0 -0.99997052304E+03  0.12834890103E+02  0.16313488901E+04  0.19134798098E+04  0.50400001928E-02 0. -1.
       -1    1    3    3    0  502  0.99997052304E+03 -0.12834890103E+02 -0.15941429720E+04  0.18818601427E+04  0.50400001928E-02 0.  1.
</event>
<event>
 5   0  0.1174870E-07  0.3793952E+04  0.7818609E-02  0.8047454E-01
        2   -1    0    0  501    0  0.00000000000E+00  0.00000000000E+00  0.13203726162E+04  0.13203726162E+04  0.25500000920E-02 0.  1.
       -2   -1    0    0    0  501  0.00000000000E+00  0.00000000000E+00 -0.27253803187E+04  0.27253803187E+04  0.25500000920E-02 0. -1.
    10030    2    1    2    0    0  0.00000000000E+00  0.00000000000E+00 -0.14050077025E+04  0.40457529349E+04  0.37939517875E+04 0.  0.
        5    1    3    3  502    0  0.83817027127E+03 -0.71249730520E+03 -0.23504887565E+04  0.25951881046E+04  0.46999998093E+01 0. -1.
       -5    1    3    3    0  502 -0.83817027127E+03  0.71249730520E+03  0.94548105398E+03  0.14505648303E+04  0.46999998093E+01 0.  1.
</event>
<event>
 5   0  0.3701250E-08  0.3742752E+04  0.7818609E-02  0.8058553E-01
        1   -1    0    0  501    0  0.00000000000E+00  0.00000000000E+00  0.19362137495E+04  0.19362137495E+04  0.50400001928E-02 0.  1.
       -1   -1    0    0    0  501  0.00000000000E+00  0.00000000000E+00 -0.18087094063E+04  0.18087094063E+04  0.50400001928E-02 0. -1.
    10030    2    1    2    0    0  0.00000000000E+00  0.00000000000E+00  0.12750434320E+03  0.37449231559E+04  0.37427519402E+04 0.  0.
        4    1    3    3  502    0  0.47648657527E+03  0.11936908893E+04  0.14247283569E+04  0.19187990774E+04  0.12699999809E+01 0.  1.
       -4    1    3    3    0  502 -0.47648657527E+03 -0.11936908893E+04 -0.12972240137E+04  0.18261240785E+04  0.12699999809E+01 0. -1.
</event>
<event>
 5   0  0.3701250E-08  0.3796329E+04  0.7818609E-02  0.8046943E-01
       -1   -1    0    0    0  501  0.00000000000E+00  0.00000000000E+00  0.22594379128E+04  0.22594379128E+04  0.50400001928E-02 0. -1.
        1   -1    0    0  501    0  0.00000000000E+00  0.00000000000E+00 -0.15946573256E+04  0.15946573256E+04  0.50400001928E-02 0.  1.
    10030    2    1    2    0    0  0.00000000000E+00  0.00000000000E+00  0.66478058724E+03  0.38540952384E+04  0.37963293953E+04 0.  0.
        1    1    3    3  502    0 -0.55974231540E+03  0.18048766658E+04  0.51438881007E+03  0.19584399624E+04  0.50400001928E-02 0. -1.
       -1    1    3    3    0  502  0.55974231540E+03 -0.18048766658E+04  0.15039177717E+03  0.18956552759E+04  0.50400001928E-02 0.  1.
</event>
<event>
 5   0  0.3889225E-08  0.3801208E+04  0.7818609E-02  0.8045896E-01
        1   -1    0    0  501    0  0.00000000000E+00  0.00000000000E+00  0.22355175999E+04  0.22355175999E+04  0.50400001928E-02 0. -1.
       -1   -1    0    0    0  501  0.00000000000E+00  0.00000000000E+00 -0.16158653451E+04  0.16158653451E+04  0.50400001928E-02 0.  1.
    10030    2    1    2    0    0  0.00000000000E+00  0.00000000000E+00  0.61965225482E+03  0.38513829449E+04  0.38012079227E+04 0.  0.
        5    1    3    3  502    0 -0.54600979491E+03  0.17875536744E+04  0.65904728098E+03  0.19818779588E+04  0.46999998093E+01 0.  1.
       -5    1    3    3    0  502  0.54600979491E+03 -0.17875536744E+04 -0.39395026160E+02  0.18695049861E+04  0.46999998093E+01 0. -1.
</event>
<event>
 5   0  0.7858367E-08  0.3796604E+04  0.7818609E-02  0.8046884E-01
        2   -1    0    0  501    0  0.00000000000E+00  0.00000000000E+00  0.19084931059E+04  0.19084931059E+04  0.25500000920E-02 0.  1.
       -2   -1    0    0    0  501  0.00000000000E+00  0.00000000000E+00 -0.18881650299E+04  0.18881650299E+04  0.25500000920E-02 0. -1.
    10030    2    1    2    0    0  0.00000000000E+00  0.00000000000E+00  0.20328075963E+02  0.37966581358E+04  0.37966037151E+04 0.  0.
        2    1    3    3  502    0 -0.61951456732E+02 -0.18313615913E+04 -0.48565218668E+03  0.18956743675E+04  0.25500000920E-02 0. -1.
       -2    1    3    3    0  502  0.61951456732E+02  0.18313615913E+04  0.50598026265E+03  0.19009837683E+04  0.25500000920E-02 0.  1.
</event>
<event>
 5   0  0.1150235E-07  0.3799491E+04  0.7818609E-02  0.8046264E-01
        2   -1    0    0  501    0  0.00000000000E+00  0.00000000000E+00  0.26158790979E+04  0.26158790979E+04  0.25500000920E-02 0.  1.
       -2   -1    0    0    0  501  0.00000000000E+00  0.00000000000E+00 -0.13796633021E+04  0.13796633021E+04  0.25500000920E-02 0. -1.
    10030    2    1    2    0    0  0.00000000000E+00  0.00000000000E+00  0.12362157958E+04  0.39955424000E+04  0.37994906996E+04 0.  0.
        4    1    3    3  502    0 -0.18722998757E+04  0.19592850268E+03  0.88649449787E+03  0.20808096766E+04  0.12699999809E+01 0.  1.
       -4    1    3    3    0  502  0.18722998757E+04 -0.19592850268E+03  0.34972129797E+03  0.19147327234E+04  0.12699999809E+01 0. -1.
</event>
<event>
 5   0  0.1193861E-07  0.3792900E+04  0.7818609E-02  0.8047680E-01
        2   -1    0    0  501    0  0.00000000000E+00  0.00000000000E+00  0.22174491705E+04  0.22174491705E+04  0.25500000920E-02 0.  1.
       -2   -1    0    0    0  501  0.00000000000E+00  0.00000000000E+00 -0.16219189111E+04  0.16219189111E+04  0.25500000920E-02 0. -1.
    10030    2    1    2    0    0  0.00000000000E+00  0.00000000000E+00  0.59553025933E+03  0.38393680816E+04  0.37929000747E+04 0.  0.
        3    1    3    3  502    0  0.21216774443E+03  0.18625476507E+04  0.58837793544E+03  0.19647614379E+04  0.10100000352E+00 0.  1.
       -3    1    3    3    0  502 -0.21216774443E+03 -0.18625476507E+04  0.71523238854E+01  0.18746066437E+04  0.10100000352E+00 0. -1.
</event>
<event>
 5   0  0.1150235E-07  0.3796517E+04  0.7818609E-02  0.8046903E-01
        2   -1    0    0  501    0  0.00000000000E+00  0.00000000000E+00  0.29029905644E+04  0.29029905644E+04  0.25500000920E-02 0. -1.
       -2   -1    0    0    0  501  0.00000000000E+00  0.00000000000E+00 -0.12412669361E+04  0.12412669361E+04  0.25500000920E-02 0.  1.
    10030    2    1    2    0    0  0.00000000000E+00  0.00000000000E+00  0.16617236282E+04  0.41442575005E+04  0.37965174587E+04 0.  0.
        4    1    3    3  502    0 -0.46029473093E+03 -0.15819073519E+03  0.28337187716E+04  0.28752146419E+04  0.12699999809E+01 0. -1.
       -4    1    3    3    0  502  0.46029473093E+03  0.15819073519E+03 -0.11719951433E+04  0.12690428586E+04  0.12699999809E+01 0.  1.
</event>
<event>
 5   0  0.7858367E-08  0.3811780E+04  0.7818609E-02  0.8043632E-01
       -2   -1    0    0    0  501  0.00000000000E+00  0.00000000000E+00  0.27806437311E+04  0.27806437311E+04  0.25500000920E-02 0. -1.
        2   -1    0    0  501    0  0.00000000000E+00  0.00000000000E+00 -0.13063222394E+04  0.13063222394E+04  0.25500000920E-02 0.  1.
    10030    2    1    2    0    0  0.00000000000E+00  0.00000000000E+00  0.14743214917E+04  0.40869659704E+04  0.38117800281E+04 0.  0.
        2    1    3    3  502    0 -0.43087627373E+03  0.14986824324E+04 -0.43771749585E+03  0.16196604591E+04  0.25500000920E-02 0.  1.
       -2    1    3    3    0  502  0.43087627373E+03 -0.14986824324E+04  0.19120389876E+04  0.24673055114E+04  0.25500000920E-02 0. -1.
</event>
<event>
 5   0  0.1193861E-07  0.3783066E+04  0.7818609E-02  0.8049799E-01
       -2   -1    0    0    0  501  0.00000000000E+00  0.00000000000E+00  0.15166913940E+04  0.15166913940E+04  0.25500000920E-02 0.  1.
        2   -1    0    0  501    0  0.00000000000E+00  0.00000000000E+00 -0.23590149619E+04  0.23590149619E+04  0.25500000920E-02 0. -1.
    10030    2    1    2    0    0  0.00000000000E+00  0.00000000000E+00 -0.84232356790E+03  0.38757063559E+04  0.37830663177E+04 0.  0.
        3    1    3    3  502    0 -0.16755137500E+04 -0.78271207390E+03 -0.82827582173E+03  0.20263329845E+04  0.10100000352E+00 0.  1.
       -3    1    3    3    0  502  0.16755137500E+04  0.78271207390E+03 -0.14047746173E+02  0.18493733713E+04  0.10100000352E+00 0. -1.
</event>
<event>
 5   0  0.1174870E-07  0.3766138E+04  0.7818609E-02  0.8053461E-01
       -2   -1    0    0    0  501  0.00000000000E+00  0.00000000000E+00  0.28756344164E+04  0.28756344164E+04  0.25500000920E-02 0. -1.
        2   -1    0    0  501    0  0.00000000000E+00  0.00000000000E+00 -0.12331015404E+04  0.12331015404E+04  0.25500000920E-02 0.  1.
    10030    2    1    2    0    0  0.00000000000E+00  0.00000000000E+00  0.16425328761E+04  0.41087359568E+04  0.37661381963E+04 0.  0.
        5    1    3    3  502    0 -0.17634596977E+04  0.57069405210E+02  0.10347908984E+03  0.17674210123E+04  0.46999998093E+01 0. -1.
       -5    1    3    3    0  502  0.17634596977E+04 -0.57069405210E+02  0.15390537862E+04  0.23413149445E+04  0.46999998093E+01 0.  1.
</event>
<event>
 5   0  0.1174870E-07  0.3793554E+04  0.7818609E-02  0.8047539E-01
        2   -1    0    0  501    0  0.00000000000E+00  0.00000000000E+00  0.16997284378E+04  0.16997284378E+04  0.25500000920E-02 0. -1.
       -2   -1    0    0    0  501  0.00000000000E+00  0.00000000000E+00 -0.21166698454E+04  0.21166698454E+04  0.25500000920E-02 0.  1.
    10030    2    1    2    0    0  0.00000000000E+00  0.00000000000E+00 -0.41694140759E+03  0.38163982833E+04  0.37935544966E+04 0.  0.
        5    1    3    3  502    0  0.27311361297E+03  0.13289848547E+04 -0.15419524401E+04  0.20538819847E+04  0.46999998093E+01 0.  1.
       -5    1    3    3    0  502 -0.27311361297E+03 -0.13289848547E+04  0.11250110325E+04  0.17625162986E+04  0.46999998093E+01 0. -1.
</event>
<event>
 5   0  0.1174870E-07  0.3820828E+04  0.7818609E-02  0.8041700E-01
        2   -1    0    0  501    0  0.00000000000E+00  0.00000000000E+00  0.26082722099E+04  0.26082722099E+04  0.25500000920E-02 0.  1.
       -2   -1    0    0    0  501  0.00000000000E+00  0.00000000000E+00 -0.13992716376E+04  0.13992716376E+04  0.25500000920E-02 0. -1.
    10030    2    1    2    0    0  0.00000000000E+00  0.00000000000E+00  0.12090005723E+04  0.40075438475E+04  0.38208278299E+04 0.  0.
        5    1    3    3  502    0  0.14104590778E+03 -0.18763093336E+04  0.95114848227E+03  0.21083491619E+04  0.46999998093E+01 0.  1.
       -5    1    3    3    0  502 -0.14104590778E+03  0.18763093336E+04  0.25785209000E+03  0.18991946856E+04  0.46999998093E+01 0. -1.
</event>
<event>
 5   0  0.1174870E-07  0.3786105E+04  0.7818609E-02  0.8049143E-01
        2   -1    0    0  501    0  0.00000000000E+00  0.00000000000E+00  0.32032306724E+04  0.32032306724E+04  0.25500000920E-02 0. -1.
       -2   -1    0    0    0  501  0.00000000000E+00  0.00000000000E+00 -0.11187602489E+04  0.11187602489E+04  0.25500000920E-02 0.  1.
    10030    2    1    2    0    0  0.00000000000E+00  0.00000000000E+00  0.20844704235E+04  0.43219909214E+04  0.37861046708E+04 0.  0.
        5    1    3    3  502    0  0.21361106959E+02 -0.63604208018E+03 -0.99298068971E+03  0.11794229796E+04  0.46999998093E+01 0.  1.
       -5    1    3    3    0  502 -0.21361106959E+02  0.63604208018E+03  0.30774511132E+04  0.31425679418E+04  0.46999998093E+01 0. -1.
</event>
<event>
 5   0  0.3701250E-08  0.3796355E+04  0.7818609E-02  0.8046938E-01
       -1   -1    0    0    0  501  0.00000000000E+00  0.00000000000E+00  0.18817621180E+04  0.18817621180E+04  0.50400001928E-02 0. -1.
        1   -1    0    0  501    0  0.00000000000E+00  0.00000000000E+00 -0.19147360081E+04  0.19147360081E+04  0.50400001928E-02 0.  1.
    10030    2    1    2    0    0  0.00000000000E+00  0.00000000000E+00 -0.32973890091E+02  0.37964981261E+04  0.37963549286E+04 0.  0.
        3    1    3    3  502    0 -0.90074642569E+02 -0.10945393141E+04 -0.15647533150E+04  0.19116962882E+04  0.10100000352E+00 0.  1.
       -3    1    3    3    0  502  0.90074642569E+02  0.10945393141E+04  0.15317794249E+04  0.18848018379E+04  0.10100000352E+00 0. -1.
</event>
<event>
 5   0  0.1193861E-07  0.3763367E+04  0.7818609E-02  0.8054062E-01
       -2   -1    0    0    0  501  0.00000000000E+00  0.00000000000E+00  0.22060077069E+04  0.22060077069E+04  0.25500000920E-02 0. -1.
        2   -1    0    0  501    0  0.00000000000E+00  0.00000000000E+00 -0.16050412744E+04  0.16050412744E+04  0.25500000920E-02 0.  1.
    10030    2    1    2    0    0  0.00000000000E+00  0.00000000000E+00  0.60096643256E+03  0.38110489813E+04  0.37633673333E+04 0.  0.
        3    1    3    3  502    0  0.26926103082E+03 -0.53168446244E+03 -0.15069393175E+04  0.16205110265E+04  0.10100000352E+00 0.  1.
       -3    1    3    3    0  502 -0.26926103082E+03  0.53168446244E+03  0.21079057500E+04  0.21905379548E+04  0.10100000352E+00 0. -1.
</event>
<event>
 5   0  0.3701250E-08  0.3813072E+04  0.7818609E-02  0.8043355E-01
       -1   -1    0    0    0  501  0.00000000000E+00  0.00000000000E+00  0.18567701144E+04  0.18567701145E+04  0.50400001928E-02 0. -1.
        1   -1    0    0  501    0  0.00000000000E+00  0.00000000000E+00 -0.19576358415E+04  0.19576358415E+04  0.50400001928E-02 0.  1.
    10030    2    1    2    0    0  0.00000000000E+00  0.00000000000E+00 -0.10086572709E+03  0.38144059560E+04  0.38130721082E+04 0.  0.
        1    1    3    3  502    0 -0.13844530782E+04 -0.68248693344E+03 -0.11699226257E+04  0.19368060538E+04  0.50400001928E-02 0.  1.
       -1    1    3    3    0  502  0.13844530782E+04  0.68248693344E+03  0.10690568986E+04  0.18775999022E+04  0.50400001928E-02 0. -1.
</event>
<event>
 5   0  0.1174870E-07  0.3817786E+04  0.7818609E-02  0.8042349E-01
       -2   -1    0    0    0  501  0.00000000000E+00  0.00000000000E+00  0.21968792322E+04  0.21968792322E+04  0.25500000920E-02 0.  1.
        2   -1    0    0  501    0  0.00000000000E+00  0.00000000000E+00 -0.16586582030E+04  0.16586582030E+04  0.25500000920E-02 0. -1.
    10030    2    1    2    0    0  0.00000000000E+00  0.00000000000E+00  0.53822102926E+03  0.38555374352E+04  0.38177856197E+04 0.  0.
        5    1    3    3  502    0  0.89540637592E+03 -0.89644682821E+03 -0.11727612341E+04  0.17264879079E+04  0.46999998093E+01 0. -1.
       -5    1    3    3    0  502 -0.89540637592E+03  0.89644682821E+03  0.17109822634E+04  0.21290495273E+04  0.46999998093E+01 0.  1.
</event>
<event>
 5   0  0.3889225E-08  0.3818901E+04  0.7818609E-02  0.8042111E-01
        1   -1    0    0  501    0  0.00000000000E+00  0.00000000000E+00  0.13291465067E+04  0.13291465068E+04  0.50400001928E-02 0.  1.
       -1   -1    0    0    0  501  0.00000000000E+00  0.00000000000E+00 -0.27431146909E+04  0.27431146909E+04  0.50400001928E-02 0. -1.
    10030    2    1    2    0    0  0.00000000000E+00  0.00000000000E+00 -0.14139681841E+04  0.40722611976E+04  0.38189010508E+04 0.  0.
        5    1    3    3  502    0 -0.59400409376E+03  0.20026701819E+03 -0.26302589451E+04  0.27039289839E+04  0.46999998093E+01 0. -1.
       -5    1    3    3    0  502  0.59400409376E+03 -0.20026701819E+03  0.12162907609E+04  0.13683322137E+04  0.46999998093E+01 0.  1.
</event>
<event>
 5   0  0.7858367E-08  0.3809665E+04  0.7818609E-02  0.8044084E-01
        2   -1    0    0  501    0  0.00000000000E+00  0.00000000000E+00  0.24600456280E+04  0.24600456280E+04  0.25500000920E-02 0. -1.
       -2   -1    0    0    0  501  0.00000000000E+00  0.00000000000E+00 -0.14749265536E+04  0.14749265536E+04  0.25500000920E-02 0.  1.
    10030    2    1    2    0    0  0.00000000000E+00  0.00000000000E+00  0.98511907435E+03  0.39349721816E+04  0.38096648776E+04 0.  0.
        2    1    3    3  502    0 -0.18723203159E+04 -0.38246295562E+02  0.13276237116E+03  0.18774109810E+04  0.25500000920E-02 0.  1.
       -2    1    3    3    0  502  0.18723203159E+04  0.38246295562E+02  0.85235670319E+03  0.20575612006E+04  0.25500000920E-02 0. -1.
</event>
<event>
 5   0  0.7858367E-08  0.3792674E+04  0.7818609E-02  0.8047729E-01
        2   -1    0    0  501    0  0.00000000000E+00  0.00000000000E+00  0.26683060088E+04  0.26683060088E+04  0.25500000920E-02 0. -1.
       -2   -1    0    0    0  501  0.00000000000E+00  0.00000000000E+00 -0.13477066137E+04  0.13477066137E+04  0.25500000920E-02 0.  1.
    10030    2    1    2    0    0  0.00000000000E+00  0.00000000000E+00  0.13205993951E+04  0.40160126225E+04  0.37926738090E+04 0.  0.
        2    1    3    3  502    0 -0.12802474673E+04 -0.97898069750E+03  0.17184752508E+04  0.23559698579E+04  0.25500000920E-02 0.  1.
       -2    1    3    3    0  502  0.12802474673E+04  0.97898069750E+03 -0.39787585574E+03  0.16600427646E+04  0.25500000920E-02 0. -1.
</event>
<event>
 5   0  0.3701250E-08  0.3815414E+04  0.7818609E-02  0.8042855E-01
       -1   -1    0    0    0  501  0.00000000000E+00  0.00000000000E+00  0.15180567819E+04  0.15180567819E+04  0.50400001928E-02 0.  1.
        1   -1    0    0  501    0  0.00000000000E+00  0.00000000000E+00 -0.23973710230E+04  0.23973710230E+04  0.50400001928E-02 0. -1.
    10030    2    1    2    0    0  0.00000000000E+00  0.00000000000E+00 -0.87931424112E+03  0.39154278049E+04  0.38154136553E+04 0.  0.
        3    1    3    3  502    0  0.24360242601E+03  0.12440252262E+04 -0.19026514970E+04  0.22862684957E+04  0.10100000352E+00 0. -1.
       -3    1    3    3    0  502 -0.24360242601E+03 -0.12440252262E+04  0.10233372559E+04  0.16291593092E+04  0.10100000352E+00 0.  1.
</event>
<event>
 5   0  0.7858367E-08  0.3796899E+04  0.7818609E-02  0.8046821E-01
        2   -1    0    0  501    0  0.00000000000E+00  0.00000000000E+00  0.18315579780E+04  0.18315579780E+04  0.25500000920E-02 0.  1.
       -2   -1    0    0    0  501  0.00000000000E+00  0.00000000000E+00 -0.19677845151E+04  0.19677845151E+04  0.25500000920E-02 0. -1.
    10030    2    1    2    0    0  0.00000000000E+00  0.00000000000E+00 -0.13622653717E+03  0.37993424931E+04  0.37968994865E+04 0.  0.
        2    1    3    3  502    0  0.56830161865E+03 -0.17673090074E+04 -0.46556345715E+03  0.19139219394E+04  0.25500000920E-02 0. -1.
       -2    1    3    3    0  502 -0.56830161865E+03  0.17673090074E+04  0.32933691998E+03  0.18854205537E+04  0.25500000920E-02 0.  1.
</event>
<event>
 5   0  0.3889225E-08  0.3802114E+04  0.7818609E-02  0.8045701E-01
        1   -1    0    0  501    0  0.00000000000E+00  0.00000000000E+00  0.11568886241E+04  0.11568886241E+04  0.50400001928E-02 0. -1.
       -1   -1    0    0    0  501  0.00000000000E+00  0.00000000000E+00 -0.31239121862E+04  0.31239121862E+04  0.50400001928E-02 0.  1.
    10030    2    1    2    0    0  0.00000000000E+00  0.00000000000E+00 -0.19670235621E+04  0.42808008102E+04  0.38021143964E+04 0.  0.
        5    1    3    3  502    0 -0.67911304852E+03  0.14072922401E+04 -0.22025711425E+04  0.27005569258E+04  0.46999998093E+01 0.  1.
       -5    1    3    3    0  502  0.67911304852E+03 -0.14072922401E+04  0.23554758033E+03  0.15802438845E+04  0.46999998093E+01 0. -1.
</event>
<event>
 5   0  0.3701250E-08  0.3800621E+04  0.7818609E-02  0.8046022E-01
       -3   -1    0    0    0  501  0.00000000000E+00  0.00000000000E+00  0.12810661829E+04  0.12810661868E+04  0.10100000352E+00 0.  1.
        3   -1    0    0  501    0  0.00000000000E+00  0.00000000000E+00 -0.28188860439E+04  0.28188860457E+04  0.10100000352E+00 0. -1.
    10030    2    1    2    0    0  0.00000000000E+00  0.00000000000E+00 -0.15378198611E+04  0.40999522326E+04  0.38006207893E+04 0.  0.
        2    1    3    3  502    0 -0.18447561863E+04  0.37939306479E+03 -0.10420619768E+04  0.21524306372E+04  0.25500000920E-02 0. -1.
       -2    1    3    3    0  502  0.18447561863E+04 -0.37939306479E+03 -0.49575788423E+03  0.19475215953E+04  0.25500000920E-02 0.  1.
</event>
<event>
 5   0  0.3701250E-08  0.3809334E+04  0.7818609E-02  0.8044155E-01
       -1   -1    0    0    0  501  0.00000000000E+00  0.00000000000E+00  0.21818307413E+04  0.21818307414E+04  0.50400001928E-02 0. -1.
        1   -1    0    0  501    0  0.00000000000E+00  0.00000000000E+00 -0.16627118982E+04  0.16627118982E+04  0.50400001928E-02 0.  1.
    10030    2    1    2    0    0  0.00000000000E+00  0.00000000000E+00  0.51911884314E+03  0.38445426396E+04  0.38093337651E+04 0.  0.
        4    1    3    3  502    0  0.14442157524E+03  0.14360844585E+04  0.15138489268E+04  0.20916348509E+04  0.12699999809E+01 0. -1.
       -4    1    3    3    0  502 -0.14442157524E+03 -0.14360844585E+04 -0.99473008363E+03  0.17529077887E+04  0.12699999809E+01 0.  1.
</event>
<event>
 5   0  0.3701250E-08  0.3797699E+04  0.7818609E-02  0.8046649E-01
        1   -1    0    0  501    0  0.00000000000E+00  0.00000000000E+00  0.23715666523E+04  0.23715666523E+04  0.50400001928E-02 0. -1.
       -1   -1    0    0    0  501  0.00000000000E+00  0.00000000000E+00 -0.15203578630E+04  0.15203578630E+04  0.50400001928E-02 0.  1.
    10030    2    1    2    0    0  0.00000000000E+00  0.00000000000E+00  0.85120878930E+03  0.38919245153E+04  0.37976993074E+04 0.  0.
        2    1    3    3  502    0 -0.61186672763E+03 -0.33933013289E+03  0.22346512573E+04  0.23416216759E+04  0.25500000920E-02 0. -1.
       -2    1    3    3    0  502  0.61186672763E+03  0.33933013289E+03 -0.13834424680E+04  0.15503028394E+04  0.25500000920E-02 0.  1.
</event>
<event>
 5   0  0.3889225E-08  0.3800417E+04  0.7818609E-02  0.8046065E-01
       -1   -1    0    0    0  501  0.00000000000E+00  0.00000000000E+00  0.16738834559E+04  0.16738834559E+04  0.50400001928E-02 0.  1.
        1   -1    0    0  501    0  0.00000000000E+00  0.00000000000E+00 -0.21571346782E+04  0.21571346782E+04  0.50400001928E-02 0. -1.
    10030    2    1    2    0    0  0.00000000000E+00  0.00000000000E+00 -0.48325122226E+03  0.38310181341E+04  0.38004168456E+04 0.  0.
        5    1    3    3  502    0  0.56604336189E+03  0.16217290019E+04 -0.10607942649E+04  0.20188404112E+04  0.46999998093E+01 0. -1.
       -5    1    3    3    0  502 -0.56604336189E+03 -0.16217290019E+04  0.57754304269E+03  0.18121777229E+04  0.46999998093E+01 0.  1.
</event>
<event>
 5   0  0.3701250E-08  0.3835875E+04  0.7818609E-02  0.8038500E-01
        1   -1    0    0  501    0  0.00000000000E+00  0.00000000000E+00  0.16194986184E+04  0.16194986185E+04  0.50400001928E-02 0. -1.
       -1   -1    0    0    0  501  0.00000000000E+00  0.00000000000E+00 -0.22713718533E+04  0.22713718533E+04  0.50400001928E-02 0.  1.
    10030    2    1    2    0    0  0.00000000000E+00  0.00000000000E+00 -0.65187323488E+03  0.38908704718E+04  0.38358746478E+04 0.  0.
        1    1    3    3  502    0  0.14289654407E+04  0.86221950269E+03 -0.12845356826E+04  0.21060381339E+04  0.50400001928E-02 0.  1.
       -1    1    3    3    0  502 -0.14289654407E+04 -0.86221950269E+03  0.63266244768E+03  0.17848323379E+04  0.50400001928E-02 0. -1.
</event>
<event>
 5   0  0.1143283E-07  0.3778221E+04  0.7818609E-02  0.8050845E-01
        2   -1    0    0  501    0  0.00000000000E+00  0.00000000000E+00  0.24866128257E+04  0.24866128257E+04  0.25500000920E-02 0. -1.
       -2   -1    0    0    0  501  0.00000000000E+00  0.00000000000E+00 -0.14351803056E+04  0.14351803056E+04  0.25500000920E-02 0.  1.
    10030    2    1    2    0    0  0.00000000000E+00  0.00000000000E+00  0.10514325201E+04  0.39217931314E+04  0.37782206157E+04 0.  0.
        1    1    3    3  502    0 -0.14352013775E+04 -0.92158238288E+02 -0.74575608732E+03  0.16200149002E+04  0.50400001928E-02 0. -1.
       -1    1    3    3    0  502  0.14352013775E+04  0.92158238288E+02  0.17971886074E+04  0.23017782312E+04  0.50400001928E-02 0.  1.
</event>
<event>
 5   0  0.1193861E-07  0.3800736E+04  0.7818609E-02  0.8045997E-01
       -2   -1    0    0    0  501  0.00000000000E+00  0.00000000000E+00  0.16216033055E+04  0.16216033055E+04  0.25500000920E-02 0. -1.
        2   -1    0    0  501    0  0.00000000000E+00  0.00000000000E+00 -0.22270546502E+04  0.22270546502E+04  0.25500000920E-02 0.  1.
    10030    2    1    2    0    0  0.00000000000E+00  0.00000000000E+00 -0.60545134470E+03  0.38486579558E+04  0.38007363405E+04 0.  0.
        3    1    3    3  502    0  0.16320865443E+04 -0.87291177013E+03  0.13365775644E+03  0.18556793507E+04  0.10100000352E+00 0. -1.
       -3    1    3    3    0  502 -0.16320865443E+04  0.87291177013E+03 -0.73910910114E+03  0.19929786051E+04  0.10100000352E+00 0.  1.
</event>
<event>
 5   0  0.3889225E-08  0.3881717E+04  0.7818609E-02  0.8028843E-01
        1   -1    0    0  501    0  0.00000000000E+00  0.00000000000E+00  0.23276858572E+04  0.23276858572E+04  0.50400001928E-02 0. -1.
       -1   -1    0    0    0  501  0.00000000000E+00  0.00000000000E+00 -0.16183159111E+04  0.16183159112E+04  0.50400001928E-02 0.  1.
    10030    2    1    2    0    0  0.00000000000E+00  0.00000000000E+00  0.70936994607E+03  0.39460017684E+04  0.38817166609E+04 0.  0.
        5    1    3    3  502    0  0.23752765357E+03  0.16951109401E+04 -0.57539250368E+03  0.18058015142E+04  0.46999998093E+01 0.  1.
       -5    1    3    3    0  502 -0.23752765357E+03 -0.16951109401E+04  0.12847624498E+04  0.21402002541E+04  0.46999998093E+01 0. -1.
</event>
<event>
 5   0  0.3701250E-08  0.3800237E+04  0.7818609E-02  0.8046104E-01
        1   -1    0    0  501    0  0.00000000000E+00  0.00000000000E+00  0.19094843537E+04  0.19094843537E+04  0.50400001928E-02 0. -1.
       -1   -1    0    0    0  501  0.00000000000E+00  0.00000000000E+00 -0.18907988514E+04  0.18907988514E+04  0.50400001928E-02 0.  1.
    10030    2    1    2    0    0  0.00000000000E+00  0.00000000000E+00  0.18685502258E+02  0.38002832051E+04  0.38002372677E+04 0.  0.
        1    1    3    3  502    0 -0.42219465458E+03 -0.32573882153E+02  0.18616991938E+04  0.19092494002E+04  0.50400001928E-02 0. -1.
       -1    1    3    3    0  502  0.42219465458E+03  0.32573882153E+02 -0.18430136915E+04  0.18910338049E+04  0.50400001928E-02 0.  1.
</event>
<event>
 5   0  0.3701250E-08  0.3783140E+04  0.7818609E-02  0.8049783E-01
       -1   -1    0    0    0  501  0.00000000000E+00  0.00000000000E+00  0.30382594404E+04  0.30382594404E+04  0.50400001928E-02 0. -1.
        1   -1    0    0  501    0  0.00000000000E+00  0.00000000000E+00 -0.11776598749E+04  0.11776598749E+04  0.50400001928E-02 0.  1.
    10030    2    1    2    0    0  0.00000000000E+00  0.00000000000E+00  0.18605995655E+04  0.42159193154E+04  0.37831395600E+04 0.  0.
        3    1    3    3  502    0 -0.81566132059E+03 -0.11328666470E+04 -0.49218158462E+03  0.14801800404E+04  0.10100000352E+00 0.  1.
       -3    1    3    3    0  502  0.81566132059E+03  0.11328666470E+04  0.23527811502E+04  0.27357392749E+04  0.10100000352E+00 0. -1.
</event>
<event>
 5   0  0.7858367E-08  0.3800730E+04  0.7818609E-02  0.8045998E-01
       -2   -1    0    0    0  501  0.00000000000E+00  0.00000000000E+00  0.17609090901E+04  0.17609090901E+04  0.25500000920E-02 0. -1.
        2   -1    0    0  501    0  0.00000000000E+00  0.00000000000E+00 -0.20508653128E+04  0.20508653128E+04  0.25500000920E-02 0.  1.
    10030    2    1    2    0    0  0.00000000000E+00  0.00000000000E+00 -0.28995622273E+03  0.38117744028E+04  0.38007301255E+04 0.  0.
        2    1    3    3  502    0 -0.26295984989E+03  0.98628079033E+03  0.14626426122E+04  0.17835977941E+04  0.25500000920E-02 0. -1.
       -2    1    3    3    0  502  0.26295984989E+03 -0.98628079033E+03 -0.17525988349E+04  0.20281766088E+04  0.25500000920E-02 0.  1.
</event>
<event>
 5   0  0.7858367E-08  0.3806748E+04  0.7818609E-02  0.8044708E-01
        2   -1    0    0  501    0  0.00000000000E+00  0.00000000000E+00  0.19493290562E+04  0.19493290562E+04  0.25500000920E-02 0.  1.
       -2   -1    0    0    0  501  0.00000000000E+00  0.00000000000E+00 -0.18585020246E+04  0.18585020246E+04  0.25500000920E-02 0. -1.
    10030    2    1    2    0    0  0.00000000000E+00  0.00000000000E+00  0.90827031665E+02  0.38078310808E+04  0.38067476920E+04 0.  0.
        2    1    3    3  502    0  0.11304137750E+04  0.61973602389E+03 -0.13553149591E+04  0.18705043920E+04  0.25500000920E-02 0. -1.
       -2    1    3    3    0  502 -0.11304137750E+04 -0.61973602389E+03  0.14461419908E+04  0.19373266889E+04  0.25500000920E-02 0.  1.
</event>
<event>
 5   0  0.3701250E-08  0.3809574E+04  0.7818609E-02  0.8044103E-01
        1   -1    0    0  501    0  0.00000000000E+00  0.00000000000E+00  0.20780971474E+04  0.20780971474E+04  0.50400001928E-02 0.  1.
       -1   -1    0    0    0  501  0.00000000000E+00  0.00000000000E+00 -0.17459309042E+04  0.17459309042E+04  0.50400001928E-02 0. -1.
    10030    2    1    2    0    0  0.00000000000E+00  0.00000000000E+00  0.33216624326E+03  0.38240280516E+04  0.38095742710E+04 0.  0.
        4    1    3    3  502    0 -0.54313367160E+03 -0.10038038184E+04  0.16968595717E+04  0.20449817383E+04  0.12699999809E+01 0.  1.
       -4    1    3    3    0  502  0.54313367160E+03  0.10038038184E+04 -0.13646933285E+04  0.17790463133E+04  0.12699999809E+01 0. -1.
</event>
<event>
 5   0  0.1143283E-07  0.3803997E+04  0.7818609E-02  0.8045298E-01
        2   -1    0    0  501    0  0.00000000000E+00  0.00000000000E+00  0.20656435738E+04  0.20656435738E+04  0.25500000920E-02 0.  1.
       -2   -1    0    0    0  501  0.00000000000E+00  0.00000000000E+00 -0.17513177635E+04  0.17513177635E+04  0.25500000920E-02 0. -1.
    10030    2    1    2    0    0  0.00000000000E+00  0.00000000000E+00  0.31432581034E+03  0.38169613373E+04  0.38039969947E+04 0.  0.
        1    1    3    3  502    0  0.93571649686E+03 -0.11586696487E+04 -0.10298809735E+04  0.18107279025E+04  0.50400001928E-02 0. -1.
       -1    1    3    3    0  502 -0.93571649686E+03  0.11586696487E+04  0.13442067838E+04  0.20062334348E+04  0.50400001928E-02 0.  1.
</event>
<event>
 5   0  0.3889225E-08  0.3797339E+04  0.7818609E-02  0.8046726E-01
        1   -1    0    0  501    0  0.00000000000E+00  0.00000000000E+00  0.12896011700E+04  0.12896011700E+04  0.50400001928E-02 0.  1.
       -1   -1    0    0    0  501  0.00000000000E+00  0.00000000000E+00 -0.27953964558E+04  0.27953964558E+04  0.50400001928E-02 0. -1.
    10030    2    1    2    0    0  0.00000000000E+00  0.00000000000E+00 -0.15057952858E+04  0.40849976257E+04  0.37973393527E+04 0.  0.
        5    1    3    3  502    0 -0.10045067302E+04 -0.27381549919E+03  0.95511690078E+03  0.14128974070E+04  0.46999998093E+01 0.  1.
       -5    1    3    3    0  502  0.10045067302E+04  0.27381549919E+03 -0.24609121866E+04  0.26721002187E+04  0.46999998093E+01 0. -1.
</event>
<event>
 5   0  0.1174870E-07  0.3789899E+04  0.7818609E-02  0.8048326E-01
       -2   -1    0    0    0  501  0.00000000000E+00  0.00000000000E+00  0.22742264555E+04  0.22742264555E+04  0.25500000920E-02 0.  1.
        2   -1    0    0  501    0  0.00000000000E+00  0.00000000000E+00 -0.15789256652E+04  0.15789256653E+04  0.25500000920E-02 0. -1.
    10030    2    1    2    0    0  0.00000000000E+00  0.00000000000E+00  0.69530079027E+03  0.38531521208E+04  0.37898994811E+04 0.  0.
        5    1    3    3  502    0 -0.16554911511E+04 -0.63366227312E+03 -0.33332961357E+03  0.18036933079E+04  0.46999998093E+01 0.  1.
       -5    1    3    3    0  502  0.16554911511E+04  0.63366227312E+03  0.10286304038E+04  0.20494588128E+04  0.46999998093E+01 0. -1.
</event>
<event>
 5   0  0.1174870E-07  0.3804640E+04  0.7818609E-02  0.8045160E-01
        2   -1    0    0  501    0  0.00000000000E+00  0.00000000000E+00  0.29474509237E+04  0.29474509237E+04  0.25500000920E-02 0. -1.
       -2   -1    0    0    0  501  0.00000000000E+00  0.00000000000E+00 -0.12277801426E+04  0.12277801426E+04  0.25500000920E-02 0.  1.
    10030    2    1    2    0    0  0.00000000000E+00  0.00000000000E+00  0.17196707811E+04  0.41752310664E+04  0.38046401751E+04 0.  0.
        5    1    3    3  502    0  0.16253961573E+04  0.73655636316E+03  0.15831007708E+04  0.23855100261E+04  0.46999998093E+01 0. -1.
       -5    1    3    3    0  502 -0.16253961573E+04 -0.73655636316E+03  0.13657001025E+03  0.17897210402E+04  0.46999998093E+01 0.  1.
</event>
<event>
 5   0  0.7858367E-08  0.3804521E+04  0.7818609E-02  0.8045185E-01
       -2   -1    0    0    0  501  0.00000000000E+00  0.00000000000E+00  0.17848881532E+04  0.17848881532E+04  0.25500000920E-02 0. -1.
        2   -1    0    0  501    0  0.00000000000E+00  0.00000000000E+00 -0.20273510877E+04  0.20273510877E+04  0.25500000920E-02 0.  1.
    10030    2    1    2    0    0  0.00000000000E+00  0.00000000000E+00 -0.24246293452E+03  0.38122392408E+04  0.38045209626E+04 0.  0.
        2    1    3    3  502    0  0.16830286070E+04  0.30166652381E+03  0.71413058221E+03  0.18529896039E+04  0.25500000920E-02 0. -1.
       -2    1    3    3    0  502 -0.16830286070E+04 -0.30166652381E+03 -0.95659351672E+03  0.19592496370E+04  0.25500000920E-02 0.  1.
</event>
<event>
 5   0  0.3889225E-08  0.3781343E+04  0.7818609E-02  0.8050170E-01
        1   -1    0    0  501    0  0.00000000000E+00  0.00000000000E+00  0.22983828959E+04  0.22983828959E+04  0.50400001928E-02 0.  1.
       -1   -1    0    0    0  501  0.00000000000E+00  0.00000000000E+00 -0.15552844925E+04  0.15552844925E+04  0.50400001928E-02 0. -1.
    10030    2    1    2    0    0  0.00000000000E+00  0.00000000000E+00  0.74309840335E+03  0.38536673884E+04  0.37813432936E+04 0.  0.
        5    1    3    3  502    0 -0.51123834152E+03 -0.78294150940E+03 -0.13031257370E+04  0.16039079854E+04  0.46999998093E+01 0. -1.
       -5    1    3    3    0  502  0.51123834152E+03  0.78294150940E+03  0.20462241404E+04  0.22497594031E+04  0.46999998093E+01 0.  1.
</event>
<event>
 5   0  0.1193861E-07  0.3802835E+04  0.7818609E-02  0.8045547E-01
       -2   -1    0    0    0  501  0.00000000000E+00  0.00000000000E+00  0.24676116477E+04  0.24676116477E+04  0.25500000920E-02 0. -1.
        2   -1    0    0  501    0  0.00000000000E+00  0.00000000000E+00 -0.14651370753E+04  0.14651370753E+04  0.25500000920E-02 0.  1.
    10030    2    1    2    0    0  0.00000000000E+00  0.00000000000E+00  0.10024745725E+04  0.39327487230E+04  0.38028354224E+04 0.  0.
        3    1    3    3  502    0 -0.15165195752E+04  0.69578195119E+03 -0.44174920656E+03  0.17260030467E+04  0.10100000352E+00 0.  1.
       -3    1    3    3    0  502  0.15165195752E+04 -0.69578195119E+03  0.14442237790E+04  0.22067456763E+04  0.10100000352E+00 0. -1.
</event>
<event>
 5   0  0.3701250E-08  0.3887514E+04  0.7818609E-02  0.8027631E-01
        1   -1    0    0  501    0  0.00000000000E+00  0.00000000000E+00  0.25656831542E+04  0.25656831542E+04  0.50400001928E-02 0. -1.
       -1   -1    0    0    0  501  0.00000000000E+00  0.00000000000E+00 -0.14725865249E+04  0.14725865249E+04  0.50400001928E-02 0.  1.
    10030    2    1    2    0    0  0.00000000000E+00  0.00000000000E+00  0.10930966293E+04  0.40382696791E+04  0.38875135704E+04 0.  0.
        3    1    3    3  502    0  0.53122802654E+02  0.52862087476E+03 -0.13956995952E+04  0.14933986178E+04  0.10100000352E+00 0.  1.
       -3    1    3    3    0  502 -0.53122802654E+02 -0.52862087476E+03  0.24887962245E+04  0.25448710613E+04  0.10100000352E+00 0. -1.
</event>
<event>
 5   0  0.1150235E-07  0.3802511E+04  0.7818609E-02  0.8045616E-01
        2   -1    0    0  501    0  0.00000000000E+00  0.00000000000E+00  0.24843821805E+04  0.24843821805E+04  0.25500000920E-02 0. -1.
       -2   -1    0    0    0  501  0.00000000000E+00  0.00000000000E+00 -0.14549988258E+04  0.14549988258E+04  0.25500000920E-02 0.  1.
    10030    2    1    2    0    0  0.00000000000E+00  0.00000000000E+00  0.10293833548E+04  0.39393810063E+04  0.38025113572E+04 0.  0.
        4    1    3    3  502    0 -0.18045393775E+04  0.96797246404E+02  0.11267527195E+04  0.21296256422E+04  0.12699999809E+01 0.  1.
       -4    1    3    3    0  502  0.18045393775E+04 -0.96797246404E+02 -0.97369364722E+02  0.18097553641E+04  0.12699999809E+01 0. -1.
</event>
<event>
 5   0  0.3701250E-08  0.3854692E+04  0.7818609E-02  0.8034519E-01
        1   -1    0    0  501    0  0.00000000000E+00  0.00000000000E+00  0.26433987572E+04  0.26433987572E+04  0.50400001928E-02 0. -1.
       -1   -1    0    0    0  501  0.00000000000E+00  0.00000000000E+00 -0.14052602090E+04  0.14052602090E+04  0.50400001928E-02 0.  1.
    10030    2    1    2    0    0  0.00000000000E+00  0.00000000000E+00  0.12381385482E+04  0.40486589662E+04  0.38546922523E+04 0.  0.
        2    1    3    3  502    0  0.24663344047E+03 -0.41296028956E+03  0.25793436022E+04  0.26238097631E+04  0.25500000920E-02 0. -1.
       -2    1    3    3    0  502 -0.24663344047E+03  0.41296028956E+03 -0.13412050540E+04  0.14248492031E+04  0.25500000920E-02 0.  1.
</event>
<event>
 5   0  0.3701250E-08  0.3602427E+04  0.7818609E-02  0.8089936E-01
        1   -1    0    0  501    0  0.00000000000E+00  0.00000000000E+00  0.25054971305E+04  0.25054971305E+04  0.50400001928E-02 0. -1.
       -1   -1    0    0    0  501  0.00000000000E+00  0.00000000000E+00 -0.12949006205E+04  0.12949006205E+04  0.50400001928E-02 0.  1.
    10030    2    1    2    0    0  0.00000000000E+00  0.00000000000E+00  0.12105965100E+04  0.38003977510E+04  0.36024268425E+04 0.  0.
        1    1    3    3  502    0 -0.33798198455E+03  0.12024721693E+04 -0.76378714695E+03  0.14640839954E+04  0.50400001928E-02 0.  1.
       -1    1    3    3    0  502  0.33798198455E+03 -0.12024721693E+04  0.19743836570E+04  0.23363137556E+04  0.50400001928E-02 0. -1.
</event>
<event>
 5   0  0.1193861E-07  0.3816196E+04  0.7818609E-02  0.8042688E-01
        2   -1    0    0  501    0  0.00000000000E+00  0.00000000000E+00  0.26350672235E+04  0.26350672235E+04  0.25500000920E-02 0.  1.
       -2   -1    0    0    0  501  0.00000000000E+00  0.00000000000E+00 -0.13816870772E+04  0.13816870772E+04  0.25500000920E-02 0. -1.
    10030    2    1    2    0    0  0.00000000000E+00  0.00000000000E+00  0.12533801463E+04  0.40167543007E+04  0.38161961849E+04 0.  0.
        3    1    3    3  502    0  0.18123683267E+04  0.59187401710E+03  0.70715726751E+03  0.20334859761E+04  0.10100000352E+00 0.  1.
       -3    1    3    3    0  502 -0.18123683267E+04 -0.59187401710E+03  0.54622287883E+03  0.19832683246E+04  0.10100000352E+00 0. -1.
</event>
<event>
 5   0  0.3701250E-08  0.3795813E+04  0.7818609E-02  0.8047054E-01
       -1   -1    0    0    0  501  0.00000000000E+00  0.00000000000E+00  0.12669298430E+04  0.12669298430E+04  0.50400001928E-02 0.  1.
        1   -1    0    0  501    0  0.00000000000E+00  0.00000000000E+00 -0.28431322413E+04  0.28431322413E+04  0.50400001928E-02 0. -1.
    10030    2    1    2    0    0  0.00000000000E+00  0.00000000000E+00 -0.15762023983E+04  0.41100620843E+04  0.37958130007E+04 0.  0.
        3    1    3    3  502    0  0.43012496255E+03  0.80857873149E+03 -0.25880205078E+04  0.27452972894E+04  0.10100000352E+00 0. -1.
       -3    1    3    3    0  502 -0.43012496255E+03 -0.80857873149E+03  0.10118181095E+04  0.13647647949E+04  0.10100000352E+00 0.  1.
</event>
<event>
 5   0  0.1193861E-07  0.3820617E+04  0.7818609E-02  0.8041745E-01
       -2   -1    0    0    0  501  0.00000000000E+00  0.00000000000E+00  0.14722491125E+04  0.14722491125E+04  0.25500000920E-02 0.  1.
        2   -1    0    0  501    0  0.00000000000E+00  0.00000000000E+00 -0.24787105827E+04  0.24787105827E+04  0.25500000920E-02 0. -1.
    10030    2    1    2    0    0  0.00000000000E+00  0.00000000000E+00 -0.10064614702E+04  0.39509596952E+04  0.38206174661E+04 0.  0.
        3    1    3    3  502    0 -0.18750502665E+04  0.26036918459E+03 -0.76824253921E+03  0.20429885519E+04  0.10100000352E+00 0.  1.
       -3    1    3    3    0  502  0.18750502665E+04 -0.26036918459E+03 -0.23821893098E+03  0.19079711432E+04  0.10100000352E+00 0. -1.
</event>
<event>
 5   0  0.1143283E-07  0.3792006E+04  0.7818609E-02  0.8047872E-01
        2   -1    0    0  501    0  0.00000000000E+00  0.00000000000E+00  0.28082585914E+04  0.28082585914E+04  0.25500000920E-02 0.  1.
       -2   -1    0    0    0  501  0.00000000000E+00  0.00000000000E+00 -0.12800914569E+04  0.12800914569E+04  0.25500000920E-02 0. -1.
    10030    2    1    2    0    0  0.00000000000E+00  0.00000000000E+00  0.15281671345E+04  0.40883500482E+04  0.37920062402E+04 0.  0.
        1    1    3    3  502    0  0.52491745355E+03  0.13095138937E+04 -0.60158044277E+03  0.15337092293E+04  0.50400001928E-02 0. -1.
       -1    1    3    3    0  502 -0.52491745355E+03 -0.13095138937E+04  0.21297475773E+04  0.25546408189E+04  0.50400001928E-02 0.  1.
</event>
<event>
 5   0  0.1174870E-07  0.3766010E+04  0.7818609E-02  0.8053489E-01
       -2   -1    0    0    0  501  0.00000000000E+00  0.00000000000E+00  0.16209796337E+04  0.16209796337E+04  0.25500000920E-02 0.  1.
        2   -1    0    0  501    0  0.00000000000E+00  0.00000000000E+00 -0.21873862770E+04  0.21873862770E+04  0.25500000920E-02 0. -1.
    10030    2    1    2    0    0  0.00000000000E+00  0.00000000000E+00 -0.56640664334E+03  0.38083659107E+04  0.37660104122E+04 0.  0.
        5    1    3    3  502    0  0.51747214008E+03 -0.12348476211E+04  0.10557196693E+04  0.17050490237E+04  0.46999998093E+01 0.  1.
       -5    1    3    3    0  502 -0.51747214008E+03  0.12348476211E+04 -0.16221263126E+04  0.21033168870E+04  0.46999998093E+01 0. -1.
</event>
<event>
 5   0  0.1174870E-07  0.3793745E+04  0.7818609E-02  0.8047499E-01
        2   -1    0    0  501    0  0.00000000000E+00  0.00000000000E+00  0.25905181132E+04  0.25905181132E+04  0.25500000920E-02 0.  1.
       -2   -1    0    0    0  501  0.00000000000E+00  0.00000000000E+00 -0.13889594438E+04  0.13889594438E+04  0.25500000920E-02 0. -1.
    10030    2    1    2    0    0  0.00000000000E+00  0.00000000000E+00  0.12015586694E+04  0.39794775569E+04  0.37937446396E+04 0.  0.
        5    1    3    3  502    0  0.13012658315E+04 -0.50723110552E+03  0.19471794789E+04  0.23962692194E+04  0.46999998093E+01 0.  1.
       -5    1    3    3    0  502 -0.13012658315E+04  0.50723110552E+03 -0.74562080952E+03  0.15832083376E+04  0.46999998093E+01 0. -1.
</event>
<event>
 5   0  0.1143283E-07  0.3804924E+04  0.7818609E-02  0.8045099E-01
        2   -1    0    0  501    0  0.00000000000E+00  0.00000000000E+00  0.21028954843E+04  0.21028954843E+04  0.25500000920E-02 0. -1.
       -2   -1    0    0    0  501  0.00000000000E+00  0.00000000000E+00 -0.17211324902E+04  0.17211324902E+04  0.25500000920E-02 0.  1.
    10030    2    1    2    0    0  0.00000000000E+00  0.00000000000E+00  0.38176299402E+03  0.38240279745E+04  0.38049240421E+04 0.  0.
        1    1    3    3  502    0 -0.16971488714E+04  0.62162936629E+03  0.78768482691E+03  0.19715944683E+04  0.50400001928E-02 0. -1.
       -1    1    3    3    0  502  0.16971488714E+04 -0.62162936629E+03 -0.40592183289E+03  0.18524335063E+04  0.50400001928E-02 0.  1.
</event>
<event>
 5   0  0.1193861E-07  0.3775621E+04  0.7818609E-02  0.8051407E-01
       -2   -1    0    0    0  501  0.00000000000E+00  0.00000000000E+00  0.15167555449E+04  0.15167555449E+04  0.25500000920E-02 0. -1.
        2   -1    0    0  501    0  0.00000000000E+00  0.00000000000E+00 -0.23496392722E+04  0.23496392722E+04  0.25500000920E-02 0.  1.
    10030    2    1    2    0    0  0.00000000000E+00  0.00000000000E+00 -0.83288372731E+03  0.38663948171E+04  0.37756209527E+04 0.  0.
        3    1    3    3  502    0  0.36644145440E+03 -0.17785882990E+04  0.11188120434E+03  0.18193881090E+04  0.10100000352E+00 0. -1.
       -3    1    3    3    0  502 -0.36644145440E+03  0.17785882990E+04 -0.94476493165E+03  0.20470067081E+04  0.10100000352E+00 0.  1.
</event>
<event>
 5   0  0.3701250E-08  0.3796454E+04  0.7818609E-02  0.8046916E-01
       -1   -1    0    0    0  501  0.00000000000E+00  0.00000000000E+00  0.20192372384E+04  0.20192372384E+04  0.50400001928E-02 0. -1.
        1   -1    0    0  501    0  0.00000000000E+00  0.00000000000E+00 -0.17844684600E+04  0.17844684601E+04  0.50400001928E-02 0.  1.
    10030    2    1    2    0    0  0.00000000000E+00  0.00000000000E+00  0.23476877837E+03  0.38037056985E+04  0.37964536954E+04 0.  0.
        2    1    3    3  502    0  0.14415764800E+04 -0.81725629812E+03  0.10450117923E+04  0.19591070033E+04  0.25500000920E-02 0. -1.
       -2    1    3    3    0  502 -0.14415764800E+04  0.81725629812E+03 -0.81024301391E+03  0.18445986951E+04  0.25500000920E-02 0.  1.
</event>
<event>
 5   0  0.3701250E-08  0.3833592E+04  0.7818609E-02  0.8038984E-01
        1   -1    0    0  501    0  0.00000000000E+00  0.00000000000E+00  0.23265697451E+04  0.23265697451E+04  0.50400001928E-02 0. -1.
       -1   -1    0    0    0  501  0.00000000000E+00  0.00000000000E+00 -0.15791946717E+04  0.15791946717E+04  0.50400001928E-02 0.  1.
    10030    2    1    2    0    0  0.00000000000E+00  0.00000000000E+00  0.74737507340E+03  0.39057644168E+04  0.38335918117E+04 0.  0.
        4    1    3    3  502    0 -0.10386814034E+04 -0.30427878873E+03 -0.12380752611E+04  0.16444684868E+04  0.12699999809E+01 0.  1.
       -4    1    3    3    0  502  0.10386814034E+04  0.30427878873E+03  0.19854503345E+04  0.22612959299E+04  0.12699999809E+01 0. -1.
</event>
<event>
 5   0  0.3701250E-08  0.3822129E+04  0.7818609E-02  0.8041423E-01
       -1   -1    0    0    0  501  0.00000000000E+00  0.00000000000E+00  0.31431899114E+04  0.31431899114E+04  0.50400001928E-02 0. -1.
        1   -1    0    0  501    0  0.00000000000E+00  0.00000000000E+00 -0.11619301430E+04  0.11619301430E+04  0.50400001928E-02 0.  1.
    10030    2    1    2    0    0  0.00000000000E+00  0.00000000000E+00  0.19812597684E+04  0.43051200544E+04  0.38221287802E+04 0.  0.
        1    1    3    3  502    0  0.18921788409E+03 -0.19004883747E+04  0.91500682852E+03  0.21177575325E+04  0.50400001928E-02 0.  1.
       -1    1    3    3    0  502 -0.18921788409E+03  0.19004883747E+04  0.10662529399E+04  0.21873625219E+04  0.50400001928E-02 0. -1.
</event>
<event>
 5   0  0.3701250E-08  0.3801761E+04  0.7818609E-02  0.8045777E-01
       -1   -1    0    0    0  501  0.00000000000E+00  0.00000000000E+00  0.14243876938E+04  0.14243876938E+04  0.50400001928E-02 0.  1.
        1   -1    0    0  501    0  0.00000000000E+00  0.00000000000E+00 -0.25367713684E+04  0.25367713684E+04  0.50400001928E-02 0. -1.
    10030    2    1    2    0    0  0.00000000000E+00  0.00000000000E+00 -0.11123836746E+04  0.39611590623E+04  0.38017606023E+04 0.  0.
        1    1    3    3  502    0  0.17639616406E+04  0.29109038495E+03  0.11668012407E+03  0.17916217607E+04  0.50400001928E-02 0.  1.
       -1    1    3    3    0  502 -0.17639616406E+04 -0.29109038495E+03 -0.12290637986E+04  0.21695373016E+04  0.50400001928E-02 0. -1.
</event>
<event>
 5   0  0.3701250E-08  0.3803957E+04  0.7818609E-02  0.8045306E-01
       -1   -1    0    0    0  501  0.00000000000E+00  0.00000000000E+00  0.17985705046E+04  0.17985705047E+04  0.50400001928E-02 0.  1.
        1   -1    0    0  501    0  0.00000000000E+00  0.00000000000E+00 -0.20113318118E+04  0.20113318118E+04  0.50400001928E-02 0. -1.
    10030    2    1    2    0    0  0.00000000000E+00  0.00000000000E+00 -0.21276130714E+03  0.38099023164E+04  0.38039569250E+04 0.  0.
        2    1    3    3  502    0 -0.13869038927E+04  0.76049691097E+03 -0.11642815425E+04  0.19640288871E+04  0.25500000920E-02 0. -1.
       -2    1    3    3    0  502  0.13869038927E+04 -0.76049691097E+03  0.95152023534E+03  0.18458734294E+04  0.25500000920E-02 0.  1.
</event>
<event>
 5   0  0.3701250E-08  0.3555590E+04  0.7818609E-02  0.8100741E-01
        1   -1    0    0  501    0  0.00000000000E+00  0.00000000000E+00  0.13825804130E+04  0.13825804130E+04  0.50400001928E-02 0.  1.
       -1   -1    0    0    0  501  0.00000000000E+00  0.00000000000E+00 -0.22859831065E+04  0.22859831065E+04  0.50400001928E-02 0. -1.
    10030    2    1    2    0    0  0.00000000000E+00  0.00000000000E+00 -0.90340269354E+03  0.36685635195E+04  0.35555902281E+04 0.  0.
        3    1    3    3  502    0 -0.12970178821E+04 -0.14370332818E+03 -0.16973939391E+04  0.21410399874E+04  0.10100000352E+00 0. -1.
       -3    1    3    3    0  502  0.12970178821E+04  0.14370332818E+03  0.79399124551E+03  0.15275235321E+04  0.10100000352E+00 0.  1.
</event>
<event>
 5   0  0.1174870E-07  0.3800221E+04  0.7818609E-02  0.8046107E-01
       -2   -1    0    0    0  501  0.00000000000E+00  0.00000000000E+00  0.11908409961E+04  0.11908409961E+04  0.25500000920E-02 0. -1.
        2   -1    0    0  501    0  0.00000000000E+00  0.00000000000E+00 -0.30318235765E+04  0.30318235765E+04  0.25500000920E-02 0.  1.
    10030    2    1    2    0    0  0.00000000000E+00  0.00000000000E+00 -0.18409825804E+04  0.42226645726E+04  0.38002209450E+04 0.  0.
        5    1    3    3  502    0 -0.32883153630E+03 -0.33514960519E+03  0.11253591844E+04  0.12193895281E+04  0.46999998093E+01 0. -1.
       -5    1    3    3    0  502  0.32883153630E+03  0.33514960519E+03 -0.29663417648E+04  0.30032750445E+04  0.46999998093E+01 0.  1.
</event>
<event>
 5   0  0.1150235E-07  0.3770529E+04  0.7818609E-02  0.8052509E-01
       -2   -1    0    0    0  501  0.00000000000E+00  0.00000000000E+00  0.14784749843E+04  0.14784749843E+04  0.25500000920E-02 0.  1.
        2   -1    0    0  501    0  0.00000000000E+00  0.00000000000E+00 -0.24039789533E+04  0.24039789533E+04  0.25500000920E-02 0. -1.
    10030    2    1    2    0    0  0.00000000000E+00  0.00000000000E+00 -0.92550396894E+03  0.38824539376E+04  0.37705292707E+04 0.  0.
        4    1    3    3  502    0  0.40364680290E+03  0.44489715826E+02  0.14329047996E+04  0.14893380589E+04  0.12699999809E+01 0.  1.
       -4    1    3    3    0  502 -0.40364680290E+03 -0.44489715826E+02 -0.23584087685E+04  0.23931158786E+04  0.12699999809E+01 0. -1.
</event>
<event>
 5   0  0.1143283E-07  0.3810085E+04  0.7818609E-02  0.8043994E-01
        2   -1    0    0  501    0  0.00000000000E+00  0.00000000000E+00  0.16982244633E+04  0.16982244633E+04  0.25500000920E-02 0.  1.
       -2   -1    0    0    0  501  0.00000000000E+00  0.00000000000E+00 -0.21370481548E+04  0.21370481548E+04  0.25500000920E-02 0. -1.
    10030    2    1    2    0    0  0.00000000000E+00  0.00000000000E+00 -0.43882369151E+03  0.38352726180E+04  0.38100852776E+04 0.  0.
        1    1    3    3  502    0 -0.95667963699E+03  0.16016462641E+04  0.16872864279E+03  0.18732261043E+04  0.50400001928E-02 0.  1.
       -1    1    3    3    0  502  0.95667963699E+03 -0.16016462641E+04 -0.60755233430E+03  0.19620465137E+04  0.50400001928E-02 0. -1.
</event>
<event>
 5   0  0.7858367E-08  0.3810664E+04  0.7818609E-02  0.8043870E-01
        2   -1    0    0  501    0  0.00000000000E+00  0.00000000000E+00  0.17821875672E+04  0.17821875672E+04  0.25500000920E-02 0. -1.
       -2   -1    0    0    0  501  0.00000000000E+00  0.00000000000E+00 -0.20369856157E+04  0.20369856157E+04  0.25500000920E-02 0.  1.
    10030    2    1    2    0    0  0.00000000000E+00  0.00000000000E+00 -0.25479804854E+03  0.38191731829E+04  0.38106642145E+04 0.  0.
        2    1    3    3  502    0 -0.83312036926E+03 -0.10719099734E+04 -0.14672498589E+04  0.19989754098E+04  0.25500000920E-02 0.  1.
       -2    1    3    3    0  502  0.83312036926E+03  0.10719099734E+04  0.12124518103E+04  0.18201977731E+04  0.25500000920E-02 0. -1.
</event>
<event>
 5   0  0.3701250E-08  0.3795707E+04  0.7818609E-02  0.8047077E-01
        1   -1    0    0  501    0  0.00000000000E+00  0.00000000000E+00  0.19634665227E+04  0.19634665227E+04  0.50400001928E-02 0. -1.
       -1   -1    0    0    0  501  0.00000000000E+00  0.00000000000E+00 -0.18344326706E+04  0.18344326706E+04  0.50400001928E-02 0.  1.
    10030    2    1    2    0    0  0.00000000000E+00  0.00000000000E+00  0.12903385213E+03  0.37978991934E+04  0.37957065940E+04 0.  0.
        2    1    3    3  502    0 -0.12064674853E+04 -0.12468909090E+04  0.83408175032E+03  0.19250956076E+04  0.25500000920E-02 0. -1.
       -2    1    3    3    0  502  0.12064674853E+04  0.12468909090E+04 -0.70504789819E+03  0.18728035858E+04  0.25500000920E-02 0.  1.
</event>
<event>
 5   0  0.3701250E-08  0.3823845E+04  0.7818609E-02  0.8041057E-01
        1   -1    0    0  501    0  0.00000000000E+00  0.00000000000E+00  0.22271420789E+04  0.22271420789E+04  0.50400001928E-02 0. -1.
       -1   -1    0    0    0  501  0.00000000000E+00  0.00000000000E+00 -0.16413177227E+04  0.16413177227E+04  0.50400001928E-02 0.  1.
    10030    2    1    2    0    0  0.00000000000E+00  0.00000000000E+00  0.58582435615E+03  0.38684598016E+04  0.38238450623E+04 0.  0.
        2    1    3    3  502    0  0.15918281795E+04 -0.21158008130E+03 -0.75686759929E+03  0.17752553751E+04  0.25500000920E-02 0. -1.
       -2    1    3    3    0  502 -0.15918281795E+04  0.21158008130E+03  0.13426919554E+04  0.20932044265E+04  0.25500000920E-02 0.  1.
</event>
<event>
 5   0  0.3701250E-08  0.3802026E+04  0.7818609E-02  0.8045720E-01
        1   -1    0    0  501    0  0.00000000000E+00  0.00000000000E+00  0.21121720588E+04  0.21121720588E+04  0.50400001928E-02 0.  1.
       -1   -1    0    0    0  501  0.00000000000E+00  0.00000000000E+00 -0.17109643821E+04  0.17109643821E+04  0.50400001928E-02 0. -1.
    10030    2    1    2    0    0  0.00000000000E+00  0.00000000000E+00  0.40120767675E+03  0.38231364409E+04  0.38020263868E+04 0.  0.
        4    1    3    3  502    0  0.19411759333E+03 -0.17421982325E+03  0.20940925898E+04  0.21102747627E+04  0.12699999809E+01 0.  1.
       -4    1    3    3    0  502 -0.19411759333E+03  0.17421982325E+03 -0.16928849130E+04  0.17128616782E+04  0.12699999809E+01 0. -1.
</event>
<event>
 5   0  0.3701250E-08  0.3815958E+04  0.7818609E-02  0.8042739E-01
       -1   -1    0    0    0  501  0.00000000000E+00  0.00000000000E+00  0.13113785551E+04  0.13113785551E+04  0.50400001928E-02 0.  1.
        1   -1    0    0  501    0  0.00000000000E+00  0.00000000000E+00 -0.27759984020E+04  0.27759984020E+04  0.50400001928E-02 0. -1.
    10030    2    1    2    0    0  0.00000000000E+00  0.00000000000E+00 -0.14646198468E+04  0.40873769571E+04  0.38159584764E+04 0.  0.
        2    1    3    3  502    0 -0.12100856259E+04  0.57292018740E+03 -0.21883496861E+04  0.25654276664E+04  0.25500000920E-02 0. -1.
       -2    1    3    3    0  502  0.12100856259E+04 -0.57292018740E+03  0.72372983921E+03  0.15219492907E+04  0.25500000920E-02 0.  1.
</event>
<event>
 5   0  0.1174870E-07  0.3799073E+04  0.7818609E-02  0.8046354E-01
        2   -1    0    0  501    0  0.00000000000E+00  0.00000000000E+00  0.24331420749E+04  0.24331420749E+04  0.25500000920E-02 0.  1.
       -2   -1    0    0    0  501  0.00000000000E+00  0.00000000000E+00 -0.14829545968E+04  0.14829545968E+04  0.25500000920E-02 0. -1.
    10030    2    1    2    0    0  0.00000000000E+00  0.00000000000E+00  0.95018747810E+03  0.39160966717E+04  0.37990731631E+04 0.  0.
        5    1    3    3  502    0  0.32068980087E+03 -0.12750626555E+04 -0.93811839325E+03  0.16151516751E+04  0.46999998093E+01 0. -1.
       -5    1    3    3    0  502 -0.32068980087E+03  0.12750626555E+04  0.18883058713E+04  0.23009449966E+04  0.46999998093E+01 0.  1.
</event>
<event>
 5   0  0.1143283E-07  0.3795860E+04  0.7818609E-02  0.8047044E-01
       -2   -1    0    0    0  501  0.00000000000E+00  0.00000000000E+00  0.16103198832E+04  0.16103198832E+04  0.25500000920E-02 0.  1.
        2   -1    0    0  501    0  0.00000000000E+00  0.00000000000E+00 -0.22369081301E+04  0.22369081301E+04  0.25500000920E-02 0. -1.
    10030    2    1    2    0    0  0.00000000000E+00  0.00000000000E+00 -0.62658824694E+03  0.38472280133E+04  0.37958596595E+04 0.  0.
        1    1    3    3  502    0  0.10953619512E+04 -0.97103868569E+03  0.91111202373E+03  0.17241980899E+04  0.50400001928E-02 0.  1.
       -1    1    3    3    0  502 -0.10953619512E+04  0.97103868569E+03 -0.15377002707E+04  0.21230299234E+04  0.50400001928E-02 0. -1.
</event>
<event>
 5   0  0.1143283E-07  0.3803299E+04  0.7818609E-02  0.8045447E-01
       -2   -1    0    0    0  501  0.00000000000E+00  0.00000000000E+00  0.11542033320E+04  0.11542033320E+04  0.25500000920E-02 0.  1.
        2   -1    0    0  501    0  0.00000000000E+00  0.00000000000E+00 -0.31331307328E+04  0.31331307328E+04  0.25500000920E-02 0. -1.
    10030    2    1    2    0    0  0.00000000000E+00  0.00000000000E+00 -0.19789274008E+04  0.42873340648E+04  0.38032985322E+04 0.  0.
        1    1    3    3  502    0 -0.14524595012E+04  0.34140778722E+03 -0.23185266907E+04  0.27571296479E+04  0.50400001928E-02 0. -1.
       -1    1    3    3    0  502  0.14524595012E+04 -0.34140778722E+03  0.33959928990E+03  0.15302044169E+04  0.50400001928E-02 0.  1.
</event>
<event>
 5   0  0.1143283E-07  0.3796112E+04  0.7818609E-02  0.8046990E-01
       -2   -1    0    0    0  501  0.00000000000E+00  0.00000000000E+00  0.20562757786E+04  0.20562757786E+04  0.25500000920E-02 0. -1.
        2   -1    0    0  501    0  0.00000000000E+00  0.00000000000E+00 -0.17520108436E+04  0.17520108436E+04  0.25500000920E-02 0.  1.
    10030    2    1    2    0    0  0.00000000000E+00  0.00000000000E+00  0.30426493498E+03  0.38082866222E+04  0.37961124649E+04 0.  0.
        1    1    3    3  502    0 -0.96979868263E+03  0.51516565097E+03  0.17052292200E+04  0.20282287409E+04  0.50400001928E-02 0. -1.
       -1    1    3    3    0  502  0.96979868263E+03 -0.51516565097E+03 -0.14009642850E+04  0.17800578813E+04  0.50400001928E-02 0.  1.
</event>
<event>
 5   0  0.3701250E-08  0.3766896E+04  0.7818609E-02  0.8053296E-01
       -1   -1    0    0    0  501  0.00000000000E+00  0.00000000000E+00  0.21082562574E+04  0.21082562574E+04  0.50400001928E-02 0.  1.
        1   -1    0    0  501    0  0.00000000000E+00  0.00000000000E+00 -0.16826117062E+04  0.16826117062E+04  0.50400001928E-02 0. -1.
    10030    2    1    2    0    0  0.00000000000E+00  0.00000000000E+00  0.42564455121E+03  0.37908679636E+04  0.37668961538E+04 0.  0.
        4    1    3    3  502    0 -0.42695419756E+02 -0.13027502137E+04  0.15810307900E+04  0.20490585619E+04  0.12699999809E+01 0.  1.
       -4    1    3    3    0  502  0.42695419756E+02  0.13027502137E+04 -0.11553862388E+04  0.17418094017E+04  0.12699999809E+01 0. -1.
</event>
<event>
 5   0  0.7858367E-08  0.3816342E+04  0.7818609E-02  0.8042657E-01
        2   -1    0    0  501    0  0.00000000000E+00  0.00000000000E+00  0.19605090656E+04  0.19605090656E+04  0.25500000920E-02 0.  1.
       -2   -1    0    0    0  501  0.00000000000E+00  0.00000000000E+00 -0.18572301966E+04  0.18572301966E+04  0.25500000920E-02 0. -1.
    10030    2    1    2    0    0  0.00000000000E+00  0.00000000000E+00  0.10327886900E+03  0.38177392623E+04  0.38163420378E+04 0.  0.
        2    1    3    3  502    0 -0.61905191006E+03 -0.16030133831E+04  0.88154515635E+03  0.19313205421E+04  0.25500000920E-02 0.  1.
       -2    1    3    3    0  502  0.61905191006E+03  0.16030133831E+04 -0.77826628734E+03  0.18864187201E+04  0.25500000920E-02 0. -1.
</event>
<event>
 5   0  0.7858367E-08  0.3774184E+04  0.7818609E-02  0.8051718E-01
       -2   -1    0    0    0  501  0.00000000000E+00  0.00000000000E+00  0.19025202849E+04  0.19025202849E+04  0.25500000920E-02 0. -1.
        2   -1    0    0  501    0  0.00000000000E+00  0.00000000000E+00 -0.18717890914E+04  0.18717890914E+04  0.25500000920E-02 0.  1.
    10030    2    1    2    0    0  0.00000000000E+00  0.00000000000E+00  0.30731193521E+02  0.37743093764E+04  0.37741842645E+04 0.  0.
        2    1    3    3  502    0 -0.17832401165E+03  0.18786242286E+04  0.24761125921E+02  0.18872311885E+04  0.25500000920E-02 0.  1.
       -2    1    3    3    0  502  0.17832401165E+03 -0.18786242286E+04  0.59700675999E+01  0.18870781879E+04  0.25500000920E-02 0. -1.
</event>
<event>
 5   0  0.3701250E-08  0.3805883E+04  0.7818609E-02  0.8044894E-01
        1   -1    0    0  501    0  0.00000000000E+00  0.00000000000E+00  0.18431987454E+04  0.18431987454E+04  0.50400001928E-02 0. -1.
       -1   -1    0    0    0  501  0.00000000000E+00  0.00000000000E+00 -0.19646206209E+04  0.19646206209E+04  0.50400001928E-02 0.  1.
    10030    2    1    2    0    0  0.00000000000E+00  0.00000000000E+00 -0.12142187552E+03  0.38078193663E+04  0.38058829534E+04 0.  0.
        4    1    3    3  502    0 -0.21437386493E+03 -0.44803344053E+03  0.17772034390E+04  0.18453031714E+04  0.12699999809E+01 0. -1.
       -4    1    3    3    0  502  0.21437386493E+03  0.44803344053E+03 -0.18986253145E+04  0.19625161950E+04  0.12699999809E+01 0.  1.
</event>
<event>
 5   0  0.3701250E-08  0.3790908E+04  0.7818609E-02  0.8048109E-01
       -1   -1    0    0    0  501  0.00000000000E+00  0.00000000000E+00  0.16292281515E+04  0.16292281515E+04  0.50400001928E-02 0. -1.
        1   -1    0    0  501    0  0.00000000000E+00  0.00000000000E+00 -0.22051827839E+04  0.22051827840E+04  0.50400001928E-02 0.  1.
    10030    2    1    2    0    0  0.00000000000E+00  0.00000000000E+00 -0.57595463241E+03  0.38344109355E+04  0.37909080025E+04 0.  0.
        2    1    3    3  502    0 -0.13420461127E+04 -0.53937137310E+03  0.95112637310E+03  0.17310836561E+04  0.25500000920E-02 0. -1.
       -2    1    3    3    0  502  0.13420461127E+04  0.53937137310E+03 -0.15270810055E+04  0.21033272794E+04  0.25500000920E-02 0.  1.
</event>
<event>
 5   0  0.3889225E-08  0.3797652E+04  0.7818609E-02  0.8046659E-01
        1   -1    0    0  501    0  0.00000000000E+00  0.00000000000E+00  0.21870201757E+04  0.21870201757E+04  0.50400001928E-02 0. -1.
       -1   -1    0    0    0  501  0.00000000000E+00  0.00000000000E+00 -0.16486082521E+04  0.16486082521E+04  0.50400001928E-02 0.  1.
    10030    2    1    2    0    0  0.00000000000E+00  0.00000000000E+00  0.53841192357E+03  0.38356284278E+04  0.37976516476E+04 0.  0.
        5    1    3    3  502    0 -0.15257959337E+04  0.10853737535E+04  0.58768126648E+03  0.19625189878E+04  0.46999998093E+01 0.  1.
       -5    1    3    3    0  502  0.15257959337E+04 -0.10853737535E+04 -0.49269342914E+02  0.18731094401E+04  0.46999998093E+01 0. -1.
</event>
<event>
 5   0  0.7858367E-08  0.3808362E+04  0.7818609E-02  0.8044363E-01
       -2   -1    0    0    0  501  0.00000000000E+00  0.00000000000E+00  0.22152399935E+04  0.22152399935E+04  0.25500000920E-02 0.  1.
        2   -1    0    0  501    0  0.00000000000E+00  0.00000000000E+00 -0.16368001748E+04  0.16368001748E+04  0.25500000920E-02 0. -1.
    10030    2    1    2    0    0  0.00000000000E+00  0.00000000000E+00  0.57843981878E+03  0.38520401683E+04  0.38083619621E+04 0.  0.
        2    1    3    3  502    0 -0.15003149751E+04  0.11095274047E+04 -0.94484465363E+02  0.18684012953E+04  0.25500000920E-02 0.  1.
       -2    1    3    3    0  502  0.15003149751E+04 -0.11095274047E+04  0.67292428415E+03  0.19836388730E+04  0.25500000920E-02 0. -1.
</event>
<event>
 5   0  0.3889225E-08  0.3791640E+04  0.7818609E-02  0.8047951E-01
       -1   -1    0    0    0  501  0.00000000000E+00  0.00000000000E+00  0.29745635575E+04  0.29745635575E+04  0.50400001928E-02 0. -1.
        1   -1    0    0  501    0  0.00000000000E+00  0.00000000000E+00 -0.12082894094E+04  0.12082894094E+04  0.50400001928E-02 0.  1.
    10030    2    1    2    0    0  0.00000000000E+00  0.00000000000E+00  0.17662741481E+04  0.41828529669E+04  0.37916400905E+04 0.  0.
        5    1    3    3  502    0  0.44753920384E+03 -0.36110138675E+03  0.28760227107E+04  0.29329531658E+04  0.46999998093E+01 0. -1.
       -5    1    3    3    0  502 -0.44753920384E+03  0.36110138675E+03 -0.11097485626E+04  0.12498998011E+04  0.46999998093E+01 0.  1.
</event>
<event>
 5   0  0.1143283E-07  0.3789964E+04  0.7818609E-02  0.8048312E-01
        2   -1    0    0  501    0  0.00000000000E+00  0.00000000000E+00  0.22262972358E+04  0.22262972358E+04  0.25500000920E-02 0.  1.
       -2   -1    0    0    0  501  0.00000000000E+00  0.00000000000E+00 -0.16129730589E+04  0.16129730589E+04  0.25500000920E-02 0. -1.
    10030    2    1    2    0    0  0.00000000000E+00  0.00000000000E+00  0.61332417689E+03  0.38392702946E+04  0.37899643599E+04 0.  0.
        1    1    3    3  502    0  0.51264894450E+03 -0.87483208594E+02  0.21525910842E+04  0.22145226637E+04  0.50400001928E-02 0.  1.
       -1    1    3    3    0  502 -0.51264894450E+03  0.87483208594E+02 -0.15392669074E+04  0.16247476309E+04  0.50400001928E-02 0. -1.
</event>
<event>
 5   0  0.3889225E-08  0.3798264E+04  0.7818609E-02  0.8046528E-01
       -1   -1    0    0    0  501  0.00000000000E+00  0.00000000000E+00  0.21316211683E+04  0.21316211683E+04  0.50400001928E-02 0.  1.
        1   -1    0    0  501    0  0.00000000000E+00  0.00000000000E+00 -0.16919992928E+04  0.16919992928E+04  0.50400001928E-02 0. -1.
    10030    2    1    2    0    0  0.00000000000E+00  0.00000000000E+00  0.43962187547E+03  0.38236204611E+04  0.37982635555E+04 0.  0.
        5    1    3    3  502    0  0.48797733220E+03  0.48714593049E+03  0.20011570136E+04  0.21166210141E+04  0.46999998093E+01 0.  1.
       -5    1    3    3    0  502 -0.48797733220E+03 -0.48714593049E+03 -0.15615351382E+04  0.17069994470E+04  0.46999998093E+01 0. -1.
</event>
<event>
 5   0  0.3701250E-08  0.3807881E+04  0.7818609E-02  0.8044466E-01
       -1   -1    0    0    0  501  0.00000000000E+00  0.00000000000E+00  0.14226404671E+04  0.14226404671E+04  0.50400001928E-02 0.  1.
        1   -1    0    0  501    0  0.00000000000E+00  0.00000000000E+00 -0.25480707911E+04  0.25480707911E+04  0.50400001928E-02 0. -1.
    10030    2    1    2    0    0  0.00000000000E+00  0.00000000000E+00 -0.11254303240E+04  0.39707112583E+04  0.38078805761E+04 0.  0.
        1    1    3    3  502    0 -0.18455574595E+04 -0.42093732662E+03 -0.34973115470E+03  0.19249889480E+04  0.50400001928E-02 0.  1.
       -1    1    3    3    0  502  0.18455574595E+04  0.42093732662E+03 -0.77569916931E+03  0.20457223102E+04  0.50400001928E-02 0. -1.
</event>
<event>
 5   0  0.3701250E-08  0.3799763E+04  0.7818609E-02  0.8046206E-01
        1   -1    0    0  501    0  0.00000000000E+00  0.00000000000E+00  0.27209833848E+04  0.27209833848E+04  0.50400001928E-02 0.  1.
       -1   -1    0    0    0  501  0.00000000000E+00  0.00000000000E+00 -0.13265607435E+04  0.13265607435E+04  0.50400001928E-02 0. -1.
    10030    2    1    2    0    0  0.00000000000E+00  0.00000000000E+00  0.13944226413E+04  0.40475441283E+04  0.37997630147E+04 0.  0.
        1    1    3    3  502    0 -0.12317078531E+03  0.11390416743E+04  0.23116147022E+04  0.25799514549E+04  0.50400001928E-02 0.  1.
       -1    1    3    3    0  502  0.12317078531E+03 -0.11390416743E+04 -0.91719206095E+03  0.14675926733E+04  0.50400001928E-02 0. -1.
</event>
<event>
 5   0  0.3889225E-08  0.3800122E+04  0.7818609E-02  0.8046129E-01
       -1   -1    0    0    0  501  0.00000000000E+00  0.00000000000E+00  0.15162737442E+04  0.15162737442E+04  0.50400001928E-02 0. -1.
        1   -1    0    0  501    0  0.00000000000E+00  0.00000000000E+00 -0.23809891338E+04  0.23809891338E+04  0.50400001928E-02 0.  1.
    10030    2    1    2    0    0  0.00000000000E+00  0.00000000000E+00 -0.86471538967E+03  0.38972628780E+04  0.38001217395E+04 0.  0.
        5    1    3    3  502    0 -0.55986358494E+03  0.42011474575E+03  0.13792241998E+04  0.15466819701E+04  0.46999998093E+01 0. -1.
       -5    1    3    3    0  502  0.55986358494E+03 -0.42011474575E+03 -0.22439395895E+04  0.23505809079E+04  0.46999998093E+01 0.  1.
</event>
<event>
 5   0  0.7858367E-08  0.3813356E+04  0.7818609E-02  0.8043295E-01
       -2   -1    0    0    0  501  0.00000000000E+00  0.00000000000E+00  0.23740556119E+04  0.23740556119E+04  0.25500000920E-02 0. -1.
        2   -1    0    0  501    0  0.00000000000E+00  0.00000000000E+00 -0.15313128062E+04  0.15313128062E+04  0.25500000920E-02 0.  1.
    10030    2    1    2    0    0  0.00000000000E+00  0.00000000000E+00  0.84274280569E+03  0.39053684181E+04  0.38133564015E+04 0.  0.
        2    1    3    3  502    0 -0.78854600672E+03 -0.15462435590E+04  0.12295562776E+04  0.21270831174E+04  0.25500000920E-02 0. -1.
       -2    1    3    3    0  502  0.78854600672E+03  0.15462435590E+04 -0.38681347192E+03  0.17782853007E+04  0.25500000920E-02 0.  1.
</event>
<event>
 5   0  0.1143283E-07  0.3797608E+04  0.7818609E-02  0.8046668E-01
       -2   -1    0    0    0  501  0.00000000000E+00  0.00000000000E+00  0.17917048312E+04  0.17917048312E+04  0.25500000920E-02 0.  1.
        2   -1    0    0  501    0  0.00000000000E+00  0.00000000000E+00 -0.20123049065E+04  0.20123049065E+04  0.25500000920E-02 0. -1.
    10030    2    1    2    0    0  0.00000000000E+00  0.00000000000E+00 -0.22060007525E+03  0.38040097377E+04  0.37976078907E+04 0.  0.
        1    1    3    3  502    0  0.89617712522E+03 -0.16436970493E+04 -0.42798289220E+03  0.19204277611E+04  0.50400001928E-02 0. -1.
       -1    1    3    3    0  502 -0.89617712522E+03  0.16436970493E+04  0.20738281694E+03  0.18835819766E+04  0.50400001928E-02 0.  1.
</event>
<event>
 5   0  0.7858367E-08  0.3844788E+04  0.7818609E-02  0.8036611E-01
       -2   -1    0    0    0  501  0.00000000000E+00  0.00000000000E+00  0.21929888329E+04  0.21929888329E+04  0.25500000920E-02 0. -1.
        2   -1    0    0  501    0  0.00000000000E+00  0.00000000000E+00 -0.16851880258E+04  0.16851880258E+04  0.25500000920E-02 0.  1.
    10030    2    1    2    0    0  0.00000000000E+00  0.00000000000E+00  0.50780080706E+03  0.38781768587E+04  0.38447879119E+04 0.  0.
        2    1    3    3  502    0 -0.65027056632E+02 -0.13866259513E+04  0.15953512281E+04  0.21147353470E+04  0.25500000920E-02 0. -1.
       -2    1    3    3    0  502  0.65027056632E+02  0.13866259513E+04 -0.10875504210E+04  0.17634415117E+04  0.25500000920E-02 0.  1.
</event>
<event>
 5   0  0.1143283E-07  0.3803022E+04  0.7818609E-02  0.8045507E-01
        2   -1    0    0  501    0  0.00000000000E+00  0.00000000000E+00  0.29154765549E+04  0.29154765549E+04  0.25500000920E-02 0. -1.
       -2   -1    0    0    0  501  0.00000000000E+00  0.00000000000E+00 -0.12401898219E+04  0.12401898219E+04  0.25500000920E-02 0.  1.
    10030    2    1    2    0    0  0.00000000000E+00  0.00000000000E+00  0.16752867331E+04  0.41556663768E+04  0.38030221400E+04 0.  0.
        1    1    3    3  502    0 -0.52438915586E+03 -0.14337715442E+04 -0.40107746921E+03  0.15784637988E+04  0.50400001928E-02 0.  1.
       -1    1    3    3    0  502  0.52438915586E+03  0.14337715442E+04  0.20763642023E+04  0.25772025780E+04  0.50400001928E-02 0. -1.
</event>
<event>
 5   0  0.1193861E-07  0.3785011E+04  0.7818609E-02  0.8049379E-01
       -2   -1    0    0    0  501  0.00000000000E+00  0.00000000000E+00  0.16197606329E+04  0.16197606329E+04  0.25500000920E-02 0. -1.
        2   -1    0    0  501    0  0.00000000000E+00  0.00000000000E+00 -0.22111763720E+04  0.22111763720E+04  0.25500000920E-02 0.  1.
    10030    2    1    2    0    0  0.00000000000E+00  0.00000000000E+00 -0.59141573911E+03  0.38309370049E+04  0.37850106683E+04 0.  0.
        3    1    3    3  502    0  0.14885634745E+04  0.48223151478E+03 -0.13731469260E+04  0.20818023302E+04  0.10100000352E+00 0.  1.
       -3    1    3    3    0  502 -0.14885634745E+04 -0.48223151478E+03  0.78173118687E+03  0.17491346747E+04  0.10100000352E+00 0. -1.
</event>
<event>
 5   0  0.1143283E-07  0.3775254E+04  0.7818609E-02  0.8051486E-01
        2   -1    0    0  501    0  0.00000000000E+00  0.00000000000E+00  0.32178899301E+04  0.32178899301E+04  0.25500000920E-02 0.  1.
       -2   -1    0    0    0  501  0.00000000000E+00  0.00000000000E+00 -0.11072893368E+04  0.11072893368E+04  0.25500000920E-02 0. -1.
    10030    2    1    2    0    0  0.00000000000E+00  0.00000000000E+00  0.21106005933E+04  0.43251792669E+04  0.37752537433E+04 0.  0.
        1    1    3    3  502    0  0.74466313891E+03  0.61574091504E+03  0.29130726705E+04  0.30691452309E+04  0.50400001928E-02 0.  1.
       -1    1    3    3    0  502 -0.74466313891E+03 -0.61574091504E+03 -0.80247207719E+03  0.12560340360E+04  0.50400001928E-02 0. -1.
</event>
<event>
 5   0  0.3701250E-08  0.3840882E+04  0.7818609E-02  0.8037438E-01
       -1   -1    0    0    0  501  0.00000000000E+00  0.00000000000E+00  0.15775499122E+04  0.15775499123E+04  0.50400001928E-02 0. -1.
        1   -1    0    0  501    0  0.00000000000E+00  0.00000000000E+00 -0.23378620809E+04  0.23378620809E+04  0.50400001928E-02 0.  1.
    10030    2    1    2    0    0  0.00000000000E+00  0.00000000000E+00 -0.76031216864E+03  0.39154119931E+04  0.38408822531E+04 0.  0.
        1    1    3    3  502    0  0.15464500190E+04 -0.11023837818E+04 -0.67088558207E+03  0.20141611475E+04  0.50400001928E-02 0.  1.
       -1    1    3    3    0  502 -0.15464500190E+04  0.11023837818E+04 -0.89426586571E+02  0.19012508457E+04  0.50400001928E-02 0. -1.
</event>
<event>
 5   0  0.3701250E-08  0.3827117E+04  0.7818609E-02  0.8040361E-01
       -1   -1    0    0    0  501  0.00000000000E+00  0.00000000000E+00  0.15672922350E+04  0.15672922350E+04  0.50400001928E-02 0. -1.
        1   -1    0    0  501    0  0.00000000000E+00  0.00000000000E+00 -0.23363265308E+04  0.23363265309E+04  0.50400001928E-02 0.  1.
    10030    2    1    2    0    0  0.00000000000E+00  0.00000000000E+00 -0.76903429583E+03  0.39036187659E+04  0.38271171554E+04 0.  0.
        3    1    3    3  502    0  0.15171915159E+04 -0.35574869222E+03  0.74821269395E+03  0.17286553947E+04  0.10100000352E+00 0. -1.
       -3    1    3    3    0  502 -0.15171915159E+04  0.35574869222E+03 -0.15172469898E+04  0.21749633712E+04  0.10100000352E+00 0.  1.
</event>
<event>
 5   0  0.3889225E-08  0.3795007E+04  0.7818609E-02  0.8047227E-01
        1   -1    0    0  501    0  0.00000000000E+00  0.00000000000E+00  0.21061221537E+04  0.21061221537E+04  0.50400001928E-02 0. -1.
       -1   -1    0    0    0  501  0.00000000000E+00  0.00000000000E+00 -0.17095492092E+04  0.17095492092E+04  0.50400001928E-02 0.  1.
    10030    2    1    2    0    0  0.00000000000E+00  0.00000000000E+00  0.39657294451E+03  0.38156713629E+04  0.37950069630E+04 0.  0.
        5    1    3    3  502    0 -0.38848305767E+03  0.17237207140E+04  0.89369204795E+03  0.19801110455E+04  0.46999998093E+01 0. -1.
       -5    1    3    3    0  502  0.38848305767E+03 -0.17237207140E+04 -0.49711910344E+03  0.18355603174E+04  0.46999998093E+01 0.  1.
</event>
<event>
 5   0  0.3701250E-08  0.3695956E+04  0.7818609E-02  0.8068859E-01
        1   -1    0    0  501    0  0.00000000000E+00  0.00000000000E+00  0.23420687065E+04  0.23420687065E+04  0.50400001928E-02 0.  1.
       -1   -1    0    0    0  501  0.00000000000E+00  0.00000000000E+00 -0.14581226276E+04  0.14581226276E+04  0.50400001928E-02 0. -1.
    10030    2    1    2    0    0  0.00000000000E+00  0.00000000000E+00  0.88394607896E+03  0.38001913341E+04  0.36959563722E+04 0.  0.
        3    1    3    3  502    0 -0.16432610722E+04  0.14106410846E+03 -0.41509233282E+03  0.17007373957E+04  0.10100000352E+00 0. -1.
       -3    1    3    3    0  502  0.16432610722E+04 -0.14106410846E+03  0.12990384118E+04  0.20994539384E+04  0.10100000352E+00 0.  1.
</event>
<event>
 5   0  0.7858367E-08  0.3785333E+04  0.7818609E-02  0.8049310E-01
       -2   -1    0    0    0  501  0.00000000000E+00  0.00000000000E+00  0.22103413026E+04  0.22103413026E+04  0.25500000920E-02 0.  1.
        2   -1    0    0  501    0  0.00000000000E+00  0.00000000000E+00 -0.16206486281E+04  0.16206486281E+04  0.25500000920E-02 0. -1.
    10030    2    1    2    0    0  0.00000000000E+00  0.00000000000E+00  0.58969267453E+03  0.38309899307E+04  0.37853330631E+04 0.  0.
        2    1    3    3  502    0  0.11096244946E+04 -0.10729757280E+04  0.14033393369E+04  0.20861219347E+04  0.25500000920E-02 0.  1.
       -2    1    3    3    0  502 -0.11096244946E+04  0.10729757280E+04 -0.81364666240E+03  0.17448679959E+04  0.25500000920E-02 0. -1.
</event>
<event>
 5   0  0.1143283E-07  0.3806103E+04  0.7818609E-02  0.8044846E-01
       -2   -1    0    0    0  501  0.00000000000E+00  0.00000000000E+00  0.25749751001E+04  0.25749751001E+04  0.25500000920E-02 0.  1.
        2   -1    0    0  501    0  0.00000000000E+00  0.00000000000E+00 -0.14064620520E+04  0.14064620520E+04  0.25500000920E-02 0. -1.
    10030    2    1    2    0    0  0.00000000000E+00  0.00000000000E+00  0.11685130480E+04  0.39814371521E+04  0.38061028695E+04 0.  0.
        1    1    3    3  502    0  0.18321303338E+03  0.18663313676E+04  0.92297052647E+03  0.20901278387E+04  0.50400001928E-02 0.  1.
       -1    1    3    3    0  502 -0.18321303338E+03 -0.18663313676E+04  0.24554252156E+03  0.18913093135E+04  0.50400001928E-02 0. -1.
</event>
<event>
 5   0  0.3701250E-08  0.3816452E+04  0.7818609E-02  0.8042633E-01
        1   -1    0    0  501    0  0.00000000000E+00  0.00000000000E+00  0.15988383867E+04  0.15988383867E+04  0.50400001928E-02 0. -1.
       -1   -1    0    0    0  501  0.00000000000E+00  0.00000000000E+00 -0.22774830086E+04  0.22774830086E+04  0.50400001928E-02 0.  1.
    10030    2    1    2    0    0  0.00000000000E+00  0.00000000000E+00 -0.67864462187E+03  0.38763213952E+04  0.38164524151E+04 0.  0.
        3    1    3    3  502    0 -0.16067011976E+04  0.10286330322E+04 -0.29680157227E+03  0.19307164050E+04  0.10100000352E+00 0. -1.
       -3    1    3    3    0  502  0.16067011976E+04 -0.10286330322E+04 -0.38184304960E+03  0.19456049902E+04  0.10100000352E+00 0.  1.
</event>
<event>
 5   0  0.3701250E-08  0.3804784E+04  0.7818609E-02  0.8045129E-01
       -1   -1    0    0    0  501  0.00000000000E+00  0.00000000000E+00  0.18600452301E+04  0.18600452301E+04  0.50400001928E-02 0. -1.
        1   -1    0    0  501    0  0.00000000000E+00  0.00000000000E+00 -0.19457026997E+04  0.19457026997E+04  0.50400001928E-02 0.  1.
    10030    2    1    2    0    0  0.00000000000E+00  0.00000000000E+00 -0.85657469513E+02  0.38057479298E+04  0.38047838445E+04 0.  0.
        2    1    3    3  502    0  0.76651748573E+03  0.92675794079E+03  0.14315412602E+04  0.18696897380E+04  0.25500000920E-02 0. -1.
       -2    1    3    3    0  502 -0.76651748573E+03 -0.92675794079E+03 -0.15171987297E+04  0.19360581918E+04  0.25500000920E-02 0.  1.
</event>
<event>
 5   0  0.7858367E-08  0.3815953E+04  0.7818609E-02  0.8042740E-01
        2   -1    0    0  501    0  0.00000000000E+00  0.00000000000E+00  0.23749972803E+04  0.23749972803E+04  0.25500000920E-02 0. -1.
       -2   -1    0    0    0  501  0.00000000000E+00  0.00000000000E+00 -0.15327908791E+04  0.15327908791E+04  0.25500000920E-02 0.  1.
    10030    2    1    2    0    0  0.00000000000E+00  0.00000000000E+00  0.84220640122E+03  0.39077881593E+04  0.38159529185E+04 0.  0.
        2    1    3    3  502    0 -0.13719904748E+04  0.87759501159E+03 -0.59671926994E+03  0.17345330076E+04  0.25500000920E-02 0.  1.
       -2    1    3    3    0  502  0.13719904748E+04 -0.87759501159E+03  0.14389256712E+04  0.21732551517E+04  0.25500000920E-02 0. -1.
</event>
<event>
 5   0  0.3701250E-08  0.3793540E+04  0.7818609E-02  0.8047543E-01
       -1   -1    0    0    0  501  0.00000000000E+00  0.00000000000E+00  0.12888676947E+04  0.12888676947E+04  0.50400001928E-02 0.  1.
        1   -1    0    0  501    0  0.00000000000E+00  0.00000000000E+00 -0.27913927200E+04  0.27913927200E+04  0.50400001928E-02 0. -1.
    10030    2    1    2    0    0  0.00000000000E+00  0.00000000000E+00 -0.15025250253E+04  0.40802604147E+04  0.37935397190E+04 0.  0.
        2    1    3    3  502    0 -0.13756770832E+04  0.12813623726E+04 -0.10219992388E+04  0.21398269583E+04  0.25500000920E-02 0. -1.
       -2    1    3    3    0  502  0.13756770832E+04 -0.12813623726E+04 -0.48052578648E+03  0.19404334564E+04  0.25500000920E-02 0.  1.
</event>
<event>
 5   0  0.3701250E-08  0.3798645E+04  0.7818609E-02  0.8046446E-01
       -3   -1    0    0    0  501  0.00000000000E+00  0.00000000000E+00  0.24375130419E+04  0.24375130440E+04  0.10100000352E+00 0. -1.
        3   -1    0    0  501    0  0.00000000000E+00  0.00000000000E+00 -0.14799618912E+04  0.14799618947E+04  0.10100000352E+00 0.  1.
    10030    2    1    2    0    0  0.00000000000E+00  0.00000000000E+00  0.95755115066E+03  0.39174749387E+04  0.37986452439E+04 0.  0.
        2    1    3    3  502    0  0.60935746916E+03  0.16624951639E+04  0.11874545581E+04  0.21319603708E+04  0.25500000920E-02 0. -1.
       -2    1    3    3    0  502 -0.60935746916E+03 -0.16624951639E+04 -0.22990340749E+03  0.17855145678E+04  0.25500000920E-02 0.  1.
</event>
<event>
 5   0  0.1150235E-07  0.3785635E+04  0.7818609E-02  0.8049245E-01
       -2   -1    0    0    0  501  0.00000000000E+00  0.00000000000E+00  0.15655559797E+04  0.15655559797E+04  0.25500000920E-02 0.  1.
        2   -1    0    0  501    0  0.00000000000E+00  0.00000000000E+00 -0.22884892888E+04  0.22884892888E+04  0.25500000920E-02 0. -1.
    10030    2    1    2    0    0  0.00000000000E+00  0.00000000000E+00 -0.72293330912E+03  0.38540452685E+04  0.37856350012E+04 0.  0.
        4    1    3    3  502    0 -0.11182294148E+04 -0.15271399913E+04 -0.37446055042E+03  0.19294600006E+04  0.12699999809E+01 0. -1.
       -4    1    3    3    0  502  0.11182294148E+04  0.15271399913E+04 -0.34847275870E+03  0.19245852679E+04  0.12699999809E+01 0.  1.
</event>
<event>
 5   0  0.3701250E-08  0.3803317E+04  0.7818609E-02  0.8045443E-01
       -1   -1    0    0    0  501  0.00000000000E+00  0.00000000000E+00  0.19213480193E+04  0.19213480193E+04  0.50400001928E-02 0. -1.
        1   -1    0    0  501    0  0.00000000000E+00  0.00000000000E+00 -0.18821709378E+04  0.18821709378E+04  0.50400001928E-02 0.  1.
    10030    2    1    2    0    0  0.00000000000E+00  0.00000000000E+00  0.39177081518E+02  0.38035189571E+04  0.38033171855E+04 0.  0.
        2    1    3    3  502    0 -0.52672804221E+02  0.32964785116E+03 -0.18526387850E+04  0.18824751255E+04  0.25500000920E-02 0.  1.
       -2    1    3    3    0  502  0.52672804221E+02 -0.32964785116E+03  0.18918158666E+04  0.19210438316E+04  0.25500000920E-02 0. -1.
</event>
<event>
 5   0  0.3701250E-08  0.3595162E+04  0.7818609E-02  0.8091601E-01
        1   -1    0    0  501    0  0.00000000000E+00  0.00000000000E+00  0.25477448859E+04  0.25477448859E+04  0.50400001928E-02 0.  1.
       -1   -1    0    0    0  501  0.00000000000E+00  0.00000000000E+00 -0.12682970153E+04  0.12682970153E+04  0.50400001928E-02 0. -1.
    10030    2    1    2    0    0  0.00000000000E+00  0.00000000000E+00  0.12794478706E+04  0.38160419013E+04  0.35951618793E+04 0.  0.
        1    1    3    3  502    0  0.13831590647E+04 -0.11460041202E+04  0.56585826838E+03  0.18832551664E+04  0.50400001928E-02 0. -1.
       -1    1    3    3    0  502 -0.13831590647E+04  0.11460041202E+04  0.71358960224E+03  0.19327867348E+04  0.50400001928E-02 0.  1.
</event>
<event>
 5   0  0.3701250E-08  0.3797143E+04  0.7818609E-02  0.8046768E-01
       -1   -1    0    0    0  501  0.00000000000E+00  0.00000000000E+00  0.13756555633E+04  0.13756555633E+04  0.50400001928E-02 0. -1.
        1   -1    0    0  501    0  0.00000000000E+00  0.00000000000E+00 -0.26202593065E+04  0.26202593065E+04  0.50400001928E-02 0.  1.
    10030    2    1    2    0    0  0.00000000000E+00  0.00000000000E+00 -0.12446037433E+04  0.39959148698E+04  0.37971432905E+04 0.  0.
        2    1    3    3  502    0  0.35005871277E+03  0.70317015659E+03  0.11966423039E+04  0.14314126502E+04  0.25500000920E-02 0. -1.
       -2    1    3    3    0  502 -0.35005871277E+03 -0.70317015659E+03 -0.24412460472E+04  0.25645022196E+04  0.25500000920E-02 0.  1.
</event>
<event>
 5   0  0.1150235E-07  0.3797178E+04  0.7818609E-02  0.8046761E-01
        2   -1    0    0  501    0  0.00000000000E+00  0.00000000000E+00  0.20680191302E+04  0.20680191302E+04  0.25500000920E-02 0. -1.
       -2   -1    0    0    0  501  0.00000000000E+00  0.00000000000E+00 -0.17430403940E+04  0.17430403940E+04  0.25500000920E-02 0.  1.
    10030    2    1    2    0    0  0.00000000000E+00  0.00000000000E+00  0.32497873614E+03  0.38110595242E+04  0.37971783627E+04 0.  0.
        4    1    3    3  502    0  0.90060367745E+03 -0.77860781303E+03 -0.13218770163E+04  0.17789540661E+04  0.12699999809E+01 0.  1.
       -4    1    3    3    0  502 -0.90060367745E+03  0.77860781303E+03  0.16468557524E+04  0.20321054580E+04  0.12699999809E+01 0. -1.
</event>
<event>
 5   0  0.1193861E-07  0.3828588E+04  0.7818609E-02  0.8040048E-01
        2   -1    0    0  501    0  0.00000000000E+00  0.00000000000E+00  0.11202654142E+04  0.11202654142E+04  0.25500000920E-02 0. -1.
       -2   -1    0    0    0  501  0.00000000000E+00  0.00000000000E+00 -0.32711183403E+04  0.32711183403E+04  0.25500000920E-02 0.  1.
    10030    2    1    2    0    0  0.00000000000E+00  0.00000000000E+00 -0.21508529261E+04  0.43913837545E+04  0.38285875945E+04 0.  0.
        3    1    3    3  502    0  0.17989117195E+04  0.64925134669E+03 -0.98008028533E+03  0.21489923363E+04  0.10100000352E+00 0.  1.
       -3    1    3    3    0  502 -0.17989117195E+04 -0.64925134669E+03 -0.11707726408E+04  0.22423914182E+04  0.10100000352E+00 0. -1.
</event>
<event>
 5   0  0.3701250E-08  0.3796249E+04  0.7818609E-02  0.8046960E-01
       -1   -1    0    0    0  501  0.00000000000E+00  0.00000000000E+00  0.17212077758E+04  0.17212077758E+04  0.50400001928E-02 0. -1.
        1   -1    0    0  501    0  0.00000000000E+00  0.00000000000E+00 -0.20932259276E+04  0.20932259276E+04  0.50400001928E-02 0.  1.
    10030    2    1    2    0    0  0.00000000000E+00  0.00000000000E+00 -0.37201815175E+03  0.38144337034E+04  0.37962490662E+04 0.  0.
        3    1    3    3  502    0 -0.58198396527E+03 -0.15909666335E+04  0.67424421684E+03  0.18233171526E+04  0.10100000352E+00 0. -1.
       -3    1    3    3    0  502  0.58198396527E+03  0.15909666335E+04 -0.10462623686E+04  0.19911165508E+04  0.10100000352E+00 0.  1.
</event>
<event>
 5   0  0.1150235E-07  0.3868008E+04  0.7818609E-02  0.8031716E-01
        2   -1    0    0  501    0  0.00000000000E+00  0.00000000000E+00  0.15091119830E+04  0.15091119830E+04  0.25500000920E-02 0.  1.
       -2   -1    0    0    0  501  0.00000000000E+00  0.00000000000E+00 -0.24785249497E+04  0.24785249497E+04  0.25500000920E-02 0. -1.
    10030    2    1    2    0    0  0.00000000000E+00  0.00000000000E+00 -0.96941296665E+03  0.39876369327E+04  0.38680081188E+04 0.  0.
        4    1    3    3  502    0 -0.17822053371E+04 -0.66766991291E+03 -0.13007465877E+03  0.19076058309E+04  0.12699999809E+01 0. -1.
       -4    1    3    3    0  502  0.17822053371E+04  0.66766991291E+03 -0.83933830788E+03  0.20800311018E+04  0.12699999809E+01 0.  1.
</event>
<event>
 5   0  0.3701250E-08  0.3883562E+04  0.7818609E-02  0.8028457E-01
        1   -1    0    0  501    0  0.00000000000E+00  0.00000000000E+00  0.27290504223E+04  0.27290504223E+04  0.50400001928E-02 0.  1.
       -1   -1    0    0    0  501  0.00000000000E+00  0.00000000000E+00 -0.13816211371E+04  0.13816211371E+04  0.50400001928E-02 0. -1.
    10030    2    1    2    0    0  0.00000000000E+00  0.00000000000E+00  0.13474292852E+04  0.41106715594E+04  0.38835621523E+04 0.  0.
        4    1    3    3  502    0 -0.28538329300E+03  0.11423395120E+04 -0.96064409413E+03  0.15196124088E+04  0.12699999809E+01 0. -1.
       -4    1    3    3    0  502  0.28538329300E+03 -0.11423395120E+04  0.23080733793E+04  0.25910591506E+04  0.12699999809E+01 0.  1.
</event>
<event>
 5   0  0.3889225E-08  0.3811024E+04  0.7818609E-02  0.8043793E-01
        1   -1    0    0  501    0  0.00000000000E+00  0.00000000000E+00  0.18079716191E+04  0.18079716191E+04  0.50400001928E-02 0.  1.
       -1   -1    0    0    0  501  0.00000000000E+00  0.00000000000E+00 -0.20083148112E+04  0.20083148112E+04  0.50400001928E-02 0. -1.
    10030    2    1    2    0    0  0.00000000000E+00  0.00000000000E+00 -0.20034319206E+03  0.38162864303E+04  0.38110241043E+04 0.  0.
        5    1    3    3  502    0 -0.90386397356E+03 -0.13006471286E+04  0.96067833641E+03  0.18524518865E+04  0.46999998093E+01 0.  1.
       -5    1    3    3    0  502  0.90386397356E+03  0.13006471286E+04 -0.11610215285E+04  0.19638345438E+04  0.46999998093E+01 0. -1.
</event>
<event>
 5   0  0.3701250E-08  0.3812791E+04  0.7818609E-02  0.8043416E-01
       -1   -1    0    0    0  501  0.00000000000E+00  0.00000000000E+00  0.15434292300E+04  0.15434292300E+04  0.50400001928E-02 0.  1.
        1   -1    0    0  501    0  0.00000000000E+00  0.00000000000E+00 -0.23547201176E+04  0.23547201176E+04  0.50400001928E-02 0. -1.
    10030    2    1    2    0    0  0.00000000000E+00  0.00000000000E+00 -0.81129088759E+03  0.38981493476E+04  0.38127910291E+04 0.  0.
        2    1    3    3  502    0 -0.14116253645E+04  0.10747583985E+04 -0.11187942088E+04  0.20974966666E+04  0.25500000920E-02 0. -1.
       -2    1    3    3    0  502  0.14116253645E+04 -0.10747583985E+04  0.30750332118E+03  0.18006526810E+04  0.25500000920E-02 0.  1.
</event>
<event>
 5   0  0.1174870E-07  0.3786158E+04  0.7818609E-02  0.8049132E-01
        2   -1    0    0  501    0  0.00000000000E+00  0.00000000000E+00  0.25468920216E+04  0.25468920216E+04  0.25500000920E-02 0.  1.
       -2   -1    0    0    0  501  0.00000000000E+00  0.00000000000E+00 -0.14071067365E+04  0.14071067365E+04  0.25500000920E-02 0. -1.
    10030    2    1    2    0    0  0.00000000000E+00  0.00000000000E+00  0.11397852851E+04  0.39539987581E+04  0.37861584334E+04 0.  0.
        5    1    3    3  502    0 -0.16745463919E+04 -0.53648496967E+03 -0.16248361151E+03  0.17658835622E+04  0.46999998093E+01 0. -1.
       -5    1    3    3    0  502  0.16745463919E+04  0.53648496967E+03  0.13022688966E+04  0.21881151959E+04  0.46999998093E+01 0.  1.
</event>
<event>
 5   0  0.3889225E-08  0.3798689E+04  0.7818609E-02  0.8046436E-01
        1   -1    0    0  501    0  0.00000000000E+00  0.00000000000E+00  0.19360705810E+04  0.19360705810E+04  0.50400001928E-02 0. -1.
       -1   -1    0    0    0  501  0.00000000000E+00  0.00000000000E+00 -0.18633152915E+04  0.18633152915E+04  0.50400001928E-02 0.  1.
    10030    2    1    2    0    0  0.00000000000E+00  0.00000000000E+00  0.72755289567E+02  0.37993858725E+04  0.37986892050E+04 0.  0.
        5    1    3    3  502    0  0.68914732419E+02 -0.14752424376E+04  0.12309158739E+04  0.19225674159E+04  0.46999998093E+01 0. -1.
       -5    1    3    3    0  502 -0.68914732419E+02  0.14752424376E+04 -0.11581605843E+04  0.18768184566E+04  0.46999998093E+01 0.  1.
</event>
<event>
 5   0  0.3889225E-08  0.3808570E+04  0.7818609E-02  0.8044318E-01
       -1   -1    0    0    0  501  0.00000000000E+00  0.00000000000E+00  0.15109722271E+04  0.15109722271E+04  0.50400001928E-02 0.  1.
        1   -1    0    0  501    0  0.00000000000E+00  0.00000000000E+00 -0.23999788250E+04  0.23999788250E+04  0.50400001928E-02 0. -1.
    10030    2    1    2    0    0  0.00000000000E+00  0.00000000000E+00 -0.88900659785E+03  0.39109510521E+04  0.38085699943E+04 0.  0.
        5    1    3    3  502    0 -0.12644110040E+04 -0.34078355820E+03 -0.18642060981E+04  0.22781911874E+04  0.46999998093E+01 0. -1.
       -5    1    3    3    0  502  0.12644110040E+04  0.34078355820E+03  0.97519950021E+03  0.16327598647E+04  0.46999998093E+01 0.  1.
</event>
<event>
 5   0  0.3701250E-08  0.3803415E+04  0.7818609E-02  0.8045422E-01
       -1   -1    0    0    0  501  0.00000000000E+00  0.00000000000E+00  0.17927548576E+04  0.17927548576E+04  0.50400001928E-02 0.  1.
        1   -1    0    0  501    0  0.00000000000E+00  0.00000000000E+00 -0.20172817927E+04  0.20172817927E+04  0.50400001928E-02 0. -1.
    10030    2    1    2    0    0  0.00000000000E+00  0.00000000000E+00 -0.22452693507E+03  0.38100366503E+04  0.38034151669E+04 0.  0.
        2    1    3    3  502    0  0.81786558387E+03  0.64364887541E+03 -0.17066699518E+04  0.19989773166E+04  0.25500000920E-02 0. -1.
       -2    1    3    3    0  502 -0.81786558387E+03 -0.64364887541E+03  0.14821430167E+04  0.18110593337E+04  0.25500000920E-02 0.  1.
</event>
<event>
 5   0  0.1174870E-07  0.3769976E+04  0.7818609E-02  0.8052629E-01
       -2   -1    0    0    0  501  0.00000000000E+00  0.00000000000E+00  0.13566407492E+04  0.13566407492E+04  0.25500000920E-02 0.  1.
        2   -1    0    0  501    0  0.00000000000E+00  0.00000000000E+00 -0.26191012404E+04  0.26191012404E+04  0.25500000920E-02 0. -1.
    10030    2    1    2    0    0  0.00000000000E+00  0.00000000000E+00 -0.12624604912E+04  0.39757419896E+04  0.37699758455E+04 0.  0.
        5    1    3    3  502    0  0.12416712249E+04 -0.64658867950E+03 -0.19623983534E+04  0.24105712474E+04  0.46999998093E+01 0. -1.
       -5    1    3    3    0  502 -0.12416712249E+04  0.64658867950E+03  0.69993786223E+03  0.15651707422E+04  0.46999998093E+01 0.  1.
</event>
<event>
 5   0  0.1174870E-07  0.3804367E+04  0.7818609E-02  0.8045218E-01
        2   -1    0    0  501    0  0.00000000000E+00  0.00000000000E+00  0.14015260602E+04  0.14015260602E+04  0.25500000920E-02 0.  1.
       -2   -1    0    0    0  501  0.00000000000E+00  0.00000000000E+00 -0.25816877069E+04  0.25816877069E+04  0.25500000920E-02 0. -1.
    10030    2    1    2    0    0  0.00000000000E+00  0.00000000000E+00 -0.11801616467E+04  0.39832137671E+04  0.38043672801E+04 0.  0.
        5    1    3    3  502    0  0.77559165185E+03 -0.17304980388E+04 -0.74578171175E+03  0.20377385319E+04  0.46999998093E+01 0. -1.
       -5    1    3    3    0  502 -0.77559165185E+03  0.17304980388E+04 -0.43437993493E+03  0.19454752352E+04  0.46999998093E+01 0.  1.
</event>
<event>
 5   0  0.1150235E-07  0.3786449E+04  0.7818609E-02  0.8049069E-01
       -2   -1    0    0    0  501  0.00000000000E+00  0.00000000000E+00  0.11055201541E+04  0.11055201541E+04  0.25500000920E-02 0.  1.
        2   -1    0    0  501    0  0.00000000000E+00  0.00000000000E+00 -0.32421837950E+04  0.32421837950E+04  0.25500000920E-02 0. -1.
    10030    2    1    2    0    0  0.00000000000E+00  0.00000000000E+00 -0.21366636409E+04  0.43477039490E+04  0.37864492752E+04 0.  0.
        4    1    3    3  502    0  0.14126975106E+04  0.78303727041E+03  0.65705312971E+02  0.16165334591E+04  0.12699999809E+01 0.  1.
       -4    1    3    3    0  502 -0.14126975106E+04 -0.78303727041E+03 -0.22023689539E+04  0.27311704899E+04  0.12699999809E+01 0. -1.
</event>
<event>
 5   0  0.3889225E-08  0.3640324E+04  0.7818609E-02  0.8081317E-01
        1   -1    0    0  501    0  0.00000000000E+00  0.00000000000E+00  0.18643892213E+04  0.18643892213E+04  0.50400001928E-02 0.  1.
       -1   -1    0    0    0  501  0.00000000000E+00  0.00000000000E+00 -0.17769841744E+04  0.17769841744E+04  0.50400001928E-02 0. -1.
    10030    2    1    2    0    0  0.00000000000E+00  0.00000000000E+00  0.87405046898E+02  0.36413733957E+04  0.36403242389E+04 0.  0.
        5    1    3    3  502    0  0.25469400684E+02 -0.91260356508E+03  0.16187909303E+04  0.18584940472E+04  0.46999998093E+01 0.  1.
       -5    1    3    3    0  502 -0.25469400684E+02  0.91260356508E+03 -0.15313858834E+04  0.17828793485E+04  0.46999998093E+01 0. -1.
</event>
<event>
 5   0  0.3701250E-08  0.3788447E+04  0.7818609E-02  0.8048639E-01
       -1   -1    0    0    0  501  0.00000000000E+00  0.00000000000E+00  0.15679438801E+04  0.15679438802E+04  0.50400001928E-02 0.  1.
        1   -1    0    0  501    0  0.00000000000E+00  0.00000000000E+00 -0.22883997238E+04  0.22883997238E+04  0.50400001928E-02 0. -1.
    10030    2    1    2    0    0  0.00000000000E+00  0.00000000000E+00 -0.72045584365E+03  0.38563436040E+04  0.37884468281E+04 0.  0.
        2    1    3    3  502    0 -0.90467689329E+02 -0.31704540665E+03 -0.22589677817E+04  0.22829011436E+04  0.25500000920E-02 0. -1.
       -2    1    3    3    0  502  0.90467689329E+02  0.31704540665E+03  0.15385119380E+04  0.15734424604E+04  0.25500000920E-02 0.  1.
</event>
<event>
 5   0  0.3701250E-08  0.3803933E+04  0.7818609E-02  0.8045311E-01
        1   -1    0    0  501    0  0.00000000000E+00  0.00000000000E+00  0.25733889830E+04  0.25733889830E+04  0.50400001928E-02 0. -1.
       -1   -1    0    0    0  501  0.00000000000E+00  0.00000000000E+00 -0.14057244412E+04  0.14057244413E+04  0.50400001928E-02 0.  1.
    10030    2    1    2    0    0  0.00000000000E+00  0.00000000000E+00  0.11676645418E+04  0.39791134243E+04  0.38039325916E+04 0.  0.
        1    1    3    3  502    0  0.16639666346E+04  0.76484898829E+02 -0.37651057385E+03  0.17077456230E+04  0.50400001928E-02 0.  1.
       -1    1    3    3    0  502 -0.16639666346E+04 -0.76484898829E+02  0.15441751156E+04  0.22713678012E+04  0.50400001928E-02 0. -1.
</event>
<event>
 5   0  0.1193861E-07  0.3910052E+04  0.7818609E-02  0.8022942E-01
        2   -1    0    0  501    0  0.00000000000E+00  0.00000000000E+00  0.26592031563E+04  0.26592031563E+04  0.25500000920E-02 0.  1.
       -2   -1    0    0    0  501  0.00000000000E+00  0.00000000000E+00 -0.14373204745E+04  0.14373204745E+04  0.25500000920E-02 0. -1.
    10030    2    1    2    0    0  0.00000000000E+00  0.00000000000E+00  0.12218826818E+04  0.40965236309E+04  0.39100522465E+04 0.  0.
        3    1    3    3  502    0 -0.99443669281E+03 -0.72060292865E+03 -0.98277228120E+03  0.15728999598E+04  0.10100000352E+00 0. -1.
       -3    1    3    3    0  502  0.99443669281E+03  0.72060292865E+03  0.22046549630E+04  0.25236236710E+04  0.10100000352E+00 0.  1.
</event>
<event>
 5   0  0.1193861E-07  0.3793077E+04  0.7818609E-02  0.8047642E-01
        2   -1    0    0  501    0  0.00000000000E+00  0.00000000000E+00  0.15498393963E+04  0.15498393963E+04  0.25500000920E-02 0.  1.
       -2   -1    0    0    0  501  0.00000000000E+00  0.00000000000E+00 -0.23207938220E+04  0.23207938220E+04  0.25500000920E-02 0. -1.
    10030    2    1    2    0    0  0.00000000000E+00  0.00000000000E+00 -0.77095442565E+03  0.38706332183E+04  0.37930766911E+04 0.  0.
        3    1    3    3  502    0 -0.23007892507E+03  0.18774676614E+04 -0.24468307633E+03  0.19072731712E+04  0.10100000352E+00 0.  1.
       -3    1    3    3    0  502  0.23007892507E+03 -0.18774676614E+04 -0.52627134931E+03  0.19633600472E+04  0.10100000352E+00 0. -1.
</event>
<event>
 5   0  0.1150235E-07  0.3685328E+04  0.7818609E-02  0.8071221E-01
        2   -1    0    0  501    0  0.00000000000E+00  0.00000000000E+00  0.13255239856E+04  0.13255239856E+04  0.25500000920E-02 0.  1.
       -2   -1    0    0    0  501  0.00000000000E+00  0.00000000000E+00 -0.25615608093E+04  0.25615608093E+04  0.25500000920E-02 0. -1.
    10030    2    1    2    0    0  0.00000000000E+00  0.00000000000E+00 -0.12360368237E+04  0.38870847949E+04  0.36853278243E+04 0.  0.
        4    1    3    3  502    0 -0.13177907084E+04  0.31021280911E+03 -0.19364949375E+04  0.23627988899E+04  0.12699999809E+01 0. -1.
       -4    1    3    3    0  502  0.13177907084E+04 -0.31021280911E+03  0.70045811379E+03  0.15242859050E+04  0.12699999809E+01 0.  1.
</event>
<event>
 5   0  0.3889225E-08  0.3899139E+04  0.7818609E-02  0.8025208E-01
        1   -1    0    0  501    0  0.00000000000E+00  0.00000000000E+00  0.16609246506E+04  0.16609246507E+04  0.50400001928E-02 0.  1.
       -1   -1    0    0    0  501  0.00000000000E+00  0.00000000000E+00 -0.22883764998E+04  0.22883764998E+04  0.50400001928E-02 0. -1.
    10030    2    1    2    0    0  0.00000000000E+00  0.00000000000E+00 -0.62745184912E+03  0.39493011504E+04  0.38991388477E+04 0.  0.
        5    1    3    3  502    0  0.17356190619E+04  0.58108937112E+03  0.36629841815E+03  0.18666105664E+04  0.46999998093E+01 0.  1.
       -5    1    3    3    0  502 -0.17356190619E+04 -0.58108937112E+03 -0.99375026728E+03  0.20826905841E+04  0.46999998093E+01 0. -1.
</event>
<event>
 5   0  0.7858367E-08  0.3778603E+04  0.7818609E-02  0.8050762E-01
        2   -1    0    0  501    0  0.00000000000E+00  0.00000000000E+00  0.14086141449E+04  0.14086141449E+04  0.25500000920E-02 0.  1.
       -2   -1    0    0    0  501  0.00000000000E+00  0.00000000000E+00 -0.25340230141E+04  0.25340230141E+04  0.25500000920E-02 0. -1.
    10030    2    1    2    0    0  0.00000000000E+00  0.00000000000E+00 -0.11254088692E+04  0.39426371591E+04  0.37786032665E+04 0.  0.
        2    1    3    3  502    0 -0.14243532343E+04  0.91813069850E+03 -0.14342586418E+04  0.22200999904E+04  0.25500000920E-02 0. -1.
       -2    1    3    3    0  502  0.14243532343E+04 -0.91813069850E+03  0.30884977256E+03  0.17225371687E+04  0.25500000920E-02 0.  1.
</event>
<event>
 5   0  0.3701250E-08  0.3789573E+04  0.7818609E-02  0.8048396E-01
        1   -1    0    0  501    0  0.00000000000E+00  0.00000000000E+00  0.20884193162E+04  0.20884193162E+04  0.50400001928E-02 0. -1.
       -1   -1    0    0    0  501  0.00000000000E+00  0.00000000000E+00 -0.17191067055E+04  0.17191067055E+04  0.50400001928E-02 0.  1.
    10030    2    1    2    0    0  0.00000000000E+00  0.00000000000E+00  0.36931261069E+03  0.38075260218E+04  0.37895728786E+04 0.  0.
        2    1    3    3  502    0 -0.29182445288E+03  0.12279496218E+04  0.16045725516E+04  0.20414883929E+04  0.25500000920E-02 0. -1.
       -2    1    3    3    0  502  0.29182445288E+03 -0.12279496218E+04 -0.12352599409E+04  0.17660376289E+04  0.25500000920E-02 0.  1.
</event>
<event>
 5   0  0.7858367E-08  0.3804491E+04  0.7818609E-02  0.8045192E-01
       -2   -1    0    0    0  501  0.00000000000E+00  0.00000000000E+00  0.14463054856E+04  0.14463054856E+04  0.25500000920E-02 0. -1.
        2   -1    0    0  501    0  0.00000000000E+00  0.00000000000E+00 -0.25019184310E+04  0.25019184310E+04  0.25500000920E-02 0.  1.
    10030    2    1    2    0    0  0.00000000000E+00  0.00000000000E+00 -0.10556129454E+04  0.39482239167E+04  0.38044912151E+04 0.  0.
        2    1    3    3  502    0  0.99994440777E+03  0.14529828929E+04 -0.12671036345E+04  0.21717734059E+04  0.25500000920E-02 0. -1.
       -2    1    3    3    0  502 -0.99994440777E+03 -0.14529828929E+04  0.21149068916E+03  0.17764505108E+04  0.25500000920E-02 0.  1.
</event>
<event>
 5   0  0.3701250E-08  0.3813269E+04  0.7818609E-02  0.8043313E-01
       -1   -1    0    0    0  501  0.00000000000E+00  0.00000000000E+00  0.20400987607E+04  0.20400987608E+04  0.50400001928E-02 0. -1.
        1   -1    0    0  501    0  0.00000000000E+00  0.00000000000E+00 -0.17819011457E+04  0.17819011458E+04  0.50400001928E-02 0.  1.
    10030    2    1    2    0    0  0.00000000000E+00  0.00000000000E+00  0.25819761500E+03  0.38219999065E+04  0.38132685818E+04 0.  0.
        3    1    3    3  502    0 -0.12388319659E+04  0.50149976403E+03 -0.12338116665E+04  0.18189276763E+04  0.10100000352E+00 0.  1.
       -3    1    3    3    0  502  0.12388319659E+04 -0.50149976403E+03  0.14920092815E+04  0.20030722302E+04  0.10100000352E+00 0. -1.
</event>
<event>
 5   0  0.1150235E-07  0.3777174E+04  0.7818609E-02  0.8051071E-01
       -2   -1    0    0    0  501  0.00000000000E+00  0.00000000000E+00  0.14809933215E+04  0.14809933215E+04  0.25500000920E-02 0. -1.
        2   -1    0    0  501    0  0.00000000000E+00  0.00000000000E+00 -0.24083576987E+04  0.24083576987E+04  0.25500000920E-02 0.  1.
    10030    2    1    2    0    0  0.00000000000E+00  0.00000000000E+00 -0.92736437716E+03  0.38893510202E+04  0.37771744294E+04 0.  0.
        4    1    3    3  502    0 -0.14438925157E+04  0.77472191754E+03 -0.14305797652E+04  0.21752194657E+04  0.12699999809E+01 0.  1.
       -4    1    3    3    0  502  0.14438925157E+04 -0.77472191754E+03  0.50321538802E+03  0.17141315545E+04  0.12699999809E+01 0. -1.
</event>
<event>
 5   0  0.3701250E-08  0.3803841E+04  0.7818609E-02  0.8045331E-01
        1   -1    0    0  501    0  0.00000000000E+00  0.00000000000E+00  0.29372855382E+04  0.29372855382E+04  0.50400001928E-02 0. -1.
       -1   -1    0    0    0  501  0.00000000000E+00  0.00000000000E+00 -0.12315119209E+04  0.12315119209E+04  0.50400001928E-02 0.  1.
    10030    2    1    2    0    0  0.00000000000E+00  0.00000000000E+00  0.17057736173E+04  0.41687974590E+04  0.38038412981E+04 0.  0.
        1    1    3    3  502    0  0.33936968129E+03 -0.78904734956E+03  0.27126153703E+04  0.28453558034E+04  0.50400001928E-02 0. -1.
       -1    1    3    3    0  502 -0.33936968129E+03  0.78904734956E+03 -0.10068417530E+04  0.13234416557E+04  0.50400001928E-02 0.  1.
</event>
<event>
 5   0  0.3889225E-08  0.3795222E+04  0.7818609E-02  0.8047181E-01
       -1   -1    0    0    0  501  0.00000000000E+00  0.00000000000E+00  0.24058267656E+04  0.24058267656E+04  0.50400001928E-02 0. -1.
        1   -1    0    0  501    0  0.00000000000E+00  0.00000000000E+00 -0.14967525998E+04  0.14967525998E+04  0.50400001928E-02 0.  1.
    10030    2    1    2    0    0  0.00000000000E+00  0.00000000000E+00  0.90907416586E+03  0.39025793654E+04  0.37952219783E+04 0.  0.
        5    1    3    3  502    0 -0.24749811846E+03 -0.28601294380E+03  0.23666671313E+04  0.23967048469E+04  0.46999998093E+01 0. -1.
       -5    1    3    3    0  502  0.24749811846E+03  0.28601294380E+03 -0.14575929654E+04  0.15058745185E+04  0.46999998093E+01 0.  1.
</event>
<event>
 5   0  0.3701250E-08  0.3806595E+04  0.7818609E-02  0.8044741E-01
        1   -1    0    0  501    0  0.00000000000E+00  0.00000000000E+00  0.12385424351E+04  0.12385424351E+04  0.50400001928E-02 0. -1.
       -1   -1    0    0    0  501  0.00000000000E+00  0.00000000000E+00 -0.29248422407E+04  0.29248422407E+04  0.50400001928E-02 0.  1.
    10030    2    1    2    0    0  0.00000000000E+00  0.00000000000E+00 -0.16862998057E+04  0.41633846758E+04  0.38065949252E+04 0.  0.
        4    1    3    3  502    0  0.39820105278E+03 -0.54210120749E+03 -0.27905109601E+04  0.28704339095E+04  0.12699999809E+01 0.  1.
       -4    1    3    3    0  502 -0.39820105278E+03  0.54210120749E+03  0.11042111544E+04  0.12929507663E+04  0.12699999809E+01 0. -1.
</event>
<event>
 5   0  0.7858367E-08  0.3806728E+04  0.7818609E-02  0.8044713E-01
        2   -1    0    0  501    0  0.00000000000E+00  0.00000000000E+00  0.14116939482E+04  0.14116939482E+04  0.25500000920E-02 0. -1.
       -2   -1    0    0    0  501  0.00000000000E+00  0.00000000000E+00 -0.25662753149E+04  0.25662753149E+04  0.25500000920E-02 0.  1.
    10030    2    1    2    0    0  0.00000000000E+00  0.00000000000E+00 -0.11545813667E+04  0.39779692632E+04  0.38067284282E+04 0.  0.
        2    1    3    3  502    0 -0.68943036323E+03  0.99342838927E+03  0.95872205803E+03  0.15431662823E+04  0.25500000920E-02 0. -1.
       -2    1    3    3    0  502  0.68943036323E+03 -0.99342838927E+03 -0.21133034248E+04  0.24348029808E+04  0.25500000920E-02 0.  1.
</event>
<event>
 5   0  0.1143283E-07  0.3792878E+04  0.7818609E-02  0.8047685E-01
        2   -1    0    0  501    0  0.00000000000E+00  0.00000000000E+00  0.20609604767E+04  0.20609604767E+04  0.25500000920E-02 0. -1.
       -2   -1    0    0    0  501  0.00000000000E+00  0.00000000000E+00 -0.17450504803E+04  0.17450504803E+04  0.25500000920E-02 0.  1.
    10030    2    1    2    0    0  0.00000000000E+00  0.00000000000E+00  0.31590999635E+03  0.38060109570E+04  0.37928775724E+04 0.  0.
        1    1    3    3  502    0 -0.16425855945E+04 -0.77778909653E+03  0.70152873573E+03  0.19481236822E+04  0.50400001928E-02 0.  1.
       -1    1    3    3    0  502  0.16425855945E+04  0.77778909653E+03 -0.38561873939E+03  0.18578872749E+04  0.50400001928E-02 0. -1.
</event>
<event>
 5   0  0.3701250E-08  0.3654175E+04  0.7818609E-02  0.8078194E-01
       -1   -1    0    0    0  501  0.00000000000E+00  0.00000000000E+00  0.13838924050E+04  0.13838924050E+04  0.50400001928E-02 0. -1.
        1   -1    0    0  501    0  0.00000000000E+00  0.00000000000E+00 -0.24122167068E+04  0.24122167068E+04  0.50400001928E-02 0.  1.
    10030    2    1    2    0    0  0.00000000000E+00  0.00000000000E+00 -0.10283243018E+04  0.37961091118E+04  0.36541748068E+04 0.  0.
        3    1    3    3  502    0 -0.75249450142E+03  0.50945058216E+03  0.11324790927E+04  0.14519975124E+04  0.10100000352E+00 0. -1.
       -3    1    3    3    0  502  0.75249450142E+03 -0.50945058216E+03 -0.21608033946E+04  0.23441115994E+04  0.10100000352E+00 0.  1.
</event>
<event>
 5   0  0.1174870E-07  0.3799690E+04  0.7818609E-02  0.8046221E-01
       -2   -1    0    0    0  501  0.00000000000E+00  0.00000000000E+00  0.14223685116E+04  0.14223685116E+04  0.25500000920E-02 0. -1.
        2   -1    0    0  501    0  0.00000000000E+00  0.00000000000E+00 -0.25376058474E+04  0.25376058474E+04  0.25500000920E-02 0.  1.
    10030    2    1    2    0    0  0.00000000000E+00  0.00000000000E+00 -0.11152373358E+04  0.39599743590E+04  0.37996898043E+04 0.  0.
        5    1    3    3  502    0 -0.40080570871E+02 -0.13931502411E+04 -0.19031719335E+04  0.23589318653E+04  0.46999998093E+01 0.  1.
       -5    1    3    3    0  502  0.40080570871E+02  0.13931502411E+04  0.78793459776E+03  0.16010424937E+04  0.46999998093E+01 0. -1.
</event>
<event>
 5   0  0.1193861E-07  0.3763842E+04  0.7818609E-02  0.8053959E-01
       -2   -1    0    0    0  501  0.00000000000E+00  0.00000000000E+00  0.13921906586E+04  0.13921906586E+04  0.25500000920E-02 0.  1.
        2   -1    0    0  501    0  0.00000000000E+00  0.00000000000E+00 -0.25439233898E+04  0.25439233898E+04  0.25500000920E-02 0. -1.
    10030    2    1    2    0    0  0.00000000000E+00  0.00000000000E+00 -0.11517327312E+04  0.39361140484E+04  0.37638418561E+04 0.  0.
        3    1    3    3  502    0  0.18318861356E+04 -0.16989390629E+03 -0.16155701424E+03  0.18468273964E+04  0.10100000352E+00 0.  1.
       -3    1    3    3    0  502 -0.18318861356E+04  0.16989390629E+03 -0.99017571700E+03  0.20892866519E+04  0.10100000352E+00 0. -1.
</event>
<event>
 5   0  0.1174870E-07  0.3754341E+04  0.7818609E-02  0.8056025E-01
        2   -1    0    0  501    0  0.00000000000E+00  0.00000000000E+00  0.18586430438E+04  0.18586430438E+04  0.25500000920E-02 0. -1.
       -2   -1    0    0    0  501  0.00000000000E+00  0.00000000000E+00 -0.18958825475E+04  0.18958825475E+04  0.25500000920E-02 0.  1.
    10030    2    1    2    0    0  0.00000000000E+00  0.00000000000E+00 -0.37239503777E+02  0.37545255913E+04  0.37543409056E+04 0.  0.
        5    1    3    3  502    0  0.33864715546E+03  0.18275458333E+04 -0.28157973487E+03  0.18798709812E+04  0.46999998093E+01 0.  1.
       -5    1    3    3    0  502 -0.33864715546E+03 -0.18275458333E+04  0.24434023110E+03  0.18746546101E+04  0.46999998093E+01 0. -1.
</event>
<event>
 5   0  0.3701250E-08  0.3800368E+04  0.7818609E-02  0.8046076E-01
       -1   -1    0    0    0  501  0.00000000000E+00  0.00000000000E+00  0.12344718030E+04  0.12344718030E+04  0.50400001928E-02 0.  1.
        1   -1    0    0  501    0  0.00000000000E+00  0.00000000000E+00 -0.29248944832E+04  0.29248944832E+04  0.50400001928E-02 0. -1.
    10030    2    1    2    0    0  0.00000000000E+00  0.00000000000E+00 -0.16904226803E+04  0.41593662862E+04  0.38003682802E+04 0.  0.
        4    1    3    3  502    0 -0.23180157102E+03  0.67462252467E+03  0.10823664927E+04  0.12962894571E+04  0.12699999809E+01 0.  1.
       -4    1    3    3    0  502  0.23180157102E+03 -0.67462252467E+03 -0.27727891729E+04  0.28630768292E+04  0.12699999809E+01 0. -1.
</event>
<event>
 5   0  0.1150235E-07  0.3796112E+04  0.7818609E-02  0.8046990E-01
        2   -1    0    0  501    0  0.00000000000E+00  0.00000000000E+00  0.24084270606E+04  0.24084270606E+04  0.25500000920E-02 0.  1.
       -2   -1    0    0    0  501  0.00000000000E+00  0.00000000000E+00 -0.14958379524E+04  0.14958379524E+04  0.25500000920E-02 0. -1.
    10030    2    1    2    0    0  0.00000000000E+00  0.00000000000E+00  0.91258910826E+03  0.39042650130E+04  0.37961120125E+04 0.  0.
        4    1    3    3  502    0  0.55404728423E+03  0.14294359476E+03 -0.14050213700E+04  0.15170655647E+04  0.12699999809E+01 0. -1.
       -4    1    3    3    0  502 -0.55404728423E+03 -0.14294359476E+03  0.23176104783E+04  0.23871994484E+04  0.12699999809E+01 0.  1.
</event>
<event>
 5   0  0.3701250E-08  0.3782562E+04  0.7818609E-02  0.8049907E-01
        1   -1    0    0  501    0  0.00000000000E+00  0.00000000000E+00  0.11011850536E+04  0.11011850536E+04  0.50400001928E-02 0.  1.
       -1   -1    0    0    0  501  0.00000000000E+00  0.00000000000E+00 -0.32482677979E+04  0.32482677979E+04  0.50400001928E-02 0. -1.
    10030    2    1    2    0    0  0.00000000000E+00  0.00000000000E+00 -0.21470827442E+04  0.43494528515E+04  0.37825620678E+04 0.  0.
        4    1    3    3  502    0 -0.57571452063E+03  0.29516072241E+03  0.96998586198E+03  0.11659507908E+04  0.12699999809E+01 0.  1.
       -4    1    3    3    0  502  0.57571452063E+03 -0.29516072241E+03 -0.31170686062E+04  0.31835020606E+04  0.12699999809E+01 0. -1.
</event>
<event>
 5   0  0.3701250E-08  0.3812354E+04  0.7818609E-02  0.8043509E-01
        3   -1    0    0  501    0  0.00000000000E+00  0.00000000000E+00  0.24044123709E+04  0.24044123730E+04  0.10100000352E+00 0.  1.
       -3   -1    0    0    0  501  0.00000000000E+00  0.00000000000E+00 -0.15111848421E+04  0.15111848455E+04  0.10100000352E+00 0. -1.
    10030    2    1    2    0    0  0.00000000000E+00  0.00000000000E+00  0.89322752882E+03  0.39155972185E+04  0.38123544116E+04 0.  0.
        5    1    3    3  502    0  0.68191799720E+03  0.52293063589E+03  0.21941677115E+04  0.23564512812E+04  0.46999998093E+01 0.  1.
       -5    1    3    3    0  502 -0.68191799720E+03 -0.52293063589E+03 -0.13009401826E+04  0.15591459373E+04  0.46999998093E+01 0. -1.
</event>
<event>
 5   0  0.3701250E-08  0.3800204E+04  0.7818609E-02  0.8046111E-01
        1   -1    0    0  501    0  0.00000000000E+00  0.00000000000E+00  0.20894360477E+04  0.20894360477E+04  0.50400001928E-02 0.  1.
       -1   -1    0    0    0  501  0.00000000000E+00  0.00000000000E+00 -0.17279246864E+04  0.17279246864E+04  0.50400001928E-02 0. -1.
    10030    2    1    2    0    0  0.00000000000E+00  0.00000000000E+00  0.36151136134E+03  0.38173607342E+04  0.38002042722E+04 0.  0.
        1    1    3    3  502    0  0.57959067024E+03  0.19515736447E+03  0.19878706023E+04  0.20798176058E+04  0.50400001928E-02 0.  1.
       -1    1    3    3    0  502 -0.57959067024E+03 -0.19515736447E+03 -0.16263592410E+04  0.17375431283E+04  0.50400001928E-02 0. -1.
</event>
<event>
 5   0  0.3701250E-08  0.3815993E+04  0.7818609E-02  0.8042731E-01
        1   -1    0    0  501    0  0.00000000000E+00  0.00000000000E+00  0.19763560692E+04  0.19763560692E+04  0.50400001928E-02 0.  1.
       -1   -1    0    0    0  501  0.00000000000E+00  0.00000000000E+00 -0.18420018685E+04  0.18420018685E+04  0.50400001928E-02 0. -1.
    10030    2    1    2    0    0  0.00000000000E+00  0.00000000000E+00  0.13435420072E+03  0.38183579377E+04  0.38159934865E+04 0.  0.
        2    1    3    3  502    0 -0.10528115646E+04  0.70654747952E+03 -0.13594798205E+04  0.18589800736E+04  0.25500000920E-02 0. -1.
       -2    1    3    3    0  502  0.10528115646E+04 -0.70654747952E+03  0.14938340213E+04  0.19593778642E+04  0.25500000920E-02 0.  1.
</event>
<event>
 5   0  0.7858367E-08  0.3798560E+04  0.7818609E-02  0.8046464E-01
       -2   -1    0    0    0  501  0.00000000000E+00  0.00000000000E+00  0.14344721434E+04  0.14344721434E+04  0.25500000920E-02 0.  1.
        2   -1    0    0  501    0  0.00000000000E+00  0.00000000000E+00 -0.25146986498E+04  0.25146986498E+04  0.25500000920E-02 0. -1.
    10030    2    1    2    0    0  0.00000000000E+00  0.00000000000E+00 -0.10802265064E+04  0.39491707932E+04  0.37985603390E+04 0.  0.
        2    1    3    3  502    0  0.13282970283E+04 -0.91897076612E+03  0.49869618914E+03  0.16904372669E+04  0.25500000920E-02 0.  1.
       -2    1    3    3    0  502 -0.13282970283E+04  0.91897076612E+03 -0.15789226955E+04  0.22587335263E+04  0.25500000920E-02 0. -1.
</event>
<event>
 5   0  0.3701250E-08  0.3787749E+04  0.7818609E-02  0.8048789E-01
        1   -1    0    0  501    0  0.00000000000E+00  0.00000000000E+00  0.15375293626E+04  0.15375293626E+04  0.50400001928E-02 0. -1.
       -1   -1    0    0    0  501  0.00000000000E+00  0.00000000000E+00 -0.23328082233E+04  0.23328082233E+04  0.50400001928E-02 0.  1.
    10030    2    1    2    0    0  0.00000000000E+00  0.00000000000E+00 -0.79527886067E+03  0.38703375859E+04  0.37877492740E+04 0.  0.
        2    1    3    3  502    0 -0.33639211442E+03 -0.11604251233E+04  0.10925891978E+04  0.16289558854E+04  0.25500000920E-02 0. -1.
       -2    1    3    3    0  502  0.33639211442E+03  0.11604251233E+04 -0.18878680584E+04  0.22413817005E+04  0.25500000920E-02 0.  1.
</event>
<event>
 5   0  0.3701250E-08  0.3802494E+04  0.7818609E-02  0.8045620E-01
       -1   -1    0    0    0  501  0.00000000000E+00  0.00000000000E+00  0.12800543544E+04  0.12800543544E+04  0.50400001928E-02 0. -1.
        1   -1    0    0  501    0  0.00000000000E+00  0.00000000000E+00 -0.28238955161E+04  0.28238955161E+04  0.50400001928E-02 0.  1.
    10030    2    1    2    0    0  0.00000000000E+00  0.00000000000E+00 -0.15438411617E+04  0.41039498705E+04  0.38024937879E+04 0.  0.
        1    1    3    3  502    0  0.17920792850E+04 -0.89249744903E+02 -0.93410465588E+02  0.17967301399E+04  0.50400001928E-02 0. -1.
       -1    1    3    3    0  502 -0.17920792850E+04  0.89249744903E+02 -0.14504306962E+04  0.23072197306E+04  0.50400001928E-02 0.  1.
</event>
<event>
 5   0  0.1143283E-07  0.3803220E+04  0.7818609E-02  0.8045464E-01
        2   -1    0    0  501    0  0.00000000000E+00  0.00000000000E+00  0.18945733225E+04  0.18945733225E+04  0.25500000920E-02 0.  1.
       -2   -1    0    0    0  501  0.00000000000E+00  0.00000000000E+00 -0.19086725144E+04  0.19086725144E+04  0.25500000920E-02 0. -1.
    10030    2    1    2    0    0  0.00000000000E+00  0.00000000000E+00 -0.14099191915E+02  0.38032458368E+04  0.38032197029E+04 0.  0.
        1    1    3    3  502    0 -0.17657216152E+04 -0.53826508761E+03  0.44970062820E+03  0.18999296781E+04  0.50400001928E-02 0. -1.
       -1    1    3    3    0  502  0.17657216152E+04  0.53826508761E+03 -0.46379982011E+03  0.19033161587E+04  0.50400001928E-02 0.  1.
</event>
<event>
 5   0  0.1174870E-07  0.3799815E+04  0.7818609E-02  0.8046195E-01
       -2   -1    0    0    0  501  0.00000000000E+00  0.00000000000E+00  0.18079771775E+04  0.18079771775E+04  0.25500000920E-02 0.  1.
        2   -1    0    0  501    0  0.00000000000E+00  0.00000000000E+00 -0.19965118101E+04  0.19965118101E+04  0.25500000920E-02 0. -1.
    10030    2    1    2    0    0  0.00000000000E+00  0.00000000000E+00 -0.18853463265E+03  0.38044889876E+04  0.37998146204E+04 0.  0.
        5    1    3    3  502    0  0.17766239880E+04 -0.89653595510E+02  0.57378292783E+03  0.18691387054E+04  0.46999998093E+01 0. -1.
       -5    1    3    3    0  502 -0.17766239880E+04  0.89653595510E+02 -0.76231756049E+03  0.19353502822E+04  0.46999998093E+01 0.  1.
</event>
<event>
 5   0  0.3701250E-08  0.3771962E+04  0.7818609E-02  0.8052199E-01
        1   -1    0    0  501    0  0.00000000000E+00  0.00000000000E+00  0.28282382928E+04  0.28282382928E+04  0.50400001928E-02 0. -1.
       -1   -1    0    0    0  501  0.00000000000E+00  0.00000000000E+00 -0.12576469092E+04  0.12576469093E+04  0.50400001928E-02 0.  1.
    10030    2    1    2    0    0  0.00000000000E+00  0.00000000000E+00  0.15705913835E+04  0.40858852020E+04  0.37719624322E+04 0.  0.
        2    1    3    3  502    0  0.39554233678E+03 -0.17300975875E+04  0.14765545043E+04  0.23086586163E+04  0.25500000920E-02 0.  1.
       -2    1    3    3    0  502 -0.39554233678E+03  0.17300975875E+04  0.94036879235E+02  0.17772265857E+04  0.25500000920E-02 0. -1.
</event>
<event>
 5   0  0.1150235E-07  0.3793329E+04  0.7818609E-02  0.8047588E-01
       -2   -1    0    0    0  501  0.00000000000E+00  0.00000000000E+00  0.14848981078E+04  0.14848981078E+04  0.25500000920E-02 0.  1.
        2   -1    0    0  501    0  0.00000000000E+00  0.00000000000E+00 -0.24226152402E+04  0.24226152402E+04  0.25500000920E-02 0. -1.
    10030    2    1    2    0    0  0.00000000000E+00  0.00000000000E+00 -0.93771713232E+03  0.39075133480E+04  0.37933292955E+04 0.  0.
        4    1    3    3  502    0  0.25510990972E+03 -0.47018589544E+03 -0.23432974137E+04  0.24035807090E+04  0.12699999809E+01 0. -1.
       -4    1    3    3    0  502 -0.25510990972E+03  0.47018589544E+03  0.14055802814E+04  0.15039326390E+04  0.12699999809E+01 0.  1.
</event>
<event>
 5   0  0.7858367E-08  0.3771409E+04  0.7818609E-02  0.8052318E-01
       -2   -1    0    0    0  501  0.00000000000E+00  0.00000000000E+00  0.15485728456E+04  0.15485728456E+04  0.25500000920E-02 0.  1.
        2   -1    0    0  501    0  0.00000000000E+00  0.00000000000E+00 -0.22962312564E+04  0.22962312564E+04  0.25500000920E-02 0. -1.
    10030    2    1    2    0    0  0.00000000000E+00  0.00000000000E+00 -0.74765841076E+03  0.38448041020E+04  0.37714089521E+04 0.  0.
        2    1    3    3  502    0  0.64943249530E+03 -0.10105767828E+04 -0.18556826996E+04  0.22105624355E+04  0.25500000920E-02 0. -1.
       -2    1    3    3    0  502 -0.64943249530E+03  0.10105767828E+04  0.11080242888E+04  0.16342416665E+04  0.25500000920E-02 0.  1.
</event>
<event>
 5   0  0.3701250E-08  0.3809638E+04  0.7818609E-02  0.8044090E-01
        1   -1    0    0  501    0  0.00000000000E+00  0.00000000000E+00  0.13709222711E+04  0.13709222711E+04  0.50400001928E-02 0. -1.
       -1   -1    0    0    0  501  0.00000000000E+00  0.00000000000E+00 -0.26466380139E+04  0.26466380139E+04  0.50400001928E-02 0.  1.
    10030    2    1    2    0    0  0.00000000000E+00  0.00000000000E+00 -0.12757157428E+04  0.40175602850E+04  0.38096377764E+04 0.  0.
        1    1    3    3  502    0 -0.79476879016E+03  0.16336298479E+04 -0.33950943230E+02  0.18170185955E+04  0.50400001928E-02 0. -1.
       -1    1    3    3    0  502  0.79476879016E+03 -0.16336298479E+04 -0.12417647996E+04  0.22005416895E+04  0.50400001928E-02 0.  1.
</event>
<event>
 5   0  0.7858367E-08  0.3801993E+04  0.7818609E-02  0.8045727E-01
        2   -1    0    0  501    0  0.00000000000E+00  0.00000000000E+00  0.12296834076E+04  0.12296834076E+04  0.25500000920E-02 0.  1.
       -2   -1    0    0    0  501  0.00000000000E+00  0.00000000000E+00 -0.29387957519E+04  0.29387957519E+04  0.25500000920E-02 0. -1.
    10030    2    1    2    0    0  0.00000000000E+00  0.00000000000E+00 -0.17091123442E+04  0.41684791595E+04  0.38019933585E+04 0.  0.
        2    1    3    3  502    0  0.65787740681E+03  0.17317901883E+04 -0.38696228517E+03  0.18925220603E+04  0.25500000920E-02 0.  1.
       -2    1    3    3    0  502 -0.65787740681E+03 -0.17317901883E+04 -0.13221500591E+04  0.22759570992E+04  0.25500000920E-02 0. -1.
</event>
<event>
 5   0  0.3701250E-08  0.3758513E+04  0.7818609E-02  0.8055117E-01
        1   -1    0    0  501    0  0.00000000000E+00  0.00000000000E+00  0.19927120949E+04  0.19927120949E+04  0.50400001928E-02 0.  1.
       -1   -1    0    0    0  501  0.00000000000E+00  0.00000000000E+00 -0.17722607582E+04  0.17722607582E+04  0.50400001928E-02 0. -1.
    10030    2    1    2    0    0  0.00000000000E+00  0.00000000000E+00  0.22045133665E+03  0.37649728531E+04  0.37585132423E+04 0.  0.
        2    1    3    3  502    0  0.11383559119E+04  0.10798936085E+04 -0.92575730193E+03  0.18218262732E+04  0.25500000920E-02 0. -1.
       -2    1    3    3    0  502 -0.11383559119E+04 -0.10798936085E+04  0.11462086386E+04  0.19431465799E+04  0.25500000920E-02 0.  1.
</event>
<event>
 5   0  0.3701250E-08  0.3799657E+04  0.7818609E-02  0.8046229E-01
        1   -1    0    0  501    0  0.00000000000E+00  0.00000000000E+00  0.14712606674E+04  0.14712606675E+04  0.50400001928E-02 0. -1.
       -1   -1    0    0    0  501  0.00000000000E+00  0.00000000000E+00 -0.24532346671E+04  0.24532346671E+04  0.50400001928E-02 0.  1.
    10030    2    1    2    0    0  0.00000000000E+00  0.00000000000E+00 -0.98197399966E+03  0.39244953346E+04  0.37996566549E+04 0.  0.
        4    1    3    3  502    0 -0.10242098881E+04 -0.29829605647E+03 -0.21146931530E+04  0.23685259501E+04  0.12699999809E+01 0.  1.
       -4    1    3    3    0  502  0.10242098881E+04  0.29829605647E+03  0.11327191533E+04  0.15559693845E+04  0.12699999809E+01 0. -1.
</event>
<event>
 5   0  0.1150235E-07  0.3798855E+04  0.7818609E-02  0.8046401E-01
       -2   -1    0    0    0  501  0.00000000000E+00  0.00000000000E+00  0.25947552844E+04  0.25947552844E+04  0.25500000920E-02 0.  1.
        2   -1    0    0  501    0  0.00000000000E+00  0.00000000000E+00 -0.13904300299E+04  0.13904300299E+04  0.25500000920E-02 0. -1.
    10030    2    1    2    0    0  0.00000000000E+00  0.00000000000E+00  0.12043252545E+04  0.39851853143E+04  0.37988554422E+04 0.  0.
        4    1    3    3  502    0  0.10460938453E+04  0.15402481892E+04  0.20803947776E+03  0.18734884186E+04  0.12699999809E+01 0. -1.
       -4    1    3    3    0  502 -0.10460938453E+04 -0.15402481892E+04  0.99628577676E+03  0.21116968957E+04  0.12699999809E+01 0.  1.
</event>
<event>
 5   0  0.7858367E-08  0.3804497E+04  0.7818609E-02  0.8045191E-01
        2   -1    0    0  501    0  0.00000000000E+00  0.00000000000E+00  0.14879733093E+04  0.14879733093E+04  0.25500000920E-02 0.  1.
       -2   -1    0    0    0  501  0.00000000000E+00  0.00000000000E+00 -0.24318644790E+04  0.24318644790E+04  0.25500000920E-02 0. -1.
    10030    2    1    2    0    0  0.00000000000E+00  0.00000000000E+00 -0.94389116977E+03  0.39198377883E+04  0.38044970425E+04 0.  0.
        2    1    3    3  502    0 -0.66243931126E+03 -0.90083039827E+03  0.11136141835E+04  0.15781184357E+04  0.25500000920E-02 0.  1.
       -2    1    3    3    0  502  0.66243931126E+03  0.90083039827E+03 -0.20575053532E+04  0.23417193526E+04  0.25500000920E-02 0. -1.
</event>
<event>
 5   0  0.3701250E-08  0.3804121E+04  0.7818609E-02  0.8045271E-01
        1   -1    0    0  501    0  0.00000000000E+00  0.00000000000E+00  0.15504201033E+04  0.15504201033E+04  0.50400001928E-02 0. -1.
       -1   -1    0    0    0  501  0.00000000000E+00  0.00000000000E+00 -0.23334537598E+04  0.23334537598E+04  0.50400001928E-02 0.  1.
    10030    2    1    2    0    0  0.00000000000E+00  0.00000000000E+00 -0.78303365653E+03  0.38838738631E+04  0.38041207233E+04 0.  0.
        1    1    3    3  502    0 -0.55864925608E+03 -0.17312517772E+04  0.17556638917E+03  0.18276064304E+04  0.50400001928E-02 0. -1.
       -1    1    3    3    0  502  0.55864925608E+03  0.17312517772E+04 -0.95860004570E+03  0.20562674327E+04  0.50400001928E-02 0.  1.
</event>
<event>
 5   0  0.3701250E-08  0.3796840E+04  0.7818609E-02  0.8046833E-01
       -1   -1    0    0    0  501  0.00000000000E+00  0.00000000000E+00  0.14643053528E+04  0.14643053528E+04  0.50400001928E-02 0.  1.
        1   -1    0    0  501    0  0.00000000000E+00  0.00000000000E+00 -0.24612338267E+04  0.24612338267E+04  0.50400001928E-02 0. -1.
    10030    2    1    2    0    0  0.00000000000E+00  0.00000000000E+00 -0.99692847393E+03  0.39255391795E+04  0.37968396684E+04 0.  0.
        2    1    3    3  502    0 -0.34129817452E+03  0.70588058523E+03  0.12890844854E+04  0.15088043793E+04  0.25500000920E-02 0.  1.
       -2    1    3    3    0  502  0.34129817452E+03 -0.70588058523E+03 -0.22860129593E+04  0.24167348002E+04  0.25500000920E-02 0. -1.
</event>
<event>
 5   0  0.1143283E-07  0.3775272E+04  0.7818609E-02  0.8051482E-01
       -2   -1    0    0    0  501  0.00000000000E+00  0.00000000000E+00  0.25568837576E+04  0.25568837576E+04  0.25500000920E-02 0. -1.
        2   -1    0    0  501    0  0.00000000000E+00  0.00000000000E+00 -0.13935595123E+04  0.13935595123E+04  0.25500000920E-02 0.  1.
    10030    2    1    2    0    0  0.00000000000E+00  0.00000000000E+00  0.11633242452E+04  0.39504432699E+04  0.37752720073E+04 0.  0.
        1    1    3    3  502    0 -0.38935926008E+03 -0.18404172620E+04  0.41809760592E+03  0.19270552509E+04  0.50400001928E-02 0. -1.
       -1    1    3    3    0  502  0.38935926008E+03  0.18404172620E+04  0.74522663933E+03  0.20233880191E+04  0.50400001928E-02 0.  1.
</event>
<event>
 5   0  0.1174870E-07  0.3800107E+04  0.7818609E-02  0.8046132E-01
       -2   -1    0    0    0  501  0.00000000000E+00  0.00000000000E+00  0.18025965519E+04  0.18025965519E+04  0.25500000920E-02 0.  1.
        2   -1    0    0  501    0  0.00000000000E+00  0.00000000000E+00 -0.20027796516E+04  0.20027796516E+04  0.25500000920E-02 0. -1.
    10030    2    1    2    0    0  0.00000000000E+00  0.00000000000E+00 -0.20018309973E+03  0.38053762034E+04  0.38001072059E+04 0.  0.
        5    1    3    3  502    0  0.67844922721E+03  0.10494047796E+04  0.13331993594E+04  0.18272893496E+04  0.46999998093E+01 0.  1.
       -5    1    3    3    0  502 -0.67844922721E+03 -0.10494047796E+04 -0.15333824591E+04  0.19780868538E+04  0.46999998093E+01 0. -1.
</event>
<event>
 5   0  0.3701250E-08  0.3821679E+04  0.7818609E-02  0.8041519E-01
       -1   -1    0    0    0  501  0.00000000000E+00  0.00000000000E+00  0.14671854570E+04  0.14671854570E+04  0.50400001928E-02 0.  1.
        1   -1    0    0  501    0  0.00000000000E+00  0.00000000000E+00 -0.24886475307E+04  0.24886475307E+04  0.50400001928E-02 0. -1.
    10030    2    1    2    0    0  0.00000000000E+00  0.00000000000E+00 -0.10214620737E+04  0.39558329877E+04  0.38216789319E+04 0.  0.
        1    1    3    3  502    0  0.13338219285E+04  0.12185008626E+04  0.13360083492E+03  0.18115392550E+04  0.50400001928E-02 0.  1.
       -1    1    3    3    0  502 -0.13338219285E+04 -0.12185008626E+04 -0.11550629086E+04  0.21442937327E+04  0.50400001928E-02 0. -1.
</event>
<event>
 5   0  0.1150235E-07  0.3804510E+04  0.7818609E-02  0.8045188E-01
       -2   -1    0    0    0  501  0.00000000000E+00  0.00000000000E+00  0.20549195761E+04  0.20549195761E+04  0.25500000920E-02 0. -1.
        2   -1    0    0  501    0  0.00000000000E+00  0.00000000000E+00 -0.17609318785E+04  0.17609318785E+04  0.25500000920E-02 0.  1.
    10030    2    1    2    0    0  0.00000000000E+00  0.00000000000E+00  0.29398769763E+03  0.38158514546E+04  0.38045096343E+04 0.  0.
        4    1    3    3  502    0  0.14662532629E+04  0.82883404020E+03  0.10337717254E+04  0.19762464650E+04  0.12699999809E+01 0.  1.
       -4    1    3    3    0  502 -0.14662532629E+04 -0.82883404020E+03 -0.73978402781E+03  0.18396049896E+04  0.12699999809E+01 0. -1.
</event>
<event>
 5   0  0.1150235E-07  0.3795464E+04  0.7818609E-02  0.8047129E-01
       -2   -1    0    0    0  501  0.00000000000E+00  0.00000000000E+00  0.22994160130E+04  0.22994160130E+04  0.25500000920E-02 0.  1.
        2   -1    0    0  501    0  0.00000000000E+00  0.00000000000E+00 -0.15662176763E+04  0.15662176763E+04  0.25500000920E-02 0. -1.
    10030    2    1    2    0    0  0.00000000000E+00  0.00000000000E+00  0.73319833671E+03  0.38656336893E+04  0.37954636105E+04 0.  0.
        4    1    3    3  502    0  0.87411278742E+03  0.11482595762E+04 -0.88858587952E+03  0.16947447294E+04  0.12699999809E+01 0. -1.
       -4    1    3    3    0  502 -0.87411278742E+03 -0.11482595762E+04  0.16217842162E+04  0.21708889599E+04  0.12699999809E+01 0.  1.
</event>
<event>
 5   0  0.1150235E-07  0.3822057E+04  0.7818609E-02  0.8041438E-01
       -2   -1    0    0    0  501  0.00000000000E+00  0.00000000000E+00  0.12321193750E+04  0.12321193750E+04  0.25500000920E-02 0.  1.
        2   -1    0    0  501    0  0.00000000000E+00  0.00000000000E+00 -0.29640221427E+04  0.29640221427E+04  0.25500000920E-02 0. -1.
    10030    2    1    2    0    0  0.00000000000E+00  0.00000000000E+00 -0.17319027676E+04  0.41961415177E+04  0.38220565720E+04 0.  0.
        4    1    3    3  502    0  0.37105349627E+03 -0.13267609736E+04  0.58808161387E+03  0.14979375740E+04  0.12699999809E+01 0.  1.
       -4    1    3    3    0  502 -0.37105349627E+03  0.13267609736E+04 -0.23199843815E+04  0.26982039437E+04  0.12699999809E+01 0. -1.
</event>
<event>
 5   0  0.1193861E-07  0.3733194E+04  0.7818609E-02  0.8060645E-01
        2   -1    0    0  501    0  0.00000000000E+00  0.00000000000E+00  0.22249255252E+04  0.22249255252E+04  0.25500000920E-02 0. -1.
       -2   -1    0    0    0  501  0.00000000000E+00  0.00000000000E+00 -0.15659780306E+04  0.15659780306E+04  0.25500000920E-02 0.  1.
    10030    2    1    2    0    0  0.00000000000E+00  0.00000000000E+00  0.65894749458E+03  0.37909035558E+04  0.37331940706E+04 0.  0.
        3    1    3    3  502    0  0.15801478574E+04  0.10447148324E+03  0.13328797794E+04  0.20698671597E+04  0.10100000352E+00 0. -1.
       -3    1    3    3    0  502 -0.15801478574E+04 -0.10447148324E+03 -0.67393228483E+03  0.17210363961E+04  0.10100000352E+00 0.  1.
</event>
<event>
 5   0  0.3701250E-08  0.3804326E+04  0.7818609E-02  0.8045227E-01
       -1   -1    0    0    0  501  0.00000000000E+00  0.00000000000E+00  0.24757646439E+04  0.24757646439E+04  0.50400001928E-02 0.  1.
        1   -1    0    0  501    0  0.00000000000E+00  0.00000000000E+00 -0.14614574732E+04  0.14614574732E+04  0.50400001928E-02 0. -1.
    10030    2    1    2    0    0  0.00000000000E+00  0.00000000000E+00  0.10143071707E+04  0.39372221171E+04  0.38043263481E+04 0.  0.
        1    1    3    3  502    0 -0.52791808415E+02 -0.17059720133E+04  0.13761873752E+04  0.21924915454E+04  0.50400001928E-02 0. -1.
       -1    1    3    3    0  502  0.52791808415E+02  0.17059720133E+04 -0.36188020445E+03  0.17447305717E+04  0.50400001928E-02 0.  1.
</event>
<event>
 5   0  0.7858367E-08  0.3803640E+04  0.7818609E-02  0.8045374E-01
       -2   -1    0    0    0  501  0.00000000000E+00  0.00000000000E+00  0.30918060324E+04  0.30918060324E+04  0.25500000920E-02 0.  1.
        2   -1    0    0  501    0  0.00000000000E+00  0.00000000000E+00 -0.11698404477E+04  0.11698404477E+04  0.25500000920E-02 0. -1.
    10030    2    1    2    0    0  0.00000000000E+00  0.00000000000E+00  0.19219655847E+04  0.42616464802E+04  0.38036402318E+04 0.  0.
        2    1    3    3  502    0  0.12598819547E+04  0.42193916734E+03 -0.56359560799E+03  0.14432516101E+04  0.25500000920E-02 0. -1.
       -2    1    3    3    0  502 -0.12598819547E+04 -0.42193916734E+03  0.24855611927E+04  0.28183948700E+04  0.25500000920E-02 0.  1.
</event>
<event>
 5   0  0.1143283E-07  0.3820654E+04  0.7818609E-02  0.8041737E-01
        2   -1    0    0  501    0  0.00000000000E+00  0.00000000000E+00  0.28228823072E+04  0.28228823072E+04  0.25500000920E-02 0.  1.
       -2   -1    0    0    0  501  0.00000000000E+00  0.00000000000E+00 -0.12927744289E+04  0.12927744289E+04  0.25500000920E-02 0. -1.
    10030    2    1    2    0    0  0.00000000000E+00  0.00000000000E+00  0.15301078783E+04  0.41156567361E+04  0.38206544270E+04 0.  0.
        1    1    3    3  502    0  0.10568373418E+04  0.13948889322E+04  0.15901802712E+04  0.23645916338E+04  0.50400001928E-02 0.  1.
       -1    1    3    3    0  502 -0.10568373418E+04 -0.13948889322E+04 -0.60072392880E+02  0.17510651023E+04  0.50400001928E-02 0. -1.
</event>
<event>
 5   0  0.3701250E-08  0.3768672E+04  0.7818609E-02  0.8052911E-01
       -1   -1    0    0    0  501  0.00000000000E+00  0.00000000000E+00  0.17179712251E+04  0.17179712251E+04  0.50400001928E-02 0. -1.
        1   -1    0    0  501    0  0.00000000000E+00  0.00000000000E+00 -0.20668107890E+04  0.20668107890E+04  0.50400001928E-02 0.  1.
    10030    2    1    2    0    0  0.00000000000E+00  0.00000000000E+00 -0.34883956383E+03  0.37847820141E+04  0.37686716298E+04 0.  0.
        2    1    3    3  502    0  0.43932518542E+03  0.62892297135E+03  0.15540333854E+04  0.17330812115E+04  0.25500000920E-02 0. -1.
       -2    1    3    3    0  502 -0.43932518542E+03 -0.62892297135E+03 -0.19028729493E+04  0.20517008026E+04  0.25500000920E-02 0.  1.
</event>
<event>
 5   0  0.3701250E-08  0.3808675E+04  0.7818609E-02  0.8044296E-01
        1   -1    0    0  501    0  0.00000000000E+00  0.00000000000E+00  0.13026194692E+04  0.13026194692E+04  0.50400001928E-02 0. -1.
       -1   -1    0    0    0  501  0.00000000000E+00  0.00000000000E+00 -0.27840073122E+04  0.27840073122E+04  0.50400001928E-02 0.  1.
    10030    2    1    2    0    0  0.00000000000E+00  0.00000000000E+00 -0.14813878430E+04  0.40866267814E+04  0.38086754271E+04 0.  0.
        2    1    3    3  502    0 -0.14217449190E+04  0.96706593575E+03 -0.16189168065E+04  0.23616660994E+04  0.25500000920E-02 0.  1.
       -2    1    3    3    0  502  0.14217449190E+04 -0.96706593575E+03  0.13752896348E+03  0.17249606820E+04  0.25500000920E-02 0. -1.
</event>
<event>
 5   0  0.1150235E-07  0.3807489E+04  0.7818609E-02  0.8044550E-01
        2   -1    0    0  501    0  0.00000000000E+00  0.00000000000E+00  0.14832268491E+04  0.14832268491E+04  0.25500000920E-02 0. -1.
       -2   -1    0    0    0  501  0.00000000000E+00  0.00000000000E+00 -0.24434849453E+04  0.24434849453E+04  0.25500000920E-02 0.  1.
    10030    2    1    2    0    0  0.00000000000E+00  0.00000000000E+00 -0.96025809613E+03  0.39267117944E+04  0.38074886612E+04 0.  0.
        4    1    3    3  502    0  0.13015126158E+04  0.48714041250E+03 -0.18220251347E+04  0.22915099988E+04  0.12699999809E+01 0.  1.
       -4    1    3    3    0  502 -0.13015126158E+04 -0.48714041250E+03  0.86176703853E+03  0.16352017955E+04  0.12699999809E+01 0. -1.
</event>
<event>
 5   0  0.7858367E-08  0.3805629E+04  0.7818609E-02  0.8044948E-01
       -2   -1    0    0    0  501  0.00000000000E+00  0.00000000000E+00  0.24537073097E+04  0.24537073097E+04  0.25500000920E-02 0.  1.
        2   -1    0    0  501    0  0.00000000000E+00  0.00000000000E+00 -0.14756051589E+04  0.14756051589E+04  0.25500000920E-02 0. -1.
    10030    2    1    2    0    0  0.00000000000E+00  0.00000000000E+00  0.97810215076E+03  0.39293124686E+04  0.38056290752E+04 0.  0.
        2    1    3    3  502    0 -0.11963369728E+04 -0.41531281283E+03  0.19554180079E+04  0.23296708932E+04  0.25500000920E-02 0.  1.
       -2    1    3    3    0  502  0.11963369728E+04  0.41531281283E+03 -0.97731585710E+03  0.15996415754E+04  0.25500000920E-02 0. -1.
</event>
<event>
 5   0  0.1150235E-07  0.3820261E+04  0.7818609E-02  0.8041821E-01
        2   -1    0    0  501    0  0.00000000000E+00  0.00000000000E+00  0.19541856600E+04  0.19541856600E+04  0.25500000920E-02 0. -1.
       -2   -1    0    0    0  501  0.00000000000E+00  0.00000000000E+00 -0.18670685244E+04  0.18670685244E+04  0.25500000920E-02 0.  1.
    10030    2    1    2    0    0  0.00000000000E+00  0.00000000000E+00  0.87117135521E+02  0.38212541844E+04  0.38202610050E+04 0.  0.
        4    1    3    3  502    0  0.12247002239E+04 -0.12539075932E+04 -0.71586343925E+03  0.18933137530E+04  0.12699999809E+01 0.  1.
       -4    1    3    3    0  502 -0.12247002239E+04  0.12539075932E+04  0.80298057477E+03  0.19279404314E+04  0.12699999809E+01 0. -1.
</event>
<event>
 5   0  0.3701250E-08  0.3797934E+04  0.7818609E-02  0.8046598E-01
        1   -1    0    0  501    0  0.00000000000E+00  0.00000000000E+00  0.17599064787E+04  0.17599064787E+04  0.50400001928E-02 0.  1.
       -1   -1    0    0    0  501  0.00000000000E+00  0.00000000000E+00 -0.20490150196E+04  0.20490150196E+04  0.50400001928E-02 0. -1.
    10030    2    1    2    0    0  0.00000000000E+00  0.00000000000E+00 -0.28910854088E+03  0.38089214983E+04  0.37979335476E+04 0.  0.
        3    1    3    3  502    0  0.14198820130E+03 -0.19130064885E+03  0.17448597294E+04  0.17610485720E+04  0.10100000352E+00 0.  1.
       -3    1    3    3    0  502 -0.14198820130E+03  0.19130064885E+03 -0.20339682703E+04  0.20478729263E+04  0.10100000352E+00 0. -1.
</event>
<event>
 5   0  0.3701250E-08  0.3786715E+04  0.7818609E-02  0.8049012E-01
       -3   -1    0    0    0  501  0.00000000000E+00  0.00000000000E+00  0.17677117379E+04  0.17677117408E+04  0.10100000352E+00 0.  1.
        3   -1    0    0  501    0  0.00000000000E+00  0.00000000000E+00 -0.20279336132E+04  0.20279336157E+04  0.10100000352E+00 0. -1.
    10030    2    1    2    0    0  0.00000000000E+00  0.00000000000E+00 -0.26022187527E+03  0.37956453566E+04  0.37867147039E+04 0.  0.
        3    1    3    3  502    0 -0.17153566943E+04  0.77874765953E+03  0.59823541177E+02  0.18848011492E+04  0.10100000352E+00 0.  1.
       -3    1    3    3    0  502  0.17153566943E+04 -0.77874765953E+03 -0.32004541645E+03  0.19108442073E+04  0.10100000352E+00 0. -1.
</event>
<event>
 5   0  0.3701250E-08  0.3799689E+04  0.7818609E-02  0.8046222E-01
       -1   -1    0    0    0  501  0.00000000000E+00  0.00000000000E+00  0.14681078363E+04  0.14681078363E+04  0.50400001928E-02 0.  1.
        1   -1    0    0  501    0  0.00000000000E+00  0.00000000000E+00 -0.24585448611E+04  0.24585448611E+04  0.50400001928E-02 0. -1.
    10030    2    1    2    0    0  0.00000000000E+00  0.00000000000E+00 -0.99043702487E+03  0.39266526974E+04  0.37996889223E+04 0.  0.
        3    1    3    3  502    0  0.69179931297E+03 -0.94974722193E+03 -0.20380208181E+04  0.23524742167E+04  0.10100000352E+00 0. -1.
       -3    1    3    3    0  502 -0.69179931297E+03  0.94974722193E+03  0.10475837933E+04  0.15741784807E+04  0.10100000352E+00 0.  1.
</event>
<event>
 5   0  0.7858367E-08  0.3784623E+04  0.7818609E-02  0.8049463E-01
       -2   -1    0    0    0  501  0.00000000000E+00  0.00000000000E+00  0.16320395177E+04  0.16320395177E+04  0.25500000920E-02 0. -1.
        2   -1    0    0  501    0  0.00000000000E+00  0.00000000000E+00 -0.21940908347E+04  0.21940908347E+04  0.25500000920E-02 0.  1.
    10030    2    1    2    0    0  0.00000000000E+00  0.00000000000E+00 -0.56205131691E+03  0.38261303524E+04  0.37846230712E+04 0.  0.
        2    1    3    3  502    0 -0.65356210559E+03 -0.12953153178E+04 -0.15091981882E+04  0.20934813994E+04  0.25500000920E-02 0.  1.
       -2    1    3    3    0  502  0.65356210559E+03  0.12953153178E+04  0.94714687133E+03  0.17326489530E+04  0.25500000920E-02 0. -1.
</event>
<event>
 5   0  0.1174870E-07  0.3794525E+04  0.7818609E-02  0.8047331E-01
        2   -1    0    0  501    0  0.00000000000E+00  0.00000000000E+00  0.21244819422E+04  0.21244819422E+04  0.25500000920E-02 0. -1.
       -2   -1    0    0    0  501  0.00000000000E+00  0.00000000000E+00 -0.16943445938E+04  0.16943445938E+04  0.25500000920E-02 0.  1.
    10030    2    1    2    0    0  0.00000000000E+00  0.00000000000E+00  0.43013734842E+03  0.38188265360E+04  0.37945247362E+04 0.  0.
        5    1    3    3  502    0  0.13994491492E+04  0.34811187689E+03 -0.10256866216E+04  0.17696595536E+04  0.46999998093E+01 0.  1.
       -5    1    3    3    0  502 -0.13994491492E+04 -0.34811187689E+03  0.14558239700E+04  0.20491669824E+04  0.46999998093E+01 0. -1.
</event>
<event>
 5   0  0.3701250E-08  0.3778848E+04  0.7818609E-02  0.8050709E-01
       -1   -1    0    0    0  501  0.00000000000E+00  0.00000000000E+00  0.13634181069E+04  0.13634181070E+04  0.50400001928E-02 0. -1.
        1   -1    0    0  501    0  0.00000000000E+00  0.00000000000E+00 -0.26183628331E+04  0.26183628332E+04  0.50400001928E-02 0.  1.
    10030    2    1    2    0    0  0.00000000000E+00  0.00000000000E+00 -0.12549447262E+04  0.39817809401E+04  0.37788481299E+04 0.  0.
        2    1    3    3  502    0 -0.72349770202E+03  0.10657414341E+04 -0.20839731328E+04  0.24499383150E+04  0.25500000920E-02 0.  1.
       -2    1    3    3    0  502  0.72349770202E+03 -0.10657414341E+04  0.82902840657E+03  0.15318426251E+04  0.25500000920E-02 0. -1.
</event>
<event>
 5   0  0.3701250E-08  0.3815205E+04  0.7818609E-02  0.8042900E-01
       -1   -1    0    0    0  501  0.00000000000E+00  0.00000000000E+00  0.16142064862E+04  0.16142064862E+04  0.50400001928E-02 0.  1.
        1   -1    0    0  501    0  0.00000000000E+00  0.00000000000E+00 -0.22543252991E+04  0.22543252992E+04  0.50400001928E-02 0. -1.
    10030    2    1    2    0    0  0.00000000000E+00  0.00000000000E+00 -0.64011881296E+03  0.38685317853E+04  0.38152045921E+04 0.  0.
        1    1    3    3  502    0  0.62615232871E+03  0.15267746717E+04 -0.12904305572E+04  0.20948314156E+04  0.50400001928E-02 0. -1.
       -1    1    3    3    0  502 -0.62615232871E+03 -0.15267746717E+04  0.65031174426E+03  0.17737003697E+04  0.50400001928E-02 0.  1.
</event>
<event>
 5   0  0.7858367E-08  0.3784536E+04  0.7818609E-02  0.8049482E-01
        2   -1    0    0  501    0  0.00000000000E+00  0.00000000000E+00  0.21001098591E+04  0.21001098591E+04  0.25500000920E-02 0. -1.
       -2   -1    0    0    0  501  0.00000000000E+00  0.00000000000E+00 -0.17049955532E+04  0.17049955532E+04  0.25500000920E-02 0.  1.
    10030    2    1    2    0    0  0.00000000000E+00  0.00000000000E+00  0.39511430596E+03  0.38051054123E+04  0.37845358875E+04 0.  0.
        2    1    3    3  502    0 -0.10860605729E+04 -0.13368424036E+04 -0.59028504262E+03  0.18207447958E+04  0.25500000920E-02 0. -1.
       -2    1    3    3    0  502  0.10860605729E+04  0.13368424036E+04  0.98539934859E+03  0.19843606165E+04  0.25500000920E-02 0.  1.
</event>
<event>
 5   0  0.1150235E-07  0.3809368E+04  0.7818609E-02  0.8044147E-01
        2   -1    0    0  501    0  0.00000000000E+00  0.00000000000E+00  0.33134358661E+04  0.33134358662E+04  0.25500000920E-02 0. -1.
       -2   -1    0    0    0  501  0.00000000000E+00  0.00000000000E+00 -0.10948821476E+04  0.10948821476E+04  0.25500000920E-02 0.  1.
    10030    2    1    2    0    0  0.00000000000E+00  0.00000000000E+00  0.22185537186E+04  0.44083180137E+04  0.38093683345E+04 0.  0.
        4    1    3    3  502    0  0.14624215460E+04  0.33134367613E+03  0.24683972788E+04  0.28881572237E+04  0.12699999809E+01 0. -1.
       -4    1    3    3    0  502 -0.14624215460E+04 -0.33134367613E+03 -0.24984356022E+03  0.15201607900E+04  0.12699999809E+01 0.  1.
</event>
<event>
 5   0  0.3701250E-08  0.3840832E+04  0.7818609E-02  0.8037449E-01
        1   -1    0    0  501    0  0.00000000000E+00  0.00000000000E+00  0.22276463457E+04  0.22276463457E+04  0.50400001928E-02 0.  1.
       -1   -1    0    0    0  501  0.00000000000E+00  0.00000000000E+00 -0.16555577460E+04  0.16555577460E+04  0.50400001928E-02 0. -1.
    10030    2    1    2    0    0  0.00000000000E+00  0.00000000000E+00  0.57208859974E+03  0.38832040917E+04  0.38408317656E+04 0.  0.
        1    1    3    3  502    0 -0.64162498616E+02  0.91386103468E+03 -0.14203964461E+04  0.16902026154E+04  0.50400001928E-02 0. -1.
       -1    1    3    3    0  502  0.64162498616E+02 -0.91386103468E+03  0.19924850459E+04  0.21930014763E+04  0.50400001928E-02 0.  1.
</event>
<event>
 5   0  0.1150235E-07  0.3803962E+04  0.7818609E-02  0.8045305E-01
       -2   -1    0    0    0  501  0.00000000000E+00  0.00000000000E+00  0.12534904808E+04  0.12534904808E+04  0.25500000920E-02 0.  1.
        2   -1    0    0  501    0  0.00000000000E+00  0.00000000000E+00 -0.28859669200E+04  0.28859669200E+04  0.25500000920E-02 0. -1.
    10030    2    1    2    0    0  0.00000000000E+00  0.00000000000E+00 -0.16324764393E+04  0.41394574008E+04  0.38039621775E+04 0.  0.
        4    1    3    3  502    0  0.45179483658E+03 -0.16198491994E+04  0.15066591488E+03  0.16884110382E+04  0.12699999809E+01 0.  1.
       -4    1    3    3    0  502 -0.45179483658E+03  0.16198491994E+04 -0.17831423541E+04  0.24510463625E+04  0.12699999809E+01 0. -1.
</event>
<event>
 5   0  0.3701250E-08  0.3799048E+04  0.7818609E-02  0.8046359E-01
       -1   -1    0    0    0  501  0.00000000000E+00  0.00000000000E+00  0.27022172519E+04  0.27022172519E+04  0.50400001928E-02 0. -1.
        1   -1    0    0  501    0  0.00000000000E+00  0.00000000000E+00 -0.13352706869E+04  0.13352706869E+04  0.50400001928E-02 0.  1.
    10030    2    1    2    0    0  0.00000000000E+00  0.00000000000E+00  0.13669465649E+04  0.40374879388E+04  0.37990480314E+04 0.  0.
        2    1    3    3  502    0 -0.10439953423E+04 -0.42753988707E+03  0.23076154858E+04  0.25686194463E+04  0.25500000920E-02 0. -1.
       -2    1    3    3    0  502  0.10439953423E+04  0.42753988707E+03 -0.94066892084E+03  0.14688684925E+04  0.25500000920E-02 0.  1.
</event>
<event>
 5   0  0.3701250E-08  0.3807583E+04  0.7818609E-02  0.8044530E-01
        1   -1    0    0  501    0  0.00000000000E+00  0.00000000000E+00  0.12518741101E+04  0.12518741102E+04  0.50400001928E-02 0. -1.
       -1   -1    0    0    0  501  0.00000000000E+00  0.00000000000E+00 -0.28951971206E+04  0.28951971206E+04  0.50400001928E-02 0.  1.
    10030    2    1    2    0    0  0.00000000000E+00  0.00000000000E+00 -0.16433230105E+04  0.41470712308E+04  0.38075831280E+04 0.  0.
        4    1    3    3  502    0 -0.11266560374E+04  0.92268156106E+03 -0.21572614742E+04  0.26027819291E+04  0.12699999809E+01 0.  1.
       -4    1    3    3    0  502  0.11266560374E+04 -0.92268156106E+03  0.51393846369E+03  0.15442893016E+04  0.12699999809E+01 0. -1.
</event>
<event>
 5   0  0.3701250E-08  0.3807400E+04  0.7818609E-02  0.8044569E-01
        1   -1    0    0  501    0  0.00000000000E+00  0.00000000000E+00  0.27290537331E+04  0.27290537332E+04  0.50400001928E-02 0. -1.
       -1   -1    0    0    0  501  0.00000000000E+00  0.00000000000E+00 -0.13279601237E+04  0.13279601238E+04  0.50400001928E-02 0.  1.
    10030    2    1    2    0    0  0.00000000000E+00  0.00000000000E+00  0.14010936094E+04  0.40570138569E+04  0.38074004429E+04 0.  0.
        1    1    3    3  502    0 -0.37475041831E+03  0.15216602023E+04 -0.45113922362E+03  0.16307710589E+04  0.50400001928E-02 0.  1.
       -1    1    3    3    0  502  0.37475041831E+03 -0.15216602023E+04  0.18522328330E+04  0.24262427980E+04  0.50400001928E-02 0. -1.
</event>
<event>
 5   0  0.3701250E-08  0.3790767E+04  0.7818609E-02  0.8048139E-01
       -1   -1    0    0    0  501  0.00000000000E+00  0.00000000000E+00  0.19143754954E+04  0.19143754954E+04  0.50400001928E-02 0. -1.
        1   -1    0    0  501    0  0.00000000000E+00  0.00000000000E+00 -0.18765801255E+04  0.18765801255E+04  0.50400001928E-02 0.  1.
    10030    2    1    2    0    0  0.00000000000E+00  0.00000000000E+00  0.37795369838E+02  0.37909556209E+04  0.37907672086E+04 0.  0.
        1    1    3    3  502    0 -0.25278505308E+03  0.10016017332E+04 -0.15703234248E+04  0.18796334679E+04  0.50400001928E-02 0.  1.
       -1    1    3    3    0  502  0.25278505308E+03 -0.10016017332E+04  0.16081187946E+04  0.19113221531E+04  0.50400001928E-02 0. -1.
</event>
<event>
 5   0  0.3701250E-08  0.3801178E+04  0.7818609E-02  0.8045902E-01
       -1   -1    0    0    0  501  0.00000000000E+00  0.00000000000E+00  0.18392548802E+04  0.18392548802E+04  0.50400001928E-02 0. -1.
        1   -1    0    0  501    0  0.00000000000E+00  0.00000000000E+00 -0.19639687168E+04  0.19639687168E+04  0.50400001928E-02 0.  1.
    10030    2    1    2    0    0  0.00000000000E+00  0.00000000000E+00 -0.12471383659E+03  0.38032235970E+04  0.38011782631E+04 0.  0.
        1    1    3    3  502    0 -0.29015248861E+03 -0.83314393148E+03 -0.17466883398E+04  0.19568437427E+04  0.50400001928E-02 0.  1.
       -1    1    3    3    0  502  0.29015248861E+03  0.83314393148E+03  0.16219745032E+04  0.18463798542E+04  0.50400001928E-02 0. -1.
</event>
<event>
 5   0  0.3701250E-08  0.3788152E+04  0.7818609E-02  0.8048702E-01
       -1   -1    0    0    0  501  0.00000000000E+00  0.00000000000E+00  0.19646997070E+04  0.19646997070E+04  0.50400001928E-02 0.  1.
        1   -1    0    0  501    0  0.00000000000E+00  0.00000000000E+00 -0.18259906043E+04  0.18259906043E+04  0.50400001928E-02 0. -1.
    10030    2    1    2    0    0  0.00000000000E+00  0.00000000000E+00  0.13870910272E+03  0.37906903113E+04  0.37881516365E+04 0.  0.
        2    1    3    3  502    0  0.18809630291E+04 -0.21950698291E+03  0.33026327671E+02  0.18940158317E+04  0.25500000920E-02 0.  1.
       -2    1    3    3    0  502 -0.18809630291E+04  0.21950698291E+03  0.10568277505E+03  0.18966744796E+04  0.25500000920E-02 0. -1.
</event>
<event>
 5   0  0.3701250E-08  0.3798814E+04  0.7818609E-02  0.8046409E-01
        1   -1    0    0  501    0  0.00000000000E+00  0.00000000000E+00  0.22569036947E+04  0.22569036947E+04  0.50400001928E-02 0.  1.
       -1   -1    0    0    0  501  0.00000000000E+00  0.00000000000E+00 -0.15985381974E+04  0.15985381974E+04  0.50400001928E-02 0. -1.
    10030    2    1    2    0    0  0.00000000000E+00  0.00000000000E+00  0.65836549734E+03  0.38554418921E+04  0.37988139012E+04 0.  0.
        4    1    3    3  502    0  0.23294147171E+03  0.18074587901E+04  0.87249082462E+03  0.20204976761E+04  0.12699999809E+01 0.  1.
       -4    1    3    3    0  502 -0.23294147171E+03 -0.18074587901E+04 -0.21412532728E+03  0.18349442160E+04  0.12699999809E+01 0. -1.
</event>
<event>
 5   0  0.7858367E-08  0.3792291E+04  0.7818609E-02  0.8047811E-01
        2   -1    0    0  501    0  0.00000000000E+00  0.00000000000E+00  0.14614256779E+04  0.14614256779E+04  0.25500000920E-02 0.  1.
       -2   -1    0    0    0  501  0.00000000000E+00  0.00000000000E+00 -0.24601787229E+04  0.24601787229E+04  0.25500000920E-02 0. -1.
    10030    2    1    2    0    0  0.00000000000E+00  0.00000000000E+00 -0.99875304501E+03  0.39216044007E+04  0.37922913167E+04 0.  0.
        2    1    3    3  502    0  0.13617288086E+04  0.12410016571E+04 -0.35784196846E+02  0.18427346444E+04  0.25500000920E-02 0. -1.
       -2    1    3    3    0  502 -0.13617288086E+04 -0.12410016571E+04 -0.96296884817E+03  0.20788697563E+04  0.25500000920E-02 0.  1.
</event>
<event>
 5   0  0.1174870E-07  0.3803844E+04  0.7818609E-02  0.8045330E-01
       -2   -1    0    0    0  501  0.00000000000E+00  0.00000000000E+00  0.19734690269E+04  0.19734690269E+04  0.25500000920E-02 0. -1.
        2   -1    0    0  501    0  0.00000000000E+00  0.00000000000E+00 -0.18329690082E+04  0.18329690082E+04  0.25500000920E-02 0.  1.
    10030    2    1    2    0    0  0.00000000000E+00  0.00000000000E+00  0.14050001866E+03  0.38064380351E+04  0.38038441424E+04 0.  0.
        5    1    3    3  502    0  0.13770403661E+04  0.12195151873E+04  0.55413741618E+03  0.19210798599E+04  0.46999998093E+01 0.  1.
       -5    1    3    3    0  502 -0.13770403661E+04 -0.12195151873E+04 -0.41363739752E+03  0.18853581752E+04  0.46999998093E+01 0. -1.
</event>
<event>
 5   0  0.3701250E-08  0.3794768E+04  0.7818609E-02  0.8047279E-01
       -1   -1    0    0    0  501  0.00000000000E+00  0.00000000000E+00  0.16322539322E+04  0.16322539322E+04  0.50400001928E-02 0.  1.
        1   -1    0    0  501    0  0.00000000000E+00  0.00000000000E+00 -0.22055797282E+04  0.22055797282E+04  0.50400001928E-02 0. -1.
    10030    2    1    2    0    0  0.00000000000E+00  0.00000000000E+00 -0.57332579604E+03  0.38378336604E+04  0.37947680742E+04 0.  0.
        3    1    3    3  502    0 -0.11517698634E+04  0.92528743230E+03 -0.14906927247E+04  0.20987842815E+04  0.10100000352E+00 0. -1.
       -3    1    3    3    0  502  0.11517698634E+04 -0.92528743230E+03  0.91736692864E+03  0.17390493790E+04  0.10100000352E+00 0.  1.
</event>
<event>
 5   0  0.1150235E-07  0.3830961E+04  0.7818609E-02  0.8039543E-01
        2   -1    0    0  501    0  0.00000000000E+00  0.00000000000E+00  0.13932277449E+04  0.13932277450E+04  0.25500000920E-02 0.  1.
       -2   -1    0    0    0  501  0.00000000000E+00  0.00000000000E+00 -0.26335007476E+04  0.26335007476E+04  0.25500000920E-02 0. -1.
    10030    2    1    2    0    0  0.00000000000E+00  0.00000000000E+00 -0.12402730026E+04  0.40267284925E+04  0.38309613978E+04 0.  0.
        4    1    3    3  502    0  0.17887394698E+04  0.33822119327E+03  0.62019012249E+01  0.18204456990E+04  0.12699999809E+01 0.  1.
       -4    1    3    3    0  502 -0.17887394698E+04 -0.33822119327E+03 -0.12464749039E+04  0.22062827936E+04  0.12699999809E+01 0. -1.
</event>
<event>
 5   0  0.1150235E-07  0.3775871E+04  0.7818609E-02  0.8051353E-01
        2   -1    0    0  501    0  0.00000000000E+00  0.00000000000E+00  0.27713778460E+04  0.27713778460E+04  0.25500000920E-02 0. -1.
       -2   -1    0    0    0  501  0.00000000000E+00  0.00000000000E+00 -0.12861110437E+04  0.12861110437E+04  0.25500000920E-02 0.  1.
    10030    2    1    2    0    0  0.00000000000E+00  0.00000000000E+00  0.14852668023E+04  0.40574888897E+04  0.37758705772E+04 0.  0.
        4    1    3    3  502    0 -0.17219026038E+04  0.19885513934E+03  0.15466389605E+04  0.23230552362E+04  0.12699999809E+01 0. -1.
       -4    1    3    3    0  502  0.17219026038E+04 -0.19885513934E+03 -0.61372158244E+02  0.17344336535E+04  0.12699999809E+01 0.  1.
</event>
<event>
 5   0  0.7858367E-08  0.3809498E+04  0.7818609E-02  0.8044120E-01
        2   -1    0    0  501    0  0.00000000000E+00  0.00000000000E+00  0.20820470994E+04  0.20820470994E+04  0.25500000920E-02 0.  1.
       -2   -1    0    0    0  501  0.00000000000E+00  0.00000000000E+00 -0.17425484136E+04  0.17425484136E+04  0.25500000920E-02 0. -1.
    10030    2    1    2    0    0  0.00000000000E+00  0.00000000000E+00  0.33949868579E+03  0.38245955131E+04  0.38094975366E+04 0.  0.
        2    1    3    3  502    0  0.87372811969E+03 -0.85953437969E+03  0.16335634564E+04  0.20422364562E+04  0.25500000920E-02 0.  1.
       -2    1    3    3    0  502 -0.87372811969E+03  0.85953437969E+03 -0.12940647706E+04  0.17823590569E+04  0.25500000920E-02 0. -1.
</event>
<event>
 5   0  0.1174870E-07  0.3806580E+04  0.7818609E-02  0.8044744E-01
       -2   -1    0    0    0  501  0.00000000000E+00  0.00000000000E+00  0.16193497111E+04  0.16193497111E+04  0.25500000920E-02 0. -1.
        2   -1    0    0  501    0  0.00000000000E+00  0.00000000000E+00 -0.22370173033E+04  0.22370173033E+04  0.25500000920E-02 0.  1.
    10030    2    1    2    0    0  0.00000000000E+00  0.00000000000E+00 -0.61766759221E+03  0.38563670144E+04  0.38065802626E+04 0.  0.
        5    1    3    3  502    0 -0.65010417913E+03 -0.76182067544E+03  0.13308168708E+04  0.16655635139E+04  0.46999998093E+01 0. -1.
       -5    1    3    3    0  502  0.65010417913E+03  0.76182067544E+03 -0.19484844630E+04  0.21908035005E+04  0.46999998093E+01 0.  1.
</event>
<event>
 5   0  0.3701250E-08  0.3790797E+04  0.7818609E-02  0.8048133E-01
       -1   -1    0    0    0  501  0.00000000000E+00  0.00000000000E+00  0.14857551085E+04  0.14857551085E+04  0.50400001928E-02 0. -1.
        1   -1    0    0  501    0  0.00000000000E+00  0.00000000000E+00 -0.24179869082E+04  0.24179869082E+04  0.50400001928E-02 0.  1.
    10030    2    1    2    0    0  0.00000000000E+00  0.00000000000E+00 -0.93223179968E+03  0.39037420167E+04  0.37907974893E+04 0.  0.
        2    1    3    3  502    0 -0.34913866543E+03 -0.73730576283E+02 -0.23830837432E+04  0.24096518696E+04  0.25500000920E-02 0.  1.
       -2    1    3    3    0  502  0.34913866543E+03  0.73730576283E+02  0.14508519435E+04  0.14940901471E+04  0.25500000920E-02 0. -1.
</event>
<event>
 5   0  0.1143283E-07  0.3766848E+04  0.7818609E-02  0.8053307E-01
       -2   -1    0    0    0  501  0.00000000000E+00  0.00000000000E+00  0.18703723849E+04  0.18703723849E+04  0.25500000920E-02 0. -1.
        2   -1    0    0  501    0  0.00000000000E+00  0.00000000000E+00 -0.18965667939E+04  0.18965667939E+04  0.25500000920E-02 0.  1.
    10030    2    1    2    0    0  0.00000000000E+00  0.00000000000E+00 -0.26194408986E+02  0.37669391787E+04  0.37668481028E+04 0.  0.
        1    1    3    3  502    0  0.10696632720E+04 -0.13040271928E+04  0.82514721033E+03  0.18776406349E+04  0.50400001928E-02 0. -1.
       -1    1    3    3    0  502 -0.10696632720E+04  0.13040271928E+04 -0.85134161932E+03  0.18892985439E+04  0.50400001928E-02 0.  1.
</event>
<event>
 5   0  0.3701250E-08  0.3827062E+04  0.7818609E-02  0.8040372E-01
       -1   -1    0    0    0  501  0.00000000000E+00  0.00000000000E+00  0.14197361959E+04  0.14197361959E+04  0.50400001928E-02 0. -1.
        1   -1    0    0  501    0  0.00000000000E+00  0.00000000000E+00 -0.25790710302E+04  0.25790710302E+04  0.50400001928E-02 0.  1.
    10030    2    1    2    0    0  0.00000000000E+00  0.00000000000E+00 -0.11593348344E+04  0.39988072261E+04  0.38270617937E+04 0.  0.
        4    1    3    3  502    0 -0.13153418644E+04  0.11490042799E+04 -0.13965870641E+04  0.22362450885E+04  0.12699999809E+01 0.  1.
       -4    1    3    3    0  502  0.13153418644E+04 -0.11490042799E+04  0.23725222972E+03  0.17625621376E+04  0.12699999809E+01 0. -1.
</event>
<event>
 5   0  0.1174870E-07  0.3790653E+04  0.7818609E-02  0.8048164E-01
       -2   -1    0    0    0  501  0.00000000000E+00  0.00000000000E+00  0.15666732744E+04  0.15666732744E+04  0.25500000920E-02 0.  1.
        2   -1    0    0  501    0  0.00000000000E+00  0.00000000000E+00 -0.22929236170E+04  0.22929236170E+04  0.25500000920E-02 0. -1.
    10030    2    1    2    0    0  0.00000000000E+00  0.00000000000E+00 -0.72625034258E+03  0.38595968914E+04  0.37906527939E+04 0.  0.
        5    1    3    3  502    0 -0.76835345526E+03 -0.25938886191E+02  0.14007807764E+04  0.15978888358E+04  0.46999998093E+01 0.  1.
       -5    1    3    3    0  502  0.76835345526E+03  0.25938886191E+02 -0.21270311189E+04  0.22617080556E+04  0.46999998093E+01 0. -1.
</event>
<event>
 5   0  0.3701250E-08  0.3793666E+04  0.7818609E-02  0.8047515E-01
       -1   -1    0    0    0  501  0.00000000000E+00  0.00000000000E+00  0.24477602027E+04  0.24477602027E+04  0.50400001928E-02 0.  1.
        1   -1    0    0  501    0  0.00000000000E+00  0.00000000000E+00 -0.14699054911E+04  0.14699054911E+04  0.50400001928E-02 0. -1.
    10030    2    1    2    0    0  0.00000000000E+00  0.00000000000E+00  0.97785471159E+03  0.39176656939E+04  0.37936663865E+04 0.  0.
        1    1    3    3  502    0 -0.17555730406E+04  0.18635493457E+03 -0.22744059154E+03  0.17800264282E+04  0.50400001928E-02 0. -1.
       -1    1    3    3    0  502  0.17555730406E+04 -0.18635493457E+03  0.12052953031E+04  0.21376392657E+04  0.50400001928E-02 0.  1.
</event>
<event>
 5   0  0.3889225E-08  0.3752181E+04  0.7818609E-02  0.8056495E-01
       -1   -1    0    0    0  501  0.00000000000E+00  0.00000000000E+00  0.16602587033E+04  0.16602587034E+04  0.50400001928E-02 0.  1.
        1   -1    0    0  501    0  0.00000000000E+00  0.00000000000E+00 -0.21199802015E+04  0.21199802015E+04  0.50400001928E-02 0. -1.
    10030    2    1    2    0    0  0.00000000000E+00  0.00000000000E+00 -0.45972149811E+03  0.37802389048E+04  0.37521810087E+04 0.  0.
        5    1    3    3  502    0 -0.16912455268E+04 -0.65048785730E+03  0.25982692716E+03  0.18305676733E+04  0.46999998093E+01 0.  1.
       -5    1    3    3    0  502  0.16912455268E+04  0.65048785730E+03 -0.71954842528E+03  0.19496712315E+04  0.46999998093E+01 0. -1.
</event>
<event>
 5   0  0.1174870E-07  0.3796179E+04  0.7818609E-02  0.8046975E-01
        2   -1    0    0  501    0  0.00000000000E+00  0.00000000000E+00  0.25214219225E+04  0.25214219225E+04  0.25500000920E-02 0. -1.
       -2   -1    0    0    0  501  0.00000000000E+00  0.00000000000E+00 -0.14288539434E+04  0.14288539434E+04  0.25500000920E-02 0.  1.
    10030    2    1    2    0    0  0.00000000000E+00  0.00000000000E+00  0.10925679791E+04  0.39502758659E+04  0.37961789510E+04 0.  0.
        5    1    3    3  502    0  0.14472560973E+04  0.14479383622E+03 -0.72272976072E+03  0.16241538915E+04  0.46999998093E+01 0.  1.
       -5    1    3    3    0  502 -0.14472560973E+04 -0.14479383622E+03  0.18152977398E+04  0.23261219745E+04  0.46999998093E+01 0. -1.
</event>
<event>
 5   0  0.1150235E-07  0.3800651E+04  0.7818609E-02  0.8046015E-01
        2   -1    0    0  501    0  0.00000000000E+00  0.00000000000E+00  0.28921902003E+04  0.28921902003E+04  0.25500000920E-02 0.  1.
       -2   -1    0    0    0  501  0.00000000000E+00  0.00000000000E+00 -0.12486165380E+04  0.12486165380E+04  0.25500000920E-02 0. -1.
    10030    2    1    2    0    0  0.00000000000E+00  0.00000000000E+00  0.16435736623E+04  0.41408067383E+04  0.38006507417E+04 0.  0.
        4    1    3    3  502    0  0.14853168023E+04 -0.10765696653E+04  0.13622341688E+04  0.22849183335E+04  0.12699999809E+01 0.  1.
       -4    1    3    3    0  502 -0.14853168023E+04  0.10765696653E+04  0.28133949353E+03  0.18558884048E+04  0.12699999809E+01 0. -1.
</event>
<event>
 5   0  0.1193861E-07  0.3888974E+04  0.7818609E-02  0.8027326E-01
        2   -1    0    0  501    0  0.00000000000E+00  0.00000000000E+00  0.17542873867E+04  0.17542873867E+04  0.25500000920E-02 0. -1.
       -2   -1    0    0    0  501  0.00000000000E+00  0.00000000000E+00 -0.21553079923E+04  0.21553079923E+04  0.25500000920E-02 0.  1.
    10030    2    1    2    0    0  0.00000000000E+00  0.00000000000E+00 -0.40102060560E+03  0.39095953790E+04  0.38889739652E+04 0.  0.
        3    1    3    3  502    0  0.14383222230E+04 -0.56397925920E+03 -0.13875279231E+04  0.20765541576E+04  0.10100000352E+00 0.  1.
       -3    1    3    3    0  502 -0.14383222230E+04  0.56397925920E+03  0.98650731747E+03  0.18330412214E+04  0.10100000352E+00 0. -1.
</event>
<event>
 5   0  0.3701250E-08  0.3792727E+04  0.7818609E-02  0.8047717E-01
       -1   -1    0    0    0  501  0.00000000000E+00  0.00000000000E+00  0.22786897541E+04  0.22786897541E+04  0.50400001928E-02 0.  1.
        1   -1    0    0  501    0  0.00000000000E+00  0.00000000000E+00 -0.15781852807E+04  0.15781852807E+04  0.50400001928E-02 0. -1.
    10030    2    1    2    0    0  0.00000000000E+00  0.00000000000E+00  0.70050447342E+03  0.38568750348E+04  0.37927270554E+04 0.  0.
        1    1    3    3  502    0 -0.79883507734E+03  0.13970631170E+04  0.13703496070E+04  0.21137125820E+04  0.50400001928E-02 0.  1.
       -1    1    3    3    0  502  0.79883507734E+03 -0.13970631170E+04 -0.66984513359E+03  0.17431624528E+04  0.50400001928E-02 0. -1.
</event>
<event>
 5   0  0.3701250E-08  0.3786937E+04  0.7818609E-02  0.8048964E-01
        1   -1    0    0  501    0  0.00000000000E+00  0.00000000000E+00  0.17298807943E+04  0.17298807943E+04  0.50400001928E-02 0. -1.
       -1   -1    0    0    0  501  0.00000000000E+00  0.00000000000E+00 -0.20725258145E+04  0.20725258145E+04  0.50400001928E-02 0.  1.
    10030    2    1    2    0    0  0.00000000000E+00  0.00000000000E+00 -0.34264502013E+03  0.38024066088E+04  0.37869368108E+04 0.  0.
        2    1    3    3  502    0  0.97191824487E+03  0.12942391483E+04 -0.11579568050E+04  0.19901115572E+04  0.25500000920E-02 0.  1.
       -2    1    3    3    0  502 -0.97191824487E+03 -0.12942391483E+04  0.81531178484E+03  0.18122950517E+04  0.25500000920E-02 0. -1.
</event>
<event>
 5   0  0.3701250E-08  0.3694504E+04  0.7818609E-02  0.8069181E-01
        3   -1    0    0  501    0  0.00000000000E+00  0.00000000000E+00  0.25537698002E+04  0.25537698022E+04  0.10100000352E+00 0. -1.
       -3   -1    0    0    0  501  0.00000000000E+00  0.00000000000E+00 -0.13361973067E+04  0.13361973105E+04  0.10100000352E+00 0.  1.
    10030    2    1    2    0    0  0.00000000000E+00  0.00000000000E+00  0.12175724935E+04  0.38899671127E+04  0.36945042105E+04 0.  0.
        2    1    3    3  502    0  0.81237143754E+02 -0.18317057281E+04  0.84561996348E+03  0.20191132882E+04  0.25500000920E-02 0. -1.
       -2    1    3    3    0  502 -0.81237143754E+02  0.18317057281E+04  0.37195253004E+03  0.18708538245E+04  0.25500000920E-02 0.  1.
</event>
<event>
 5   0  0.3701250E-08  0.3766902E+04  0.7818609E-02  0.8053295E-01
       -1   -1    0    0    0  501  0.00000000000E+00  0.00000000000E+00  0.24697645427E+04  0.24697645427E+04  0.50400001928E-02 0.  1.
        1   -1    0    0  501    0  0.00000000000E+00  0.00000000000E+00 -0.14363259059E+04  0.14363259059E+04  0.50400001928E-02 0. -1.
    10030    2    1    2    0    0  0.00000000000E+00  0.00000000000E+00  0.10334386368E+04  0.39060904487E+04  0.37669015353E+04 0.  0.
        4    1    3    3  502    0 -0.20164160363E+03  0.75401682982E+03  0.22941699884E+04  0.24233072988E+04  0.12699999809E+01 0.  1.
       -4    1    3    3    0  502  0.20164160363E+03 -0.75401682982E+03 -0.12607313515E+04  0.14827831499E+04  0.12699999809E+01 0. -1.
</event>
<event>
 5   0  0.3701250E-08  0.3795192E+04  0.7818609E-02  0.8047188E-01
       -1   -1    0    0    0  501  0.00000000000E+00  0.00000000000E+00  0.26064110160E+04  0.26064110160E+04  0.50400001928E-02 0. -1.
        1   -1    0    0  501    0  0.00000000000E+00  0.00000000000E+00 -0.13815434205E+04  0.13815434205E+04  0.50400001928E-02 0.  1.
    10030    2    1    2    0    0  0.00000000000E+00  0.00000000000E+00  0.12248675955E+04  0.39879544365E+04  0.37951916896E+04 0.  0.
        2    1    3    3  502    0 -0.13865856141E+04  0.73932640726E+03  0.17302539091E+04  0.23373065250E+04  0.25500000920E-02 0. -1.
       -2    1    3    3    0  502  0.13865856141E+04 -0.73932640726E+03 -0.50538631358E+03  0.16506479115E+04  0.25500000920E-02 0.  1.
</event>
<event>
 5   0  0.3701250E-08  0.3824738E+04  0.7818609E-02  0.8040867E-01
        1   -1    0    0  501    0  0.00000000000E+00  0.00000000000E+00  0.13812372024E+04  0.13812372024E+04  0.50400001928E-02 0.  1.
       -1   -1    0    0    0  501  0.00000000000E+00  0.00000000000E+00 -0.26477391974E+04  0.26477391974E+04  0.50400001928E-02 0. -1.
    10030    2    1    2    0    0  0.00000000000E+00  0.00000000000E+00 -0.12665019950E+04  0.40289763998E+04  0.38247383606E+04 0.  0.
        3    1    3    3  502    0  0.10116868599E+04 -0.14905185642E+04 -0.13093987189E+04  0.22270341056E+04  0.10100000352E+00 0.  1.
       -3    1    3    3    0  502 -0.10116868599E+04  0.14905185642E+04  0.42896723809E+02  0.18019422942E+04  0.10100000352E+00 0. -1.
</event>
<event>
 5   0  0.1150235E-07  0.3797498E+04  0.7818609E-02  0.8046692E-01
        2   -1    0    0  501    0  0.00000000000E+00  0.00000000000E+00  0.27341371527E+04  0.27341371527E+04  0.25500000920E-02 0. -1.
       -2   -1    0    0    0  501  0.00000000000E+00  0.00000000000E+00 -0.13186053038E+04  0.13186053038E+04  0.25500000920E-02 0.  1.
    10030    2    1    2    0    0  0.00000000000E+00  0.00000000000E+00  0.14155318489E+04  0.40527424565E+04  0.37974979925E+04 0.  0.
        4    1    3    3  502    0  0.18214482040E+03  0.18155859409E+04  0.14738505724E+03  0.18306427867E+04  0.12699999809E+01 0.  1.
       -4    1    3    3    0  502 -0.18214482040E+03 -0.18155859409E+04  0.12681467917E+04  0.22220996698E+04  0.12699999809E+01 0. -1.
</event>
<event>
 5   0  0.3889225E-08  0.3779059E+04  0.7818609E-02  0.8050664E-01
       -1   -1    0    0    0  501  0.00000000000E+00  0.00000000000E+00  0.15014711335E+04  0.15014711335E+04  0.50400001928E-02 0. -1.
        1   -1    0    0  501    0  0.00000000000E+00  0.00000000000E+00 -0.23778821410E+04  0.23778821410E+04  0.50400001928E-02 0.  1.
    10030    2    1    2    0    0  0.00000000000E+00  0.00000000000E+00 -0.87641100748E+03  0.38793532745E+04  0.37790588212E+04 0.  0.
        5    1    3    3  502    0 -0.15668408659E+04 -0.10554501568E+04 -0.47569838977E+03  0.19481469094E+04  0.46999998093E+01 0.  1.
       -5    1    3    3    0  502  0.15668408659E+04  0.10554501568E+04 -0.40071261771E+03  0.19312063651E+04  0.46999998093E+01 0. -1.
</event>
<event>
 5   0  0.7858367E-08  0.3776575E+04  0.7818609E-02  0.8051201E-01
       -2   -1    0    0    0  501  0.00000000000E+00  0.00000000000E+00  0.22483970743E+04  0.22483970743E+04  0.25500000920E-02 0. -1.
        2   -1    0    0  501    0  0.00000000000E+00  0.00000000000E+00 -0.15858540921E+04  0.15858540921E+04  0.25500000920E-02 0.  1.
    10030    2    1    2    0    0  0.00000000000E+00  0.00000000000E+00  0.66254298216E+03  0.38342511664E+04  0.37765750097E+04 0.  0.
        2    1    3    3  502    0 -0.99338334301E+03 -0.11133484741E+04 -0.84367267359E+03  0.17141000179E+04  0.25500000920E-02 0.  1.
       -2    1    3    3    0  502  0.99338334301E+03  0.11133484741E+04  0.15062156558E+04  0.21201511485E+04  0.25500000920E-02 0. -1.
</event>
<event>
 5   0  0.3701250E-08  0.3801658E+04  0.7818609E-02  0.8045799E-01
       -1   -1    0    0    0  501  0.00000000000E+00  0.00000000000E+00  0.14437011502E+04  0.14437011502E+04  0.50400001928E-02 0. -1.
        1   -1    0    0  501    0  0.00000000000E+00  0.00000000000E+00 -0.25026996390E+04  0.25026996390E+04  0.50400001928E-02 0.  1.
    10030    2    1    2    0    0  0.00000000000E+00  0.00000000000E+00 -0.10589984888E+04  0.39464007892E+04  0.38016577160E+04 0.  0.
        2    1    3    3  502    0  0.11194277644E+04  0.11097851341E+04  0.57321099166E+03  0.16772931779E+04  0.25500000920E-02 0. -1.
       -2    1    3    3    0  502 -0.11194277644E+04 -0.11097851341E+04 -0.16322094805E+04  0.22691076113E+04  0.25500000920E-02 0.  1.
</event>
<event>
 5   0  0.1193861E-07  0.3805921E+04  0.7818609E-02  0.8044885E-01
       -2   -1    0    0    0  501  0.00000000000E+00  0.00000000000E+00  0.16870151312E+04  0.16870151312E+04  0.25500000920E-02 0. -1.
        2   -1    0    0  501    0  0.00000000000E+00  0.00000000000E+00 -0.21465482944E+04  0.21465482944E+04  0.25500000920E-02 0.  1.
    10030    2    1    2    0    0  0.00000000000E+00  0.00000000000E+00 -0.45953316324E+03  0.38335634256E+04  0.38059214141E+04 0.  0.
        3    1    3    3  502    0  0.85888359505E+03 -0.11544977509E+04  0.10245541490E+04  0.17664250057E+04  0.10100000352E+00 0. -1.
       -3    1    3    3    0  502 -0.85888359505E+03  0.11544977509E+04 -0.14840873122E+04  0.20671384199E+04  0.10100000352E+00 0.  1.
</event>
<event>
 5   0  0.3701250E-08  0.3796787E+04  0.7818609E-02  0.8046845E-01
        1   -1    0    0  501    0  0.00000000000E+00  0.00000000000E+00  0.15322481165E+04  0.15322481165E+04  0.50400001928E-02 0. -1.
       -1   -1    0    0    0  501  0.00000000000E+00  0.00000000000E+00 -0.23520332054E+04  0.23520332054E+04  0.50400001928E-02 0.  1.
    10030    2    1    2    0    0  0.00000000000E+00  0.00000000000E+00 -0.81978508891E+03  0.38842813219E+04  0.37967872992E+04 0.  0.
        4    1    3    3  502    0 -0.56813854966E+03  0.15370592180E+04  0.57061109426E+03  0.17352034708E+04  0.12699999809E+01 0. -1.
       -4    1    3    3    0  502  0.56813854966E+03 -0.15370592180E+04 -0.13903961832E+04  0.21490778511E+04  0.12699999809E+01 0.  1.
</event>
<event>
 5   0  0.1143283E-07  0.3802343E+04  0.7818609E-02  0.8045652E-01
        2   -1    0    0  501    0  0.00000000000E+00  0.00000000000E+00  0.18346289431E+04  0.18346289431E+04  0.25500000920E-02 0.  1.
       -2   -1    0    0    0  501  0.00000000000E+00  0.00000000000E+00 -0.19701271351E+04  0.19701271351E+04  0.25500000920E-02 0. -1.
    10030    2    1    2    0    0  0.00000000000E+00  0.00000000000E+00 -0.13549819207E+03  0.38047560782E+04  0.38023425746E+04 0.  0.
        1    1    3    3  502    0 -0.83662639139E+03  0.63254133083E+03  0.15189433787E+04  0.18458714044E+04  0.50400001928E-02 0.  1.
       -1    1    3    3    0  502  0.83662639139E+03 -0.63254133083E+03 -0.16544415708E+04  0.19588846738E+04  0.50400001928E-02 0. -1.
</event>
<event>
 5   0  0.3701250E-08  0.3835216E+04  0.7818609E-02  0.8038640E-01
        1   -1    0    0  501    0  0.00000000000E+00  0.00000000000E+00  0.17519589015E+04  0.17519589015E+04  0.50400001928E-02 0. -1.
       -1   -1    0    0    0  501  0.00000000000E+00  0.00000000000E+00 -0.20989193720E+04  0.20989193721E+04  0.50400001928E-02 0.  1.
    10030    2    1    2    0    0  0.00000000000E+00  0.00000000000E+00 -0.34696047056E+03  0.38508782735E+04  0.38352160186E+04 0.  0.
        3    1    3    3  502    0  0.76002989661E+03  0.16528683775E+04 -0.78225745207E+03  0.19802893851E+04  0.10100000352E+00 0.  1.
       -3    1    3    3    0  502 -0.76002989661E+03 -0.16528683775E+04  0.43529698151E+03  0.18705888884E+04  0.10100000352E+00 0. -1.
</event>
<event>
 5   0  0.3889225E-08  0.3795694E+04  0.7818609E-02  0.8047080E-01
       -1   -1    0    0    0  501  0.00000000000E+00  0.00000000000E+00  0.18010374063E+04  0.18010374063E+04  0.50400001928E-02 0.  1.
        1   -1    0    0  501    0  0.00000000000E+00  0.00000000000E+00 -0.19998601210E+04  0.19998601211E+04  0.50400001928E-02 0. -1.
    10030    2    1    2    0    0  0.00000000000E+00  0.00000000000E+00 -0.19882271476E+03  0.38008975274E+04  0.37956938156E+04 0.  0.
        5    1    3    3  502    0 -0.45264896059E+02  0.16158218383E+04 -0.10951949283E+04  0.19525376168E+04  0.46999998093E+01 0. -1.
       -5    1    3    3    0  502  0.45264896059E+02 -0.16158218383E+04  0.89637221357E+03  0.18483599106E+04  0.46999998093E+01 0.  1.
</event>
<event>
 5   0  0.3701250E-08  0.3791831E+04  0.7818609E-02  0.8047910E-01
        1   -1    0    0  501    0  0.00000000000E+00  0.00000000000E+00  0.32136798410E+04  0.32136798410E+04  0.50400001928E-02 0.  1.
       -1   -1    0    0    0  501  0.00000000000E+00  0.00000000000E+00 -0.11184986292E+04  0.11184986292E+04  0.50400001928E-02 0. -1.
    10030    2    1    2    0    0  0.00000000000E+00  0.00000000000E+00  0.20951812118E+04  0.43321784703E+04  0.37918314820E+04 0.  0.
        1    1    3    3  502    0  0.16024366717E+04 -0.55747089384E+03  0.80895809077E+02  0.16985644575E+04  0.50400001928E-02 0. -1.
       -1    1    3    3    0  502 -0.16024366717E+04  0.55747089384E+03  0.20142854027E+04  0.26336140127E+04  0.50400001928E-02 0.  1.
</event>
<event>
 5   0  0.1193861E-07  0.3804410E+04  0.7818609E-02  0.8045209E-01
       -2   -1    0    0    0  501  0.00000000000E+00  0.00000000000E+00  0.22670863943E+04  0.22670863943E+04  0.25500000920E-02 0.  1.
        2   -1    0    0  501    0  0.00000000000E+00  0.00000000000E+00 -0.15960499311E+04  0.15960499311E+04  0.25500000920E-02 0. -1.
    10030    2    1    2    0    0  0.00000000000E+00  0.00000000000E+00  0.67103646319E+03  0.38631363254E+04  0.38044095907E+04 0.  0.
        3    1    3    3  502    0  0.38070950601E+03 -0.12623715268E+04 -0.10567268425E+04  0.16897317035E+04  0.10100000352E+00 0. -1.
       -3    1    3    3    0  502 -0.38070950601E+03  0.12623715268E+04  0.17277633057E+04  0.21734046219E+04  0.10100000352E+00 0.  1.
</event>
<event>
 5   0  0.1143283E-07  0.3788668E+04  0.7818609E-02  0.8048591E-01
        2   -1    0    0  501    0  0.00000000000E+00  0.00000000000E+00  0.21678858520E+04  0.21678858520E+04  0.25500000920E-02 0.  1.
       -2   -1    0    0    0  501  0.00000000000E+00  0.00000000000E+00 -0.16553002667E+04  0.16553002667E+04  0.25500000920E-02 0. -1.
    10030    2    1    2    0    0  0.00000000000E+00  0.00000000000E+00  0.51258558531E+03  0.38231861186E+04  0.37886683829E+04 0.  0.
        1    1    3    3  502    0  0.86480121006E+03  0.14350283099E+04 -0.63568045597E+03  0.17920036343E+04  0.50400001928E-02 0. -1.
       -1    1    3    3    0  502 -0.86480121006E+03 -0.14350283099E+04  0.11482660413E+04  0.20311824844E+04  0.50400001928E-02 0.  1.
</event>
<event>
 5   0  0.1150235E-07  0.3790546E+04  0.7818609E-02  0.8048187E-01
        2   -1    0    0  501    0  0.00000000000E+00  0.00000000000E+00  0.13665625263E+04  0.13665625263E+04  0.25500000920E-02 0. -1.
       -2   -1    0    0    0  501  0.00000000000E+00  0.00000000000E+00 -0.26285363962E+04  0.26285363962E+04  0.25500000920E-02 0.  1.
    10030    2    1    2    0    0  0.00000000000E+00  0.00000000000E+00 -0.12619738698E+04  0.39950989225E+04  0.37905457856E+04 0.  0.
        4    1    3    3  502    0 -0.15884207946E+04 -0.27422236494E+03 -0.16816676032E+04  0.23294390026E+04  0.12699999809E+01 0.  1.
       -4    1    3    3    0  502  0.15884207946E+04  0.27422236494E+03  0.41969373339E+03  0.16656599199E+04  0.12699999809E+01 0. -1.
</event>
<event>
 5   0  0.1174870E-07  0.3768241E+04  0.7818609E-02  0.8053005E-01
       -2   -1    0    0    0  501  0.00000000000E+00  0.00000000000E+00  0.17700974015E+04  0.17700974015E+04  0.25500000920E-02 0.  1.
        2   -1    0    0  501    0  0.00000000000E+00  0.00000000000E+00 -0.20054888984E+04  0.20054888984E+04  0.25500000920E-02 0. -1.
    10030    2    1    2    0    0  0.00000000000E+00  0.00000000000E+00 -0.23539149689E+03  0.37755862999E+04  0.37682413340E+04 0.  0.
        5    1    3    3  502    0 -0.13170608694E+04 -0.13819230531E+02  0.12321675358E+04  0.18036350050E+04  0.46999998093E+01 0.  1.
       -5    1    3    3    0  502  0.13170608694E+04  0.13819230531E+02 -0.14675590327E+04  0.19719512949E+04  0.46999998093E+01 0. -1.
</event>
<event>
 5   0  0.1174870E-07  0.3801871E+04  0.7818609E-02  0.8045754E-01
        2   -1    0    0  501    0  0.00000000000E+00  0.00000000000E+00  0.26154674746E+04  0.26154674746E+04  0.25500000920E-02 0.  1.
       -2   -1    0    0    0  501  0.00000000000E+00  0.00000000000E+00 -0.13816097375E+04  0.13816097375E+04  0.25500000920E-02 0. -1.
    10030    2    1    2    0    0  0.00000000000E+00  0.00000000000E+00  0.12338577371E+04  0.39970772120E+04  0.38018707663E+04 0.  0.
        5    1    3    3  502    0  0.63231036580E+03 -0.83801815854E+03 -0.10491931323E+04  0.14842234170E+04  0.46999998093E+01 0. -1.
       -5    1    3    3    0  502 -0.63231036580E+03  0.83801815854E+03  0.22830508694E+04  0.25128537950E+04  0.46999998093E+01 0.  1.
</event>
<event>
 5   0  0.7858367E-08  0.3784573E+04  0.7818609E-02  0.8049474E-01
        2   -1    0    0  501    0  0.00000000000E+00  0.00000000000E+00  0.13816534786E+04  0.13816534786E+04  0.25500000920E-02 0. -1.
       -2   -1    0    0    0  501  0.00000000000E+00  0.00000000000E+00 -0.25916392641E+04  0.25916392641E+04  0.25500000920E-02 0.  1.
    10030    2    1    2    0    0  0.00000000000E+00  0.00000000000E+00 -0.12099857855E+04  0.39732927428E+04  0.37845725807E+04 0.  0.
        2    1    3    3  502    0 -0.67341672305E+03  0.17631313107E+04 -0.46171295071E+03  0.19430133686E+04  0.25500000920E-02 0. -1.
       -2    1    3    3    0  502  0.67341672305E+03 -0.17631313107E+04 -0.74827283477E+03  0.20302793741E+04  0.25500000920E-02 0.  1.
</event>
<event>
 5   0  0.3889225E-08  0.3680540E+04  0.7818609E-02  0.8072288E-01
       -1   -1    0    0    0  501  0.00000000000E+00  0.00000000000E+00  0.20823325832E+04  0.20823325832E+04  0.50400001928E-02 0.  1.
        1   -1    0    0  501    0  0.00000000000E+00  0.00000000000E+00 -0.16263463880E+04  0.16263463880E+04  0.50400001928E-02 0. -1.
    10030    2    1    2    0    0  0.00000000000E+00  0.00000000000E+00  0.45598619521E+03  0.37086789712E+04  0.36805402187E+04 0.  0.
        5    1    3    3  502    0 -0.77352465982E+02  0.13718846061E+04 -0.10055068091E+04  0.17026793032E+04  0.46999998093E+01 0. -1.
       -5    1    3    3    0  502  0.77352465982E+02 -0.13718846061E+04  0.14614930043E+04  0.20059996680E+04  0.46999998093E+01 0.  1.
</event>
<event>
 5   0  0.3701250E-08  0.3820830E+04  0.7818609E-02  0.8041700E-01
        1   -1    0    0  501    0  0.00000000000E+00  0.00000000000E+00  0.13646724273E+04  0.13646724273E+04  0.50400001928E-02 0.  1.
       -1   -1    0    0    0  501  0.00000000000E+00  0.00000000000E+00 -0.26744043443E+04  0.26744043443E+04  0.50400001928E-02 0. -1.
    10030    2    1    2    0    0  0.00000000000E+00  0.00000000000E+00 -0.13097319170E+04  0.40390767716E+04  0.38208302073E+04 0.  0.
        4    1    3    3  502    0  0.17484705124E+04  0.41251435023E+02 -0.14674286982E+04  0.22830241809E+04  0.12699999809E+01 0. -1.
       -4    1    3    3    0  502 -0.17484705124E+04 -0.41251435023E+02  0.15769678122E+03  0.17560525907E+04  0.12699999809E+01 0.  1.
</event>
<event>
 5   0  0.3701250E-08  0.3788996E+04  0.7818609E-02  0.8048520E-01
        1   -1    0    0  501    0  0.00000000000E+00  0.00000000000E+00  0.21240799817E+04  0.21240799817E+04  0.50400001928E-02 0. -1.
       -1   -1    0    0    0  501  0.00000000000E+00  0.00000000000E+00 -0.16897303354E+04  0.16897303354E+04  0.50400001928E-02 0.  1.
    10030    2    1    2    0    0  0.00000000000E+00  0.00000000000E+00  0.43434964632E+03  0.38138103171E+04  0.37889958458E+04 0.  0.
        3    1    3    3  502    0 -0.41357114876E+03 -0.96555269662E+03 -0.13697893201E+04  0.17261679805E+04  0.10100000352E+00 0.  1.
       -3    1    3    3    0  502  0.41357114876E+03  0.96555269662E+03  0.18041389665E+04  0.20876423366E+04  0.10100000352E+00 0. -1.
</event>
<event>
 5   0  0.3701250E-08  0.3803931E+04  0.7818609E-02  0.8045312E-01
       -1   -1    0    0    0  501  0.00000000000E+00  0.00000000000E+00  0.30257518991E+04  0.30257518991E+04  0.50400001928E-02 0. -1.
        1   -1    0    0  501    0  0.00000000000E+00  0.00000000000E+00 -0.11955618931E+04  0.11955618931E+04  0.50400001928E-02 0.  1.
    10030    2    1    2    0    0  0.00000000000E+00  0.00000000000E+00  0.18301900060E+04  0.42213137922E+04  0.38039314760E+04 0.  0.
        3    1    3    3  502    0  0.13005966485E+04 -0.95348736711E+03 -0.20390290097E+03  0.16255049075E+04  0.10100000352E+00 0.  1.
       -3    1    3    3    0  502 -0.13005966485E+04  0.95348736711E+03  0.20340929070E+04  0.25958088847E+04  0.10100000352E+00 0. -1.
</event>
<event>
 5   0  0.7858367E-08  0.3732984E+04  0.7818609E-02  0.8060691E-01
       -2   -1    0    0    0  501  0.00000000000E+00  0.00000000000E+00  0.12900333031E+04  0.12900333031E+04  0.25500000920E-02 0. -1.
        2   -1    0    0  501    0  0.00000000000E+00  0.00000000000E+00 -0.27005439276E+04  0.27005439276E+04  0.25500000920E-02 0.  1.
    10030    2    1    2    0    0  0.00000000000E+00  0.00000000000E+00 -0.14105106245E+04  0.39905772307E+04  0.37329835805E+04 0.  0.
        2    1    3    3  502    0 -0.15121818027E+04 -0.10809649872E+04 -0.88607990955E+03  0.20592029317E+04  0.25500000920E-02 0.  1.
       -2    1    3    3    0  502  0.15121818027E+04  0.10809649872E+04 -0.52443071496E+03  0.19313742990E+04  0.25500000920E-02 0. -1.
</event>
<event>
 5   0  0.7858367E-08  0.3748498E+04  0.7818609E-02  0.8057298E-01
       -2   -1    0    0    0  501  0.00000000000E+00  0.00000000000E+00  0.19795827641E+04  0.19795827641E+04  0.25500000920E-02 0.  1.
        2   -1    0    0  501    0  0.00000000000E+00  0.00000000000E+00 -0.17745199230E+04  0.17745199230E+04  0.25500000920E-02 0. -1.
    10030    2    1    2    0    0  0.00000000000E+00  0.00000000000E+00  0.20506284110E+03  0.37541026870E+04  0.37484978613E+04 0.  0.
        2    1    3    3  502    0  0.11059779003E+04  0.58039356529E+03  0.15020346314E+04  0.19534973357E+04  0.25500000920E-02 0.  1.
       -2    1    3    3    0  502 -0.11059779003E+04 -0.58039356529E+03 -0.12969717903E+04  0.18006053514E+04  0.25500000920E-02 0. -1.
</event>
<event>
 5   0  0.3701250E-08  0.3795776E+04  0.7818609E-02  0.8047062E-01
       -1   -1    0    0    0  501  0.00000000000E+00  0.00000000000E+00  0.21147375064E+04  0.21147375064E+04  0.50400001928E-02 0.  1.
        1   -1    0    0  501    0  0.00000000000E+00  0.00000000000E+00 -0.17032745370E+04  0.17032745370E+04  0.50400001928E-02 0. -1.
    10030    2    1    2    0    0  0.00000000000E+00  0.00000000000E+00  0.41146296941E+03  0.38180120434E+04  0.37957758348E+04 0.  0.
        4    1    3    3  502    0  0.10094453380E+04  0.12986710916E+04  0.11580887070E+04  0.20116405148E+04  0.12699999809E+01 0.  1.
       -4    1    3    3    0  502 -0.10094453380E+04 -0.12986710916E+04 -0.74662573764E+03  0.18063715286E+04  0.12699999809E+01 0. -1.
</event>
<event>
 5   0  0.3701250E-08  0.3793131E+04  0.7818609E-02  0.8047631E-01
        1   -1    0    0  501    0  0.00000000000E+00  0.00000000000E+00  0.23547865451E+04  0.23547865451E+04  0.50400001928E-02 0. -1.
       -1   -1    0    0    0  501  0.00000000000E+00  0.00000000000E+00 -0.15275099748E+04  0.15275099749E+04  0.50400001928E-02 0.  1.
    10030    2    1    2    0    0  0.00000000000E+00  0.00000000000E+00  0.82727657022E+03  0.38822965199E+04  0.37931305995E+04 0.  0.
        1    1    3    3  502    0  0.13039290048E+04  0.24605952709E+03  0.18005505280E+04  0.22366846770E+04  0.50400001928E-02 0. -1.
       -1    1    3    3    0  502 -0.13039290048E+04 -0.24605952709E+03 -0.97327395780E+03  0.16456118429E+04  0.50400001928E-02 0.  1.
</event>
<event>
 5   0  0.3701250E-08  0.3795845E+04  0.7818609E-02  0.8047047E-01
        1   -1    0    0  501    0  0.00000000000E+00  0.00000000000E+00  0.26247978133E+04  0.26247978133E+04  0.50400001928E-02 0.  1.
       -1   -1    0    0    0  501  0.00000000000E+00  0.00000000000E+00 -0.13723379135E+04  0.13723379135E+04  0.50400001928E-02 0. -1.
    10030    2    1    2    0    0  0.00000000000E+00  0.00000000000E+00  0.12524598998E+04  0.39971357269E+04  0.37958448623E+04 0.  0.
        4    1    3    3  502    0 -0.12409101502E+02  0.58092879038E+03  0.25288284978E+04  0.25947268506E+04  0.12699999809E+01 0.  1.
       -4    1    3    3    0  502  0.12409101502E+02 -0.58092879038E+03 -0.12763685980E+04  0.14024088762E+04  0.12699999809E+01 0. -1.
</event>
<event>
 5   0  0.3701250E-08  0.3812095E+04  0.7818609E-02  0.8043564E-01
       -3   -1    0    0    0  501  0.00000000000E+00  0.00000000000E+00  0.20311772237E+04  0.20311772263E+04  0.10100000352E+00 0. -1.
        3   -1    0    0  501    0  0.00000000000E+00  0.00000000000E+00 -0.17886261766E+04  0.17886261794E+04  0.10100000352E+00 0.  1.
    10030    2    1    2    0    0  0.00000000000E+00  0.00000000000E+00  0.24255104717E+03  0.38198034057E+04  0.38120948372E+04 0.  0.
        4    1    3    3  502    0 -0.55520576413E+03  0.91428856545E+03 -0.14595197938E+04  0.18095238774E+04  0.12699999809E+01 0.  1.
       -4    1    3    3    0  502  0.55520576413E+03 -0.91428856545E+03  0.17020708409E+04  0.20102795283E+04  0.12699999809E+01 0. -1.
</event>
<event>
 5   0  0.3701250E-08  0.3717197E+04  0.7818609E-02  0.8064162E-01
       -1   -1    0    0    0  501  0.00000000000E+00  0.00000000000E+00  0.16819066964E+04  0.16819066964E+04  0.50400001928E-02 0. -1.
        1   -1    0    0  501    0  0.00000000000E+00  0.00000000000E+00 -0.20538521129E+04  0.20538521129E+04  0.50400001928E-02 0.  1.
    10030    2    1    2    0    0  0.00000000000E+00  0.00000000000E+00 -0.37194541655E+03  0.37357588093E+04  0.37171965900E+04 0.  0.
        3    1    3    3  502    0  0.43205749731E+03  0.12665052838E+04  0.11103047676E+04  0.17388174148E+04  0.10100000352E+00 0. -1.
       -3    1    3    3    0  502 -0.43205749731E+03 -0.12665052838E+04 -0.14822501841E+04  0.19969413946E+04  0.10100000352E+00 0.  1.
</event>
<event>
 5   0  0.1150235E-07  0.3800066E+04  0.7818609E-02  0.8046141E-01
       -2   -1    0    0    0  501  0.00000000000E+00  0.00000000000E+00  0.18036409505E+04  0.18036409505E+04  0.25500000920E-02 0.  1.
        2   -1    0    0  501    0  0.00000000000E+00  0.00000000000E+00 -0.20015763024E+04  0.20015763024E+04  0.25500000920E-02 0. -1.
    10030    2    1    2    0    0  0.00000000000E+00  0.00000000000E+00 -0.19793535190E+03  0.38052172529E+04  0.38000657808E+04 0.  0.
        4    1    3    3  502    0 -0.18750289783E+04  0.28933500618E+03 -0.20242741975E+03  0.19079902747E+04  0.12699999809E+01 0. -1.
       -4    1    3    3    0  502  0.18750289783E+04 -0.28933500618E+03  0.44920678566E+01  0.18972269782E+04  0.12699999809E+01 0.  1.
</event>
<event>
 5   0  0.1143283E-07  0.3794480E+04  0.7818609E-02  0.8047340E-01
       -2   -1    0    0    0  501  0.00000000000E+00  0.00000000000E+00  0.20470883520E+04  0.20470883520E+04  0.25500000920E-02 0.  1.
        2   -1    0    0  501    0  0.00000000000E+00  0.00000000000E+00 -0.17583609854E+04  0.17583609854E+04  0.25500000920E-02 0. -1.
    10030    2    1    2    0    0  0.00000000000E+00  0.00000000000E+00  0.28872736660E+03  0.38054493373E+04  0.37944803553E+04 0.  0.
        1    1    3    3  502    0  0.89153312842E+03 -0.77229144608E+03  0.16346792460E+04  0.20157980142E+04  0.50400001928E-02 0.  1.
       -1    1    3    3    0  502 -0.89153312842E+03  0.77229144608E+03 -0.13459518794E+04  0.17896513231E+04  0.50400001928E-02 0. -1.
</event>
<event>
 5   0  0.1143283E-07  0.3796555E+04  0.7818609E-02  0.8046895E-01
       -2   -1    0    0    0  501  0.00000000000E+00  0.00000000000E+00  0.11928988359E+04  0.11928988359E+04  0.25500000920E-02 0.  1.
        2   -1    0    0  501    0  0.00000000000E+00  0.00000000000E+00 -0.30207565338E+04  0.30207565338E+04  0.25500000920E-02 0. -1.
    10030    2    1    2    0    0  0.00000000000E+00  0.00000000000E+00 -0.18278576979E+04  0.42136553696E+04  0.37965547290E+04 0.  0.
        1    1    3    3  502    0  0.61837605820E+03  0.10486612664E+04  0.70258091387E+03  0.14055957248E+04  0.50400001928E-02 0.  1.
       -1    1    3    3    0  502 -0.61837605820E+03 -0.10486612664E+04 -0.25304386118E+04  0.28080596448E+04  0.50400001928E-02 0. -1.
</event>
<event>
 5   0  0.1193861E-07  0.3788790E+04  0.7818609E-02  0.8048565E-01
       -2   -1    0    0    0  501  0.00000000000E+00  0.00000000000E+00  0.15363081902E+04  0.15363081902E+04  0.25500000920E-02 0. -1.
        2   -1    0    0  501    0  0.00000000000E+00  0.00000000000E+00 -0.23359450664E+04  0.23359450664E+04  0.25500000920E-02 0.  1.
    10030    2    1    2    0    0  0.00000000000E+00  0.00000000000E+00 -0.79963687621E+03  0.38722532567E+04  0.37887895363E+04 0.  0.
        3    1    3    3  502    0  0.13123014018E+03 -0.17152280157E+04  0.41107201135E+03  0.17686742788E+04  0.10100000352E+00 0. -1.
       -3    1    3    3    0  502 -0.13123014018E+03  0.17152280157E+04 -0.12107088876E+04  0.21035789779E+04  0.10100000352E+00 0.  1.
</event>
<event>
 5   0  0.1193861E-07  0.3783090E+04  0.7818609E-02  0.8049793E-01
        2   -1    0    0  501    0  0.00000000000E+00  0.00000000000E+00  0.21340612864E+04  0.21340612864E+04  0.25500000920E-02 0. -1.
       -2   -1    0    0    0  501  0.00000000000E+00  0.00000000000E+00 -0.16765884129E+04  0.16765884129E+04  0.25500000920E-02 0.  1.
    10030    2    1    2    0    0  0.00000000000E+00  0.00000000000E+00  0.45747287357E+03  0.38106496993E+04  0.37830899673E+04 0.  0.
        3    1    3    3  502    0  0.11422626636E+04  0.12778701340E+04 -0.57723402905E+03  0.18085671694E+04  0.10100000352E+00 0.  1.
       -3    1    3    3    0  502 -0.11422626636E+04 -0.12778701340E+04  0.10347069026E+04  0.20020825299E+04  0.10100000352E+00 0. -1.
</event>
<event>
 5   0  0.1174870E-07  0.3810563E+04  0.7818609E-02  0.8043892E-01
       -2   -1    0    0    0  501  0.00000000000E+00  0.00000000000E+00  0.15513649036E+04  0.15513649036E+04  0.25500000920E-02 0. -1.
        2   -1    0    0  501    0  0.00000000000E+00  0.00000000000E+00 -0.23399377593E+04  0.23399377593E+04  0.25500000920E-02 0.  1.
    10030    2    1    2    0    0  0.00000000000E+00  0.00000000000E+00 -0.78857285561E+03  0.38913026629E+04  0.38105628542E+04 0.  0.
        5    1    3    3  502    0  0.10697944867E+03 -0.93281458405E+03 -0.20872701043E+04  0.22887346349E+04  0.46999998093E+01 0.  1.
       -5    1    3    3    0  502 -0.10697944867E+03  0.93281458405E+03  0.12986972487E+04  0.16025680280E+04  0.46999998093E+01 0. -1.
</event>
<event>
 5   0  0.3701250E-08  0.3800235E+04  0.7818609E-02  0.8046104E-01
       -1   -1    0    0    0  501  0.00000000000E+00  0.00000000000E+00  0.18772149775E+04  0.18772149775E+04  0.50400001928E-02 0.  1.
        1   -1    0    0  501    0  0.00000000000E+00  0.00000000000E+00 -0.19232995875E+04  0.19232995875E+04  0.50400001928E-02 0. -1.
    10030    2    1    2    0    0  0.00000000000E+00  0.00000000000E+00 -0.46084609973E+02  0.38005145650E+04  0.38002351463E+04 0.  0.
        1    1    3    3  502    0  0.82816695400E+03  0.44718772128E+03 -0.16738027685E+04  0.19202742173E+04  0.50400001928E-02 0. -1.
       -1    1    3    3    0  502 -0.82816695400E+03 -0.44718772128E+03  0.16277181585E+04  0.18802403477E+04  0.50400001928E-02 0.  1.
</event>
<event>
 5   0  0.1150235E-07  0.3795845E+04  0.7818609E-02  0.8047047E-01
        2   -1    0    0  501    0  0.00000000000E+00  0.00000000000E+00  0.17158364733E+04  0.17158364733E+04  0.25500000920E-02 0.  1.
       -2   -1    0    0    0  501  0.00000000000E+00  0.00000000000E+00 -0.20993315239E+04  0.20993315239E+04  0.25500000920E-02 0. -1.
    10030    2    1    2    0    0  0.00000000000E+00  0.00000000000E+00 -0.38349505060E+03  0.38151679972E+04  0.37958448852E+04 0.  0.
        4    1    3    3  502    0  0.63388755570E+03 -0.76524359014E+03  0.14334863922E+04  0.17442178863E+04  0.12699999809E+01 0.  1.
       -4    1    3    3    0  502 -0.63388755570E+03  0.76524359014E+03 -0.18169814427E+04  0.20709501109E+04  0.12699999809E+01 0. -1.
</event>
<event>
 5   0  0.3701250E-08  0.3809497E+04  0.7818609E-02  0.8044120E-01
        1   -1    0    0  501    0  0.00000000000E+00  0.00000000000E+00  0.13385796972E+04  0.13385796973E+04  0.50400001928E-02 0.  1.
       -1   -1    0    0    0  501  0.00000000000E+00  0.00000000000E+00 -0.27103860025E+04  0.27103860025E+04  0.50400001928E-02 0. -1.
    10030    2    1    2    0    0  0.00000000000E+00  0.00000000000E+00 -0.13718063052E+04  0.40489656997E+04  0.38094974338E+04 0.  0.
        3    1    3    3  502    0 -0.15005109135E+03  0.57881426173E+03  0.12362378405E+04  0.13732535411E+04  0.10100000352E+00 0.  1.
       -3    1    3    3    0  502  0.15005109135E+03 -0.57881426173E+03 -0.26080441457E+04  0.26757121586E+04  0.10100000352E+00 0. -1.
</event>
<event>
 5   0  0.3701250E-08  0.3796986E+04  0.7818609E-02  0.8046802E-01
        1   -1    0    0  501    0  0.00000000000E+00  0.00000000000E+00  0.10338241979E+04  0.10338241979E+04  0.50400001928E-02 0.  1.
       -1   -1    0    0    0  501  0.00000000000E+00  0.00000000000E+00 -0.34863517016E+04  0.34863517016E+04  0.50400001928E-02 0. -1.
    10030    2    1    2    0    0  0.00000000000E+00  0.00000000000E+00 -0.24525275037E+04  0.45201758995E+04  0.37969855157E+04 0.  0.
        2    1    3    3  502    0 -0.42664933933E+01 -0.61506450430E+03  0.91192164567E+03  0.10999652882E+04  0.25500000920E-02 0.  1.
       -2    1    3    3    0  502  0.42664933933E+01  0.61506450430E+03 -0.33644491493E+04  0.34202106113E+04  0.25500000920E-02 0. -1.
</event>
<event>
 5   0  0.3701250E-08  0.3798905E+04  0.7818609E-02  0.8046390E-01
       -1   -1    0    0    0  501  0.00000000000E+00  0.00000000000E+00  0.17684298397E+04  0.17684298397E+04  0.50400001928E-02 0. -1.
        1   -1    0    0  501    0  0.00000000000E+00  0.00000000000E+00 -0.20401823433E+04  0.20401823433E+04  0.50400001928E-02 0.  1.
    10030    2    1    2    0    0  0.00000000000E+00  0.00000000000E+00 -0.27175250354E+03  0.38086121830E+04  0.37989047550E+04 0.  0.
        4    1    3    3  502    0 -0.78632392959E+03 -0.15499695547E+04  0.63237606275E+03  0.18494896703E+04  0.12699999809E+01 0. -1.
       -4    1    3    3    0  502  0.78632392959E+03  0.15499695547E+04 -0.90412856629E+03  0.19591225128E+04  0.12699999809E+01 0.  1.
</event>
<event>
 5   0  0.1150235E-07  0.3784066E+04  0.7818609E-02  0.8049583E-01
        2   -1    0    0  501    0  0.00000000000E+00  0.00000000000E+00  0.27449805253E+04  0.27449805253E+04  0.25500000920E-02 0.  1.
       -2   -1    0    0    0  501  0.00000000000E+00  0.00000000000E+00 -0.13041219754E+04  0.13041219754E+04  0.25500000920E-02 0. -1.
    10030    2    1    2    0    0  0.00000000000E+00  0.00000000000E+00  0.14408585500E+04  0.40491025007E+04  0.37840662917E+04 0.  0.
        4    1    3    3  502    0 -0.14324793792E+04 -0.46216860845E+03 -0.50624497565E+03  0.15880436337E+04  0.12699999809E+01 0. -1.
       -4    1    3    3    0  502  0.14324793792E+04  0.46216860845E+03  0.19471035256E+04  0.24610588670E+04  0.12699999809E+01 0.  1.
</event>
<event>
 5   0  0.3889225E-08  0.3805260E+04  0.7818609E-02  0.8045027E-01
       -1   -1    0    0    0  501  0.00000000000E+00  0.00000000000E+00  0.18873247857E+04  0.18873247857E+04  0.50400001928E-02 0.  1.
        1   -1    0    0  501    0  0.00000000000E+00  0.00000000000E+00 -0.19180595765E+04  0.19180595765E+04  0.50400001928E-02 0. -1.
    10030    2    1    2    0    0  0.00000000000E+00  0.00000000000E+00 -0.30734790833E+02  0.38053843623E+04  0.38052602430E+04 0.  0.
        5    1    3    3  502    0 -0.45425123943E+03 -0.84693956474E+03  0.16267362475E+04  0.18894294704E+04  0.46999998093E+01 0.  1.
       -5    1    3    3    0  502  0.45425123943E+03  0.84693956474E+03 -0.16574710383E+04  0.19159548919E+04  0.46999998093E+01 0. -1.
</event>
<event>
 5   0  0.3701250E-08  0.3787410E+04  0.7818609E-02  0.8048862E-01
        1   -1    0    0  501    0  0.00000000000E+00  0.00000000000E+00  0.20737087932E+04  0.20737087933E+04  0.50400001928E-02 0.  1.
       -1   -1    0    0    0  501  0.00000000000E+00  0.00000000000E+00 -0.17293263000E+04  0.17293263000E+04  0.50400001928E-02 0. -1.
    10030    2    1    2    0    0  0.00000000000E+00  0.00000000000E+00  0.34438249326E+03  0.38030350932E+04  0.37874102786E+04 0.  0.
        3    1    3    3  502    0 -0.69398145997E+02  0.13614309602E+04  0.14920754103E+04  0.20210391887E+04  0.10100000352E+00 0.  1.
       -3    1    3    3    0  502  0.69398145997E+02 -0.13614309602E+04 -0.11476929170E+04  0.17819959046E+04  0.10100000352E+00 0. -1.
</event>
<event>
 5   0  0.3889225E-08  0.3799800E+04  0.7818609E-02  0.8046198E-01
       -1   -1    0    0    0  501  0.00000000000E+00  0.00000000000E+00  0.13955188214E+04  0.13955188214E+04  0.50400001928E-02 0. -1.
        1   -1    0    0  501    0  0.00000000000E+00  0.00000000000E+00 -0.25865791009E+04  0.25865791009E+04  0.50400001928E-02 0.  1.
    10030    2    1    2    0    0  0.00000000000E+00  0.00000000000E+00 -0.11910602795E+04  0.39820979223E+04  0.37997998991E+04 0.  0.
        5    1    3    3  502    0 -0.78070752122E+03 -0.20417665017E+03  0.12069896896E+04  0.14519085850E+04  0.46999998093E+01 0. -1.
       -5    1    3    3    0  502  0.78070752122E+03  0.20417665017E+03 -0.23980499692E+04  0.25301893373E+04  0.46999998093E+01 0.  1.
</event>
<event>
 5   0  0.1193861E-07  0.3798526E+04  0.7818609E-02  0.8046471E-01
        2   -1    0    0  501    0  0.00000000000E+00  0.00000000000E+00  0.20510600168E+04  0.20510600168E+04  0.25500000920E-02 0. -1.
       -2   -1    0    0    0  501  0.00000000000E+00  0.00000000000E+00 -0.17587006826E+04  0.17587006826E+04  0.25500000920E-02 0.  1.
    10030    2    1    2    0    0  0.00000000000E+00  0.00000000000E+00  0.29235933414E+03  0.38097606994E+04  0.37985263730E+04 0.  0.
        3    1    3    3  502    0  0.93921309563E+03 -0.11990481615E+04 -0.99179618783E+03  0.18175525910E+04  0.10100000352E+00 0.  1.
       -3    1    3    3    0  502 -0.93921309563E+03  0.11990481615E+04  0.12841555220E+04  0.19922081084E+04  0.10100000352E+00 0. -1.
</event>
<event>
 5   0  0.1143283E-07  0.3810506E+04  0.7818609E-02  0.8043904E-01
       -2   -1    0    0    0  501  0.00000000000E+00  0.00000000000E+00  0.12518140662E+04  0.12518140662E+04  0.25500000920E-02 0. -1.
        2   -1    0    0  501    0  0.00000000000E+00  0.00000000000E+00 -0.28997822365E+04  0.28997822365E+04  0.25500000920E-02 0.  1.
    10030    2    1    2    0    0  0.00000000000E+00  0.00000000000E+00 -0.16479681704E+04  0.41515963027E+04  0.38105055794E+04 0.  0.
        1    1    3    3  502    0 -0.88219617600E+03  0.15089928139E+04 -0.16499032441E+04  0.24036451736E+04  0.50400001928E-02 0.  1.
       -1    1    3    3    0  502  0.88219617600E+03 -0.15089928139E+04  0.19350737173E+01  0.17479511292E+04  0.50400001928E-02 0. -1.
</event>
<event>
 5   0  0.1174870E-07  0.3785013E+04  0.7818609E-02  0.8049379E-01
        2   -1    0    0  501    0  0.00000000000E+00  0.00000000000E+00  0.24120376186E+04  0.24120376186E+04  0.25500000920E-02 0.  1.
       -2   -1    0    0    0  501  0.00000000000E+00  0.00000000000E+00 -0.14848779789E+04  0.14848779789E+04  0.25500000920E-02 0. -1.
    10030    2    1    2    0    0  0.00000000000E+00  0.00000000000E+00  0.92715963966E+03  0.38969155975E+04  0.37850133654E+04 0.  0.
        5    1    3    3  502    0 -0.94878728875E+03 -0.92485585524E+03  0.18548273890E+04  0.22794653771E+04  0.46999998093E+01 0.  1.
       -5    1    3    3    0  502  0.94878728875E+03  0.92485585524E+03 -0.92766774936E+03  0.16174502204E+04  0.46999998093E+01 0. -1.
</event>
<event>
 5   0  0.1174870E-07  0.3796844E+04  0.7818609E-02  0.8046833E-01
       -2   -1    0    0    0  501  0.00000000000E+00  0.00000000000E+00  0.18474748505E+04  0.18474748505E+04  0.25500000920E-02 0. -1.
        2   -1    0    0  501    0  0.00000000000E+00  0.00000000000E+00 -0.19507739124E+04  0.19507739124E+04  0.25500000920E-02 0.  1.
    10030    2    1    2    0    0  0.00000000000E+00  0.00000000000E+00 -0.10329906186E+03  0.37982487629E+04  0.37968438167E+04 0.  0.
        5    1    3    3  502    0  0.77667789892E+03 -0.17309218696E+04  0.16673435093E+02  0.18972662361E+04  0.46999998093E+01 0.  1.
       -5    1    3    3    0  502 -0.77667789892E+03  0.17309218696E+04 -0.11997249695E+03  0.19009825268E+04  0.46999998093E+01 0. -1.
</event>
<event>
 5   0  0.1143283E-07  0.3867384E+04  0.7818609E-02  0.8031847E-01
        2   -1    0    0  501    0  0.00000000000E+00  0.00000000000E+00  0.11912011930E+04  0.11912011930E+04  0.25500000920E-02 0. -1.
       -2   -1    0    0    0  501  0.00000000000E+00  0.00000000000E+00 -0.31389861874E+04  0.31389861874E+04  0.25500000920E-02 0.  1.
    10030    2    1    2    0    0  0.00000000000E+00  0.00000000000E+00 -0.19477849944E+04  0.43301873804E+04  0.38673836588E+04 0.  0.
        1    1    3    3  502    0 -0.13943912040E+04 -0.14714809272E+03 -0.24648539653E+04  0.28357511282E+04  0.50400001928E-02 0.  1.
       -1    1    3    3    0  502  0.13943912040E+04  0.14714809272E+03  0.51706897092E+03  0.14944362521E+04  0.50400001928E-02 0. -1.
</event>
<event>
 5   0  0.3889225E-08  0.3798397E+04  0.7818609E-02  0.8046499E-01
        1   -1    0    0  501    0  0.00000000000E+00  0.00000000000E+00  0.18602645615E+04  0.18602645615E+04  0.50400001928E-02 0.  1.
       -1   -1    0    0    0  501  0.00000000000E+00  0.00000000000E+00 -0.19389476509E+04  0.19389476509E+04  0.50400001928E-02 0. -1.
    10030    2    1    2    0    0  0.00000000000E+00  0.00000000000E+00 -0.78683089490E+02  0.37992122124E+04  0.37983973471E+04 0.  0.
        5    1    3    3  502    0 -0.13007345740E+04 -0.79771269212E+03  0.10916872901E+04  0.18761820809E+04  0.46999998093E+01 0.  1.
       -5    1    3    3    0  502  0.13007345740E+04  0.79771269212E+03 -0.11703703796E+04  0.19230301315E+04  0.46999998093E+01 0. -1.
</event>
<event>
 5   0  0.1143283E-07  0.3807691E+04  0.7818609E-02  0.8044506E-01
       -2   -1    0    0    0  501  0.00000000000E+00  0.00000000000E+00  0.14971112427E+04  0.14971112428E+04  0.25500000920E-02 0.  1.
        2   -1    0    0  501    0  0.00000000000E+00  0.00000000000E+00 -0.24210806838E+04  0.24210806838E+04  0.25500000920E-02 0. -1.
    10030    2    1    2    0    0  0.00000000000E+00  0.00000000000E+00 -0.92396944108E+03  0.39181919266E+04  0.38076906972E+04 0.  0.
        1    1    3    3  502    0 -0.10806453127E+04  0.12522709254E+04 -0.14320244020E+04  0.21878461213E+04  0.50400001928E-02 0. -1.
       -1    1    3    3    0  502  0.10806453127E+04 -0.12522709254E+04  0.50805496096E+03  0.17303458053E+04  0.50400001928E-02 0.  1.
</event>
<event>
 5   0  0.1193861E-07  0.3777233E+04  0.7818609E-02  0.8051058E-01
       -2   -1    0    0    0  501  0.00000000000E+00  0.00000000000E+00  0.16546320522E+04  0.16546320522E+04  0.25500000920E-02 0. -1.
        2   -1    0    0  501    0  0.00000000000E+00  0.00000000000E+00 -0.21556894635E+04  0.21556894635E+04  0.25500000920E-02 0.  1.
    10030    2    1    2    0    0  0.00000000000E+00  0.00000000000E+00 -0.50105741135E+03  0.38103215157E+04  0.37772333161E+04 0.  0.
        3    1    3    3  502    0 -0.13409320239E+04 -0.48681330848E+02  0.10901751824E+04  0.17288581501E+04  0.10100000352E+00 0. -1.
       -3    1    3    3    0  502  0.13409320239E+04  0.48681330848E+02 -0.15912325938E+04  0.20814633656E+04  0.10100000352E+00 0.  1.
</event>
<event>
 5   0  0.3701250E-08  0.3792201E+04  0.7818609E-02  0.8047831E-01
        1   -1    0    0  501    0  0.00000000000E+00  0.00000000000E+00  0.17098159276E+04  0.17098159277E+04  0.50400001928E-02 0. -1.
       -1   -1    0    0    0  501  0.00000000000E+00  0.00000000000E+00 -0.21026808142E+04  0.21026808142E+04  0.50400001928E-02 0.  1.
    10030    2    1    2    0    0  0.00000000000E+00  0.00000000000E+00 -0.39286488655E+03  0.38124967419E+04  0.37922010215E+04 0.  0.
        4    1    3    3  502    0 -0.82738790401E+03 -0.75920889465E+03 -0.17324268753E+04  0.20645273989E+04  0.12699999809E+01 0.  1.
       -4    1    3    3    0  502  0.82738790401E+03  0.75920889465E+03  0.13395619888E+04  0.17479693430E+04  0.12699999809E+01 0. -1.
</event>
<event>
 5   0  0.3701250E-08  0.3859337E+04  0.7818609E-02  0.8033540E-01
        1   -1    0    0  501    0  0.00000000000E+00  0.00000000000E+00  0.14469017048E+04  0.14469017048E+04  0.50400001928E-02 0.  1.
       -1   -1    0    0    0  501  0.00000000000E+00  0.00000000000E+00 -0.25735135708E+04  0.25735135708E+04  0.50400001928E-02 0. -1.
    10030    2    1    2    0    0  0.00000000000E+00  0.00000000000E+00 -0.11266118660E+04  0.40204152756E+04  0.38593373384E+04 0.  0.
        2    1    3    3  502    0  0.42049996909E+03 -0.93100258145E+03 -0.22687144109E+04  0.24881019089E+04  0.25500000920E-02 0. -1.
       -2    1    3    3    0  502 -0.42049996909E+03  0.93100258145E+03  0.11421025450E+04  0.15323133667E+04  0.25500000920E-02 0.  1.
</event>
<event>
 5   0  0.3701250E-08  0.3802648E+04  0.7818609E-02  0.8045587E-01
       -1   -1    0    0    0  501  0.00000000000E+00  0.00000000000E+00  0.20216105377E+04  0.20216105377E+04  0.50400001928E-02 0. -1.
        1   -1    0    0  501    0  0.00000000000E+00  0.00000000000E+00 -0.17881942650E+04  0.17881942650E+04  0.50400001928E-02 0.  1.
    10030    2    1    2    0    0  0.00000000000E+00  0.00000000000E+00  0.23341627265E+03  0.38098048027E+04  0.38026476932E+04 0.  0.
        1    1    3    3  502    0 -0.11141572916E+04 -0.14105426680E+04  0.73759647727E+03  0.19429425241E+04  0.50400001928E-02 0.  1.
       -1    1    3    3    0  502  0.11141572916E+04  0.14105426680E+04 -0.50418020462E+03  0.18668622786E+04  0.50400001928E-02 0. -1.
</event>
<event>
 5   0  0.1193861E-07  0.3821513E+04  0.7818609E-02  0.8041554E-01
        2   -1    0    0  501    0  0.00000000000E+00  0.00000000000E+00  0.28988198491E+04  0.28988198491E+04  0.25500000920E-02 0. -1.
       -2   -1    0    0    0  501  0.00000000000E+00  0.00000000000E+00 -0.12594745910E+04  0.12594745910E+04  0.25500000920E-02 0.  1.
    10030    2    1    2    0    0  0.00000000000E+00  0.00000000000E+00  0.16393452581E+04  0.41582944401E+04  0.38215127601E+04 0.  0.
        3    1    3    3  502    0 -0.68338363398E+03  0.21330603824E+03 -0.11080272398E+04  0.13191804393E+04  0.10100000352E+00 0.  1.
       -3    1    3    3    0  502  0.68338363398E+03 -0.21330603824E+03  0.27473724979E+04  0.28391140008E+04  0.10100000352E+00 0. -1.
</event>
<event>
 5   0  0.3701250E-08  0.3794340E+04  0.7818609E-02  0.8047371E-01
       -1   -1    0    0    0  501  0.00000000000E+00  0.00000000000E+00  0.15944844899E+04  0.15944844899E+04  0.50400001928E-02 0.  1.
        1   -1    0    0  501    0  0.00000000000E+00  0.00000000000E+00 -0.22573152040E+04  0.22573152040E+04  0.50400001928E-02 0. -1.
    10030    2    1    2    0    0  0.00000000000E+00  0.00000000000E+00 -0.66283071408E+03  0.38517996940E+04  0.37943400384E+04 0.  0.
        1    1    3    3  502    0 -0.90515457342E+02 -0.16607322803E+03  0.15848897289E+04  0.15961355889E+04  0.50400001928E-02 0.  1.
       -1    1    3    3    0  502  0.90515457342E+02  0.16607322803E+03 -0.22477204430E+04  0.22556641051E+04  0.50400001928E-02 0. -1.
</event>
<event>
 5   0  0.3701250E-08  0.3807424E+04  0.7818609E-02  0.8044564E-01
       -3   -1    0    0    0  501  0.00000000000E+00  0.00000000000E+00  0.17419810112E+04  0.17419810141E+04  0.10100000352E+00 0. -1.
        3   -1    0    0  501    0  0.00000000000E+00  0.00000000000E+00 -0.20804585194E+04  0.20804585219E+04  0.10100000352E+00 0.  1.
    10030    2    1    2    0    0  0.00000000000E+00  0.00000000000E+00 -0.33847750825E+03  0.38224395360E+04  0.38074239300E+04 0.  0.
        2    1    3    3  502    0 -0.16864448648E+04  0.81420546775E+03  0.17429845273E+03  0.18807995045E+04  0.25500000920E-02 0. -1.
       -2    1    3    3    0  502  0.16864448648E+04 -0.81420546775E+03 -0.51277596098E+03  0.19416400315E+04  0.25500000920E-02 0.  1.
</event>
<event>
 5   0  0.1174870E-07  0.3817032E+04  0.7818609E-02  0.8042510E-01
        2   -1    0    0  501    0  0.00000000000E+00  0.00000000000E+00  0.16960173110E+04  0.16960173110E+04  0.25500000920E-02 0.  1.
       -2   -1    0    0    0  501  0.00000000000E+00  0.00000000000E+00 -0.21476387400E+04  0.21476387400E+04  0.25500000920E-02 0. -1.
    10030    2    1    2    0    0  0.00000000000E+00  0.00000000000E+00 -0.45162142905E+03  0.38436560510E+04  0.38170315591E+04 0.  0.
        5    1    3    3  502    0  0.42327813903E+03 -0.16913654320E+04 -0.10074524465E+04  0.20136692702E+04  0.46999998093E+01 0. -1.
       -5    1    3    3    0  502 -0.42327813903E+03  0.16913654320E+04  0.55583101750E+03  0.18299867807E+04  0.46999998093E+01 0.  1.
</event>
<event>
 5   0  0.1150235E-07  0.3805031E+04  0.7818609E-02  0.8045076E-01
        2   -1    0    0  501    0  0.00000000000E+00  0.00000000000E+00  0.10770315512E+04  0.10770315512E+04  0.25500000920E-02 0.  1.
       -2   -1    0    0    0  501  0.00000000000E+00  0.00000000000E+00 -0.33606868911E+04  0.33606868911E+04  0.25500000920E-02 0. -1.
    10030    2    1    2    0    0  0.00000000000E+00  0.00000000000E+00 -0.22836553399E+04  0.44377184423E+04  0.38050313089E+04 0.  0.
        4    1    3    3  502    0  0.79246668203E+03  0.79704453803E+02  0.87323614901E+03  0.11819049145E+04  0.12699999809E+01 0.  1.
       -4    1    3    3    0  502 -0.79246668203E+03 -0.79704453803E+02 -0.31568914889E+04  0.32558135278E+04  0.12699999809E+01 0. -1.
</event>
<event>
 5   0  0.1150235E-07  0.3808811E+04  0.7818609E-02  0.8044267E-01
       -2   -1    0    0    0  501  0.00000000000E+00  0.00000000000E+00  0.22418527846E+04  0.22418527846E+04  0.25500000920E-02 0. -1.
        2   -1    0    0  501    0  0.00000000000E+00  0.00000000000E+00 -0.16177517102E+04  0.16177517102E+04  0.25500000920E-02 0.  1.
    10030    2    1    2    0    0  0.00000000000E+00  0.00000000000E+00  0.62410107439E+03  0.38596044948E+04  0.38088114557E+04 0.  0.
        4    1    3    3  502    0  0.11954304828E+04  0.14824571706E+04  0.31724345871E+03  0.19306419469E+04  0.12699999809E+01 0. -1.
       -4    1    3    3    0  502 -0.11954304828E+04 -0.14824571706E+04  0.30685761568E+03  0.19289625479E+04  0.12699999809E+01 0.  1.
</event>
<event>
 5   0  0.1174870E-07  0.3802735E+04  0.7818609E-02  0.8045568E-01
       -2   -1    0    0    0  501  0.00000000000E+00  0.00000000000E+00  0.12738210388E+04  0.12738210388E+04  0.25500000920E-02 0. -1.
        2   -1    0    0  501    0  0.00000000000E+00  0.00000000000E+00 -0.28380734443E+04  0.28380734443E+04  0.25500000920E-02 0.  1.
    10030    2    1    2    0    0  0.00000000000E+00  0.00000000000E+00 -0.15642524055E+04  0.41118944830E+04  0.38027346281E+04 0.  0.
        5    1    3    3  502    0 -0.10181612731E+03 -0.54096468520E+02 -0.28342838485E+04  0.28366318011E+04  0.46999998093E+01 0.  1.
       -5    1    3    3    0  502  0.10181612731E+03  0.54096468520E+02  0.12700314430E+04  0.12752626819E+04  0.46999998093E+01 0. -1.
</event>
<event>
 5   0  0.3701250E-08  0.3752282E+04  0.7818609E-02  0.8056473E-01
        1   -1    0    0  501    0  0.00000000000E+00  0.00000000000E+00  0.22966654351E+04  0.22966654351E+04  0.50400001928E-02 0.  1.
       -1   -1    0    0    0  501  0.00000000000E+00  0.00000000000E+00 -0.15326152197E+04  0.15326152197E+04  0.50400001928E-02 0. -1.
    10030    2    1    2    0    0  0.00000000000E+00  0.00000000000E+00  0.76405021537E+03  0.38292806548E+04  0.37522816528E+04 0.  0.
        4    1    3    3  502    0  0.37817934081E+02 -0.18738253488E+04  0.46892621591E+03  0.19319795659E+04  0.12699999809E+01 0. -1.
       -4    1    3    3    0  502 -0.37817934081E+02  0.18738253488E+04  0.29512399945E+03  0.18973010889E+04  0.12699999809E+01 0.  1.
</event>
<event>
 5   0  0.1150235E-07  0.3798545E+04  0.7818609E-02  0.8046467E-01
       -2   -1    0    0    0  501  0.00000000000E+00  0.00000000000E+00  0.12383366572E+04  0.12383366572E+04  0.25500000920E-02 0. -1.
        2   -1    0    0  501    0  0.00000000000E+00  0.00000000000E+00 -0.29129687061E+04  0.29129687061E+04  0.25500000920E-02 0.  1.
    10030    2    1    2    0    0  0.00000000000E+00  0.00000000000E+00 -0.16746320488E+04  0.41513053633E+04  0.37985449478E+04 0.  0.
        4    1    3    3  502    0  0.45562607914E+03  0.63439237097E+03 -0.27293294909E+04  0.28388888473E+04  0.12699999809E+01 0.  1.
       -4    1    3    3    0  502 -0.45562607914E+03 -0.63439237097E+03  0.10546974421E+04  0.13124165160E+04  0.12699999809E+01 0. -1.
</event>
<event>
 5   0  0.3701250E-08  0.3826011E+04  0.7818609E-02  0.8040596E-01
        1   -1    0    0  501    0  0.00000000000E+00  0.00000000000E+00  0.18986962613E+04  0.18986962613E+04  0.50400001928E-02 0. -1.
       -1   -1    0    0    0  501  0.00000000000E+00  0.00000000000E+00 -0.19274226625E+04  0.19274226625E+04  0.50400001928E-02 0.  1.
    10030    2    1    2    0    0  0.00000000000E+00  0.00000000000E+00 -0.28726401198E+02  0.38261189237E+04  0.38260110837E+04 0.  0.
        4    1    3    3  502    0  0.14785582268E+04  0.99090331032E+01 -0.12282161688E+04  0.19221730383E+04  0.12699999809E+01 0.  1.
       -4    1    3    3    0  502 -0.14785582268E+04 -0.99090331032E+01  0.11994897676E+04  0.19039458854E+04  0.12699999809E+01 0. -1.
</event>
<event>
 5   0  0.3701250E-08  0.3798457E+04  0.7818609E-02  0.8046486E-01
       -1   -1    0    0    0  501  0.00000000000E+00  0.00000000000E+00  0.16953380404E+04  0.16953380404E+04  0.50400001928E-02 0. -1.
        1   -1    0    0  501    0  0.00000000000E+00  0.00000000000E+00 -0.21276400581E+04  0.21276400581E+04  0.50400001928E-02 0.  1.
    10030    2    1    2    0    0  0.00000000000E+00  0.00000000000E+00 -0.43230201777E+03  0.38229780985E+04  0.37984571219E+04 0.  0.
        2    1    3    3  502    0 -0.80351902069E+03 -0.63907915881E+02  0.15146429223E+04  0.17157710280E+04  0.25500000920E-02 0. -1.
       -2    1    3    3    0  502  0.80351902069E+03  0.63907915881E+02 -0.19469449401E+04  0.21072070705E+04  0.25500000920E-02 0.  1.
</event>
<event>
 5   0  0.1174870E-07  0.3798983E+04  0.7818609E-02  0.8046373E-01
        2   -1    0    0  501    0  0.00000000000E+00  0.00000000000E+00  0.23551991273E+04  0.23551991273E+04  0.25500000920E-02 0. -1.
       -2   -1    0    0    0  501  0.00000000000E+00  0.00000000000E+00 -0.15319588991E+04  0.15319588991E+04  0.25500000920E-02 0.  1.
    10030    2    1    2    0    0  0.00000000000E+00  0.00000000000E+00  0.82324022825E+03  0.38871580264E+04  0.37989831599E+04 0.  0.
        5    1    3    3  502    0  0.16191455742E+03  0.62431498211E+03 -0.14164817667E+04  0.15564151780E+04  0.46999998093E+01 0.  1.
       -5    1    3    3    0  502 -0.16191455742E+03 -0.62431498211E+03  0.22397219950E+04  0.23307428484E+04  0.46999998093E+01 0. -1.
</event>
<event>
 5   0  0.3701250E-08  0.3796755E+04  0.7818609E-02  0.8046852E-01
       -1   -1    0    0    0  501  0.00000000000E+00  0.00000000000E+00  0.16388109801E+04  0.16388109802E+04  0.50400001928E-02 0.  1.
        1   -1    0    0  501    0  0.00000000000E+00  0.00000000000E+00 -0.21990559686E+04  0.21990559686E+04  0.50400001928E-02 0. -1.
    10030    2    1    2    0    0  0.00000000000E+00  0.00000000000E+00 -0.56024498848E+03  0.38378669488E+04  0.37967549657E+04 0.  0.
        4    1    3    3  502    0 -0.11669089916E+04 -0.50772089993E+03  0.11438106031E+04  0.17110702544E+04  0.12699999809E+01 0.  1.
       -4    1    3    3    0  502  0.11669089916E+04  0.50772089993E+03 -0.17040555916E+04  0.21267966943E+04  0.12699999809E+01 0. -1.
</event>
<event>
 5   0  0.3701250E-08  0.3808008E+04  0.7818609E-02  0.8044439E-01
       -1   -1    0    0    0  501  0.00000000000E+00  0.00000000000E+00  0.16592796849E+04  0.16592796849E+04  0.50400001928E-02 0. -1.
        1   -1    0    0  501    0  0.00000000000E+00  0.00000000000E+00 -0.21848218787E+04  0.21848218787E+04  0.50400001928E-02 0.  1.
    10030    2    1    2    0    0  0.00000000000E+00  0.00000000000E+00 -0.52554219378E+03  0.38441015636E+04  0.38080076462E+04 0.  0.
        4    1    3    3  502    0 -0.15145669008E+04 -0.11499102561E+04 -0.35865800523E+03  0.19351598569E+04  0.12699999809E+01 0. -1.
       -4    1    3    3    0  502  0.15145669008E+04  0.11499102561E+04 -0.16688418855E+03  0.19089417067E+04  0.12699999809E+01 0.  1.
</event>
<event>
 5   0  0.1150235E-07  0.3863358E+04  0.7818609E-02  0.8032694E-01
       -2   -1    0    0    0  501  0.00000000000E+00  0.00000000000E+00  0.15766439466E+04  0.15766439466E+04  0.25500000920E-02 0. -1.
        2   -1    0    0  501    0  0.00000000000E+00  0.00000000000E+00 -0.23666620840E+04  0.23666620840E+04  0.25500000920E-02 0.  1.
    10030    2    1    2    0    0  0.00000000000E+00  0.00000000000E+00 -0.79001813739E+03  0.39433060306E+04  0.38633578392E+04 0.  0.
        4    1    3    3  502    0  0.44201727153E+03 -0.15840300584E+03  0.15175086196E+04  0.15884913611E+04  0.12699999809E+01 0. -1.
       -4    1    3    3    0  502 -0.44201727153E+03  0.15840300584E+03 -0.23075267570E+04  0.23548146696E+04  0.12699999809E+01 0.  1.
</event>
<event>
 5   0  0.7858367E-08  0.3778474E+04  0.7818609E-02  0.8050790E-01
       -2   -1    0    0    0  501  0.00000000000E+00  0.00000000000E+00  0.14058381192E+04  0.14058381192E+04  0.25500000920E-02 0.  1.
        2   -1    0    0  501    0  0.00000000000E+00  0.00000000000E+00 -0.25388537159E+04  0.25388537159E+04  0.25500000920E-02 0. -1.
    10030    2    1    2    0    0  0.00000000000E+00  0.00000000000E+00 -0.11330155967E+04  0.39446918351E+04  0.37784744715E+04 0.  0.
        2    1    3    3  502    0  0.77476335865E+02  0.18344414439E+04 -0.10191516082E+03  0.18389031224E+04  0.25500000920E-02 0.  1.
       -2    1    3    3    0  502 -0.77476335865E+02 -0.18344414439E+04 -0.10311004359E+04  0.21057887127E+04  0.25500000920E-02 0. -1.
</event>
<event>
 5   0  0.3701250E-08  0.3778133E+04  0.7818609E-02  0.8050864E-01
        1   -1    0    0  501    0  0.00000000000E+00  0.00000000000E+00  0.19925848963E+04  0.19925848963E+04  0.50400001928E-02 0.  1.
       -1   -1    0    0    0  501  0.00000000000E+00  0.00000000000E+00 -0.17909256669E+04  0.17909256669E+04  0.50400001928E-02 0. -1.
    10030    2    1    2    0    0  0.00000000000E+00  0.00000000000E+00  0.20165922940E+03  0.37835105633E+04  0.37781325728E+04 0.  0.
        3    1    3    3  502    0 -0.66623294556E+03 -0.14570686312E+04 -0.90142271814E+03  0.18383357313E+04  0.10100000352E+00 0. -1.
       -3    1    3    3    0  502  0.66623294556E+03  0.14570686312E+04  0.11030819475E+04  0.19451748320E+04  0.10100000352E+00 0.  1.
</event>
<event>
 5   0  0.7858367E-08  0.3802604E+04  0.7818609E-02  0.8045596E-01
        2   -1    0    0  501    0  0.00000000000E+00  0.00000000000E+00  0.20830134341E+04  0.20830134341E+04  0.25500000920E-02 0.  1.
       -2   -1    0    0    0  501  0.00000000000E+00  0.00000000000E+00 -0.17354420982E+04  0.17354420982E+04  0.25500000920E-02 0. -1.
    10030    2    1    2    0    0  0.00000000000E+00  0.00000000000E+00  0.34757133598E+03  0.38184555323E+04  0.38026039524E+04 0.  0.
        2    1    3    3  502    0 -0.85386624349E+03  0.11012922235E+04  0.14726291812E+04  0.20274537796E+04  0.25500000920E-02 0.  1.
       -2    1    3    3    0  502  0.85386624349E+03 -0.11012922235E+04 -0.11250578452E+04  0.17910017527E+04  0.25500000920E-02 0. -1.
</event>
<event>
 5   0  0.3889225E-08  0.3825330E+04  0.7818609E-02  0.8040741E-01
        1   -1    0    0  501    0  0.00000000000E+00  0.00000000000E+00  0.19139245053E+04  0.19139245053E+04  0.50400001928E-02 0. -1.
       -1   -1    0    0    0  501  0.00000000000E+00  0.00000000000E+00 -0.19114062587E+04  0.19114062587E+04  0.50400001928E-02 0.  1.
    10030    2    1    2    0    0  0.00000000000E+00  0.00000000000E+00  0.25182466612E+01  0.38253307640E+04  0.38253299351E+04 0.  0.
        5    1    3    3  502    0 -0.12224219505E+04  0.79795653635E+03  0.12370648487E+04  0.19134789231E+04  0.46999998093E+01 0. -1.
       -5    1    3    3    0  502  0.12224219505E+04 -0.79795653635E+03 -0.12345466021E+04  0.19118518410E+04  0.46999998093E+01 0.  1.
</event>
<event>
 5   0  0.1150235E-07  0.3795883E+04  0.7818609E-02  0.8047039E-01
       -2   -1    0    0    0  501  0.00000000000E+00  0.00000000000E+00  0.21813376957E+04  0.21813376957E+04  0.25500000920E-02 0. -1.
        2   -1    0    0  501    0  0.00000000000E+00  0.00000000000E+00 -0.16513637147E+04  0.16513637147E+04  0.25500000920E-02 0.  1.
    10030    2    1    2    0    0  0.00000000000E+00  0.00000000000E+00  0.52997398110E+03  0.38327014104E+04  0.37958829909E+04 0.  0.
        4    1    3    3  502    0 -0.58915547411E+03 -0.11516986810E+04  0.16672217029E+04  0.21102473419E+04  0.12699999809E+01 0. -1.
       -4    1    3    3    0  502  0.58915547411E+03  0.11516986810E+04 -0.11372477218E+04  0.17224540685E+04  0.12699999809E+01 0.  1.
</event>
<event>
 5   0  0.7858367E-08  0.3784864E+04  0.7818609E-02  0.8049411E-01
       -2   -1    0    0    0  501  0.00000000000E+00  0.00000000000E+00  0.19826588914E+04  0.19826588914E+04  0.25500000920E-02 0. -1.
        2   -1    0    0  501    0  0.00000000000E+00  0.00000000000E+00 -0.18063114936E+04  0.18063114936E+04  0.25500000920E-02 0.  1.
    10030    2    1    2    0    0  0.00000000000E+00  0.00000000000E+00  0.17634739786E+03  0.37889703850E+04  0.37848643534E+04 0.  0.
        2    1    3    3  502    0  0.65718287166E+03  0.97621862714E+03 -0.13954622280E+04  0.18254333635E+04  0.25500000920E-02 0.  1.
       -2    1    3    3    0  502 -0.65718287166E+03 -0.97621862714E+03  0.15718096259E+04  0.19635370215E+04  0.25500000920E-02 0. -1.
</event>
<event>
 5   0  0.3701250E-08  0.3805384E+04  0.7818609E-02  0.8045001E-01
       -1   -1    0    0    0  501  0.00000000000E+00  0.00000000000E+00  0.32772830433E+04  0.32772830433E+04  0.50400001928E-02 0.  1.
        1   -1    0    0  501    0  0.00000000000E+00  0.00000000000E+00 -0.11046455038E+04  0.11046455038E+04  0.50400001928E-02 0. -1.
    10030    2    1    2    0    0  0.00000000000E+00  0.00000000000E+00  0.21726375396E+04  0.43819285471E+04  0.38053835435E+04 0.  0.
        3    1    3    3  502    0 -0.14074069973E+04  0.12803210667E+04  0.10692594090E+04  0.21825059413E+04  0.10100000352E+00 0. -1.
       -3    1    3    3    0  502  0.14074069973E+04 -0.12803210667E+04  0.11033781305E+04  0.21994226058E+04  0.10100000352E+00 0.  1.
</event>
<event>
 5   0  0.1150235E-07  0.3789486E+04  0.7818609E-02  0.8048415E-01
       -2   -1    0    0    0  501  0.00000000000E+00  0.00000000000E+00  0.18102340808E+04  0.18102340808E+04  0.25500000920E-02 0. -1.
        2   -1    0    0  501    0  0.00000000000E+00  0.00000000000E+00 -0.19831974052E+04  0.19831974052E+04  0.25500000920E-02 0.  1.
    10030    2    1    2    0    0  0.00000000000E+00  0.00000000000E+00 -0.17296332447E+03  0.37934314860E+04  0.37894862617E+04 0.  0.
        4    1    3    3  502    0  0.24440051010E+03  0.92304813239E+03  0.15517735380E+04  0.18220187129E+04  0.12699999809E+01 0. -1.
       -4    1    3    3    0  502 -0.24440051010E+03 -0.92304813239E+03 -0.17247368625E+04  0.19714127731E+04  0.12699999809E+01 0.  1.
</event>
<event>
 5   0  0.1174870E-07  0.3779610E+04  0.7818609E-02  0.8050545E-01
        2   -1    0    0  501    0  0.00000000000E+00  0.00000000000E+00  0.15985737275E+04  0.15985737275E+04  0.25500000920E-02 0.  1.
       -2   -1    0    0    0  501  0.00000000000E+00  0.00000000000E+00 -0.22340938399E+04  0.22340938399E+04  0.25500000920E-02 0. -1.
    10030    2    1    2    0    0  0.00000000000E+00  0.00000000000E+00 -0.63552011237E+03  0.38326675674E+04  0.37796104123E+04 0.  0.
        5    1    3    3  502    0 -0.92999253253E+03  0.12383922996E+04  0.78041988018E+03  0.17342372610E+04  0.46999998093E+01 0.  1.
       -5    1    3    3    0  502  0.92999253253E+03 -0.12383922996E+04 -0.14159399925E+04  0.20984303064E+04  0.46999998093E+01 0. -1.
</event>
<event>
 5   0  0.1143283E-07  0.3821728E+04  0.7818609E-02  0.8041508E-01
       -2   -1    0    0    0  501  0.00000000000E+00  0.00000000000E+00  0.15383247086E+04  0.15383247086E+04  0.25500000920E-02 0. -1.
        2   -1    0    0  501    0  0.00000000000E+00  0.00000000000E+00 -0.23736216657E+04  0.23736216657E+04  0.25500000920E-02 0.  1.
    10030    2    1    2    0    0  0.00000000000E+00  0.00000000000E+00 -0.83529695711E+03  0.39119463743E+04  0.38217278068E+04 0.  0.
        1    1    3    3  502    0  0.68715570346E+03 -0.85598461780E+03  0.11834073689E+04  0.16141083072E+04  0.50400001928E-02 0. -1.
       -1    1    3    3    0  502 -0.68715570346E+03  0.85598461780E+03 -0.20187043260E+04  0.22978380671E+04  0.50400001928E-02 0.  1.
</event>
<event>
 5   0  0.3701250E-08  0.3799416E+04  0.7818609E-02  0.8046280E-01
        1   -1    0    0  501    0  0.00000000000E+00  0.00000000000E+00  0.18676624827E+04  0.18676624828E+04  0.50400001928E-02 0.  1.
       -1   -1    0    0    0  501  0.00000000000E+00  0.00000000000E+00 -0.19323030906E+04  0.19323030906E+04  0.50400001928E-02 0. -1.
    10030    2    1    2    0    0  0.00000000000E+00  0.00000000000E+00 -0.64640607878E+02  0.37999655734E+04  0.37994157381E+04 0.  0.
        4    1    3    3  502    0  0.15221903792E+04  0.75793787744E+03 -0.87941099470E+03  0.19143925112E+04  0.12699999809E+01 0. -1.
       -4    1    3    3    0  502 -0.15221903792E+04 -0.75793787744E+03  0.81477038682E+03  0.18855730622E+04  0.12699999809E+01 0.  1.
</event>
<event>
 5   0  0.1150235E-07  0.3794260E+04  0.7818609E-02  0.8047388E-01
       -2   -1    0    0    0  501  0.00000000000E+00  0.00000000000E+00  0.18508157439E+04  0.18508157439E+04  0.25500000920E-02 0. -1.
        2   -1    0    0  501    0  0.00000000000E+00  0.00000000000E+00 -0.19446033902E+04  0.19446033902E+04  0.25500000920E-02 0.  1.
    10030    2    1    2    0    0  0.00000000000E+00  0.00000000000E+00 -0.93787646267E+02  0.37954191341E+04  0.37942601757E+04 0.  0.
        4    1    3    3  502    0 -0.17304931786E+03  0.14422125809E+04  0.11737976372E+04  0.18675453678E+04  0.12699999809E+01 0. -1.
       -4    1    3    3    0  502  0.17304931786E+03 -0.14422125809E+04 -0.12675852835E+04  0.19278737663E+04  0.12699999809E+01 0.  1.
</event>
<event>
 5   0  0.3701250E-08  0.3847650E+04  0.7818609E-02  0.8036006E-01
       -1   -1    0    0    0  501  0.00000000000E+00  0.00000000000E+00  0.18362028318E+04  0.18362028318E+04  0.50400001928E-02 0. -1.
        1   -1    0    0  501    0  0.00000000000E+00  0.00000000000E+00 -0.20156280539E+04  0.20156280539E+04  0.50400001928E-02 0.  1.
    10030    2    1    2    0    0  0.00000000000E+00  0.00000000000E+00 -0.17942522212E+03  0.38518308857E+04  0.38476496413E+04 0.  0.
        2    1    3    3  502    0 -0.13738394622E+04  0.96989565105E+02  0.12549745681E+04  0.18632774915E+04  0.25500000920E-02 0. -1.
       -2    1    3    3    0  502  0.13738394622E+04 -0.96989565105E+02 -0.14343997902E+04  0.19885533943E+04  0.25500000920E-02 0.  1.
</event>
<event>
 5   0  0.1143283E-07  0.3810440E+04  0.7818609E-02  0.8043918E-01
        2   -1    0    0  501    0  0.00000000000E+00  0.00000000000E+00  0.24447601019E+04  0.24447601019E+04  0.25500000920E-02 0.  1.
       -2   -1    0    0    0  501  0.00000000000E+00  0.00000000000E+00 -0.14847526188E+04  0.14847526188E+04  0.25500000920E-02 0. -1.
    10030    2    1    2    0    0  0.00000000000E+00  0.00000000000E+00  0.96000748303E+03  0.39295127207E+04  0.38104403754E+04 0.  0.
        1    1    3    3  502    0  0.77299321857E+03 -0.17111829189E+04  0.14711876867E+03  0.18834302297E+04  0.50400001928E-02 0. -1.
       -1    1    3    3    0  502 -0.77299321857E+03  0.17111829189E+04  0.81288871437E+03  0.20460824910E+04  0.50400001928E-02 0.  1.
</event>
<event>
 5   0  0.3701250E-08  0.3788043E+04  0.7818609E-02  0.8048726E-01
        1   -1    0    0  501    0  0.00000000000E+00  0.00000000000E+00  0.17547650635E+04  0.17547650635E+04  0.50400001928E-02 0.  1.
       -1   -1    0    0    0  501  0.00000000000E+00  0.00000000000E+00 -0.20443293450E+04  0.20443293450E+04  0.50400001928E-02 0. -1.
    10030    2    1    2    0    0  0.00000000000E+00  0.00000000000E+00 -0.28956428150E+03  0.37990944085E+04  0.37880431428E+04 0.  0.
        4    1    3    3  502    0 -0.16936233041E+04 -0.70729364211E+03 -0.61379151787E+03  0.19352947664E+04  0.12699999809E+01 0. -1.
       -4    1    3    3    0  502  0.16936233041E+04  0.70729364211E+03  0.32422723637E+03  0.18637996421E+04  0.12699999809E+01 0.  1.
</event>
<event>
 5   0  0.3701250E-08  0.3802837E+04  0.7818609E-02  0.8045546E-01
       -1   -1    0    0    0  501  0.00000000000E+00  0.00000000000E+00  0.17207074443E+04  0.17207074444E+04  0.50400001928E-02 0. -1.
        1   -1    0    0  501    0  0.00000000000E+00  0.00000000000E+00 -0.21011083150E+04  0.21011083150E+04  0.50400001928E-02 0.  1.
    10030    2    1    2    0    0  0.00000000000E+00  0.00000000000E+00 -0.38040087068E+03  0.38218157594E+04  0.38028372140E+04 0.  0.
        4    1    3    3  502    0  0.13148409132E+04 -0.13572377502E+04 -0.40218002035E+03  0.19320070702E+04  0.12699999809E+01 0.  1.
       -4    1    3    3    0  502 -0.13148409132E+04  0.13572377502E+04  0.21779149663E+02  0.18898086892E+04  0.12699999809E+01 0. -1.
</event>
<event>
 5   0  0.1143283E-07  0.3774836E+04  0.7818609E-02  0.8051577E-01
        2   -1    0    0  501    0  0.00000000000E+00  0.00000000000E+00  0.20481313986E+04  0.20481313986E+04  0.25500000920E-02 0.  1.
       -2   -1    0    0    0  501  0.00000000000E+00  0.00000000000E+00 -0.17393158774E+04  0.17393158774E+04  0.25500000920E-02 0. -1.
    10030    2    1    2    0    0  0.00000000000E+00  0.00000000000E+00  0.30881552119E+03  0.37874472761E+04  0.37748363995E+04 0.  0.
        1    1    3    3  502    0  0.52786829583E+03  0.10924676006E+04  0.16049960137E+04  0.20119996521E+04  0.50400001928E-02 0.  1.
       -1    1    3    3    0  502 -0.52786829583E+03 -0.10924676006E+04 -0.12961804925E+04  0.17754476239E+04  0.50400001928E-02 0. -1.
</event>
<event>
 5   0  0.1150235E-07  0.3792290E+04  0.7818609E-02  0.8047812E-01
       -2   -1    0    0    0  501  0.00000000000E+00  0.00000000000E+00  0.20886654579E+04  0.20886654579E+04  0.25500000920E-02 0. -1.
        2   -1    0    0  501    0  0.00000000000E+00  0.00000000000E+00 -0.17213695397E+04  0.17213695397E+04  0.25500000920E-02 0.  1.
    10030    2    1    2    0    0  0.00000000000E+00  0.00000000000E+00  0.36729591821E+03  0.38100349976E+04  0.37922895975E+04 0.  0.
        4    1    3    3  502    0  0.15086881302E+04 -0.66815679397E+03 -0.75495599252E+03  0.18145339730E+04  0.12699999809E+01 0.  1.
       -4    1    3    3    0  502 -0.15086881302E+04  0.66815679397E+03  0.11222519107E+04  0.19955010247E+04  0.12699999809E+01 0. -1.
</event>
<event>
 5   0  0.3889225E-08  0.3768698E+04  0.7818609E-02  0.8052906E-01
       -1   -1    0    0    0  501  0.00000000000E+00  0.00000000000E+00  0.16220538706E+04  0.16220538706E+04  0.50400001928E-02 0.  1.
        1   -1    0    0  501    0  0.00000000000E+00  0.00000000000E+00 -0.21890584242E+04  0.21890584242E+04  0.50400001928E-02 0. -1.
    10030    2    1    2    0    0  0.00000000000E+00  0.00000000000E+00 -0.56700455364E+03  0.38111122948E+04  0.37686977539E+04 0.  0.
        5    1    3    3  502    0  0.34417442484E+03  0.50426724635E+03  0.15192575389E+04  0.16373475654E+04  0.46999998093E+01 0.  1.
       -5    1    3    3    0  502 -0.34417442484E+03 -0.50426724635E+03 -0.20862620925E+04  0.21737647295E+04  0.46999998093E+01 0. -1.
</event>
<event>
 5   0  0.1150235E-07  0.3839733E+04  0.7818609E-02  0.8037682E-01
        2   -1    0    0  501    0  0.00000000000E+00  0.00000000000E+00  0.21042471428E+04  0.21042471428E+04  0.25500000920E-02 0.  1.
       -2   -1    0    0    0  501  0.00000000000E+00  0.00000000000E+00 -0.17516416746E+04  0.17516416746E+04  0.25500000920E-02 0. -1.
    10030    2    1    2    0    0  0.00000000000E+00  0.00000000000E+00  0.35260546821E+03  0.38558888175E+04  0.38397327975E+04 0.  0.
        4    1    3    3  502    0 -0.93884746903E+03 -0.79357796174E+03  0.16571888498E+04  0.20633654665E+04  0.12699999809E+01 0.  1.
       -4    1    3    3    0  502  0.93884746903E+03  0.79357796174E+03 -0.13045833816E+04  0.17925233510E+04  0.12699999809E+01 0. -1.
</event>
<event>
 5   0  0.1143283E-07  0.3812557E+04  0.7818609E-02  0.8043466E-01
        2   -1    0    0  501    0  0.00000000000E+00  0.00000000000E+00  0.16541385352E+04  0.16541385352E+04  0.25500000920E-02 0.  1.
       -2   -1    0    0    0  501  0.00000000000E+00  0.00000000000E+00 -0.21968522167E+04  0.21968522167E+04  0.25500000920E-02 0. -1.
    10030    2    1    2    0    0  0.00000000000E+00  0.00000000000E+00 -0.54271368150E+03  0.38509907519E+04  0.38125570988E+04 0.  0.
        1    1    3    3  502    0 -0.45319266894E+03  0.14391934638E+04 -0.14481059606E+04  0.20913326600E+04  0.50400001928E-02 0. -1.
       -1    1    3    3    0  502  0.45319266894E+03 -0.14391934638E+04  0.90539227910E+03  0.17596580920E+04  0.50400001928E-02 0.  1.
</event>
<event>
 5   0  0.3701250E-08  0.3817379E+04  0.7818609E-02  0.8042436E-01
       -1   -1    0    0    0  501  0.00000000000E+00  0.00000000000E+00  0.14808584436E+04  0.14808584436E+04  0.50400001928E-02 0. -1.
        1   -1    0    0  501    0  0.00000000000E+00  0.00000000000E+00 -0.24601245194E+04  0.24601245194E+04  0.50400001928E-02 0.  1.
    10030    2    1    2    0    0  0.00000000000E+00  0.00000000000E+00 -0.97926607583E+03  0.39409829630E+04  0.38173792931E+04 0.  0.
        4    1    3    3  502    0 -0.48833610714E+03 -0.18278905796E+04 -0.22960782854E+03  0.19058797161E+04  0.12699999809E+01 0. -1.
       -4    1    3    3    0  502  0.48833610714E+03  0.18278905796E+04 -0.74965824729E+03  0.20351032468E+04  0.12699999809E+01 0.  1.
</event>
<event>
 5   0  0.3701250E-08  0.3859842E+04  0.7818609E-02  0.8033433E-01
       -1   -1    0    0    0  501  0.00000000000E+00  0.00000000000E+00  0.26826982912E+04  0.26826982912E+04  0.50400001928E-02 0. -1.
        1   -1    0    0  501    0  0.00000000000E+00  0.00000000000E+00 -0.13883766825E+04  0.13883766825E+04  0.50400001928E-02 0.  1.
    10030    2    1    2    0    0  0.00000000000E+00  0.00000000000E+00  0.12943216087E+04  0.40710749736E+04  0.38598423562E+04 0.  0.
        4    1    3    3  502    0  0.10068513052E+04 -0.12768061366E+04  0.17435737647E+04  0.23841213365E+04  0.12699999809E+01 0. -1.
       -4    1    3    3    0  502 -0.10068513052E+04  0.12768061366E+04 -0.44925215604E+03  0.16869536371E+04  0.12699999809E+01 0.  1.
</event>
<event>
 5   0  0.3701250E-08  0.3802088E+04  0.7818609E-02  0.8045707E-01
       -1   -1    0    0    0  501  0.00000000000E+00  0.00000000000E+00  0.21371347785E+04  0.21371347785E+04  0.50400001928E-02 0. -1.
        1   -1    0    0  501    0  0.00000000000E+00  0.00000000000E+00 -0.16910342454E+04  0.16910342454E+04  0.50400001928E-02 0.  1.
    10030    2    1    2    0    0  0.00000000000E+00  0.00000000000E+00  0.44610053301E+03  0.38281690239E+04  0.38020878988E+04 0.  0.
        1    1    3    3  502    0  0.50237994002E+03 -0.31928589375E+03 -0.15947815706E+04  0.17022506701E+04  0.50400001928E-02 0.  1.
       -1    1    3    3    0  502 -0.50237994002E+03  0.31928589375E+03  0.20408821036E+04  0.21259183538E+04  0.50400001928E-02 0. -1.
</event>
<event>
 5   0  0.3701250E-08  0.3766496E+04  0.7818609E-02  0.8053383E-01
       -1   -1    0    0    0  501  0.00000000000E+00  0.00000000000E+00  0.12459597236E+04  0.12459597236E+04  0.50400001928E-02 0. -1.
        1   -1    0    0  501    0  0.00000000000E+00  0.00000000000E+00 -0.28464992037E+04  0.28464992037E+04  0.50400001928E-02 0.  1.
    10030    2    1    2    0    0  0.00000000000E+00  0.00000000000E+00 -0.16005394801E+04  0.40924589273E+04  0.37664961760E+04 0.  0.
        3    1    3    3  502    0  0.10862603242E+04 -0.10729750477E+04  0.39758453121E+03  0.15777548652E+04  0.10100000352E+00 0. -1.
       -3    1    3    3    0  502 -0.10862603242E+04  0.10729750477E+04 -0.19981240113E+04  0.25147040621E+04  0.10100000352E+00 0.  1.
</event>
<event>
 5   0  0.3701250E-08  0.3812239E+04  0.7818609E-02  0.8043533E-01
        3   -1    0    0  501    0  0.00000000000E+00  0.00000000000E+00  0.23997020848E+04  0.23997020869E+04  0.10100000352E+00 0. -1.
       -3   -1    0    0    0  501  0.00000000000E+00  0.00000000000E+00 -0.15140595727E+04  0.15140595761E+04  0.10100000352E+00 0.  1.
    10030    2    1    2    0    0  0.00000000000E+00  0.00000000000E+00  0.88564251208E+03  0.39137616630E+04  0.38122391971E+04 0.  0.
        3    1    3    3  502    0  0.20322278125E+01 -0.17570045713E+04  0.12015719701E+04  0.21285780237E+04  0.10100000352E+00 0. -1.
       -3    1    3    3    0  502 -0.20322278125E+01  0.17570045713E+04 -0.31592945803E+03  0.17851836393E+04  0.10100000352E+00 0.  1.
</event>
<event>
 5   0  0.3701250E-08  0.3790833E+04  0.7818609E-02  0.8048125E-01
       -1   -1    0    0    0  501  0.00000000000E+00  0.00000000000E+00  0.10431522325E+04  0.10431522325E+04  0.50400001928E-02 0.  1.
        1   -1    0    0  501    0  0.00000000000E+00  0.00000000000E+00 -0.34439874104E+04  0.34439874104E+04  0.50400001928E-02 0. -1.
    10030    2    1    2    0    0  0.00000000000E+00  0.00000000000E+00 -0.24008351779E+04  0.44871396429E+04  0.37908327084E+04 0.  0.
        3    1    3    3  502    0  0.65866113583E+03  0.67654041412E+03 -0.31457876160E+04  0.32844362010E+04  0.10100000352E+00 0. -1.
       -3    1    3    3    0  502 -0.65866113583E+03 -0.67654041412E+03  0.74495243809E+03  0.12027034418E+04  0.10100000352E+00 0.  1.
</event>
<event>
 5   0  0.1150235E-07  0.3742965E+04  0.7818609E-02  0.8058506E-01
        2   -1    0    0  501    0  0.00000000000E+00  0.00000000000E+00  0.14499663605E+04  0.14499663605E+04  0.25500000920E-02 0. -1.
       -2   -1    0    0    0  501  0.00000000000E+00  0.00000000000E+00 -0.24155369906E+04  0.24155369906E+04  0.25500000920E-02 0.  1.
    10030    2    1    2    0    0  0.00000000000E+00  0.00000000000E+00 -0.96557063006E+03  0.38655033511E+04  0.37429653372E+04 0.  0.
        4    1    3    3  502    0 -0.65618255069E+03 -0.42018458999E+03 -0.22400539977E+04  0.23717027965E+04  0.12699999809E+01 0.  1.
       -4    1    3    3    0  502  0.65618255069E+03  0.42018458999E+03  0.12744833676E+04  0.14938005546E+04  0.12699999809E+01 0. -1.
</event>
<event>
 5   0  0.1143283E-07  0.3736320E+04  0.7818609E-02  0.8059960E-01
       -2   -1    0    0    0  501  0.00000000000E+00  0.00000000000E+00  0.28964473321E+04  0.28964473321E+04  0.25500000920E-02 0.  1.
        2   -1    0    0  501    0  0.00000000000E+00  0.00000000000E+00 -0.12049317678E+04  0.12049317678E+04  0.25500000920E-02 0. -1.
    10030    2    1    2    0    0  0.00000000000E+00  0.00000000000E+00  0.16915155643E+04  0.41013790999E+04  0.37363197958E+04 0.  0.
        1    1    3    3  502    0  0.99239242098E+03 -0.15714312392E+04  0.63811277106E+03  0.19650513391E+04  0.50400001928E-02 0. -1.
       -1    1    3    3    0  502 -0.99239242098E+03  0.15714312392E+04  0.10534027933E+04  0.21363277608E+04  0.50400001928E-02 0.  1.
</event>
<event>
 5   0  0.3701250E-08  0.3793157E+04  0.7818609E-02  0.8047625E-01
       -1   -1    0    0    0  501  0.00000000000E+00  0.00000000000E+00  0.15896336332E+04  0.15896336332E+04  0.50400001928E-02 0.  1.
        1   -1    0    0  501    0  0.00000000000E+00  0.00000000000E+00 -0.22627912952E+04  0.22627912952E+04  0.50400001928E-02 0. -1.
    10030    2    1    2    0    0  0.00000000000E+00  0.00000000000E+00 -0.67315766199E+03  0.38524249284E+04  0.37931565472E+04 0.  0.
        2    1    3    3  502    0 -0.20863980483E+03  0.16610498398E+03 -0.22436533191E+04  0.22594472001E+04  0.25500000920E-02 0. -1.
       -2    1    3    3    0  502  0.20863980483E+03 -0.16610498398E+03  0.15704956571E+04  0.15929777283E+04  0.25500000920E-02 0.  1.
</event>
<event>
 5   0  0.1193861E-07  0.3791915E+04  0.7818609E-02  0.8047892E-01
       -2   -1    0    0    0  501  0.00000000000E+00  0.00000000000E+00  0.19664753281E+04  0.19664753281E+04  0.25500000920E-02 0. -1.
        2   -1    0    0  501    0  0.00000000000E+00  0.00000000000E+00 -0.18279688566E+04  0.18279688567E+04  0.25500000920E-02 0.  1.
    10030    2    1    2    0    0  0.00000000000E+00  0.00000000000E+00  0.13850647149E+03  0.37944441848E+04  0.37919154301E+04 0.  0.
        3    1    3    3  502    0 -0.36616097221E+03  0.17724969788E+04  0.63428566192E+03  0.19178471547E+04  0.10100000352E+00 0. -1.
       -3    1    3    3    0  502  0.36616097221E+03 -0.17724969788E+04 -0.49577919043E+03  0.18765970301E+04  0.10100000352E+00 0.  1.
</event>
<event>
 5   0  0.3701250E-08  0.3802167E+04  0.7818609E-02  0.8045690E-01
       -1   -1    0    0    0  501  0.00000000000E+00  0.00000000000E+00  0.14130701259E+04  0.14130701260E+04  0.50400001928E-02 0.  1.
        1   -1    0    0  501    0  0.00000000000E+00  0.00000000000E+00 -0.25576354685E+04  0.25576354685E+04  0.50400001928E-02 0. -1.
    10030    2    1    2    0    0  0.00000000000E+00  0.00000000000E+00 -0.11445653426E+04  0.39707055945E+04  0.38021668946E+04 0.  0.
        2    1    3    3  502    0  0.69678210257E+03 -0.12046310725E+04  0.78030303254E+03  0.15954667474E+04  0.25500000920E-02 0.  1.
       -2    1    3    3    0  502 -0.69678210257E+03  0.12046310725E+04 -0.19248683751E+04  0.23752388471E+04  0.25500000920E-02 0. -1.
</event>
<event>
 5   0  0.7858367E-08  0.3687192E+04  0.7818609E-02  0.8070806E-01
       -2   -1    0    0    0  501  0.00000000000E+00  0.00000000000E+00  0.22756131724E+04  0.22756131724E+04  0.25500000920E-02 0. -1.
        2   -1    0    0  501    0  0.00000000000E+00  0.00000000000E+00 -0.14935956943E+04  0.14935956943E+04  0.25500000920E-02 0.  1.
    10030    2    1    2    0    0  0.00000000000E+00  0.00000000000E+00  0.78201747811E+03  0.37692088668E+04  0.36871919051E+04 0.  0.
        2    1    3    3  502    0 -0.27098064507E+03 -0.18051952470E+04  0.12702896929E+03  0.18298351698E+04  0.25500000920E-02 0. -1.
       -2    1    3    3    0  502  0.27098064507E+03  0.18051952470E+04  0.65498850881E+03  0.19393736969E+04  0.25500000920E-02 0.  1.
</event>
<event>
 5   0  0.1143283E-07  0.3803266E+04  0.7818609E-02  0.8045454E-01
        2   -1    0    0  501    0  0.00000000000E+00  0.00000000000E+00  0.14966995799E+04  0.14966995799E+04  0.25500000920E-02 0.  1.
       -2   -1    0    0    0  501  0.00000000000E+00  0.00000000000E+00 -0.24161216240E+04  0.24161216240E+04  0.25500000920E-02 0. -1.
    10030    2    1    2    0    0  0.00000000000E+00  0.00000000000E+00 -0.91942204415E+03  0.39128212039E+04  0.38032660804E+04 0.  0.
        1    1    3    3  502    0  0.88673429010E+03 -0.12527110737E+04  0.69540693236E+03  0.16849847290E+04  0.50400001928E-02 0.  1.
       -1    1    3    3    0  502 -0.88673429010E+03  0.12527110737E+04 -0.16148289765E+04  0.22278364749E+04  0.50400001928E-02 0. -1.
</event>
<event>
 5   0  0.3889225E-08  0.3795515E+04  0.7818609E-02  0.8047118E-01
        1   -1    0    0  501    0  0.00000000000E+00  0.00000000000E+00  0.21435811875E+04  0.21435811875E+04  0.50400001928E-02 0. -1.
       -1   -1    0    0    0  501  0.00000000000E+00  0.00000000000E+00 -0.16801244500E+04  0.16801244501E+04  0.50400001928E-02 0.  1.
    10030    2    1    2    0    0  0.00000000000E+00  0.00000000000E+00  0.46345673746E+03  0.38237056376E+04  0.37955148077E+04 0.  0.
        5    1    3    3  502    0  0.76873226882E+02  0.42336866425E+03 -0.16303263222E+04  0.16861602907E+04  0.46999998093E+01 0.  1.
       -5    1    3    3    0  502 -0.76873226882E+02 -0.42336866425E+03  0.20937830597E+04  0.21375453469E+04  0.46999998093E+01 0. -1.
</event>
<event>
 5   0  0.1150235E-07  0.3734607E+04  0.7818609E-02  0.8060335E-01
        2   -1    0    0  501    0  0.00000000000E+00  0.00000000000E+00  0.14815834002E+04  0.14815834002E+04  0.25500000920E-02 0.  1.
       -2   -1    0    0    0  501  0.00000000000E+00  0.00000000000E+00 -0.23534433417E+04  0.23534433417E+04  0.25500000920E-02 0. -1.
    10030    2    1    2    0    0  0.00000000000E+00  0.00000000000E+00 -0.87185994153E+03  0.38350267419E+04  0.37346071217E+04 0.  0.
        4    1    3    3  502    0  0.11545418750E+04 -0.72924227412E+03 -0.17437768432E+04  0.22148409711E+04  0.12699999809E+01 0. -1.
       -4    1    3    3    0  502 -0.11545418750E+04  0.72924227412E+03  0.87191690171E+03  0.16201857708E+04  0.12699999809E+01 0.  1.
</event>
<event>
 5   0  0.1150235E-07  0.3797005E+04  0.7818609E-02  0.8046798E-01
        2   -1    0    0  501    0  0.00000000000E+00  0.00000000000E+00  0.17481416145E+04  0.17481416145E+04  0.25500000920E-02 0.  1.
       -2   -1    0    0    0  501  0.00000000000E+00  0.00000000000E+00 -0.20617966735E+04  0.20617966735E+04  0.25500000920E-02 0. -1.
    10030    2    1    2    0    0  0.00000000000E+00  0.00000000000E+00 -0.31365505905E+03  0.38099382881E+04  0.37970054336E+04 0.  0.
        4    1    3    3  502    0  0.13073334874E+04 -0.11252128638E+04 -0.95267854164E+03  0.19704879733E+04  0.12699999809E+01 0. -1.
       -4    1    3    3    0  502 -0.13073334874E+04  0.11252128638E+04  0.63902348260E+03  0.18394503148E+04  0.12699999809E+01 0.  1.
</event>
<event>
 5   0  0.3889225E-08  0.3810462E+04  0.7818609E-02  0.8043914E-01
        1   -1    0    0  501    0  0.00000000000E+00  0.00000000000E+00  0.18852949756E+04  0.18852949756E+04  0.50400001928E-02 0. -1.
       -1   -1    0    0    0  501  0.00000000000E+00  0.00000000000E+00 -0.19253774423E+04  0.19253774424E+04  0.50400001928E-02 0.  1.
    10030    2    1    2    0    0  0.00000000000E+00  0.00000000000E+00 -0.40082466791E+02  0.38106724179E+04  0.38104616088E+04 0.  0.
        5    1    3    3  502    0  0.42788078713E+03  0.14902722080E+04  0.10872187865E+04  0.18936895209E+04  0.46999998093E+01 0.  1.
       -5    1    3    3    0  502 -0.42788078713E+03 -0.14902722080E+04 -0.11273012533E+04  0.19169828970E+04  0.46999998093E+01 0. -1.
</event>
<event>
 5   0  0.3701250E-08  0.3799867E+04  0.7818609E-02  0.8046183E-01
        1   -1    0    0  501    0  0.00000000000E+00  0.00000000000E+00  0.14183002875E+04  0.14183002876E+04  0.50400001928E-02 0.  1.
       -1   -1    0    0    0  501  0.00000000000E+00  0.00000000000E+00 -0.25451219840E+04  0.25451219841E+04  0.50400001928E-02 0. -1.
    10030    2    1    2    0    0  0.00000000000E+00  0.00000000000E+00 -0.11268216965E+04  0.39634222716E+04  0.37998669671E+04 0.  0.
        2    1    3    3  502    0 -0.69047068300E+03 -0.14942362343E+04 -0.15530682060E+04  0.22630759025E+04  0.25500000920E-02 0. -1.
       -2    1    3    3    0  502  0.69047068300E+03  0.14942362343E+04  0.42624650953E+03  0.17003463691E+04  0.25500000920E-02 0.  1.
</event>
<event>
 5   0  0.3889225E-08  0.3720805E+04  0.7818609E-02  0.8063367E-01
       -1   -1    0    0    0  501  0.00000000000E+00  0.00000000000E+00  0.15887162859E+04  0.15887162860E+04  0.50400001928E-02 0.  1.
        1   -1    0    0  501    0  0.00000000000E+00  0.00000000000E+00 -0.21785500106E+04  0.21785500106E+04  0.50400001928E-02 0. -1.
    10030    2    1    2    0    0  0.00000000000E+00  0.00000000000E+00 -0.58983372463E+03  0.37672662965E+04  0.37208052255E+04 0.  0.
        5    1    3    3  502    0  0.16043501596E+03 -0.17461642563E+04 -0.92416483315E+03  0.19821533072E+04  0.46999998093E+01 0. -1.
       -5    1    3    3    0  502 -0.16043501596E+03  0.17461642563E+04  0.33433110852E+03  0.17851129893E+04  0.46999998093E+01 0.  1.
</event>
<event>
 5   0  0.1143283E-07  0.3776990E+04  0.7818609E-02  0.8051111E-01
        2   -1    0    0  501    0  0.00000000000E+00  0.00000000000E+00  0.18779906041E+04  0.18779906041E+04  0.25500000920E-02 0. -1.
       -2   -1    0    0    0  501  0.00000000000E+00  0.00000000000E+00 -0.18990579875E+04  0.18990579875E+04  0.25500000920E-02 0.  1.
    10030    2    1    2    0    0  0.00000000000E+00  0.00000000000E+00 -0.21067383482E+02  0.37770485916E+04  0.37769898370E+04 0.  0.
        1    1    3    3  502    0  0.58107229447E+03  0.45492587867E+03  0.17278289015E+04  0.18788281665E+04  0.50400001928E-02 0. -1.
       -1    1    3    3    0  502 -0.58107229447E+03 -0.45492587867E+03 -0.17488962850E+04  0.18982204251E+04  0.50400001928E-02 0.  1.
</event>
<event>
 5   0  0.7858367E-08  0.3791470E+04  0.7818609E-02  0.8047988E-01
       -2   -1    0    0    0  501  0.00000000000E+00  0.00000000000E+00  0.20626617203E+04  0.20626617203E+04  0.25500000920E-02 0. -1.
        2   -1    0    0  501    0  0.00000000000E+00  0.00000000000E+00 -0.17423169554E+04  0.17423169554E+04  0.25500000920E-02 0.  1.
    10030    2    1    2    0    0  0.00000000000E+00  0.00000000000E+00  0.32034476492E+03  0.38049786757E+04  0.37914696299E+04 0.  0.
        2    1    3    3  502    0  0.98659629185E+03 -0.16125161506E+04  0.30291104225E+03  0.19145066411E+04  0.25500000920E-02 0.  1.
       -2    1    3    3    0  502 -0.98659629185E+03  0.16125161506E+04  0.17433722668E+02  0.18904720347E+04  0.25500000920E-02 0. -1.
</event>
<event>
 5   0  0.1193861E-07  0.3822424E+04  0.7818609E-02  0.8041360E-01
        2   -1    0    0  501    0  0.00000000000E+00  0.00000000000E+00  0.22494514350E+04  0.22494514350E+04  0.25500000920E-02 0. -1.
       -2   -1    0    0    0  501  0.00000000000E+00  0.00000000000E+00 -0.16238317229E+04  0.16238317229E+04  0.25500000920E-02 0.  1.
    10030    2    1    2    0    0  0.00000000000E+00  0.00000000000E+00  0.62561971212E+03  0.38732831579E+04  0.38224236286E+04 0.  0.
        3    1    3    3  502    0 -0.18785079824E+04 -0.31481233103E+03  0.47248683387E+03  0.19624328936E+04  0.10100000352E+00 0.  1.
       -3    1    3    3    0  502  0.18785079824E+04  0.31481233103E+03  0.15313287826E+03  0.19108502642E+04  0.10100000352E+00 0. -1.
</event>
<event>
 5   0  0.3701250E-08  0.3793652E+04  0.7818609E-02  0.8047519E-01
        1   -1    0    0  501    0  0.00000000000E+00  0.00000000000E+00  0.10943799655E+04  0.10943799655E+04  0.50400001928E-02 0. -1.
       -1   -1    0    0    0  501  0.00000000000E+00  0.00000000000E+00 -0.32876592906E+04  0.32876592906E+04  0.50400001928E-02 0.  1.
    10030    2    1    2    0    0  0.00000000000E+00  0.00000000000E+00 -0.21932793252E+04  0.43820392561E+04  0.37936517821E+04 0.  0.
        4    1    3    3  502    0 -0.16674437557E+04 -0.65828198751E+03 -0.18126540985E+04  0.25493960750E+04  0.12699999809E+01 0.  1.
       -4    1    3    3    0  502  0.16674437557E+04  0.65828198751E+03 -0.38062522667E+03  0.18326431812E+04  0.12699999809E+01 0. -1.
</event>
<event>
 5   0  0.3701250E-08  0.3739121E+04  0.7818609E-02  0.8059347E-01
       -1   -1    0    0    0  501  0.00000000000E+00  0.00000000000E+00  0.19809413962E+04  0.19809413962E+04  0.50400001928E-02 0. -1.
        1   -1    0    0  501    0  0.00000000000E+00  0.00000000000E+00 -0.17644425017E+04  0.17644425017E+04  0.50400001928E-02 0.  1.
    10030    2    1    2    0    0  0.00000000000E+00  0.00000000000E+00  0.21649889452E+03  0.37453838980E+04  0.37391213904E+04 0.  0.
        1    1    3    3  502    0 -0.48421051241E+03 -0.74941536634E+03  0.17539174071E+04  0.19678184577E+04  0.50400001928E-02 0. -1.
       -1    1    3    3    0  502  0.48421051241E+03  0.74941536634E+03 -0.15374185126E+04  0.17775654403E+04  0.50400001928E-02 0.  1.
</event>
<event>
 5   0  0.7858367E-08  0.3797665E+04  0.7818609E-02  0.8046656E-01
       -2   -1    0    0    0  501  0.00000000000E+00  0.00000000000E+00  0.26952460164E+04  0.26952460164E+04  0.25500000920E-02 0. -1.
        2   -1    0    0  501    0  0.00000000000E+00  0.00000000000E+00 -0.13377501163E+04  0.13377501163E+04  0.25500000920E-02 0.  1.
    10030    2    1    2    0    0  0.00000000000E+00  0.00000000000E+00  0.13574959001E+04  0.40329961327E+04  0.37976654259E+04 0.  0.
        2    1    3    3  502    0 -0.11971479781E+04  0.48808275614E+03 -0.79817990351E+03  0.15193680320E+04  0.25500000920E-02 0.  1.
       -2    1    3    3    0  502  0.11971479781E+04 -0.48808275614E+03  0.21556758036E+04  0.25136281007E+04  0.25500000920E-02 0. -1.
</event>
<event>
 5   0  0.3889225E-08  0.3813048E+04  0.7818609E-02  0.8043361E-01
        1   -1    0    0  501    0  0.00000000000E+00  0.00000000000E+00  0.12373763705E+04  0.12373763705E+04  0.50400001928E-02 0. -1.
       -1   -1    0    0    0  501  0.00000000000E+00  0.00000000000E+00 -0.29375335130E+04  0.29375335130E+04  0.50400001928E-02 0.  1.
    10030    2    1    2    0    0  0.00000000000E+00  0.00000000000E+00 -0.17001571425E+04  0.41749098835E+04  0.38130484165E+04 0.  0.
        5    1    3    3  502    0 -0.10974721595E+04 -0.72578598650E+03  0.66056798545E+03  0.14722712361E+04  0.46999998093E+01 0. -1.
       -5    1    3    3    0  502  0.10974721595E+04  0.72578598650E+03 -0.23607251280E+04  0.27026386475E+04  0.46999998093E+01 0.  1.
</event>
<event>
 5   0  0.3701250E-08  0.3815072E+04  0.7818609E-02  0.8042928E-01
        1   -1    0    0  501    0  0.00000000000E+00  0.00000000000E+00  0.20020028654E+04  0.20020028654E+04  0.50400001928E-02 0.  1.
       -1   -1    0    0    0  501  0.00000000000E+00  0.00000000000E+00 -0.18175266610E+04  0.18175266610E+04  0.50400001928E-02 0. -1.
    10030    2    1    2    0    0  0.00000000000E+00  0.00000000000E+00  0.18447620437E+03  0.38195295264E+04  0.38150719958E+04 0.  0.
        4    1    3    3  502    0  0.16285278069E+04  0.36575235696E+03  0.10167965843E+04  0.19544192261E+04  0.12699999809E+01 0.  1.
       -4    1    3    3    0  502 -0.16285278069E+04 -0.36575235696E+03 -0.83232037995E+03  0.18651103003E+04  0.12699999809E+01 0. -1.
</event>
<event>
 5   0  0.7858367E-08  0.3796083E+04  0.7818609E-02  0.8046996E-01
       -2   -1    0    0    0  501  0.00000000000E+00  0.00000000000E+00  0.26008818238E+04  0.26008818238E+04  0.25500000920E-02 0.  1.
        2   -1    0    0  501    0  0.00000000000E+00  0.00000000000E+00 -0.13851307553E+04  0.13851307553E+04  0.25500000920E-02 0. -1.
    10030    2    1    2    0    0  0.00000000000E+00  0.00000000000E+00  0.12157510685E+04  0.39860125792E+04  0.37960829312E+04 0.  0.
        2    1    3    3  502    0 -0.70064606671E+03  0.16987107331E+04  0.11070978924E+04  0.21452712670E+04  0.25500000920E-02 0.  1.
       -2    1    3    3    0  502  0.70064606671E+03 -0.16987107331E+04  0.10865317608E+03  0.18407413122E+04  0.25500000920E-02 0. -1.
</event>
<event>
 5   0  0.3889225E-08  0.3808235E+04  0.7818609E-02  0.8044390E-01
       -1   -1    0    0    0  501  0.00000000000E+00  0.00000000000E+00  0.21693405260E+04  0.21693405260E+04  0.50400001928E-02 0.  1.
        1   -1    0    0  501    0  0.00000000000E+00  0.00000000000E+00 -0.16713204324E+04  0.16713204324E+04  0.50400001928E-02 0. -1.
    10030    2    1    2    0    0  0.00000000000E+00  0.00000000000E+00  0.49802009366E+03  0.38406609584E+04  0.38082348383E+04 0.  0.
        5    1    3    3  502    0  0.15328006275E+04  0.11250301665E+04  0.14581372149E+03  0.19069489691E+04  0.46999998093E+01 0. -1.
       -5    1    3    3    0  502 -0.15328006275E+04 -0.11250301665E+04  0.35220637216E+03  0.19337119894E+04  0.46999998093E+01 0.  1.
</event>
<event>
 5   0  0.1193861E-07  0.3784701E+04  0.7818609E-02  0.8049446E-01
       -2   -1    0    0    0  501  0.00000000000E+00  0.00000000000E+00  0.15703551186E+04  0.15703551186E+04  0.25500000920E-02 0. -1.
        2   -1    0    0  501    0  0.00000000000E+00  0.00000000000E+00 -0.22803701004E+04  0.22803701004E+04  0.25500000920E-02 0.  1.
    10030    2    1    2    0    0  0.00000000000E+00  0.00000000000E+00 -0.71001498172E+03  0.38507252190E+04  0.37847012350E+04 0.  0.
        3    1    3    3  502    0 -0.46434897636E+03  0.15318122763E+04 -0.13820334074E+04  0.21147305197E+04  0.10100000352E+00 0.  1.
       -3    1    3    3    0  502  0.46434897636E+03 -0.15318122763E+04  0.67201842565E+03  0.17359946993E+04  0.10100000352E+00 0. -1.
</event>
<event>
 5   0  0.1143283E-07  0.3814890E+04  0.7818609E-02  0.8042967E-01
       -2   -1    0    0    0  501  0.00000000000E+00  0.00000000000E+00  0.13814890194E+04  0.13814890194E+04  0.25500000920E-02 0.  1.
        2   -1    0    0  501    0  0.00000000000E+00  0.00000000000E+00 -0.26336407014E+04  0.26336407014E+04  0.25500000920E-02 0. -1.
    10030    2    1    2    0    0  0.00000000000E+00  0.00000000000E+00 -0.12521516820E+04  0.40151297208E+04  0.38148896235E+04 0.  0.
        1    1    3    3  502    0 -0.83564752741E+03  0.80188003847E+03  0.96907106066E+03  0.15101049986E+04  0.50400001928E-02 0.  1.
       -1    1    3    3    0  502  0.83564752741E+03 -0.80188003847E+03 -0.22212227426E+04  0.25050247222E+04  0.50400001928E-02 0. -1.
</event>
<event>
 5   0  0.3701250E-08  0.3802027E+04  0.7818609E-02  0.8045720E-01
        1   -1    0    0  501    0  0.00000000000E+00  0.00000000000E+00  0.19384690481E+04  0.19384690481E+04  0.50400001928E-02 0. -1.
       -1   -1    0    0    0  501  0.00000000000E+00  0.00000000000E+00 -0.18642821198E+04  0.18642821198E+04  0.50400001928E-02 0.  1.
    10030    2    1    2    0    0  0.00000000000E+00  0.00000000000E+00  0.74186928360E+02  0.38027511679E+04  0.38020274519E+04 0.  0.
        1    1    3    3  502    0  0.98381065430E+03 -0.62474383841E+03  0.15392664677E+04  0.19306811041E+04  0.50400001928E-02 0. -1.
       -1    1    3    3    0  502 -0.98381065430E+03  0.62474383841E+03 -0.14650795394E+04  0.18720700638E+04  0.50400001928E-02 0.  1.
</event>
<event>
 5   0  0.3701250E-08  0.3799368E+04  0.7818609E-02  0.8046290E-01
        3   -1    0    0  501    0  0.00000000000E+00  0.00000000000E+00  0.21990877745E+04  0.21990877769E+04  0.10100000352E+00 0.  1.
       -3   -1    0    0    0  501  0.00000000000E+00  0.00000000000E+00 -0.16410439824E+04  0.16410439855E+04  0.10100000352E+00 0. -1.
    10030    2    1    2    0    0  0.00000000000E+00  0.00000000000E+00  0.55804379215E+03  0.38401317624E+04  0.37993682473E+04 0.  0.
        5    1    3    3  502    0 -0.49556595075E+03 -0.17381568688E+04  0.87010636413E+03  0.20059616364E+04  0.46999998093E+01 0. -1.
       -5    1    3    3    0  502  0.49556595075E+03  0.17381568688E+04 -0.31206257199E+03  0.18341701259E+04  0.46999998093E+01 0.  1.
</event>
<event>
 5   0  0.3701250E-08  0.3795465E+04  0.7818609E-02  0.8047129E-01
        1   -1    0    0  501    0  0.00000000000E+00  0.00000000000E+00  0.11493980088E+04  0.11493980088E+04  0.50400001928E-02 0. -1.
       -1   -1    0    0    0  501  0.00000000000E+00  0.00000000000E+00 -0.31332821010E+04  0.31332821010E+04  0.50400001928E-02 0.  1.
    10030    2    1    2    0    0  0.00000000000E+00  0.00000000000E+00 -0.19838840923E+04  0.42826801098E+04  0.37954647715E+04 0.  0.
        2    1    3    3  502    0  0.10112301040E+04  0.13897534500E+04 -0.18998310099E+04  0.25619053146E+04  0.25500000920E-02 0.  1.
       -2    1    3    3    0  502 -0.10112301040E+04 -0.13897534500E+04 -0.84053082368E+02  0.17207747952E+04  0.25500000920E-02 0. -1.
</event>
<event>
 5   0  0.3701250E-08  0.3807990E+04  0.7818609E-02  0.8044443E-01
        1   -1    0    0  501    0  0.00000000000E+00  0.00000000000E+00  0.24459715873E+04  0.24459715873E+04  0.50400001928E-02 0. -1.
       -1   -1    0    0    0  501  0.00000000000E+00  0.00000000000E+00 -0.14821088849E+04  0.14821088849E+04  0.50400001928E-02 0.  1.
    10030    2    1    2    0    0  0.00000000000E+00  0.00000000000E+00  0.96386270236E+03  0.39280804723E+04  0.38079896123E+04 0.  0.
        4    1    3    3  502    0 -0.16146113684E+04  0.22738259346E+02  0.15225608999E+04  0.22193873493E+04  0.12699999809E+01 0. -1.
       -4    1    3    3    0  502  0.16146113684E+04 -0.22738259346E+02 -0.55869819754E+03  0.17086931229E+04  0.12699999809E+01 0.  1.
</event>
<event>
 5   0  0.3701250E-08  0.3811475E+04  0.7818609E-02  0.8043697E-01
        1   -1    0    0  501    0  0.00000000000E+00  0.00000000000E+00  0.20614958384E+04  0.20614958384E+04  0.50400001928E-02 0.  1.
       -1   -1    0    0    0  501  0.00000000000E+00  0.00000000000E+00 -0.17617476496E+04  0.17617476496E+04  0.50400001928E-02 0. -1.
    10030    2    1    2    0    0  0.00000000000E+00  0.00000000000E+00  0.29974818880E+03  0.38232434880E+04  0.38114750152E+04 0.  0.
        2    1    3    3  502    0 -0.16643541144E+03  0.24043135163E+02  0.20540389964E+04  0.20609112105E+04  0.25500000920E-02 0.  1.
       -2    1    3    3    0  502  0.16643541144E+03 -0.24043135163E+02 -0.17542908076E+04  0.17623322775E+04  0.25500000920E-02 0. -1.
</event>
<event>
 5   0  0.3701250E-08  0.3812995E+04  0.7818609E-02  0.8043372E-01
        1   -1    0    0  501    0  0.00000000000E+00  0.00000000000E+00  0.24495905215E+04  0.24495905215E+04  0.50400001928E-02 0.  1.
       -1   -1    0    0    0  501  0.00000000000E+00  0.00000000000E+00 -0.14838125091E+04  0.14838125091E+04  0.50400001928E-02 0. -1.
    10030    2    1    2    0    0  0.00000000000E+00  0.00000000000E+00  0.96577801240E+03  0.39334030307E+04  0.38129951787E+04 0.  0.
        1    1    3    3  502    0 -0.26138981238E+03  0.17318105880E+03  0.24228094108E+04  0.24430148903E+04  0.50400001928E-02 0.  1.
       -1    1    3    3    0  502  0.26138981238E+03 -0.17318105880E+03 -0.14570313984E+04  0.14903881404E+04  0.50400001928E-02 0. -1.
</event>
<event>
 5   0  0.1193861E-07  0.3837975E+04  0.7818609E-02  0.8038054E-01
        2   -1    0    0  501    0  0.00000000000E+00  0.00000000000E+00  0.25137734571E+04  0.25137734571E+04  0.25500000920E-02 0. -1.
       -2   -1    0    0    0  501  0.00000000000E+00  0.00000000000E+00 -0.14649341931E+04  0.14649341931E+04  0.25500000920E-02 0.  1.
    10030    2    1    2    0    0  0.00000000000E+00  0.00000000000E+00  0.10488392640E+04  0.39787076503E+04  0.38379748259E+04 0.  0.
        3    1    3    3  502    0  0.12902317077E+04 -0.13092327002E+04 -0.46900939142E+02  0.18387462661E+04  0.10100000352E+00 0.  1.
       -3    1    3    3    0  502 -0.12902317077E+04  0.13092327002E+04  0.10957402031E+04  0.21399613842E+04  0.10100000352E+00 0. -1.
</event>
<event>
 5   0  0.7858367E-08  0.3798125E+04  0.7818609E-02  0.8046557E-01
       -2   -1    0    0    0  501  0.00000000000E+00  0.00000000000E+00  0.26028380406E+04  0.26028380406E+04  0.25500000920E-02 0.  1.
        2   -1    0    0  501    0  0.00000000000E+00  0.00000000000E+00 -0.13855790600E+04  0.13855790600E+04  0.25500000920E-02 0. -1.
    10030    2    1    2    0    0  0.00000000000E+00  0.00000000000E+00  0.12172589806E+04  0.39884171007E+04  0.37981247403E+04 0.  0.
        2    1    3    3  502    0  0.98548270368E+03 -0.13453444111E+04 -0.34535197442E+03  0.17030548229E+04  0.25500000920E-02 0. -1.
       -2    1    3    3    0  502 -0.98548270368E+03  0.13453444111E+04  0.15626109550E+04  0.22853622777E+04  0.25500000920E-02 0.  1.
</event>
<event>
 5   0  0.3701250E-08  0.3805524E+04  0.7818609E-02  0.8044970E-01
        1   -1    0    0  501    0  0.00000000000E+00  0.00000000000E+00  0.28860869796E+04  0.28860869796E+04  0.50400001928E-02 0. -1.
       -1   -1    0    0    0  501  0.00000000000E+00  0.00000000000E+00 -0.12544680628E+04  0.12544680628E+04  0.50400001928E-02 0.  1.
    10030    2    1    2    0    0  0.00000000000E+00  0.00000000000E+00  0.16316189168E+04  0.41405550424E+04  0.38055243751E+04 0.  0.
        2    1    3    3  502    0 -0.73933639959E+03  0.68001789406E+03  0.25740806115E+04  0.27631383683E+04  0.25500000920E-02 0. -1.
       -2    1    3    3    0  502  0.73933639959E+03 -0.68001789406E+03 -0.94246169469E+03  0.13774166741E+04  0.25500000920E-02 0.  1.
</event>
<event>
 5   0  0.3701250E-08  0.3782050E+04  0.7818609E-02  0.8050018E-01
       -1   -1    0    0    0  501  0.00000000000E+00  0.00000000000E+00  0.15735764373E+04  0.15735764373E+04  0.50400001928E-02 0. -1.
        1   -1    0    0  501    0  0.00000000000E+00  0.00000000000E+00 -0.22725146343E+04  0.22725146343E+04  0.50400001928E-02 0.  1.
    10030    2    1    2    0    0  0.00000000000E+00  0.00000000000E+00 -0.69893819708E+03  0.38460910716E+04  0.37820499637E+04 0.  0.
        4    1    3    3  502    0 -0.57972973606E+03 -0.66877120889E+03  0.13499448784E+04  0.16142163066E+04  0.12699999809E+01 0. -1.
       -4    1    3    3    0  502  0.57972973606E+03  0.66877120889E+03 -0.20488830755E+04  0.22318747650E+04  0.12699999809E+01 0.  1.
</event>
<event>
 5   0  0.3701250E-08  0.3795644E+04  0.7818609E-02  0.8047090E-01
       -1   -1    0    0    0  501  0.00000000000E+00  0.00000000000E+00  0.19558753860E+04  0.19558753860E+04  0.50400001928E-02 0. -1.
        1   -1    0    0  501    0  0.00000000000E+00  0.00000000000E+00 -0.18414921047E+04  0.18414921047E+04  0.50400001928E-02 0.  1.
    10030    2    1    2    0    0  0.00000000000E+00  0.00000000000E+00  0.11438328137E+03  0.37973674907E+04  0.37956443886E+04 0.  0.
        1    1    3    3  502    0  0.18291980412E+04 -0.33765948423E+03  0.43385914500E+03  0.19100296225E+04  0.50400001928E-02 0.  1.
       -1    1    3    3    0  502 -0.18291980412E+04  0.33765948423E+03 -0.31947586363E+03  0.18873378682E+04  0.50400001928E-02 0. -1.
</event>
<event>
 5   0  0.3701250E-08  0.3688923E+04  0.7818609E-02  0.8070421E-01
       -1   -1    0    0    0  501  0.00000000000E+00  0.00000000000E+00  0.29346900197E+04  0.29346900197E+04  0.50400001928E-02 0.  1.
        1   -1    0    0  501    0  0.00000000000E+00  0.00000000000E+00 -0.11592497830E+04  0.11592497831E+04  0.50400001928E-02 0. -1.
    10030    2    1    2    0    0  0.00000000000E+00  0.00000000000E+00  0.17754402367E+04  0.40939398028E+04  0.36889232948E+04 0.  0.
        1    1    3    3  502    0 -0.78512665290E+03  0.79571141060E+03 -0.74048530408E+03  0.13408575598E+04  0.50400001928E-02 0. -1.
       -1    1    3    3    0  502  0.78512665290E+03 -0.79571141060E+03  0.25159255408E+04  0.27530822430E+04  0.50400001928E-02 0.  1.
</event>
<event>
 5   0  0.3701250E-08  0.3806915E+04  0.7818609E-02  0.8044673E-01
       -1   -1    0    0    0  501  0.00000000000E+00  0.00000000000E+00  0.12427093709E+04  0.12427093709E+04  0.50400001928E-02 0.  1.
        1   -1    0    0  501    0  0.00000000000E+00  0.00000000000E+00 -0.29155249615E+04  0.29155249615E+04  0.50400001928E-02 0. -1.
    10030    2    1    2    0    0  0.00000000000E+00  0.00000000000E+00 -0.16728155906E+04  0.41582343324E+04  0.38069148616E+04 0.  0.
        2    1    3    3  502    0  0.22855796722E+03 -0.16716358116E+04 -0.17989486102E+04  0.24663375951E+04  0.25500000920E-02 0. -1.
       -2    1    3    3    0  502 -0.22855796722E+03  0.16716358116E+04  0.12613301959E+03  0.16918967373E+04  0.25500000920E-02 0.  1.
</event>
<event>
 5   0  0.3701250E-08  0.3776994E+04  0.7818609E-02  0.8051110E-01
       -1   -1    0    0    0  501  0.00000000000E+00  0.00000000000E+00  0.19227326503E+04  0.19227326503E+04  0.50400001928E-02 0. -1.
        1   -1    0    0  501    0  0.00000000000E+00  0.00000000000E+00 -0.18548712995E+04  0.18548712995E+04  0.50400001928E-02 0.  1.
    10030    2    1    2    0    0  0.00000000000E+00  0.00000000000E+00  0.67861350839E+02  0.37776039498E+04  0.37769943657E+04 0.  0.
        4    1    3    3  502    0  0.11064886961E+04 -0.95829963107E+03 -0.11594779681E+04  0.18673634324E+04  0.12699999809E+01 0. -1.
       -4    1    3    3    0  502 -0.11064886961E+04  0.95829963107E+03  0.12273393189E+04  0.19102405173E+04  0.12699999809E+01 0.  1.
</event>
<event>
 5   0  0.3701250E-08  0.3800665E+04  0.7818609E-02  0.8046012E-01
        1   -1    0    0  501    0  0.00000000000E+00  0.00000000000E+00  0.18877697925E+04  0.18877697925E+04  0.50400001928E-02 0. -1.
       -1   -1    0    0    0  501  0.00000000000E+00  0.00000000000E+00 -0.19129792112E+04  0.19129792112E+04  0.50400001928E-02 0.  1.
    10030    2    1    2    0    0  0.00000000000E+00  0.00000000000E+00 -0.25209418665E+02  0.38007490037E+04  0.38006653988E+04 0.  0.
        3    1    3    3  502    0  0.64647882404E+03  0.77301249427E+02  0.17727507830E+04  0.18885326849E+04  0.10100000352E+00 0. -1.
       -3    1    3    3    0  502 -0.64647882404E+03 -0.77301249427E+02 -0.17979602016E+04  0.19122163188E+04  0.10100000352E+00 0.  1.
</event>
<event>
 5   0  0.7858367E-08  0.3813072E+04  0.7818609E-02  0.8043356E-01
        2   -1    0    0  501    0  0.00000000000E+00  0.00000000000E+00  0.28887429786E+04  0.28887429786E+04  0.25500000920E-02 0.  1.
       -2   -1    0    0    0  501  0.00000000000E+00  0.00000000000E+00 -0.12582909856E+04  0.12582909857E+04  0.25500000920E-02 0. -1.
    10030    2    1    2    0    0  0.00000000000E+00  0.00000000000E+00  0.16304519929E+04  0.41470339642E+04  0.38130718586E+04 0.  0.
        2    1    3    3  502    0  0.36507079905E+03  0.32025832579E+03  0.28203468749E+04  0.28618522985E+04  0.25500000920E-02 0.  1.
       -2    1    3    3    0  502 -0.36507079905E+03 -0.32025832579E+03 -0.11898948820E+04  0.12851816657E+04  0.25500000920E-02 0. -1.
</event>
<event>
 5   0  0.3889225E-08  0.3783107E+04  0.7818609E-02  0.8049790E-01
        1   -1    0    0  501    0  0.00000000000E+00  0.00000000000E+00  0.22121743558E+04  0.22121743558E+04  0.50400001928E-02 0. -1.
       -1   -1    0    0    0  501  0.00000000000E+00  0.00000000000E+00 -0.16174016086E+04  0.16174016086E+04  0.50400001928E-02 0.  1.
    10030    2    1    2    0    0  0.00000000000E+00  0.00000000000E+00  0.59477274720E+03  0.38295759644E+04  0.37831068510E+04 0.  0.
        5    1    3    3  502    0  0.18716785109E+04  0.88593646625E+01  0.20728518230E+02  0.18718201565E+04  0.46999998093E+01 0. -1.
       -5    1    3    3    0  502 -0.18716785109E+04 -0.88593646625E+01  0.57404422897E+03  0.19577558079E+04  0.46999998093E+01 0.  1.
</event>
<event>
 5   0  0.1143283E-07  0.3796423E+04  0.7818609E-02  0.8046923E-01
       -2   -1    0    0    0  501  0.00000000000E+00  0.00000000000E+00  0.12661873676E+04  0.12661873676E+04  0.25500000920E-02 0. -1.
        2   -1    0    0  501    0  0.00000000000E+00  0.00000000000E+00 -0.28457131696E+04  0.28457131696E+04  0.25500000920E-02 0.  1.
    10030    2    1    2    0    0  0.00000000000E+00  0.00000000000E+00 -0.15795258020E+04  0.41119005372E+04  0.37964225619E+04 0.  0.
        1    1    3    3  502    0 -0.66157002771E+03 -0.21176681266E+03  0.11235812379E+04  0.13209674041E+04  0.50400001928E-02 0. -1.
       -1    1    3    3    0  502  0.66157002771E+03  0.21176681266E+03 -0.27031070399E+04  0.27909331331E+04  0.50400001928E-02 0.  1.
</event>
<event>
 5   0  0.3701250E-08  0.3800382E+04  0.7818609E-02  0.8046073E-01
       -1   -1    0    0    0  501  0.00000000000E+00  0.00000000000E+00  0.32815886822E+04  0.32815886822E+04  0.50400001928E-02 0. -1.
        1   -1    0    0  501    0  0.00000000000E+00  0.00000000000E+00 -0.11002978417E+04  0.11002978418E+04  0.50400001928E-02 0.  1.
    10030    2    1    2    0    0  0.00000000000E+00  0.00000000000E+00  0.21812908404E+04  0.43818865239E+04  0.38003815306E+04 0.  0.
        3    1    3    3  502    0 -0.11100477010E+04 -0.15269317745E+04  0.84068259408E+03  0.20665124671E+04  0.10100000352E+00 0.  1.
       -3    1    3    3    0  502  0.11100477010E+04  0.15269317745E+04  0.13406082463E+04  0.23153740568E+04  0.10100000352E+00 0. -1.
</event>
<event>
 5   0  0.1150235E-07  0.3800523E+04  0.7818609E-02  0.8046043E-01
       -2   -1    0    0    0  501  0.00000000000E+00  0.00000000000E+00  0.27785332217E+04  0.27785332217E+04  0.25500000920E-02 0. -1.
        2   -1    0    0  501    0  0.00000000000E+00  0.00000000000E+00 -0.12996045282E+04  0.12996045282E+04  0.25500000920E-02 0.  1.
    10030    2    1    2    0    0  0.00000000000E+00  0.00000000000E+00  0.14789286934E+04  0.40781377499E+04  0.38005233096E+04 0.  0.
        4    1    3    3  502    0 -0.95527868980E+03 -0.16119287002E+04  0.39993166196E+03  0.19159380097E+04  0.12699999809E+01 0.  1.
       -4    1    3    3    0  502  0.95527868980E+03  0.16119287002E+04  0.10789970315E+04  0.21621997402E+04  0.12699999809E+01 0. -1.
</event>
<event>
 5   0  0.3701250E-08  0.3822841E+04  0.7818609E-02  0.8041271E-01
        1   -1    0    0  501    0  0.00000000000E+00  0.00000000000E+00  0.23644260714E+04  0.23644260714E+04  0.50400001928E-02 0. -1.
       -1   -1    0    0    0  501  0.00000000000E+00  0.00000000000E+00 -0.15452072019E+04  0.15452072019E+04  0.50400001928E-02 0.  1.
    10030    2    1    2    0    0  0.00000000000E+00  0.00000000000E+00  0.81921886948E+03  0.39096332734E+04  0.38228409300E+04 0.  0.
        1    1    3    3  502    0 -0.20204890850E+03  0.53726515152E+03  0.22742005364E+04  0.23455203440E+04  0.50400001928E-02 0. -1.
       -1    1    3    3    0  502  0.20204890850E+03 -0.53726515152E+03 -0.14549816669E+04  0.15641129293E+04  0.50400001928E-02 0.  1.
</event>
<event>
 5   0  0.1174870E-07  0.3685072E+04  0.7818609E-02  0.8071278E-01
       -2   -1    0    0    0  501  0.00000000000E+00  0.00000000000E+00  0.11741945461E+04  0.11741945461E+04  0.25500000920E-02 0. -1.
        2   -1    0    0  501    0  0.00000000000E+00  0.00000000000E+00 -0.28912917472E+04  0.28912917472E+04  0.25500000920E-02 0.  1.
    10030    2    1    2    0    0  0.00000000000E+00  0.00000000000E+00 -0.17170972010E+04  0.40654862933E+04  0.36850720486E+04 0.  0.
        5    1    3    3  502    0 -0.99721626150E+03 -0.14561499935E+04 -0.27466531213E+03  0.17861344293E+04  0.46999998093E+01 0. -1.
       -5    1    3    3    0  502  0.99721626150E+03  0.14561499935E+04 -0.14424318889E+04  0.22793518640E+04  0.46999998093E+01 0.  1.
</event>
<event>
 5   0  0.1174870E-07  0.3681676E+04  0.7818609E-02  0.8072035E-01
        2   -1    0    0  501    0  0.00000000000E+00  0.00000000000E+00  0.14686208676E+04  0.14686208676E+04  0.25500000920E-02 0. -1.
       -2   -1    0    0    0  501  0.00000000000E+00  0.00000000000E+00 -0.23073917636E+04  0.23073917636E+04  0.25500000920E-02 0.  1.
    10030    2    1    2    0    0  0.00000000000E+00  0.00000000000E+00 -0.83877089602E+03  0.37760126312E+04  0.36816755391E+04 0.  0.
        5    1    3    3  502    0 -0.15202073448E+04 -0.33726808900E+03 -0.14263165180E+04  0.21116773036E+04  0.46999998093E+01 0.  1.
       -5    1    3    3    0  502  0.15202073448E+04  0.33726808900E+03  0.58754562200E+03  0.16643353276E+04  0.46999998093E+01 0. -1.
</event>
<event>
 5   0  0.1143283E-07  0.3816092E+04  0.7818609E-02  0.8042710E-01
       -2   -1    0    0    0  501  0.00000000000E+00  0.00000000000E+00  0.12518225227E+04  0.12518225227E+04  0.25500000920E-02 0.  1.
        2   -1    0    0  501    0  0.00000000000E+00  0.00000000000E+00 -0.29082709977E+04  0.29082709977E+04  0.25500000920E-02 0. -1.
    10030    2    1    2    0    0  0.00000000000E+00  0.00000000000E+00 -0.16564484750E+04  0.41600935205E+04  0.38160917899E+04 0.  0.
        1    1    3    3  502    0  0.13553723414E+04  0.99740984779E+03 -0.18086147356E+04  0.24704145098E+04  0.50400001928E-02 0. -1.
       -1    1    3    3    0  502 -0.13553723414E+04 -0.99740984779E+03  0.15216626057E+03  0.16896790107E+04  0.50400001928E-02 0.  1.
</event>
<event>
 5   0  0.7858367E-08  0.3795343E+04  0.7818609E-02  0.8047155E-01
        2   -1    0    0  501    0  0.00000000000E+00  0.00000000000E+00  0.23458827818E+04  0.23458827818E+04  0.25500000920E-02 0.  1.
       -2   -1    0    0    0  501  0.00000000000E+00  0.00000000000E+00 -0.15350964482E+04  0.15350964482E+04  0.25500000920E-02 0. -1.
    10030    2    1    2    0    0  0.00000000000E+00  0.00000000000E+00  0.81078633352E+03  0.38809792300E+04  0.37953425807E+04 0.  0.
        2    1    3    3  502    0  0.11733373075E+04 -0.13910883278E+04 -0.14461789347E+03  0.18255852508E+04  0.25500000920E-02 0.  1.
       -2    1    3    3    0  502 -0.11733373075E+04  0.13910883278E+04  0.95540422699E+03  0.20553939792E+04  0.25500000920E-02 0. -1.
</event>
<event>
 5   0  0.1174870E-07  0.3877252E+04  0.7818609E-02  0.8029777E-01
       -2   -1    0    0    0  501  0.00000000000E+00  0.00000000000E+00  0.16891100491E+04  0.16891100491E+04  0.25500000920E-02 0.  1.
        2   -1    0    0  501    0  0.00000000000E+00  0.00000000000E+00 -0.22250003602E+04  0.22250003602E+04  0.25500000920E-02 0. -1.
    10030    2    1    2    0    0  0.00000000000E+00  0.00000000000E+00 -0.53589031110E+03  0.39141104094E+04  0.38772518452E+04 0.  0.
        5    1    3    3  502    0  0.54721452852E+03 -0.13250805638E+04 -0.15853281921E+04  0.21374212985E+04  0.46999998093E+01 0. -1.
       -5    1    3    3    0  502 -0.54721452852E+03  0.13250805638E+04  0.10494378810E+04  0.17766891109E+04  0.46999998093E+01 0.  1.
</event>
<event>
 5   0  0.1174870E-07  0.3779321E+04  0.7818609E-02  0.8050607E-01
        2   -1    0    0  501    0  0.00000000000E+00  0.00000000000E+00  0.17381197797E+04  0.17381197797E+04  0.25500000920E-02 0.  1.
       -2   -1    0    0    0  501  0.00000000000E+00  0.00000000000E+00 -0.20544138175E+04  0.20544138175E+04  0.25500000920E-02 0. -1.
    10030    2    1    2    0    0  0.00000000000E+00  0.00000000000E+00 -0.31629403781E+03  0.37925335973E+04  0.37793212576E+04 0.  0.
        5    1    3    3  502    0 -0.18303329545E+04 -0.32857393868E+03 -0.49505222821E+03  0.19243644031E+04  0.46999998093E+01 0.  1.
       -5    1    3    3    0  502  0.18303329545E+04  0.32857393868E+03  0.17875819040E+03  0.18681691942E+04  0.46999998093E+01 0. -1.
</event>
<event>
 5   0  0.1193861E-07  0.3802949E+04  0.7818609E-02  0.8045522E-01
        2   -1    0    0  501    0  0.00000000000E+00  0.00000000000E+00  0.22700209274E+04  0.22700209274E+04  0.25500000920E-02 0. -1.
       -2   -1    0    0    0  501  0.00000000000E+00  0.00000000000E+00 -0.15927631839E+04  0.15927631839E+04  0.25500000920E-02 0.  1.
    10030    2    1    2    0    0  0.00000000000E+00  0.00000000000E+00  0.67725774346E+03  0.38627841114E+04  0.38029492555E+04 0.  0.
        3    1    3    3  502    0 -0.45220748752E+03 -0.79126192541E+02  0.22128856964E+04  0.22600034694E+04  0.10100000352E+00 0. -1.
       -3    1    3    3    0  502  0.45220748752E+03  0.79126192541E+02 -0.15356279530E+04  0.16027806420E+04  0.10100000352E+00 0.  1.
</event>
<event>
 5   0  0.1193861E-07  0.3796569E+04  0.7818609E-02  0.8046891E-01
        2   -1    0    0  501    0  0.00000000000E+00  0.00000000000E+00  0.23680270172E+04  0.23680270172E+04  0.25500000920E-02 0.  1.
       -2   -1    0    0    0  501  0.00000000000E+00  0.00000000000E+00 -0.15217244704E+04  0.15217244704E+04  0.25500000920E-02 0. -1.
    10030    2    1    2    0    0  0.00000000000E+00  0.00000000000E+00  0.84630254685E+03  0.38897514876E+04  0.37965693243E+04 0.  0.
        3    1    3    3  502    0 -0.39259548116E+03  0.69466434467E+03  0.21878650737E+04  0.23288287517E+04  0.10100000352E+00 0.  1.
       -3    1    3    3    0  502  0.39259548116E+03 -0.69466434467E+03 -0.13415625269E+04  0.15609227359E+04  0.10100000352E+00 0. -1.
</event>
<event>
 5   0  0.1150235E-07  0.3791163E+04  0.7818609E-02  0.8048054E-01
        2   -1    0    0  501    0  0.00000000000E+00  0.00000000000E+00  0.21230355447E+04  0.21230355447E+04  0.25500000920E-02 0.  1.
       -2   -1    0    0    0  501  0.00000000000E+00  0.00000000000E+00 -0.16924957614E+04  0.16924957614E+04  0.25500000920E-02 0. -1.
    10030    2    1    2    0    0  0.00000000000E+00  0.00000000000E+00  0.43053978336E+03  0.38155313061E+04  0.37911627033E+04 0.  0.
        4    1    3    3  502    0 -0.14679120205E+04 -0.39825302564E+03  0.13538487918E+04  0.20362414730E+04  0.12699999809E+01 0.  1.
       -4    1    3    3    0  502  0.14679120205E+04  0.39825302564E+03 -0.92330900845E+03  0.17792898331E+04  0.12699999809E+01 0. -1.
</event>
<event>
 5   0  0.3889225E-08  0.3800314E+04  0.7818609E-02  0.8046087E-01
       -1   -1    0    0    0  501  0.00000000000E+00  0.00000000000E+00  0.20868948945E+04  0.20868948945E+04  0.50400001928E-02 0. -1.
        1   -1    0    0  501    0  0.00000000000E+00  0.00000000000E+00 -0.17301289665E+04  0.17301289665E+04  0.50400001928E-02 0.  1.
    10030    2    1    2    0    0  0.00000000000E+00  0.00000000000E+00  0.35676592804E+03  0.38170238610E+04  0.38003143591E+04 0.  0.
        5    1    3    3  502    0 -0.15602372608E+04  0.16865802504E+03 -0.89767694919E+03  0.18079357938E+04  0.46999998093E+01 0.  1.
       -5    1    3    3    0  502  0.15602372608E+04 -0.16865802504E+03  0.12544428772E+04  0.20090880672E+04  0.46999998093E+01 0. -1.
</event>
<event>
 5   0  0.3701250E-08  0.3796243E+04  0.7818609E-02  0.8046962E-01
        1   -1    0    0  501    0  0.00000000000E+00  0.00000000000E+00  0.17436171841E+04  0.17436171841E+04  0.50400001928E-02 0.  1.
       -1   -1    0    0    0  501  0.00000000000E+00  0.00000000000E+00 -0.20663163639E+04  0.20663163639E+04  0.50400001928E-02 0. -1.
    10030    2    1    2    0    0  0.00000000000E+00  0.00000000000E+00 -0.32269917979E+03  0.38099335480E+04  0.37962427319E+04 0.  0.
        1    1    3    3  502    0  0.15537973906E+04  0.64214567649E+02 -0.12536011857E+04  0.19974798558E+04  0.50400001928E-02 0. -1.
       -1    1    3    3    0  502 -0.15537973906E+04 -0.64214567649E+02  0.93090200586E+03  0.18124536922E+04  0.50400001928E-02 0.  1.
</event>
<event>
 5   0  0.3701250E-08  0.3814646E+04  0.7818609E-02  0.8043019E-01
       -3   -1    0    0    0  501  0.00000000000E+00  0.00000000000E+00  0.15608189847E+04  0.15608189879E+04  0.10100000352E+00 0. -1.
        3   -1    0    0  501    0  0.00000000000E+00  0.00000000000E+00 -0.23307510772E+04  0.23307510793E+04  0.10100000352E+00 0.  1.
    10030    2    1    2    0    0  0.00000000000E+00  0.00000000000E+00 -0.76993209250E+03  0.38915700673E+04  0.38146457452E+04 0.  0.
        4    1    3    3  502    0 -0.59822432214E+03  0.85153791386E+03 -0.20156009169E+04  0.22683998386E+04  0.12699999809E+01 0.  1.
       -4    1    3    3    0  502  0.59822432214E+03 -0.85153791386E+03  0.12456688244E+04  0.16231702287E+04  0.12699999809E+01 0. -1.
</event>
<event>
 5   0  0.7858367E-08  0.3809582E+04  0.7818609E-02  0.8044102E-01
       -2   -1    0    0    0  501  0.00000000000E+00  0.00000000000E+00  0.25970167754E+04  0.25970167754E+04  0.25500000920E-02 0.  1.
        2   -1    0    0  501    0  0.00000000000E+00  0.00000000000E+00 -0.13970757733E+04  0.13970757733E+04  0.25500000920E-02 0. -1.
    10030    2    1    2    0    0  0.00000000000E+00  0.00000000000E+00  0.11999410021E+04  0.39940925487E+04  0.38095822447E+04 0.  0.
        2    1    3    3  502    0 -0.13548478042E+04  0.84871599553E+03  0.16856421043E+04  0.23232134464E+04  0.25500000920E-02 0. -1.
       -2    1    3    3    0  502  0.13548478042E+04 -0.84871599553E+03 -0.48570110221E+03  0.16708791023E+04  0.25500000920E-02 0.  1.
</event>
<event>
 5   0  0.1174870E-07  0.3797434E+04  0.7818609E-02  0.8046706E-01
       -2   -1    0    0    0  501  0.00000000000E+00  0.00000000000E+00  0.26883711534E+04  0.26883711534E+04  0.25500000920E-02 0.  1.
        2   -1    0    0  501    0  0.00000000000E+00  0.00000000000E+00 -0.13410078321E+04  0.13410078321E+04  0.25500000920E-02 0. -1.
    10030    2    1    2    0    0  0.00000000000E+00  0.00000000000E+00  0.13473633212E+04  0.40293789855E+04  0.37974342772E+04 0.  0.
        5    1    3    3  502    0 -0.26480011777E+03 -0.11641816320E+04  0.22402267384E+04  0.25385184467E+04  0.46999998093E+01 0.  1.
       -5    1    3    3    0  502  0.26480011777E+03  0.11641816320E+04 -0.89286341717E+03  0.14908605388E+04  0.46999998093E+01 0. -1.
</event>
<event>
 5   0  0.1143283E-07  0.3779174E+04  0.7818609E-02  0.8050639E-01
       -2   -1    0    0    0  501  0.00000000000E+00  0.00000000000E+00  0.23253694082E+04  0.23253694082E+04  0.25500000920E-02 0.  1.
        2   -1    0    0  501    0  0.00000000000E+00  0.00000000000E+00 -0.15354717879E+04  0.15354717879E+04  0.25500000920E-02 0. -1.
    10030    2    1    2    0    0  0.00000000000E+00  0.00000000000E+00  0.78989762024E+03  0.38608411961E+04  0.37791740488E+04 0.  0.
        1    1    3    3  502    0 -0.21364644130E+03 -0.46272188977E+02  0.23124081097E+04  0.23227176289E+04  0.50400001928E-02 0.  1.
       -1    1    3    3    0  502  0.21364644130E+03  0.46272188977E+02 -0.15225104895E+04  0.15381235672E+04  0.50400001928E-02 0. -1.
</event>
<event>
 5   0  0.1174870E-07  0.3801006E+04  0.7818609E-02  0.8045939E-01
        2   -1    0    0  501    0  0.00000000000E+00  0.00000000000E+00  0.22239851731E+04  0.22239851731E+04  0.25500000920E-02 0. -1.
       -2   -1    0    0    0  501  0.00000000000E+00  0.00000000000E+00 -0.16240716662E+04  0.16240716662E+04  0.25500000920E-02 0.  1.
    10030    2    1    2    0    0  0.00000000000E+00  0.00000000000E+00  0.59991350694E+03  0.38480568393E+04  0.38010058173E+04 0.  0.
        5    1    3    3  502    0  0.15949338505E+04 -0.98587024497E+03  0.61385140007E+03  0.19729647130E+04  0.46999998093E+01 0.  1.
       -5    1    3    3    0  502 -0.15949338505E+04  0.98587024497E+03 -0.13937893125E+02  0.18750921263E+04  0.46999998093E+01 0. -1.
</event>
<event>
 5   0  0.3701250E-08  0.3801388E+04  0.7818609E-02  0.8045857E-01
       -3   -1    0    0    0  501  0.00000000000E+00  0.00000000000E+00  0.26335262358E+04  0.26335262377E+04  0.10100000352E+00 0. -1.
        3   -1    0    0  501    0  0.00000000000E+00  0.00000000000E+00 -0.13717871761E+04  0.13717871798E+04  0.10100000352E+00 0.  1.
    10030    2    1    2    0    0  0.00000000000E+00  0.00000000000E+00  0.12617390596E+04  0.40053134175E+04  0.38013879200E+04 0.  0.
        1    1    3    3  502    0 -0.51695631628E+03 -0.47464621487E+03  0.24920089024E+04  0.25889459693E+04  0.50400001928E-02 0. -1.
       -1    1    3    3    0  502  0.51695631628E+03  0.47464621487E+03 -0.12302698428E+04  0.14163674482E+04  0.50400001928E-02 0.  1.
</event>
<event>
 5   0  0.3701250E-08  0.3766093E+04  0.7818609E-02  0.8053471E-01
       -1   -1    0    0    0  501  0.00000000000E+00  0.00000000000E+00  0.29329700173E+04  0.29329700173E+04  0.50400001928E-02 0.  1.
        1   -1    0    0  501    0  0.00000000000E+00  0.00000000000E+00 -0.12089669389E+04  0.12089669389E+04  0.50400001928E-02 0. -1.
    10030    2    1    2    0    0  0.00000000000E+00  0.00000000000E+00  0.17240030785E+04  0.41419369562E+04  0.37660928208E+04 0.  0.
        3    1    3    3  502    0  0.66040734595E+03 -0.15660286226E+04  0.17536378795E+04  0.24420952750E+04  0.10100000352E+00 0.  1.
       -3    1    3    3    0  502 -0.66040734595E+03  0.15660286226E+04 -0.29634801037E+02  0.16998416812E+04  0.10100000352E+00 0. -1.
</event>
<event>
 5   0  0.3889225E-08  0.3798734E+04  0.7818609E-02  0.8046427E-01
       -1   -1    0    0    0  501  0.00000000000E+00  0.00000000000E+00  0.15398159726E+04  0.15398159727E+04  0.50400001928E-02 0. -1.
        1   -1    0    0  501    0  0.00000000000E+00  0.00000000000E+00 -0.23428737314E+04  0.23428737314E+04  0.50400001928E-02 0.  1.
    10030    2    1    2    0    0  0.00000000000E+00  0.00000000000E+00 -0.80305775876E+03  0.38826897041E+04  0.37987336803E+04 0.  0.
        5    1    3    3  502    0  0.16639337606E+04  0.63796789872E+03 -0.10732395900E+04  0.20802749595E+04  0.46999998093E+01 0.  1.
       -5    1    3    3    0  502 -0.16639337606E+04 -0.63796789872E+03  0.27018183120E+03  0.18024147446E+04  0.46999998093E+01 0. -1.
</event>
<event>
 5   0  0.1150235E-07  0.3802451E+04  0.7818609E-02  0.8045629E-01
       -2   -1    0    0    0  501  0.00000000000E+00  0.00000000000E+00  0.25129227979E+04  0.25129227979E+04  0.25500000920E-02 0. -1.
        2   -1    0    0  501    0  0.00000000000E+00  0.00000000000E+00 -0.14384281737E+04  0.14384281737E+04  0.25500000920E-02 0.  1.
    10030    2    1    2    0    0  0.00000000000E+00  0.00000000000E+00  0.10744946243E+04  0.39513509716E+04  0.38024512887E+04 0.  0.
        4    1    3    3  502    0  0.14743327812E+04 -0.12002209003E+04  0.51471939663E+03  0.19695494483E+04  0.12699999809E+01 0. -1.
       -4    1    3    3    0  502 -0.14743327812E+04  0.12002209003E+04  0.55977522764E+03  0.19818015233E+04  0.12699999809E+01 0.  1.
</event>
<event>
 5   0  0.1150235E-07  0.3787482E+04  0.7818609E-02  0.8048846E-01
       -2   -1    0    0    0  501  0.00000000000E+00  0.00000000000E+00  0.16528791663E+04  0.16528791663E+04  0.25500000920E-02 0.  1.
        2   -1    0    0  501    0  0.00000000000E+00  0.00000000000E+00 -0.21697024156E+04  0.21697024156E+04  0.25500000920E-02 0. -1.
    10030    2    1    2    0    0  0.00000000000E+00  0.00000000000E+00 -0.51682324927E+03  0.38225815819E+04  0.37874824989E+04 0.  0.
        4    1    3    3  502    0 -0.56250327350E+03 -0.99437851458E+03  0.12659011087E+04  0.17051996343E+04  0.12699999809E+01 0.  1.
       -4    1    3    3    0  502  0.56250327350E+03  0.99437851458E+03 -0.17827243579E+04  0.21173819476E+04  0.12699999809E+01 0. -1.
</event>
<event>
 5   0  0.1174870E-07  0.3825162E+04  0.7818609E-02  0.8040777E-01
       -2   -1    0    0    0  501  0.00000000000E+00  0.00000000000E+00  0.14961428364E+04  0.14961428364E+04  0.25500000920E-02 0.  1.
        2   -1    0    0  501    0  0.00000000000E+00  0.00000000000E+00 -0.24449308292E+04  0.24449308292E+04  0.25500000920E-02 0. -1.
    10030    2    1    2    0    0  0.00000000000E+00  0.00000000000E+00 -0.94878799279E+03  0.39410736657E+04  0.38251618244E+04 0.  0.
        5    1    3    3  502    0 -0.72871779870E+03  0.17103392241E+04 -0.93706033818E+03  0.20819207619E+04  0.46999998093E+01 0.  1.
       -5    1    3    3    0  502  0.72871779870E+03 -0.17103392241E+04 -0.11727654610E+02  0.18591529037E+04  0.46999998093E+01 0. -1.
</event>
<event>
 5   0  0.3701250E-08  0.3798851E+04  0.7818609E-02  0.8046402E-01
        1   -1    0    0  501    0  0.00000000000E+00  0.00000000000E+00  0.18012053887E+04  0.18012053887E+04  0.50400001928E-02 0. -1.
       -1   -1    0    0    0  501  0.00000000000E+00  0.00000000000E+00 -0.20030011084E+04  0.20030011084E+04  0.50400001928E-02 0.  1.
    10030    2    1    2    0    0  0.00000000000E+00  0.00000000000E+00 -0.20179571974E+03  0.38042064971E+04  0.37988505578E+04 0.  0.
        2    1    3    3  502    0 -0.13757401234E+04 -0.54096688527E+02  0.12094687087E+04  0.18325943076E+04  0.25500000920E-02 0. -1.
       -2    1    3    3    0  502  0.13757401234E+04  0.54096688527E+02 -0.14112644285E+04  0.19716121895E+04  0.25500000920E-02 0.  1.
</event>
<event>
 5   0  0.1193861E-07  0.3824119E+04  0.7818609E-02  0.8040999E-01
        2   -1    0    0  501    0  0.00000000000E+00  0.00000000000E+00  0.24889037399E+04  0.24889037399E+04  0.25500000920E-02 0. -1.
       -2   -1    0    0    0  501  0.00000000000E+00  0.00000000000E+00 -0.14689086043E+04  0.14689086043E+04  0.25500000920E-02 0.  1.
    10030    2    1    2    0    0  0.00000000000E+00  0.00000000000E+00  0.10199951356E+04  0.39578123443E+04  0.38241193072E+04 0.  0.
        3    1    3    3  502    0  0.74106035200E+03 -0.15961784564E+04  0.12838103231E+04  0.21783307981E+04  0.10100000352E+00 0. -1.
       -3    1    3    3    0  502 -0.74106035200E+03  0.15961784564E+04 -0.26381518747E+03  0.17794815462E+04  0.10100000352E+00 0.  1.
</event>
<event>
 5   0  0.3701250E-08  0.3802294E+04  0.7818609E-02  0.8045663E-01
        1   -1    0    0  501    0  0.00000000000E+00  0.00000000000E+00  0.19900961735E+04  0.19900961735E+04  0.50400001928E-02 0. -1.
       -1   -1    0    0    0  501  0.00000000000E+00  0.00000000000E+00 -0.18161736619E+04  0.18161736620E+04  0.50400001928E-02 0.  1.
    10030    2    1    2    0    0  0.00000000000E+00  0.00000000000E+00  0.17392251159E+03  0.38062698355E+04  0.38022941786E+04 0.  0.
        4    1    3    3  502    0 -0.74122997219E+03 -0.37309150282E+03  0.17992290422E+04  0.19813747501E+04  0.12699999809E+01 0. -1.
       -4    1    3    3    0  502  0.74122997219E+03  0.37309150282E+03 -0.16253065306E+04  0.18248950854E+04  0.12699999809E+01 0.  1.
</event>
<event>
 5   0  0.1193861E-07  0.3821762E+04  0.7818609E-02  0.8041501E-01
        2   -1    0    0  501    0  0.00000000000E+00  0.00000000000E+00  0.20349434885E+04  0.20349434885E+04  0.25500000920E-02 0.  1.
       -2   -1    0    0    0  501  0.00000000000E+00  0.00000000000E+00 -0.17943819884E+04  0.17943819885E+04  0.25500000920E-02 0. -1.
    10030    2    1    2    0    0  0.00000000000E+00  0.00000000000E+00  0.24056150003E+03  0.38293254769E+04  0.38217618676E+04 0.  0.
        3    1    3    3  502    0  0.36668308768E+03  0.13027797464E+04  0.14719406553E+04  0.19995751692E+04  0.10100000352E+00 0.  1.
       -3    1    3    3    0  502 -0.36668308768E+03 -0.13027797464E+04 -0.12313791553E+04  0.18297503077E+04  0.10100000352E+00 0. -1.
</event>
<event>
 5   0  0.3701250E-08  0.3801605E+04  0.7818609E-02  0.8045811E-01
       -1   -1    0    0    0  501  0.00000000000E+00  0.00000000000E+00  0.27996580071E+04  0.27996580071E+04  0.50400001928E-02 0. -1.
        1   -1    0    0  501    0  0.00000000000E+00  0.00000000000E+00 -0.12905324065E+04  0.12905324066E+04  0.50400001928E-02 0.  1.
    10030    2    1    2    0    0  0.00000000000E+00  0.00000000000E+00  0.15091256006E+04  0.40901904137E+04  0.38016046009E+04 0.  0.
        2    1    3    3  502    0  0.26233832798E+03 -0.85817556519E+03  0.25574011222E+04  0.27102743770E+04  0.25500000920E-02 0. -1.
       -2    1    3    3    0  502 -0.26233832798E+03  0.85817556519E+03 -0.10482755216E+04  0.13799160367E+04  0.25500000920E-02 0.  1.
</event>
<event>
 5   0  0.1143283E-07  0.3829353E+04  0.7818609E-02  0.8039885E-01
        2   -1    0    0  501    0  0.00000000000E+00  0.00000000000E+00  0.27598673346E+04  0.27598673346E+04  0.25500000920E-02 0.  1.
       -2   -1    0    0    0  501  0.00000000000E+00  0.00000000000E+00 -0.13283200182E+04  0.13283200182E+04  0.25500000920E-02 0. -1.
    10030    2    1    2    0    0  0.00000000000E+00  0.00000000000E+00  0.14315473164E+04  0.40881873527E+04  0.38293534848E+04 0.  0.
        1    1    3    3  502    0  0.17972865051E+04 -0.22537710126E+03  0.53390292578E+02  0.18121490399E+04  0.50400001928E-02 0. -1.
       -1    1    3    3    0  502 -0.17972865051E+04  0.22537710126E+03  0.13781570238E+04  0.22760383129E+04  0.50400001928E-02 0.  1.
</event>
<event>
 5   0  0.7858367E-08  0.3752074E+04  0.7818609E-02  0.8056519E-01
       -2   -1    0    0    0  501  0.00000000000E+00  0.00000000000E+00  0.17904632683E+04  0.17904632683E+04  0.25500000920E-02 0.  1.
        2   -1    0    0  501    0  0.00000000000E+00  0.00000000000E+00 -0.19657003701E+04  0.19657003701E+04  0.25500000920E-02 0. -1.
    10030    2    1    2    0    0  0.00000000000E+00  0.00000000000E+00 -0.17523710187E+03  0.37561636384E+04  0.37520737248E+04 0.  0.
        2    1    3    3  502    0 -0.63875759867E+03  0.17031385691E+04 -0.54727267469E+03  0.18995261609E+04  0.25500000920E-02 0. -1.
       -2    1    3    3    0  502  0.63875759867E+03 -0.17031385691E+04  0.37203557282E+03  0.18566374775E+04  0.25500000920E-02 0.  1.
</event>
<event>
 5   0  0.3889225E-08  0.3762008E+04  0.7818609E-02  0.8054357E-01
        1   -1    0    0  501    0  0.00000000000E+00  0.00000000000E+00  0.16959871268E+04  0.16959871268E+04  0.50400001928E-02 0.  1.
       -1   -1    0    0    0  501  0.00000000000E+00  0.00000000000E+00 -0.20862043105E+04  0.20862043105E+04  0.50400001928E-02 0. -1.
    10030    2    1    2    0    0  0.00000000000E+00  0.00000000000E+00 -0.39021718371E+03  0.37821914374E+04  0.37620077909E+04 0.  0.
        5    1    3    3  502    0  0.12550492558E+04  0.69370772309E+03 -0.14189210742E+04  0.20173592006E+04  0.46999998093E+01 0. -1.
       -5    1    3    3    0  502 -0.12550492558E+04 -0.69370772309E+03  0.10287038905E+04  0.17648322368E+04  0.46999998093E+01 0.  1.
</event>
<event>
 5   0  0.3701250E-08  0.3793810E+04  0.7818609E-02  0.8047484E-01
       -1   -1    0    0    0  501  0.00000000000E+00  0.00000000000E+00  0.15325936304E+04  0.15325936304E+04  0.50400001928E-02 0. -1.
        1   -1    0    0  501    0  0.00000000000E+00  0.00000000000E+00 -0.23478169669E+04  0.23478169669E+04  0.50400001928E-02 0.  1.
    10030    2    1    2    0    0  0.00000000000E+00  0.00000000000E+00 -0.81522333649E+03  0.38804105973E+04  0.37938103952E+04 0.  0.
        4    1    3    3  502    0  0.12452173028E+04 -0.67755067073E+03  0.88155851120E+03  0.16693675642E+04  0.12699999809E+01 0. -1.
       -4    1    3    3    0  502 -0.12452173028E+04  0.67755067073E+03 -0.16967818477E+04  0.22110430331E+04  0.12699999809E+01 0.  1.
</event>
<event>
 5   0  0.3701250E-08  0.3790118E+04  0.7818609E-02  0.8048279E-01
        3   -1    0    0  501    0  0.00000000000E+00  0.00000000000E+00  0.21321735934E+04  0.21321735958E+04  0.10100000352E+00 0. -1.
       -3   -1    0    0    0  501  0.00000000000E+00  0.00000000000E+00 -0.16843130940E+04  0.16843130971E+04  0.10100000352E+00 0.  1.
    10030    2    1    2    0    0  0.00000000000E+00  0.00000000000E+00  0.44786049940E+03  0.38164866929E+04  0.37901176301E+04 0.  0.
        2    1    3    3  502    0  0.11964353740E+04  0.85640129248E+03  0.14265455512E+04  0.20493689242E+04  0.25500000920E-02 0. -1.
       -2    1    3    3    0  502 -0.11964353740E+04 -0.85640129248E+03 -0.97868505179E+03  0.17671177687E+04  0.25500000920E-02 0.  1.
</event>
<event>
 5   0  0.7858367E-08  0.3832348E+04  0.7818609E-02  0.8039249E-01
        2   -1    0    0  501    0  0.00000000000E+00  0.00000000000E+00  0.24778787878E+04  0.24778787878E+04  0.25500000920E-02 0.  1.
       -2   -1    0    0    0  501  0.00000000000E+00  0.00000000000E+00 -0.14818004465E+04  0.14818004465E+04  0.25500000920E-02 0. -1.
    10030    2    1    2    0    0  0.00000000000E+00  0.00000000000E+00  0.99607834130E+03  0.39596792342E+04  0.38323475281E+04 0.  0.
        2    1    3    3  502    0 -0.89674165319E+03  0.65516669624E+03  0.21114375642E+04  0.23856985518E+04  0.25500000920E-02 0.  1.
       -2    1    3    3    0  502  0.89674165319E+03 -0.65516669624E+03 -0.11153592229E+04  0.15739806824E+04  0.25500000920E-02 0. -1.
</event>
<event>
 5   0  0.1174870E-07  0.3738541E+04  0.7818609E-02  0.8059474E-01
       -2   -1    0    0    0  501  0.00000000000E+00  0.00000000000E+00  0.28879852135E+04  0.28879852135E+04  0.25500000920E-02 0. -1.
        2   -1    0    0  501    0  0.00000000000E+00  0.00000000000E+00 -0.12098993577E+04  0.12098993577E+04  0.25500000920E-02 0.  1.
    10030    2    1    2    0    0  0.00000000000E+00  0.00000000000E+00  0.16780858558E+04  0.40978845712E+04  0.37385406002E+04 0.  0.
        5    1    3    3  502    0 -0.32819246278E+03  0.11622110675E+04  0.24029645668E+04  0.26893690073E+04  0.46999998093E+01 0. -1.
       -5    1    3    3    0  502  0.32819246278E+03 -0.11622110675E+04 -0.72487871103E+03  0.14085155639E+04  0.46999998093E+01 0.  1.
</event>
<event>
 5   0  0.3701250E-08  0.3790843E+04  0.7818609E-02  0.8048123E-01
       -1   -1    0    0    0  501  0.00000000000E+00  0.00000000000E+00  0.22288195471E+04  0.22288195471E+04  0.50400001928E-02 0.  1.
        1   -1    0    0  501    0  0.00000000000E+00  0.00000000000E+00 -0.16118945801E+04  0.16118945801E+04  0.50400001928E-02 0. -1.
    10030    2    1    2    0    0  0.00000000000E+00  0.00000000000E+00  0.61692496704E+03  0.38407141272E+04  0.37908427285E+04 0.  0.
        4    1    3    3  502    0  0.81011696720E+03 -0.69728564649E+03  0.18943421356E+04  0.21750932194E+04  0.12699999809E+01 0.  1.
       -4    1    3    3    0  502 -0.81011696720E+03  0.69728564649E+03 -0.12774171685E+04  0.16656209079E+04  0.12699999809E+01 0. -1.
</event>
<event>
 5   0  0.1150235E-07  0.3812956E+04  0.7818609E-02  0.8043380E-01
       -2   -1    0    0    0  501  0.00000000000E+00  0.00000000000E+00  0.13295282236E+04  0.13295282236E+04  0.25500000920E-02 0. -1.
        2   -1    0    0  501    0  0.00000000000E+00  0.00000000000E+00 -0.27337956859E+04  0.27337956859E+04  0.25500000920E-02 0.  1.
    10030    2    1    2    0    0  0.00000000000E+00  0.00000000000E+00 -0.14042674623E+04  0.40633239095E+04  0.38129560826E+04 0.  0.
        4    1    3    3  502    0 -0.94466132094E+03  0.46575850154E+02  0.10618844298E+04  0.14220247805E+04  0.12699999809E+01 0. -1.
       -4    1    3    3    0  502  0.94466132094E+03 -0.46575850154E+02 -0.24661518921E+04  0.26412991290E+04  0.12699999809E+01 0.  1.
</event>
<event>
 5   0  0.3889225E-08  0.3787438E+04  0.7818609E-02  0.8048856E-01
       -1   -1    0    0    0  501  0.00000000000E+00  0.00000000000E+00  0.20708714356E+04  0.20708714356E+04  0.50400001928E-02 0. -1.
        1   -1    0    0  501    0  0.00000000000E+00  0.00000000000E+00 -0.17317209364E+04  0.17317209364E+04  0.50400001928E-02 0.  1.
    10030    2    1    2    0    0  0.00000000000E+00  0.00000000000E+00  0.33915049917E+03  0.38025923720E+04  0.37874378789E+04 0.  0.
        5    1    3    3  502    0 -0.17536956797E+03  0.18843029995E+04  0.10003736475E+03  0.18950941517E+04  0.46999998093E+01 0. -1.
       -5    1    3    3    0  502  0.17536956797E+03 -0.18843029995E+04  0.23911313442E+03  0.19074982203E+04  0.46999998093E+01 0.  1.
</event>
<event>
 5   0  0.3701250E-08  0.3804792E+04  0.7818609E-02  0.8045127E-01
        1   -1    0    0  501    0  0.00000000000E+00  0.00000000000E+00  0.13012735919E+04  0.13012735919E+04  0.50400001928E-02 0. -1.
       -1   -1    0    0    0  501  0.00000000000E+00  0.00000000000E+00 -0.27812059686E+04  0.27812059687E+04  0.50400001928E-02 0.  1.
    10030    2    1    2    0    0  0.00000000000E+00  0.00000000000E+00 -0.14799323767E+04  0.40824795606E+04  0.38047916530E+04 0.  0.
        3    1    3    3  502    0 -0.90393204928E+03  0.16716126773E+04 -0.64564256901E+03  0.20070466934E+04  0.10100000352E+00 0.  1.
       -3    1    3    3    0  502  0.90393204928E+03 -0.16716126773E+04 -0.83428980773E+03  0.20754328671E+04  0.10100000352E+00 0. -1.
</event>
<event>
 5   0  0.3701250E-08  0.3800123E+04  0.7818609E-02  0.8046129E-01
        1   -1    0    0  501    0  0.00000000000E+00  0.00000000000E+00  0.15562592681E+04  0.15562592681E+04  0.50400001928E-02 0. -1.
       -1   -1    0    0    0  501  0.00000000000E+00  0.00000000000E+00 -0.23198145962E+04  0.23198145962E+04  0.50400001928E-02 0.  1.
    10030    2    1    2    0    0  0.00000000000E+00  0.00000000000E+00 -0.76355532807E+03  0.38760738644E+04  0.38001226116E+04 0.  0.
        2    1    3    3  502    0 -0.26100125033E+03  0.81365384937E+03 -0.21127758582E+04  0.22790296326E+04  0.25500000920E-02 0.  1.
       -2    1    3    3    0  502  0.26100125033E+03 -0.81365384937E+03  0.13492205301E+04  0.15970442318E+04  0.25500000920E-02 0. -1.
</event>
<event>
 5   0  0.3701250E-08  0.3796573E+04  0.7818609E-02  0.8046891E-01
       -1   -1    0    0    0  501  0.00000000000E+00  0.00000000000E+00  0.16269209571E+04  0.16269209571E+04  0.50400001928E-02 0. -1.
        1   -1    0    0  501    0  0.00000000000E+00  0.00000000000E+00 -0.22149153990E+04  0.22149153990E+04  0.50400001928E-02 0.  1.
    10030    2    1    2    0    0  0.00000000000E+00  0.00000000000E+00 -0.58799444195E+03  0.38418363561E+04  0.37965733396E+04 0.  0.
        2    1    3    3  502    0 -0.82445019276E+03  0.87369170479E+03 -0.17813632842E+04  0.21485600912E+04  0.25500000920E-02 0.  1.
       -2    1    3    3    0  502  0.82445019276E+03 -0.87369170479E+03  0.11933688423E+04  0.16932762648E+04  0.25500000920E-02 0. -1.
</event>
<event>
 5   0  0.3701250E-08  0.3784865E+04  0.7818609E-02  0.8049411E-01
        1   -1    0    0  501    0  0.00000000000E+00  0.00000000000E+00  0.29008684244E+04  0.29008684244E+04  0.50400001928E-02 0.  1.
       -1   -1    0    0    0  501  0.00000000000E+00  0.00000000000E+00 -0.12345616620E+04  0.12345616620E+04  0.50400001928E-02 0. -1.
    10030    2    1    2    0    0  0.00000000000E+00  0.00000000000E+00  0.16663067624E+04  0.41354300864E+04  0.37848650932E+04 0.  0.
        1    1    3    3  502    0  0.14426244411E+04  0.11614797878E+04  0.12578737016E+04  0.22388494421E+04  0.50400001928E-02 0. -1.
       -1    1    3    3    0  502 -0.14426244411E+04 -0.11614797878E+04  0.40843306081E+03  0.18965806443E+04  0.50400001928E-02 0.  1.
</event>
<event>
 5   0  0.3889225E-08  0.3860750E+04  0.7818609E-02  0.8033242E-01
       -1   -1    0    0    0  501  0.00000000000E+00  0.00000000000E+00  0.22126142907E+04  0.22126142907E+04  0.50400001928E-02 0. -1.
        1   -1    0    0  501    0  0.00000000000E+00  0.00000000000E+00 -0.16841375504E+04  0.16841375504E+04  0.50400001928E-02 0.  1.
    10030    2    1    2    0    0  0.00000000000E+00  0.00000000000E+00  0.52847674036E+03  0.38967518411E+04  0.38607495705E+04 0.  0.
        5    1    3    3  502    0  0.17926422644E+04  0.27145777858E+03 -0.40456362256E+03  0.18576731221E+04  0.46999998093E+01 0.  1.
       -5    1    3    3    0  502 -0.17926422644E+04 -0.27145777858E+03  0.93304036292E+03  0.20390787191E+04  0.46999998093E+01 0. -1.
</event>
<event>
 5   0  0.3701250E-08  0.3827781E+04  0.7818609E-02  0.8040219E-01
       -1   -1    0    0    0  501  0.00000000000E+00  0.00000000000E+00  0.11482506755E+04  0.11482506755E+04  0.50400001928E-02 0. -1.
        1   -1    0    0  501    0  0.00000000000E+00  0.00000000000E+00 -0.31900492067E+04  0.31900492067E+04  0.50400001928E-02 0.  1.
    10030    2    1    2    0    0  0.00000000000E+00  0.00000000000E+00 -0.20417985312E+04  0.43382998822E+04  0.38277806397E+04 0.  0.
        2    1    3    3  502    0 -0.42837166805E+03 -0.10543898392E+04  0.72307133918E+03  0.13483591438E+04  0.25500000920E-02 0. -1.
       -2    1    3    3    0  502  0.42837166805E+03  0.10543898392E+04 -0.27648698704E+04  0.29899407384E+04  0.25500000920E-02 0.  1.
</event>
<event>
 5   0  0.7858367E-08  0.3881678E+04  0.7818609E-02  0.8028851E-01
        2   -1    0    0  501    0  0.00000000000E+00  0.00000000000E+00  0.27185425729E+04  0.27185425730E+04  0.25500000920E-02 0.  1.
       -2   -1    0    0    0  501  0.00000000000E+00  0.00000000000E+00 -0.13856159049E+04  0.13856159049E+04  0.25500000920E-02 0. -1.
    10030    2    1    2    0    0  0.00000000000E+00  0.00000000000E+00  0.13329266681E+04  0.41041584778E+04  0.38816778986E+04 0.  0.
        2    1    3    3  502    0 -0.12169226495E+03 -0.16220496565E+04 -0.45299457540E+03  0.16885076787E+04  0.25500000920E-02 0. -1.
       -2    1    3    3    0  502  0.12169226495E+03  0.16220496565E+04  0.17859212435E+04  0.24156507992E+04  0.25500000920E-02 0.  1.
</event>
<event>
 5   0  0.7858367E-08  0.3786642E+04  0.7818609E-02  0.8049028E-01
        2   -1    0    0  501    0  0.00000000000E+00  0.00000000000E+00  0.28554176175E+04  0.28554176175E+04  0.25500000920E-02 0. -1.
       -2   -1    0    0    0  501  0.00000000000E+00  0.00000000000E+00 -0.12553907295E+04  0.12553907295E+04  0.25500000920E-02 0.  1.
    10030    2    1    2    0    0  0.00000000000E+00  0.00000000000E+00  0.16000268879E+04  0.41108083470E+04  0.37866422096E+04 0.  0.
        2    1    3    3  502    0  0.55823372142E+03  0.11188078897E+04  0.23434518188E+04  0.26561480397E+04  0.25500000920E-02 0. -1.
       -2    1    3    3    0  502 -0.55823372142E+03 -0.11188078897E+04 -0.74342493092E+03  0.14546603073E+04  0.25500000920E-02 0.  1.
</event>
<event>
 5   0  0.1150235E-07  0.3784819E+04  0.7818609E-02  0.8049420E-01
        2   -1    0    0  501    0  0.00000000000E+00  0.00000000000E+00  0.17696553629E+04  0.17696553629E+04  0.25500000920E-02 0. -1.
       -2   -1    0    0    0  501  0.00000000000E+00  0.00000000000E+00 -0.20236790914E+04  0.20236790914E+04  0.25500000920E-02 0.  1.
    10030    2    1    2    0    0  0.00000000000E+00  0.00000000000E+00 -0.25402372846E+03  0.37933344543E+04  0.37848194445E+04 0.  0.
        4    1    3    3  502    0 -0.14241691505E+04  0.10729497664E+04  0.50823897813E+03  0.18541271376E+04  0.12699999809E+01 0.  1.
       -4    1    3    3    0  502  0.14241691505E+04 -0.10729497664E+04 -0.76226270659E+03  0.19392073167E+04  0.12699999809E+01 0. -1.
</event>
<event>
 5   0  0.3701250E-08  0.3765517E+04  0.7818609E-02  0.8053596E-01
        1   -1    0    0  501    0  0.00000000000E+00  0.00000000000E+00  0.20008315832E+04  0.20008315832E+04  0.50400001928E-02 0. -1.
       -1   -1    0    0    0  501  0.00000000000E+00  0.00000000000E+00 -0.17716532228E+04  0.17716532228E+04  0.50400001928E-02 0.  1.
    10030    2    1    2    0    0  0.00000000000E+00  0.00000000000E+00  0.22917836041E+03  0.37724848060E+04  0.37655170815E+04 0.  0.
        2    1    3    3  502    0  0.41178273843E+03 -0.54944741216E+03 -0.16417440836E+04  0.17795451999E+04  0.25500000920E-02 0.  1.
       -2    1    3    3    0  502 -0.41178273843E+03  0.54944741216E+03  0.18709224440E+04  0.19929396062E+04  0.25500000920E-02 0. -1.
</event>
<event>
 5   0  0.3701250E-08  0.3811541E+04  0.7818609E-02  0.8043683E-01
       -1   -1    0    0    0  501  0.00000000000E+00  0.00000000000E+00  0.28658038174E+04  0.28658038174E+04  0.50400001928E-02 0.  1.
        1   -1    0    0  501    0  0.00000000000E+00  0.00000000000E+00 -0.12673447226E+04  0.12673447226E+04  0.50400001928E-02 0. -1.
    10030    2    1    2    0    0  0.00000000000E+00  0.00000000000E+00  0.15984590947E+04  0.41331485400E+04  0.38115410763E+04 0.  0.
        2    1    3    3  502    0  0.96616547085E+03 -0.11198839376E+04  0.21024442455E+04  0.25705811709E+04  0.25500000920E-02 0.  1.
       -2    1    3    3    0  502 -0.96616547085E+03  0.11198839376E+04 -0.50398515076E+03  0.15625673691E+04  0.25500000920E-02 0. -1.
</event>
<event>
 5   0  0.1193861E-07  0.3814235E+04  0.7818609E-02  0.8043107E-01
       -2   -1    0    0    0  501  0.00000000000E+00  0.00000000000E+00  0.17164553157E+04  0.17164553157E+04  0.25500000920E-02 0.  1.
        2   -1    0    0  501    0  0.00000000000E+00  0.00000000000E+00 -0.21189586071E+04  0.21189586071E+04  0.25500000920E-02 0. -1.
    10030    2    1    2    0    0  0.00000000000E+00  0.00000000000E+00 -0.40250329134E+03  0.38354139228E+04  0.38142353178E+04 0.  0.
        3    1    3    3  502    0  0.17107761068E+04 -0.28116664834E+03  0.59769648913E+03  0.18338622290E+04  0.10100000352E+00 0.  1.
       -3    1    3    3    0  502 -0.17107761068E+04  0.28116664834E+03 -0.10001997805E+04  0.20015516938E+04  0.10100000352E+00 0. -1.
</event>
<event>
 5   0  0.3889225E-08  0.3814582E+04  0.7818609E-02  0.8043033E-01
       -1   -1    0    0    0  501  0.00000000000E+00  0.00000000000E+00  0.23083895850E+04  0.23083895850E+04  0.50400001928E-02 0.  1.
        1   -1    0    0  501    0  0.00000000000E+00  0.00000000000E+00 -0.15758864037E+04  0.15758864037E+04  0.50400001928E-02 0. -1.
    10030    2    1    2    0    0  0.00000000000E+00  0.00000000000E+00  0.73250318132E+03  0.38842759888E+04  0.38145824210E+04 0.  0.
        5    1    3    3  502    0 -0.49201064794E+03 -0.55951512405E+03  0.21540645796E+04  0.22792867206E+04  0.46999998093E+01 0.  1.
       -5    1    3    3    0  502  0.49201064794E+03  0.55951512405E+03 -0.14215613983E+04  0.16049892681E+04  0.46999998093E+01 0. -1.
</event>
<event>
 5   0  0.3889225E-08  0.3814258E+04  0.7818609E-02  0.8043102E-01
        1   -1    0    0  501    0  0.00000000000E+00  0.00000000000E+00  0.11749484066E+04  0.11749484066E+04  0.50400001928E-02 0.  1.
       -1   -1    0    0    0  501  0.00000000000E+00  0.00000000000E+00 -0.30955743976E+04  0.30955743976E+04  0.50400001928E-02 0. -1.
    10030    2    1    2    0    0  0.00000000000E+00  0.00000000000E+00 -0.19206259910E+04  0.42705228042E+04  0.38142575717E+04 0.  0.
        5    1    3    3  502    0 -0.93835477317E+02 -0.22227108803E+03 -0.30784123646E+04  0.30878559406E+04  0.46999998093E+01 0. -1.
       -5    1    3    3    0  502  0.93835477317E+02  0.22227108803E+03  0.11577863736E+04  0.11826668636E+04  0.46999998093E+01 0.  1.
</event>
<event>
 5   0  0.7858367E-08  0.3750537E+04  0.7818609E-02  0.8056854E-01
       -2   -1    0    0    0  501  0.00000000000E+00  0.00000000000E+00  0.16741123152E+04  0.16741123152E+04  0.25500000920E-02 0. -1.
        2   -1    0    0  501    0  0.00000000000E+00  0.00000000000E+00 -0.21005947716E+04  0.21005947716E+04  0.25500000920E-02 0.  1.
    10030    2    1    2    0    0  0.00000000000E+00  0.00000000000E+00 -0.42648245640E+03  0.37747070869E+04  0.37505368024E+04 0.  0.
        2    1    3    3  502    0 -0.13184254261E+04 -0.13730250706E+03  0.11217814895E+04  0.17365170004E+04  0.25500000920E-02 0. -1.
       -2    1    3    3    0  502  0.13184254261E+04  0.13730250706E+03 -0.15482639459E+04  0.20381900865E+04  0.25500000920E-02 0.  1.
</event>
<event>
 5   0  0.3701250E-08  0.3801802E+04  0.7818609E-02  0.8045768E-01
        1   -1    0    0  501    0  0.00000000000E+00  0.00000000000E+00  0.22989009023E+04  0.22989009024E+04  0.50400001928E-02 0. -1.
       -1   -1    0    0    0  501  0.00000000000E+00  0.00000000000E+00 -0.15718049952E+04  0.15718049952E+04  0.50400001928E-02 0.  1.
    10030    2    1    2    0    0  0.00000000000E+00  0.00000000000E+00  0.72709590711E+03  0.38707058976E+04  0.38018016371E+04 0.  0.
        3    1    3    3  502    0  0.18385974252E+04  0.24961647003E+03 -0.57067984110E+02  0.18563420048E+04  0.10100000352E+00 0.  1.
       -3    1    3    3    0  502 -0.18385974252E+04 -0.24961647003E+03  0.78416389122E+03  0.20143638928E+04  0.10100000352E+00 0. -1.
</event>
<event>
 5   0  0.1193861E-07  0.3841838E+04  0.7818609E-02  0.8037236E-01
        2   -1    0    0  501    0  0.00000000000E+00  0.00000000000E+00  0.29653771699E+04  0.29653771699E+04  0.25500000920E-02 0.  1.
       -2   -1    0    0    0  501  0.00000000000E+00  0.00000000000E+00 -0.12443371533E+04  0.12443371533E+04  0.25500000920E-02 0. -1.
    10030    2    1    2    0    0  0.00000000000E+00  0.00000000000E+00  0.17210400166E+04  0.42097143232E+04  0.38418375739E+04 0.  0.
        3    1    3    3  502    0 -0.14710831111E+04  0.51863853207E+03  0.20889676499E+04  0.26070783070E+04  0.10100000352E+00 0.  1.
       -3    1    3    3    0  502  0.14710831111E+04 -0.51863853207E+03 -0.36792763328E+03  0.16026360161E+04  0.10100000352E+00 0. -1.
</event>
<event>
 5   0  0.3701250E-08  0.3783734E+04  0.7818609E-02  0.8049655E-01
       -3   -1    0    0    0  501  0.00000000000E+00  0.00000000000E+00  0.24687411062E+04  0.24687411083E+04  0.10100000352E+00 0. -1.
        3   -1    0    0  501    0  0.00000000000E+00  0.00000000000E+00 -0.14497915432E+04  0.14497915467E+04  0.10100000352E+00 0.  1.
    10030    2    1    2    0    0  0.00000000000E+00  0.00000000000E+00  0.10189495630E+04  0.39185326550E+04  0.37837336000E+04 0.  0.
        2    1    3    3  502    0 -0.53125434730E+03 -0.17836778170E+04  0.15763277287E+03  0.18677756363E+04  0.25500000920E-02 0.  1.
       -2    1    3    3    0  502  0.53125434730E+03  0.17836778170E+04  0.86131679014E+03  0.20507570186E+04  0.25500000920E-02 0. -1.
</event>
<event>
 5   0  0.1150235E-07  0.3785887E+04  0.7818609E-02  0.8049190E-01
       -2   -1    0    0    0  501  0.00000000000E+00  0.00000000000E+00  0.13950442014E+04  0.13950442014E+04  0.25500000920E-02 0. -1.
        2   -1    0    0  501    0  0.00000000000E+00  0.00000000000E+00 -0.25685459148E+04  0.25685459148E+04  0.25500000920E-02 0.  1.
    10030    2    1    2    0    0  0.00000000000E+00  0.00000000000E+00 -0.11735017134E+04  0.39635901162E+04  0.37858869949E+04 0.  0.
        4    1    3    3  502    0  0.12059781747E+04  0.11452696472E+04  0.35967647791E+03  0.17015859380E+04  0.12699999809E+01 0. -1.
       -4    1    3    3    0  502 -0.12059781747E+04 -0.11452696472E+04 -0.15331781913E+04  0.22620041782E+04  0.12699999809E+01 0.  1.
</event>
<event>
 5   0  0.7858367E-08  0.3888274E+04  0.7818609E-02  0.8027472E-01
       -2   -1    0    0    0  501  0.00000000000E+00  0.00000000000E+00  0.18468763974E+04  0.18468763974E+04  0.25500000920E-02 0.  1.
        2   -1    0    0  501    0  0.00000000000E+00  0.00000000000E+00 -0.20465194008E+04  0.20465194008E+04  0.25500000920E-02 0. -1.
    10030    2    1    2    0    0  0.00000000000E+00  0.00000000000E+00 -0.19964300335E+03  0.38933957982E+04  0.38882738475E+04 0.  0.
        2    1    3    3  502    0  0.17061078984E+03  0.19212265494E+04  0.14432109469E+03  0.19341789147E+04  0.25500000920E-02 0. -1.
       -2    1    3    3    0  502 -0.17061078984E+03 -0.19212265494E+04 -0.34396409805E+03  0.19592168835E+04  0.25500000920E-02 0.  1.
</event>
<event>
 5   0  0.3701250E-08  0.3795673E+04  0.7818609E-02  0.8047084E-01
        1   -1    0    0  501    0  0.00000000000E+00  0.00000000000E+00  0.24143078793E+04  0.24143078793E+04  0.50400001928E-02 0. -1.
       -1   -1    0    0    0  501  0.00000000000E+00  0.00000000000E+00 -0.14918496155E+04  0.14918496156E+04  0.50400001928E-02 0.  1.
    10030    2    1    2    0    0  0.00000000000E+00  0.00000000000E+00  0.92245826376E+03  0.39061574949E+04  0.37956734747E+04 0.  0.
        2    1    3    3  502    0  0.10393255658E+04 -0.13804915654E+04  0.12688196582E+04  0.21437952139E+04  0.25500000920E-02 0.  1.
       -2    1    3    3    0  502 -0.10393255658E+04  0.13804915654E+04 -0.34636139449E+03  0.17623622810E+04  0.25500000920E-02 0. -1.
</event>
<event>
 5   0  0.1150235E-07  0.3803387E+04  0.7818609E-02  0.8045428E-01
        2   -1    0    0  501    0  0.00000000000E+00  0.00000000000E+00  0.11572877556E+04  0.11572877556E+04  0.25500000920E-02 0. -1.
       -2   -1    0    0    0  501  0.00000000000E+00  0.00000000000E+00 -0.31249258056E+04  0.31249258056E+04  0.25500000920E-02 0.  1.
    10030    2    1    2    0    0  0.00000000000E+00  0.00000000000E+00 -0.19676380500E+04  0.42822135612E+04  0.38033871073E+04 0.  0.
        4    1    3    3  502    0 -0.24923955476E+02 -0.86855573292E+03  0.92071655097E+03  0.12659900651E+04  0.12699999809E+01 0. -1.
       -4    1    3    3    0  502  0.24923955476E+02  0.86855573292E+03 -0.28883546010E+04  0.30162234961E+04  0.12699999809E+01 0.  1.
</event>
<event>
 5   0  0.3701250E-08  0.3776874E+04  0.7818609E-02  0.8051136E-01
        1   -1    0    0  501    0  0.00000000000E+00  0.00000000000E+00  0.15046972172E+04  0.15046972172E+04  0.50400001928E-02 0.  1.
       -1   -1    0    0    0  501  0.00000000000E+00  0.00000000000E+00 -0.23700414461E+04  0.23700414461E+04  0.50400001928E-02 0. -1.
    10030    2    1    2    0    0  0.00000000000E+00  0.00000000000E+00 -0.86534422894E+03  0.38747386633E+04  0.37768742465E+04 0.  0.
        1    1    3    3  502    0 -0.55749654405E+03  0.36430003825E+03 -0.22455705866E+04  0.23422434062E+04  0.50400001928E-02 0. -1.
       -1    1    3    3    0  502  0.55749654405E+03 -0.36430003825E+03  0.13802263577E+04  0.15324952571E+04  0.50400001928E-02 0.  1.
</event>
<event>
 5   0  0.3889225E-08  0.3799525E+04  0.7818609E-02  0.8046257E-01
       -1   -1    0    0    0  501  0.00000000000E+00  0.00000000000E+00  0.15490905223E+04  0.15490905223E+04  0.50400001928E-02 0. -1.
        1   -1    0    0  501    0  0.00000000000E+00  0.00000000000E+00 -0.23298168374E+04  0.23298168374E+04  0.50400001928E-02 0.  1.
    10030    2    1    2    0    0  0.00000000000E+00  0.00000000000E+00 -0.78072631516E+03  0.38789073597E+04  0.37995248027E+04 0.  0.
        5    1    3    3  502    0  0.12162080229E+03  0.14851732045E+04 -0.15933474328E+04  0.21815841030E+04  0.46999998093E+01 0.  1.
       -5    1    3    3    0  502 -0.12162080229E+03 -0.14851732045E+04  0.81262111763E+03  0.16973232567E+04  0.46999998093E+01 0. -1.
</event>
<event>
 5   0  0.1150235E-07  0.3784405E+04  0.7818609E-02  0.8049510E-01
        2   -1    0    0  501    0  0.00000000000E+00  0.00000000000E+00  0.15205506363E+04  0.15205506363E+04  0.25500000920E-02 0.  1.
       -2   -1    0    0    0  501  0.00000000000E+00  0.00000000000E+00 -0.23546936309E+04  0.23546936309E+04  0.25500000920E-02 0. -1.
    10030    2    1    2    0    0  0.00000000000E+00  0.00000000000E+00 -0.83414299458E+03  0.38752442671E+04  0.37844053158E+04 0.  0.
        4    1    3    3  502    0  0.78422034974E+03  0.51800505325E+03 -0.20987765996E+04  0.22996077100E+04  0.12699999809E+01 0. -1.
       -4    1    3    3    0  502 -0.78422034974E+03 -0.51800505325E+03  0.12646336050E+04  0.15756365571E+04  0.12699999809E+01 0.  1.
</event>
<event>
 5   0  0.3889225E-08  0.3789971E+04  0.7818609E-02  0.8048311E-01
       -1   -1    0    0    0  501  0.00000000000E+00  0.00000000000E+00  0.15914098937E+04  0.15914098937E+04  0.50400001928E-02 0. -1.
        1   -1    0    0  501    0  0.00000000000E+00  0.00000000000E+00 -0.22564703841E+04  0.22564703841E+04  0.50400001928E-02 0.  1.
    10030    2    1    2    0    0  0.00000000000E+00  0.00000000000E+00 -0.66506049044E+03  0.38478802778E+04  0.37899706036E+04 0.  0.
        5    1    3    3  502    0 -0.87677158113E+03  0.16412628378E+04  0.31380756200E+02  0.18610424364E+04  0.46999998093E+01 0. -1.
       -5    1    3    3    0  502  0.87677158113E+03 -0.16412628378E+04 -0.69644124664E+03  0.19868378414E+04  0.46999998093E+01 0.  1.
</event>
<event>
 5   0  0.3701250E-08  0.3800848E+04  0.7818609E-02  0.8045973E-01
       -1   -1    0    0    0  501  0.00000000000E+00  0.00000000000E+00  0.20190587588E+04  0.20190587588E+04  0.50400001928E-02 0.  1.
        1   -1    0    0  501    0  0.00000000000E+00  0.00000000000E+00 -0.17887603883E+04  0.17887603883E+04  0.50400001928E-02 0. -1.
    10030    2    1    2    0    0  0.00000000000E+00  0.00000000000E+00  0.23029837046E+03  0.38078191471E+04  0.38008484997E+04 0.  0.
        3    1    3    3  502    0 -0.14433421270E+04  0.81548660981E+02 -0.11206956110E+04  0.18291652037E+04  0.10100000352E+00 0. -1.
       -3    1    3    3    0  502  0.14433421270E+04 -0.81548660981E+02  0.13509939815E+04  0.19786539434E+04  0.10100000352E+00 0.  1.
</event>
<event>
 5   0  0.3701250E-08  0.3618873E+04  0.7818609E-02  0.8086182E-01
       -1   -1    0    0    0  501  0.00000000000E+00  0.00000000000E+00  0.21103634804E+04  0.21103634804E+04  0.50400001928E-02 0.  1.
        1   -1    0    0  501    0  0.00000000000E+00  0.00000000000E+00 -0.15514204011E+04  0.15514204011E+04  0.50400001928E-02 0. -1.
    10030    2    1    2    0    0  0.00000000000E+00  0.00000000000E+00  0.55894307931E+03  0.36617838815E+04  0.36188732816E+04 0.  0.
        4    1    3    3  502    0  0.46725906557E+03  0.85855131283E+02  0.20461286296E+04  0.21005585256E+04  0.12699999809E+01 0.  1.
       -4    1    3    3    0  502 -0.46725906557E+03 -0.85855131283E+02 -0.14871855503E+04  0.15612253558E+04  0.12699999809E+01 0. -1.
</event>
<event>
 5   0  0.1193861E-07  0.3816030E+04  0.7818609E-02  0.8042724E-01
        2   -1    0    0  501    0  0.00000000000E+00  0.00000000000E+00  0.23015358214E+04  0.23015358214E+04  0.25500000920E-02 0. -1.
       -2   -1    0    0    0  501  0.00000000000E+00  0.00000000000E+00 -0.15817788221E+04  0.15817788221E+04  0.25500000920E-02 0.  1.
    10030    2    1    2    0    0  0.00000000000E+00  0.00000000000E+00  0.71975699935E+03  0.38833146435E+04  0.38160296753E+04 0.  0.
        3    1    3    3  502    0  0.95329588504E+02 -0.43264977914E+03 -0.15287127997E+04  0.15916143993E+04  0.10100000352E+00 0.  1.
       -3    1    3    3    0  502 -0.95329588504E+02  0.43264977914E+03  0.22484697991E+04  0.22917002442E+04  0.10100000352E+00 0. -1.
</event>
<event>
 5   0  0.1143283E-07  0.3783385E+04  0.7818609E-02  0.8049730E-01
        2   -1    0    0  501    0  0.00000000000E+00  0.00000000000E+00  0.21426351352E+04  0.21426351352E+04  0.25500000920E-02 0. -1.
       -2   -1    0    0    0  501  0.00000000000E+00  0.00000000000E+00 -0.16701397070E+04  0.16701397070E+04  0.25500000920E-02 0.  1.
    10030    2    1    2    0    0  0.00000000000E+00  0.00000000000E+00  0.47249542814E+03  0.38127748422E+04  0.37833847370E+04 0.  0.
        1    1    3    3  502    0 -0.68640486865E+03  0.16994349396E+04 -0.23565179621E+03  0.18479076078E+04  0.50400001928E-02 0. -1.
       -1    1    3    3    0  502  0.68640486865E+03 -0.16994349396E+04  0.70814722434E+03  0.19648672345E+04  0.50400001928E-02 0.  1.
</event>
<event>
 5   0  0.3701250E-08  0.3750707E+04  0.7818609E-02  0.8056817E-01
        1   -1    0    0  501    0  0.00000000000E+00  0.00000000000E+00  0.21811542925E+04  0.21811542925E+04  0.50400001928E-02 0. -1.
       -1   -1    0    0    0  501  0.00000000000E+00  0.00000000000E+00 -0.16124264599E+04  0.16124264599E+04  0.50400001928E-02 0.  1.
    10030    2    1    2    0    0  0.00000000000E+00  0.00000000000E+00  0.56872783258E+03  0.37935807524E+04  0.37507070770E+04 0.  0.
        2    1    3    3  502    0 -0.49676481210E+03  0.13275223105E+04 -0.95762212367E+03  0.17105937259E+04  0.25500000920E-02 0.  1.
       -2    1    3    3    0  502  0.49676481210E+03 -0.13275223105E+04  0.15263499562E+04  0.20829870264E+04  0.25500000920E-02 0. -1.
</event>
<event>
 5   0  0.3889225E-08  0.3757337E+04  0.7818609E-02  0.8055373E-01
        1   -1    0    0  501    0  0.00000000000E+00  0.00000000000E+00  0.10840506297E+04  0.10840506298E+04  0.50400001928E-02 0. -1.
       -1   -1    0    0    0  501  0.00000000000E+00  0.00000000000E+00 -0.32557479818E+04  0.32557479818E+04  0.50400001928E-02 0.  1.
    10030    2    1    2    0    0  0.00000000000E+00  0.00000000000E+00 -0.21716973521E+04  0.43397986116E+04  0.37573371688E+04 0.  0.
        5    1    3    3  502    0  0.30792277676E+03 -0.14745180417E+03 -0.32196097446E+04  0.32376638906E+04  0.46999998093E+01 0.  1.
       -5    1    3    3    0  502 -0.30792277676E+03  0.14745180417E+03  0.10479123925E+04  0.11021347210E+04  0.46999998093E+01 0. -1.
</event>
<event>
 5   0  0.1193861E-07  0.3761247E+04  0.7818609E-02  0.8054523E-01
        2   -1    0    0  501    0  0.00000000000E+00  0.00000000000E+00  0.21304999466E+04  0.21304999466E+04  0.25500000920E-02 0. -1.
       -2   -1    0    0    0  501  0.00000000000E+00  0.00000000000E+00 -0.16600539863E+04  0.16600539863E+04  0.25500000920E-02 0.  1.
    10030    2    1    2    0    0  0.00000000000E+00  0.00000000000E+00  0.47044596029E+03  0.37905539329E+04  0.37612470960E+04 0.  0.
        3    1    3    3  502    0 -0.44519441781E+03 -0.60723644638E+03  0.19719645606E+04  0.21108241068E+04  0.10100000352E+00 0. -1.
       -3    1    3    3    0  502  0.44519441781E+03  0.60723644638E+03 -0.15015186003E+04  0.16797298261E+04  0.10100000352E+00 0.  1.
</event>
<event>
 5   0  0.1143283E-07  0.3859868E+04  0.7818609E-02  0.8033428E-01
        2   -1    0    0  501    0  0.00000000000E+00  0.00000000000E+00  0.17468392048E+04  0.17468392048E+04  0.25500000920E-02 0. -1.
       -2   -1    0    0    0  501  0.00000000000E+00  0.00000000000E+00 -0.21322195941E+04  0.21322195941E+04  0.25500000920E-02 0.  1.
    10030    2    1    2    0    0  0.00000000000E+00  0.00000000000E+00 -0.38538038931E+03  0.38790587989E+04  0.38598677595E+04 0.  0.
        1    1    3    3  502    0 -0.57882249628E+02  0.78676047857E+02 -0.21297340539E+04  0.21319726583E+04  0.50400001928E-02 0.  1.
       -1    1    3    3    0  502  0.57882249628E+02 -0.78676047857E+02  0.17443536646E+04  0.17470861406E+04  0.50400001928E-02 0. -1.
</event>
<event>
 5   0  0.3701250E-08  0.3869615E+04  0.7818609E-02  0.8031379E-01
       -3   -1    0    0    0  501  0.00000000000E+00  0.00000000000E+00  0.16336026861E+04  0.16336026892E+04  0.10100000352E+00 0.  1.
        3   -1    0    0  501    0  0.00000000000E+00  0.00000000000E+00 -0.22915481755E+04  0.22915481777E+04  0.10100000352E+00 0. -1.
    10030    2    1    2    0    0  0.00000000000E+00  0.00000000000E+00 -0.65794548936E+03  0.39251508669E+04  0.38696145882E+04 0.  0.
        3    1    3    3  502    0  0.15411714529E+04 -0.37016562972E+03  0.79656813380E+03  0.17739089161E+04  0.10100000352E+00 0.  1.
       -3    1    3    3    0  502 -0.15411714529E+04  0.37016562972E+03 -0.14545136232E+04  0.21512419508E+04  0.10100000352E+00 0. -1.
</event>
<event>
 5   0  0.3889225E-08  0.3928826E+04  0.7818609E-02  0.8019061E-01
       -1   -1    0    0    0  501  0.00000000000E+00  0.00000000000E+00  0.14996373732E+04  0.14996373732E+04  0.50400001928E-02 0. -1.
        1   -1    0    0  501    0  0.00000000000E+00  0.00000000000E+00 -0.25732340126E+04  0.25732340126E+04  0.50400001928E-02 0.  1.
    10030    2    1    2    0    0  0.00000000000E+00  0.00000000000E+00 -0.10735966394E+04  0.40728713857E+04  0.39288257254E+04 0.  0.
        5    1    3    3  502    0  0.48368397649E+03  0.16615243320E+04  0.42695479249E+03  0.17823932730E+04  0.46999998093E+01 0. -1.
       -5    1    3    3    0  502 -0.48368397649E+03 -0.16615243320E+04 -0.15005514319E+04  0.22904781127E+04  0.46999998093E+01 0.  1.
</event>
<event>
 5   0  0.3701250E-08  0.3809325E+04  0.7818609E-02  0.8044157E-01
        4   -1    0    0  501    0  0.00000000000E+00  0.00000000000E+00  0.19746609475E+04  0.19746613559E+04  0.12699999809E+01 0.  1.
       -4   -1    0    0    0  501  0.00000000000E+00  0.00000000000E+00 -0.18371441857E+04  0.18371446247E+04  0.12699999809E+01 0. -1.
    10030    2    1    2    0    0  0.00000000000E+00  0.00000000000E+00  0.13751676179E+03  0.38118059806E+04  0.38093246086E+04 0.  0.
        4    1    3    3  502    0  0.45666643126E+03 -0.10286327737E+04  0.16063487987E+04  0.19613739288E+04  0.12699999809E+01 0.  1.
       -4    1    3    3    0  502 -0.45666643126E+03  0.10286327737E+04 -0.14688320370E+04  0.18504320518E+04  0.12699999809E+01 0. -1.
</event>
<event>
 5   0  0.3889225E-08  0.3759316E+04  0.7818609E-02  0.8054942E-01
        1   -1    0    0  501    0  0.00000000000E+00  0.00000000000E+00  0.19657724816E+04  0.19657724816E+04  0.50400001928E-02 0.  1.
       -1   -1    0    0    0  501  0.00000000000E+00  0.00000000000E+00 -0.17973159378E+04  0.17973159378E+04  0.50400001928E-02 0. -1.
    10030    2    1    2    0    0  0.00000000000E+00  0.00000000000E+00  0.16845654373E+03  0.37630884194E+04  0.37593160076E+04 0.  0.
        5    1    3    3  502    0  0.58796158198E+03 -0.17105634222E+04  0.59598103875E+03  0.19044530794E+04  0.46999998093E+01 0.  1.
       -5    1    3    3    0  502 -0.58796158198E+03  0.17105634222E+04 -0.42752449502E+03  0.18586353400E+04  0.46999998093E+01 0. -1.
</event>
<event>
 5   0  0.3701250E-08  0.3803935E+04  0.7818609E-02  0.8045311E-01
       -1   -1    0    0    0  501  0.00000000000E+00  0.00000000000E+00  0.22219546754E+04  0.22219546754E+04  0.50400001928E-02 0.  1.
        1   -1    0    0  501    0  0.00000000000E+00  0.00000000000E+00 -0.16280622267E+04  0.16280622267E+04  0.50400001928E-02 0. -1.
    10030    2    1    2    0    0  0.00000000000E+00  0.00000000000E+00  0.59389244867E+03  0.38500169021E+04  0.38039350555E+04 0.  0.
        2    1    3    3  502    0 -0.68651406618E+03  0.49317797460E+03  0.20213924234E+04  0.21910165237E+04  0.25500000920E-02 0.  1.
       -2    1    3    3    0  502  0.68651406618E+03 -0.49317797460E+03 -0.14274999748E+04  0.16590003784E+04  0.25500000920E-02 0. -1.
</event>
<event>
 5   0  0.3889225E-08  0.3799178E+04  0.7818609E-02  0.8046331E-01
        1   -1    0    0  501    0  0.00000000000E+00  0.00000000000E+00  0.21495523351E+04  0.21495523351E+04  0.50400001928E-02 0. -1.
       -1   -1    0    0    0  501  0.00000000000E+00  0.00000000000E+00 -0.16786931658E+04  0.16786931658E+04  0.50400001928E-02 0.  1.
    10030    2    1    2    0    0  0.00000000000E+00  0.00000000000E+00  0.47085916937E+03  0.38282455009E+04  0.37991782345E+04 0.  0.
        5    1    3    3  502    0  0.83989092785E+03  0.91479384618E+03 -0.12129795810E+04  0.17359741086E+04  0.46999998093E+01 0.  1.
       -5    1    3    3    0  502 -0.83989092785E+03 -0.91479384618E+03  0.16838387504E+04  0.20922713923E+04  0.46999998093E+01 0. -1.
</event>
<event>
 5   0  0.1174870E-07  0.3798316E+04  0.7818609E-02  0.8046516E-01
        2   -1    0    0  501    0  0.00000000000E+00  0.00000000000E+00  0.25829696704E+04  0.25829696704E+04  0.25500000920E-02 0. -1.
       -2   -1    0    0    0  501  0.00000000000E+00  0.00000000000E+00 -0.13963779289E+04  0.13963779289E+04  0.25500000920E-02 0.  1.
    10030    2    1    2    0    0  0.00000000000E+00  0.00000000000E+00  0.11865917414E+04  0.39793475993E+04  0.37983163843E+04 0.  0.
        5    1    3    3  502    0 -0.11616646766E+04  0.38256715806E+03 -0.92886468582E+03  0.15357845376E+04  0.46999998093E+01 0.  1.
       -5    1    3    3    0  502  0.11616646766E+04 -0.38256715806E+03  0.21154564273E+04  0.24435630618E+04  0.46999998093E+01 0. -1.
</event>
<event>
 5   0  0.1193861E-07  0.3814688E+04  0.7818609E-02  0.8043010E-01
       -2   -1    0    0    0  501  0.00000000000E+00  0.00000000000E+00  0.14573711433E+04  0.14573711433E+04  0.25500000920E-02 0. -1.
        2   -1    0    0  501    0  0.00000000000E+00  0.00000000000E+00 -0.24962488869E+04  0.24962488869E+04  0.25500000920E-02 0.  1.
    10030    2    1    2    0    0  0.00000000000E+00  0.00000000000E+00 -0.10388777436E+04  0.39536200301E+04  0.38146879789E+04 0.  0.
        3    1    3    3  502    0 -0.84869422434E+03  0.12295652223E+04 -0.17483067098E+04  0.22997149571E+04  0.10100000352E+00 0.  1.
       -3    1    3    3    0  502  0.84869422434E+03 -0.12295652223E+04  0.70942896618E+03  0.16539050730E+04  0.10100000352E+00 0. -1.
</event>
<event>
 5   0  0.7858367E-08  0.3801414E+04  0.7818609E-02  0.8045852E-01
        2   -1    0    0  501    0  0.00000000000E+00  0.00000000000E+00  0.18125935650E+04  0.18125935650E+04  0.25500000920E-02 0. -1.
       -2   -1    0    0    0  501  0.00000000000E+00  0.00000000000E+00 -0.19931035712E+04  0.19931035712E+04  0.25500000920E-02 0.  1.
    10030    2    1    2    0    0  0.00000000000E+00  0.00000000000E+00 -0.18051000616E+03  0.38056971362E+04  0.38014137936E+04 0.  0.
        2    1    3    3  502    0  0.17474141684E+04  0.72049086128E+03 -0.29078884398E+03  0.19123601933E+04  0.25500000920E-02 0.  1.
       -2    1    3    3    0  502 -0.17474141684E+04 -0.72049086128E+03  0.11027883782E+03  0.18933369429E+04  0.25500000920E-02 0. -1.
</event>
<event>
 5   0  0.1150235E-07  0.3746445E+04  0.7818609E-02  0.8057746E-01
       -2   -1    0    0    0  501  0.00000000000E+00  0.00000000000E+00  0.11081138048E+04  0.11081138048E+04  0.25500000920E-02 0. -1.
        2   -1    0    0  501    0  0.00000000000E+00  0.00000000000E+00 -0.31666076842E+04  0.31666076842E+04  0.25500000920E-02 0.  1.
    10030    2    1    2    0    0  0.00000000000E+00  0.00000000000E+00 -0.20584938795E+04  0.42747214890E+04  0.37464445488E+04 0.  0.
        4    1    3    3  502    0 -0.12465690612E+04  0.50195230786E+03  0.45978737183E+03  0.14203156634E+04  0.12699999809E+01 0. -1.
       -4    1    3    3    0  502  0.12465690612E+04 -0.50195230786E+03 -0.25182812513E+04  0.28544058256E+04  0.12699999809E+01 0.  1.
</event>
<event>
 5   0  0.3701250E-08  0.3845758E+04  0.7818609E-02  0.8036406E-01
        1   -1    0    0  501    0  0.00000000000E+00  0.00000000000E+00  0.24050713238E+04  0.24050713238E+04  0.50400001928E-02 0.  1.
       -1   -1    0    0    0  501  0.00000000000E+00  0.00000000000E+00 -0.15373615656E+04  0.15373615656E+04  0.50400001928E-02 0. -1.
    10030    2    1    2    0    0  0.00000000000E+00  0.00000000000E+00  0.86770975812E+03  0.39424328894E+04  0.38457582949E+04 0.  0.
        2    1    3    3  502    0 -0.70051590085E+03  0.10799971280E+04  0.18981696242E+04  0.22935047953E+04  0.25500000920E-02 0.  1.
       -2    1    3    3    0  502  0.70051590085E+03 -0.10799971280E+04 -0.10304598661E+04  0.16489280941E+04  0.25500000920E-02 0. -1.
</event>
<event>
 5   0  0.1150235E-07  0.3821484E+04  0.7818609E-02  0.8041560E-01
       -2   -1    0    0    0  501  0.00000000000E+00  0.00000000000E+00  0.26726311518E+04  0.26726311518E+04  0.25500000920E-02 0. -1.
        2   -1    0    0  501    0  0.00000000000E+00  0.00000000000E+00 -0.13660448684E+04  0.13660448684E+04  0.25500000920E-02 0.  1.
    10030    2    1    2    0    0  0.00000000000E+00  0.00000000000E+00  0.13065862833E+04  0.40386760202E+04  0.38214835182E+04 0.  0.
        4    1    3    3  502    0 -0.15526521681E+03  0.17259281506E+04 -0.19744045835E+03  0.17441099782E+04  0.12699999809E+01 0.  1.
       -4    1    3    3    0  502  0.15526521681E+03 -0.17259281506E+04  0.15040267417E+04  0.22945660420E+04  0.12699999809E+01 0. -1.
</event>
<event>
 5   0  0.3701250E-08  0.3796374E+04  0.7818609E-02  0.8046933E-01
        1   -1    0    0  501    0  0.00000000000E+00  0.00000000000E+00  0.17887833998E+04  0.17887833998E+04  0.50400001928E-02 0.  1.
       -1   -1    0    0    0  501  0.00000000000E+00  0.00000000000E+00 -0.20142817858E+04  0.20142817858E+04  0.50400001928E-02 0. -1.
    10030    2    1    2    0    0  0.00000000000E+00  0.00000000000E+00 -0.22549838599E+03  0.38030651856E+04  0.37963739652E+04 0.  0.
        4    1    3    3  502    0 -0.41246653783E+02 -0.23437945340E+03  0.17737792988E+04  0.17896730507E+04  0.12699999809E+01 0.  1.
       -4    1    3    3    0  502  0.41246653783E+02  0.23437945340E+03 -0.19992776848E+04  0.20133921348E+04  0.12699999809E+01 0. -1.
</event>
<event>
 5   0  0.3701250E-08  0.3798005E+04  0.7818609E-02  0.8046583E-01
       -1   -1    0    0    0  501  0.00000000000E+00  0.00000000000E+00  0.19694759818E+04  0.19694759818E+04  0.50400001928E-02 0.  1.
        1   -1    0    0  501    0  0.00000000000E+00  0.00000000000E+00 -0.18310506030E+04  0.18310506031E+04  0.50400001928E-02 0. -1.
    10030    2    1    2    0    0  0.00000000000E+00  0.00000000000E+00  0.13842537871E+03  0.38005265848E+04  0.37980048363E+04 0.  0.
        2    1    3    3  502    0  0.18741406052E+04 -0.44883448028E+02 -0.23396149700E+03  0.18892208748E+04  0.25500000920E-02 0. -1.
       -2    1    3    3    0  502 -0.18741406052E+04  0.44883448028E+02  0.37238687571E+03  0.19113057100E+04  0.25500000920E-02 0.  1.
</event>
<event>
 5   0  0.1143283E-07  0.3790361E+04  0.7818609E-02  0.8048227E-01
       -2   -1    0    0    0  501  0.00000000000E+00  0.00000000000E+00  0.15154757268E+04  0.15154757268E+04  0.25500000920E-02 0.  1.
        2   -1    0    0  501    0  0.00000000000E+00  0.00000000000E+00 -0.23700207377E+04  0.23700207377E+04  0.25500000920E-02 0. -1.
    10030    2    1    2    0    0  0.00000000000E+00  0.00000000000E+00 -0.85454501092E+03  0.38854964645E+04  0.37903608799E+04 0.  0.
        1    1    3    3  502    0 -0.14796323078E+04 -0.45044828956E+02  0.78580084269E+03  0.16759545839E+04  0.50400001928E-02 0.  1.
       -1    1    3    3    0  502  0.14796323078E+04  0.45044828956E+02 -0.16403458536E+04  0.22095418806E+04  0.50400001928E-02 0. -1.
</event>
<event>
 5   0  0.3701250E-08  0.3799297E+04  0.7818609E-02  0.8046306E-01
        1   -1    0    0  501    0  0.00000000000E+00  0.00000000000E+00  0.23441004082E+04  0.23441004082E+04  0.50400001928E-02 0. -1.
       -1   -1    0    0    0  501  0.00000000000E+00  0.00000000000E+00 -0.15394669977E+04  0.15394669977E+04  0.50400001928E-02 0.  1.
    10030    2    1    2    0    0  0.00000000000E+00  0.00000000000E+00  0.80463341053E+03  0.38835674060E+04  0.37992974181E+04 0.  0.
        3    1    3    3  502    0 -0.14742275291E+04 -0.11459802423E+04  0.45214668661E+02  0.18677960005E+04  0.10100000352E+00 0. -1.
       -3    1    3    3    0  502  0.14742275291E+04  0.11459802423E+04  0.75941874187E+03  0.20157714054E+04  0.10100000352E+00 0.  1.
</event>
<event>
 5   0  0.1193861E-07  0.3794402E+04  0.7818609E-02  0.8047357E-01
        2   -1    0    0  501    0  0.00000000000E+00  0.00000000000E+00  0.15081483544E+04  0.15081483544E+04  0.25500000920E-02 0. -1.
       -2   -1    0    0    0  501  0.00000000000E+00  0.00000000000E+00 -0.23866158444E+04  0.23866158444E+04  0.25500000920E-02 0.  1.
    10030    2    1    2    0    0  0.00000000000E+00  0.00000000000E+00 -0.87846748999E+03  0.38947641987E+04  0.37944015382E+04 0.  0.
        3    1    3    3  502    0  0.14894885587E+04  0.91838318773E+03  0.31320879071E+03  0.17776680238E+04  0.10100000352E+00 0.  1.
       -3    1    3    3    0  502 -0.14894885587E+04 -0.91838318773E+03 -0.11916762807E+04  0.21170961750E+04  0.10100000352E+00 0. -1.
</event>
<event>
 5   0  0.3701250E-08  0.3795110E+04  0.7818609E-02  0.8047205E-01
       -1   -1    0    0    0  501  0.00000000000E+00  0.00000000000E+00  0.16740465248E+04  0.16740465248E+04  0.50400001928E-02 0. -1.
        1   -1    0    0  501    0  0.00000000000E+00  0.00000000000E+00 -0.21509051255E+04  0.21509051255E+04  0.50400001928E-02 0.  1.
    10030    2    1    2    0    0  0.00000000000E+00  0.00000000000E+00 -0.47685860070E+03  0.38249516502E+04  0.37951101435E+04 0.  0.
        4    1    3    3  502    0 -0.40567265593E+03 -0.11712005708E+04 -0.16865405079E+04  0.20930125605E+04  0.12699999809E+01 0.  1.
       -4    1    3    3    0  502  0.40567265593E+03  0.11712005708E+04  0.12096819072E+04  0.17319390897E+04  0.12699999809E+01 0. -1.
</event>
<event>
 5   0  0.3889225E-08  0.3812768E+04  0.7818609E-02  0.8043420E-01
       -1   -1    0    0    0  501  0.00000000000E+00  0.00000000000E+00  0.27953460234E+04  0.27953460234E+04  0.50400001928E-02 0. -1.
        1   -1    0    0  501    0  0.00000000000E+00  0.00000000000E+00 -0.13001253497E+04  0.13001253498E+04  0.50400001928E-02 0.  1.
    10030    2    1    2    0    0  0.00000000000E+00  0.00000000000E+00  0.14952206736E+04  0.40954713731E+04  0.38127681421E+04 0.  0.
        5    1    3    3  502    0 -0.18111637865E+04  0.57835278733E+03  0.89749872103E+03  0.21024586208E+04  0.46999998093E+01 0. -1.
       -5    1    3    3    0  502  0.18111637865E+04 -0.57835278733E+03  0.59772195260E+03  0.19930127523E+04  0.46999998093E+01 0.  1.
</event>
<event>
 5   0  0.1193861E-07  0.3808380E+04  0.7818609E-02  0.8044359E-01
        2   -1    0    0  501    0  0.00000000000E+00  0.00000000000E+00  0.26771638182E+04  0.26771638182E+04  0.25500000920E-02 0.  1.
       -2   -1    0    0    0  501  0.00000000000E+00  0.00000000000E+00 -0.13543961991E+04  0.13543961991E+04  0.25500000920E-02 0. -1.
    10030    2    1    2    0    0  0.00000000000E+00  0.00000000000E+00  0.13227676190E+04  0.40315600173E+04  0.38083804956E+04 0.  0.
        3    1    3    3  502    0  0.78518844556E+02  0.37867805697E+02 -0.13522827710E+04  0.13550896216E+04  0.10100000352E+00 0. -1.
       -3    1    3    3    0  502 -0.78518844556E+02 -0.37867805697E+02  0.26750503900E+04  0.26764703957E+04  0.10100000352E+00 0.  1.
</event>
<event>
 5   0  0.3701250E-08  0.3801282E+04  0.7818609E-02  0.8045880E-01
        1   -1    0    0  501    0  0.00000000000E+00  0.00000000000E+00  0.21191225134E+04  0.21191225134E+04  0.50400001928E-02 0.  1.
       -1   -1    0    0    0  501  0.00000000000E+00  0.00000000000E+00 -0.17046845094E+04  0.17046845094E+04  0.50400001928E-02 0. -1.
    10030    2    1    2    0    0  0.00000000000E+00  0.00000000000E+00  0.41443800398E+03  0.38238070228E+04  0.38012815324E+04 0.  0.
        1    1    3    3  502    0  0.99083094030E+03  0.29491446583E+03  0.18115727809E+04  0.20857891636E+04  0.50400001928E-02 0.  1.
       -1    1    3    3    0  502 -0.99083094030E+03 -0.29491446583E+03 -0.13971347769E+04  0.17380178593E+04  0.50400001928E-02 0. -1.
</event>
<event>
 5   0  0.1174870E-07  0.3804555E+04  0.7818609E-02  0.8045178E-01
       -2   -1    0    0    0  501  0.00000000000E+00  0.00000000000E+00  0.14520686640E+04  0.14520686640E+04  0.25500000920E-02 0. -1.
        2   -1    0    0  501    0  0.00000000000E+00  0.00000000000E+00 -0.24920715461E+04  0.24920715461E+04  0.25500000920E-02 0.  1.
    10030    2    1    2    0    0  0.00000000000E+00  0.00000000000E+00 -0.10400028821E+04  0.39441402101E+04  0.38045546391E+04 0.  0.
        5    1    3    3  502    0  0.46161102095E+02  0.77233162384E+03  0.12815750450E+04  0.14970249398E+04  0.46999998093E+01 0. -1.
       -5    1    3    3    0  502 -0.46161102095E+02 -0.77233162384E+03 -0.23215779270E+04  0.24471152702E+04  0.46999998093E+01 0.  1.
</event>
<event>
 5   0  0.3701250E-08  0.3788853E+04  0.7818609E-02  0.8048551E-01
        1   -1    0    0  501    0  0.00000000000E+00  0.00000000000E+00  0.14685123424E+04  0.14685123424E+04  0.50400001928E-02 0.  1.
       -1   -1    0    0    0  501  0.00000000000E+00  0.00000000000E+00 -0.24438690683E+04  0.24438690683E+04  0.50400001928E-02 0. -1.
    10030    2    1    2    0    0  0.00000000000E+00  0.00000000000E+00 -0.97535672586E+03  0.39123814107E+04  0.37888530665E+04 0.  0.
        2    1    3    3  502    0 -0.65604315104E+03 -0.17547606070E+04 -0.77841525300E+03  0.20286714150E+04  0.25500000920E-02 0. -1.
       -2    1    3    3    0  502  0.65604315104E+03  0.17547606070E+04 -0.19694147286E+03  0.18837099956E+04  0.25500000920E-02 0.  1.
</event>
<event>
 5   0  0.3701250E-08  0.3801823E+04  0.7818609E-02  0.8045764E-01
       -1   -1    0    0    0  501  0.00000000000E+00  0.00000000000E+00  0.13815781323E+04  0.13815781324E+04  0.50400001928E-02 0.  1.
        1   -1    0    0  501    0  0.00000000000E+00  0.00000000000E+00 -0.26154615807E+04  0.26154615807E+04  0.50400001928E-02 0. -1.
    10030    2    1    2    0    0  0.00000000000E+00  0.00000000000E+00 -0.12338834484E+04  0.39970397131E+04  0.38018229974E+04 0.  0.
        1    1    3    3  502    0  0.65435065378E+03  0.10317497889E+04  0.91412668802E+03  0.15258800762E+04  0.50400001928E-02 0.  1.
       -1    1    3    3    0  502 -0.65435065378E+03 -0.10317497889E+04 -0.21480101364E+04  0.24711596369E+04  0.50400001928E-02 0. -1.
</event>
<event>
 5   0  0.3701250E-08  0.3805210E+04  0.7818609E-02  0.8045038E-01
        3   -1    0    0  501    0  0.00000000000E+00  0.00000000000E+00  0.15276678977E+04  0.15276679010E+04  0.10100000352E+00 0. -1.
       -3   -1    0    0    0  501  0.00000000000E+00  0.00000000000E+00 -0.23695627805E+04  0.23695627827E+04  0.10100000352E+00 0.  1.
    10030    2    1    2    0    0  0.00000000000E+00  0.00000000000E+00 -0.84189488286E+03  0.38972306837E+04  0.38052095879E+04 0.  0.
        5    1    3    3  502    0 -0.76027133500E+03 -0.16574298703E+04  0.13513449945E+03  0.18284883649E+04  0.46999998093E+01 0. -1.
       -5    1    3    3    0  502  0.76027133500E+03  0.16574298703E+04 -0.97702938231E+03  0.20687423188E+04  0.46999998093E+01 0.  1.
</event>
<event>
 5   0  0.3701250E-08  0.3796190E+04  0.7818609E-02  0.8046973E-01
       -1   -1    0    0    0  501  0.00000000000E+00  0.00000000000E+00  0.11687027359E+04  0.11687027359E+04  0.50400001928E-02 0.  1.
        1   -1    0    0  501    0  0.00000000000E+00  0.00000000000E+00 -0.30827041299E+04  0.30827041299E+04  0.50400001928E-02 0. -1.
    10030    2    1    2    0    0  0.00000000000E+00  0.00000000000E+00 -0.19140013939E+04  0.42514068658E+04  0.37961900641E+04 0.  0.
        3    1    3    3  502    0  0.69734253421E+03 -0.17056092230E+04 -0.44700883707E+03  0.18961029356E+04  0.10100000352E+00 0.  1.
       -3    1    3    3    0  502 -0.69734253421E+03  0.17056092230E+04 -0.14669925569E+04  0.23553039302E+04  0.10100000352E+00 0. -1.
</event>
<event>
 5   0  0.7858367E-08  0.3748668E+04  0.7818609E-02  0.8057261E-01
        2   -1    0    0  501    0  0.00000000000E+00  0.00000000000E+00  0.29553070103E+04  0.29553070103E+04  0.25500000920E-02 0. -1.
       -2   -1    0    0    0  501  0.00000000000E+00  0.00000000000E+00 -0.11887523777E+04  0.11887523778E+04  0.25500000920E-02 0.  1.
    10030    2    1    2    0    0  0.00000000000E+00  0.00000000000E+00  0.17665546325E+04  0.41440593880E+04  0.37486681557E+04 0.  0.
        2    1    3    3  502    0 -0.89566923390E+03 -0.15320989112E+04  0.15498502015E+04  0.23561804043E+04  0.25500000920E-02 0. -1.
       -2    1    3    3    0  502  0.89566923390E+03  0.15320989112E+04  0.21670443097E+03  0.17878789838E+04  0.25500000920E-02 0.  1.
</event>
<event>
 5   0  0.1143283E-07  0.3798863E+04  0.7818609E-02  0.8046399E-01
       -2   -1    0    0    0  501  0.00000000000E+00  0.00000000000E+00  0.14913046117E+04  0.14913046117E+04  0.25500000920E-02 0. -1.
        2   -1    0    0  501    0  0.00000000000E+00  0.00000000000E+00 -0.24192507615E+04  0.24192507615E+04  0.25500000920E-02 0.  1.
    10030    2    1    2    0    0  0.00000000000E+00  0.00000000000E+00 -0.92794614986E+03  0.39105553732E+04  0.37988628917E+04 0.  0.
        1    1    3    3  502    0  0.20348554680E+03 -0.27205684711E+03 -0.23877201031E+04  0.24117687672E+04  0.50400001928E-02 0.  1.
       -1    1    3    3    0  502 -0.20348554680E+03  0.27205684711E+03  0.14597739532E+04  0.14987866060E+04  0.50400001928E-02 0. -1.
</event>
<event>
 5   0  0.3701250E-08  0.3793290E+04  0.7818609E-02  0.8047596E-01
       -1   -1    0    0    0  501  0.00000000000E+00  0.00000000000E+00  0.27644290356E+04  0.27644290356E+04  0.50400001928E-02 0. -1.
        1   -1    0    0  501    0  0.00000000000E+00  0.00000000000E+00 -0.13012680541E+04  0.13012680541E+04  0.50400001928E-02 0.  1.
    10030    2    1    2    0    0  0.00000000000E+00  0.00000000000E+00  0.14631609815E+04  0.40656970897E+04  0.37932904934E+04 0.  0.
        4    1    3    3  502    0  0.45783092257E+03 -0.14139357993E+04 -0.53135788194E+03  0.15783429316E+04  0.12699999809E+01 0.  1.
       -4    1    3    3    0  502 -0.45783092257E+03  0.14139357993E+04  0.19945188635E+04  0.24873541581E+04  0.12699999809E+01 0. -1.
</event>
<event>
 5   0  0.3701250E-08  0.3784339E+04  0.7818609E-02  0.8049524E-01
        1   -1    0    0  501    0  0.00000000000E+00  0.00000000000E+00  0.12533403707E+04  0.12533403707E+04  0.50400001928E-02 0. -1.
       -1   -1    0    0    0  501  0.00000000000E+00  0.00000000000E+00 -0.28566106455E+04  0.28566106455E+04  0.50400001928E-02 0.  1.
    10030    2    1    2    0    0  0.00000000000E+00  0.00000000000E+00 -0.16032702748E+04  0.41099510163E+04  0.37843390152E+04 0.  0.
        1    1    3    3  502    0  0.56920726585E+03 -0.31308431219E+03 -0.27317021567E+04  0.28078845010E+04  0.50400001928E-02 0.  1.
       -1    1    3    3    0  502 -0.56920726585E+03  0.31308431219E+03  0.11284318819E+04  0.13020665152E+04  0.50400001928E-02 0. -1.
</event>
<event>
 5   0  0.3701250E-08  0.3774849E+04  0.7818609E-02  0.8051574E-01
        1   -1    0    0  501    0  0.00000000000E+00  0.00000000000E+00  0.22328658707E+04  0.22328658707E+04  0.50400001928E-02 0. -1.
       -1   -1    0    0    0  501  0.00000000000E+00  0.00000000000E+00 -0.15954256111E+04  0.15954256111E+04  0.50400001928E-02 0.  1.
    10030    2    1    2    0    0  0.00000000000E+00  0.00000000000E+00  0.63744025957E+03  0.38282914818E+04  0.37748490811E+04 0.  0.
        1    1    3    3  502    0  0.59602625992E+03 -0.43066284410E+02  0.21343932820E+04  0.22164694200E+04  0.50400001928E-02 0. -1.
       -1    1    3    3    0  502 -0.59602625992E+03  0.43066284410E+02 -0.14969530225E+04  0.16118220618E+04  0.50400001928E-02 0.  1.
</event>
<event>
 5   0  0.3701250E-08  0.3815807E+04  0.7818609E-02  0.8042771E-01
       -1   -1    0    0    0  501  0.00000000000E+00  0.00000000000E+00  0.21273403603E+04  0.21273403603E+04  0.50400001928E-02 0. -1.
        1   -1    0    0  501    0  0.00000000000E+00  0.00000000000E+00 -0.17111017131E+04  0.17111017131E+04  0.50400001928E-02 0.  1.
    10030    2    1    2    0    0  0.00000000000E+00  0.00000000000E+00  0.41623864714E+03  0.38384420734E+04  0.38158069841E+04 0.  0.
        2    1    3    3  502    0 -0.49506116302E+02  0.96385576290E+03  0.18636727096E+04  0.20987483784E+04  0.25500000920E-02 0. -1.
       -2    1    3    3    0  502  0.49506116302E+02 -0.96385576290E+03 -0.14474340625E+04  0.17396936950E+04  0.25500000920E-02 0.  1.
</event>
<event>
 5   0  0.1150235E-07  0.3822584E+04  0.7818609E-02  0.8041326E-01
       -2   -1    0    0    0  501  0.00000000000E+00  0.00000000000E+00  0.14237811692E+04  0.14237811692E+04  0.25500000920E-02 0.  1.
        2   -1    0    0  501    0  0.00000000000E+00  0.00000000000E+00 -0.25657288470E+04  0.25657288470E+04  0.25500000920E-02 0. -1.
    10030    2    1    2    0    0  0.00000000000E+00  0.00000000000E+00 -0.11419476778E+04  0.39895100162E+04  0.38225836382E+04 0.  0.
        4    1    3    3  502    0  0.16075327779E+04 -0.27725085589E+03  0.46851426478E+03  0.16972144527E+04  0.12699999809E+01 0.  1.
       -4    1    3    3    0  502 -0.16075327779E+04  0.27725085589E+03 -0.16104619426E+04  0.22922955635E+04  0.12699999809E+01 0. -1.
</event>
<event>
 5   0  0.1143283E-07  0.3777423E+04  0.7818609E-02  0.8051017E-01
       -2   -1    0    0    0  501  0.00000000000E+00  0.00000000000E+00  0.19270500611E+04  0.19270500611E+04  0.25500000920E-02 0.  1.
        2   -1    0    0  501    0  0.00000000000E+00  0.00000000000E+00 -0.18511358568E+04  0.18511358568E+04  0.25500000920E-02 0. -1.
    10030    2    1    2    0    0  0.00000000000E+00  0.00000000000E+00  0.75914204327E+02  0.37781859179E+04  0.37774231777E+04 0.  0.
        1    1    3    3  502    0  0.10060224033E+04  0.13589761270E+04  0.87975301545E+03  0.19060069670E+04  0.50400001928E-02 0.  1.
       -1    1    3    3    0  502 -0.10060224033E+04 -0.13589761270E+04 -0.80383881113E+03  0.18721789509E+04  0.50400001928E-02 0. -1.
</event>
<event>
 5   0  0.3701250E-08  0.3823271E+04  0.7818609E-02  0.8041179E-01
        1   -1    0    0  501    0  0.00000000000E+00  0.00000000000E+00  0.17241007973E+04  0.17241007973E+04  0.50400001928E-02 0. -1.
       -1   -1    0    0    0  501  0.00000000000E+00  0.00000000000E+00 -0.21195692973E+04  0.21195692973E+04  0.50400001928E-02 0.  1.
    10030    2    1    2    0    0  0.00000000000E+00  0.00000000000E+00 -0.39546849998E+03  0.38436700945E+04  0.38232714344E+04 0.  0.
        3    1    3    3  502    0  0.13468748707E+04  0.11039918503E+04  0.59481263694E+03  0.18402912829E+04  0.10100000352E+00 0. -1.
       -3    1    3    3    0  502 -0.13468748707E+04 -0.11039918503E+04 -0.99028113692E+03  0.20033788117E+04  0.10100000352E+00 0.  1.
</event>
<event>
 5   0  0.7858367E-08  0.3799016E+04  0.7818609E-02  0.8046366E-01
       -2   -1    0    0    0  501  0.00000000000E+00  0.00000000000E+00  0.13304390730E+04  0.13304390730E+04  0.25500000920E-02 0.  1.
        2   -1    0    0  501    0  0.00000000000E+00  0.00000000000E+00 -0.27119846156E+04  0.27119846156E+04  0.25500000920E-02 0. -1.
    10030    2    1    2    0    0  0.00000000000E+00  0.00000000000E+00 -0.13815455426E+04  0.40424236887E+04  0.37990158189E+04 0.  0.
        2    1    3    3  502    0  0.18211671278E+04  0.49700281347E+03 -0.91516013920E+03  0.20978988499E+04  0.25500000920E-02 0.  1.
       -2    1    3    3    0  502 -0.18211671278E+04 -0.49700281347E+03 -0.46638540339E+03  0.19445248388E+04  0.25500000920E-02 0. -1.
</event>
<event>
 5   0  0.3701250E-08  0.3796608E+04  0.7818609E-02  0.8046883E-01
        1   -1    0    0  501    0  0.00000000000E+00  0.00000000000E+00  0.15504081909E+04  0.15504081909E+04  0.50400001928E-02 0. -1.
       -1   -1    0    0    0  501  0.00000000000E+00  0.00000000000E+00 -0.23242639255E+04  0.23242639255E+04  0.50400001928E-02 0.  1.
    10030    2    1    2    0    0  0.00000000000E+00  0.00000000000E+00 -0.77385573461E+03  0.38746721164E+04  0.37966078691E+04 0.  0.
        3    1    3    3  502    0 -0.10504015591E+04 -0.58257280203E+03 -0.18871267657E+04  0.22369581903E+04  0.10100000352E+00 0.  1.
       -3    1    3    3    0  502  0.10504015591E+04  0.58257280203E+03  0.11132710311E+04  0.16377139261E+04  0.10100000352E+00 0. -1.
</event>
<event>
 5   0  0.3701250E-08  0.3806438E+04  0.7818609E-02  0.8044775E-01
       -1   -1    0    0    0  501  0.00000000000E+00  0.00000000000E+00  0.12954984646E+04  0.12954984646E+04  0.50400001928E-02 0.  1.
        1   -1    0    0  501    0  0.00000000000E+00  0.00000000000E+00 -0.27960224777E+04  0.27960224777E+04  0.50400001928E-02 0. -1.
    10030    2    1    2    0    0  0.00000000000E+00  0.00000000000E+00 -0.15005240131E+04  0.40915209422E+04  0.38064381391E+04 0.  0.
        3    1    3    3  502    0 -0.17295875375E+04 -0.77954082972E+03 -0.91358188364E+03  0.21056563878E+04  0.10100000352E+00 0. -1.
       -3    1    3    3    0  502  0.17295875375E+04  0.77954082972E+03 -0.58694212945E+03  0.19858645545E+04  0.10100000352E+00 0.  1.
</event>
<event>
 5   0  0.1193861E-07  0.3771026E+04  0.7818609E-02  0.8052401E-01
       -2   -1    0    0    0  501  0.00000000000E+00  0.00000000000E+00  0.21094781938E+04  0.21094781938E+04  0.25500000920E-02 0.  1.
        2   -1    0    0  501    0  0.00000000000E+00  0.00000000000E+00 -0.16853265566E+04  0.16853265566E+04  0.25500000920E-02 0. -1.
    10030    2    1    2    0    0  0.00000000000E+00  0.00000000000E+00  0.42415163718E+03  0.37948047503E+04  0.37710261842E+04 0.  0.
        3    1    3    3  502    0 -0.76003956761E+03  0.86383939605E+03  0.17152420741E+04  0.20654137671E+04  0.10100000352E+00 0.  1.
       -3    1    3    3    0  502  0.76003956761E+03 -0.86383939605E+03 -0.12910904369E+04  0.17293909832E+04  0.10100000352E+00 0. -1.
</event>
<event>
 5   0  0.3701250E-08  0.3842178E+04  0.7818609E-02  0.8037164E-01
       -1   -1    0    0    0  501  0.00000000000E+00  0.00000000000E+00  0.17310263740E+04  0.17310263740E+04  0.50400001928E-02 0.  1.
        1   -1    0    0  501    0  0.00000000000E+00  0.00000000000E+00 -0.21320202967E+04  0.21320202967E+04  0.50400001928E-02 0. -1.
    10030    2    1    2    0    0  0.00000000000E+00  0.00000000000E+00 -0.40099392268E+03  0.38630466706E+04  0.38421782173E+04 0.  0.
        4    1    3    3  502    0  0.81910673294E+03 -0.17047706321E+04 -0.53907963165E+03  0.19666690648E+04  0.12699999809E+01 0. -1.
       -4    1    3    3    0  502 -0.81910673294E+03  0.17047706321E+04  0.13808570898E+03  0.18963776059E+04  0.12699999809E+01 0.  1.
</event>
<event>
 5   0  0.3701250E-08  0.3804490E+04  0.7818609E-02  0.8045192E-01
       -1   -1    0    0    0  501  0.00000000000E+00  0.00000000000E+00  0.31083206390E+04  0.31083206391E+04  0.50400001928E-02 0. -1.
        1   -1    0    0  501    0  0.00000000000E+00  0.00000000000E+00 -0.11641449983E+04  0.11641449983E+04  0.50400001928E-02 0.  1.
    10030    2    1    2    0    0  0.00000000000E+00  0.00000000000E+00  0.19441756407E+04  0.42724656374E+04  0.38044899396E+04 0.  0.
        3    1    3    3  502    0 -0.91036046488E+03  0.78603749970E+03  0.26271127099E+04  0.28893480800E+04  0.10100000352E+00 0. -1.
       -3    1    3    3    0  502  0.91036046488E+03 -0.78603749970E+03 -0.68293706914E+03  0.13831175574E+04  0.10100000352E+00 0.  1.
</event>
<event>
 5   0  0.7858367E-08  0.3794404E+04  0.7818609E-02  0.8047357E-01
        2   -1    0    0  501    0  0.00000000000E+00  0.00000000000E+00  0.20526451097E+04  0.20526451097E+04  0.25500000920E-02 0. -1.
       -2   -1    0    0    0  501  0.00000000000E+00  0.00000000000E+00 -0.17535300708E+04  0.17535300708E+04  0.25500000920E-02 0.  1.
    10030    2    1    2    0    0  0.00000000000E+00  0.00000000000E+00  0.29911503893E+03  0.38061751805E+04  0.37944037342E+04 0.  0.
        2    1    3    3  502    0  0.20001768842E+03  0.44683844062E+01  0.20420338325E+04  0.20518112036E+04  0.25500000920E-02 0. -1.
       -2    1    3    3    0  502 -0.20001768842E+03 -0.44683844062E+01 -0.17429187936E+04  0.17543639768E+04  0.25500000920E-02 0.  1.
</event>
<event>
 5   0  0.3701250E-08  0.3799129E+04  0.7818609E-02  0.8046342E-01
        1   -1    0    0  501    0  0.00000000000E+00  0.00000000000E+00  0.21610356007E+04  0.21610356007E+04  0.50400001928E-02 0. -1.
       -1   -1    0    0    0  501  0.00000000000E+00  0.00000000000E+00 -0.16697300569E+04  0.16697300569E+04  0.50400001928E-02 0.  1.
    10030    2    1    2    0    0  0.00000000000E+00  0.00000000000E+00  0.49130554386E+03  0.38307656576E+04  0.37991294248E+04 0.  0.
        4    1    3    3  502    0 -0.10506034243E+04  0.22989221130E+02  0.18412484749E+04  0.21200220797E+04  0.12699999809E+01 0. -1.
       -4    1    3    3    0  502  0.10506034243E+04 -0.22989221130E+02 -0.13499429310E+04  0.17107435779E+04  0.12699999809E+01 0.  1.
</event>
<event>
 5   0  0.1150235E-07  0.3802450E+04  0.7818609E-02  0.8045629E-01
       -2   -1    0    0    0  501  0.00000000000E+00  0.00000000000E+00  0.15369239060E+04  0.15369239060E+04  0.25500000920E-02 0. -1.
        2   -1    0    0  501    0  0.00000000000E+00  0.00000000000E+00 -0.23518768138E+04  0.23518768138E+04  0.25500000920E-02 0.  1.
    10030    2    1    2    0    0  0.00000000000E+00  0.00000000000E+00 -0.81495290778E+03  0.38888007198E+04  0.38024495784E+04 0.  0.
        4    1    3    3  502    0  0.15307859655E+04 -0.59470491499E+03 -0.13871842214E+04  0.21497119074E+04  0.12699999809E+01 0.  1.
       -4    1    3    3    0  502 -0.15307859655E+04  0.59470491499E+03  0.57223131359E+03  0.17390888123E+04  0.12699999809E+01 0. -1.
</event>
<event>
 5   0  0.1174870E-07  0.3816131E+04  0.7818609E-02  0.8042702E-01
       -2   -1    0    0    0  501  0.00000000000E+00  0.00000000000E+00  0.16356236107E+04  0.16356236107E+04  0.25500000920E-02 0.  1.
        2   -1    0    0  501    0  0.00000000000E+00  0.00000000000E+00 -0.22258873212E+04  0.22258873212E+04  0.25500000920E-02 0. -1.
    10030    2    1    2    0    0  0.00000000000E+00  0.00000000000E+00 -0.59026371050E+03  0.38615109320E+04  0.38161309503E+04 0.  0.
        5    1    3    3  502    0  0.13973584154E+04 -0.79004490891E+03 -0.13388578496E+04  0.20902975699E+04  0.46999998093E+01 0. -1.
       -5    1    3    3    0  502 -0.13973584154E+04  0.79004490891E+03  0.74859413908E+03  0.17712133621E+04  0.46999998093E+01 0.  1.
</event>
<event>
 5   0  0.3701250E-08  0.3798915E+04  0.7818609E-02  0.8046388E-01
       -1   -1    0    0    0  501  0.00000000000E+00  0.00000000000E+00  0.12608179072E+04  0.12608179072E+04  0.50400001928E-02 0. -1.
        1   -1    0    0  501    0  0.00000000000E+00  0.00000000000E+00 -0.28615854541E+04  0.28615854541E+04  0.50400001928E-02 0.  1.
    10030    2    1    2    0    0  0.00000000000E+00  0.00000000000E+00 -0.16007675469E+04  0.41224033613E+04  0.37989146784E+04 0.  0.
        4    1    3    3  502    0 -0.12207931871E+04 -0.11637219043E+04 -0.17484820077E+04  0.24293570385E+04  0.12699999809E+01 0.  1.
       -4    1    3    3    0  502  0.12207931871E+04  0.11637219043E+04  0.14771446083E+03  0.16930463228E+04  0.12699999809E+01 0. -1.
</event>
<event>
 5   0  0.1143283E-07  0.3800052E+04  0.7818609E-02  0.8046144E-01
        2   -1    0    0  501    0  0.00000000000E+00  0.00000000000E+00  0.16246339554E+04  0.16246339554E+04  0.25500000920E-02 0. -1.
       -2   -1    0    0    0  501  0.00000000000E+00  0.00000000000E+00 -0.22220994678E+04  0.22220994678E+04  0.25500000920E-02 0.  1.
    10030    2    1    2    0    0  0.00000000000E+00  0.00000000000E+00 -0.59746551237E+03  0.38467334232E+04  0.38000517090E+04 0.  0.
        1    1    3    3  502    0 -0.11712259243E+04 -0.11355071066E+04 -0.12848411080E+04  0.20765267222E+04  0.50400001928E-02 0.  1.
       -1    1    3    3    0  502  0.11712259243E+04  0.11355071066E+04  0.68737559564E+03  0.17702067011E+04  0.50400001928E-02 0. -1.
</event>
<event>
 5   0  0.3701250E-08  0.3809771E+04  0.7818609E-02  0.8044061E-01
       -1   -1    0    0    0  501  0.00000000000E+00  0.00000000000E+00  0.13535065006E+04  0.13535065006E+04  0.50400001928E-02 0.  1.
        1   -1    0    0  501    0  0.00000000000E+00  0.00000000000E+00 -0.26808798103E+04  0.26808798103E+04  0.50400001928E-02 0. -1.
    10030    2    1    2    0    0  0.00000000000E+00  0.00000000000E+00 -0.13273733097E+04  0.40343863109E+04  0.38097707283E+04 0.  0.
        3    1    3    3  502    0 -0.17019084415E+04  0.74394629037E+03 -0.21610964534E+03  0.18699336392E+04  0.10100000352E+00 0.  1.
       -3    1    3    3    0  502  0.17019084415E+04 -0.74394629037E+03 -0.11112636643E+04  0.21644526717E+04  0.10100000352E+00 0. -1.
</event>
<event>
 5   0  0.7858367E-08  0.3798512E+04  0.7818609E-02  0.8046474E-01
       -2   -1    0    0    0  501  0.00000000000E+00  0.00000000000E+00  0.20319510154E+04  0.20319510154E+04  0.25500000920E-02 0.  1.
        2   -1    0    0  501    0  0.00000000000E+00  0.00000000000E+00 -0.17752262275E+04  0.17752262275E+04  0.25500000920E-02 0. -1.
    10030    2    1    2    0    0  0.00000000000E+00  0.00000000000E+00  0.25672478792E+03  0.38071772430E+04  0.37985116747E+04 0.  0.
        2    1    3    3  502    0 -0.57707257266E+03 -0.50895410099E+03  0.18687354133E+04  0.20209450947E+04  0.25500000920E-02 0.  1.
       -2    1    3    3    0  502  0.57707257266E+03  0.50895410099E+03 -0.16120106254E+04  0.17862321482E+04  0.25500000920E-02 0. -1.
</event>
<event>
 5   0  0.1143283E-07  0.3821382E+04  0.7818609E-02  0.8041582E-01
        2   -1    0    0  501    0  0.00000000000E+00  0.00000000000E+00  0.25612715844E+04  0.25612715844E+04  0.25500000920E-02 0.  1.
       -2   -1    0    0    0  501  0.00000000000E+00  0.00000000000E+00 -0.14253623659E+04  0.14253623659E+04  0.25500000920E-02 0. -1.
    10030    2    1    2    0    0  0.00000000000E+00  0.00000000000E+00  0.11359092184E+04  0.39866339503E+04  0.38213820145E+04 0.  0.
        1    1    3    3  502    0  0.18583402319E+04  0.31978365365E+03  0.24632039117E+03  0.19016739305E+04  0.50400001928E-02 0.  1.
       -1    1    3    3    0  502 -0.18583402319E+04 -0.31978365365E+03  0.88958882728E+03  0.20849600198E+04  0.50400001928E-02 0. -1.
</event>
<event>
 5   0  0.7858367E-08  0.3775123E+04  0.7818609E-02  0.8051515E-01
        2   -1    0    0  501    0  0.00000000000E+00  0.00000000000E+00  0.26853300905E+04  0.26853300905E+04  0.25500000920E-02 0. -1.
       -2   -1    0    0    0  501  0.00000000000E+00  0.00000000000E+00 -0.13267973912E+04  0.13267973912E+04  0.25500000920E-02 0.  1.
    10030    2    1    2    0    0  0.00000000000E+00  0.00000000000E+00  0.13585326993E+04  0.40121274817E+04  0.37751232873E+04 0.  0.
        2    1    3    3  502    0  0.66079724624E+02  0.23210967057E+03  0.26688662835E+04  0.26797553374E+04  0.25500000920E-02 0. -1.
       -2    1    3    3    0  502 -0.66079724624E+02 -0.23210967057E+03 -0.13103335842E+04  0.13323721444E+04  0.25500000920E-02 0.  1.
</event>
<event>
 5   0  0.7858367E-08  0.3799656E+04  0.7818609E-02  0.8046229E-01
       -2   -1    0    0    0  501  0.00000000000E+00  0.00000000000E+00  0.10992312175E+04  0.10992312175E+04  0.25500000920E-02 0.  1.
        2   -1    0    0  501    0  0.00000000000E+00  0.00000000000E+00 -0.32835191824E+04  0.32835191824E+04  0.25500000920E-02 0. -1.
    10030    2    1    2    0    0  0.00000000000E+00  0.00000000000E+00 -0.21842879649E+04  0.43827503999E+04  0.37996561889E+04 0.  0.
        2    1    3    3  502    0  0.14233705471E+03 -0.87768115496E+03 -0.30287072853E+04  0.31565252837E+04  0.25500000920E-02 0. -1.
       -2    1    3    3    0  502 -0.14233705471E+03  0.87768115496E+03  0.84441932037E+03  0.12262251162E+04  0.25500000920E-02 0.  1.
</event>
<event>
 5   0  0.3889225E-08  0.3802749E+04  0.7818609E-02  0.8045565E-01
        1   -1    0    0  501    0  0.00000000000E+00  0.00000000000E+00  0.24612255643E+04  0.24612255643E+04  0.50400001928E-02 0.  1.
       -1   -1    0    0    0  501  0.00000000000E+00  0.00000000000E+00 -0.14688719914E+04  0.14688719914E+04  0.50400001928E-02 0. -1.
    10030    2    1    2    0    0  0.00000000000E+00  0.00000000000E+00  0.99235357298E+03  0.39300975557E+04  0.38027491613E+04 0.  0.
        5    1    3    3  502    0  0.28548658346E+03  0.10909528641E+04  0.20782996701E+04  0.23645363921E+04  0.46999998093E+01 0.  1.
       -5    1    3    3    0  502 -0.28548658346E+03 -0.10909528641E+04 -0.10859460971E+04  0.15655611636E+04  0.46999998093E+01 0. -1.
</event>
<event>
 5   0  0.3701250E-08  0.3745682E+04  0.7818609E-02  0.8057913E-01
        1   -1    0    0  501    0  0.00000000000E+00  0.00000000000E+00  0.22608870533E+04  0.22608870533E+04  0.50400001928E-02 0.  1.
       -1   -1    0    0    0  501  0.00000000000E+00  0.00000000000E+00 -0.15513970492E+04  0.15513970492E+04  0.50400001928E-02 0. -1.
    10030    2    1    2    0    0  0.00000000000E+00  0.00000000000E+00  0.70949000416E+03  0.38122841025E+04  0.37456820490E+04 0.  0.
        4    1    3    3  502    0 -0.16280926124E+04  0.57056372928E+03  0.10966112834E+04  0.20442080235E+04  0.12699999809E+01 0.  1.
       -4    1    3    3    0  502  0.16280926124E+04 -0.57056372928E+03 -0.38712127920E+03  0.17680760790E+04  0.12699999809E+01 0. -1.
</event>
<event>
 5   0  0.7858367E-08  0.3810404E+04  0.7818609E-02  0.8043926E-01
        2   -1    0    0  501    0  0.00000000000E+00  0.00000000000E+00  0.17635991163E+04  0.17635991163E+04  0.25500000920E-02 0. -1.
       -2   -1    0    0    0  501  0.00000000000E+00  0.00000000000E+00 -0.20581739515E+04  0.20581739515E+04  0.25500000920E-02 0.  1.
    10030    2    1    2    0    0  0.00000000000E+00  0.00000000000E+00 -0.29457483526E+03  0.38217730678E+04  0.38104035283E+04 0.  0.
        2    1    3    3  502    0 -0.25946383128E+03 -0.18227486545E+04 -0.63870816339E+03  0.19487642892E+04  0.25500000920E-02 0.  1.
       -2    1    3    3    0  502  0.25946383128E+03  0.18227486545E+04  0.34413332812E+03  0.18730087786E+04  0.25500000920E-02 0. -1.
</event>
<event>
 5   0  0.7858367E-08  0.3756850E+04  0.7818609E-02  0.8055479E-01
        2   -1    0    0  501    0  0.00000000000E+00  0.00000000000E+00  0.25088403721E+04  0.25088403721E+04  0.25500000920E-02 0. -1.
       -2   -1    0    0    0  501  0.00000000000E+00  0.00000000000E+00 -0.14064187353E+04  0.14064187353E+04  0.25500000920E-02 0.  1.
    10030    2    1    2    0    0  0.00000000000E+00  0.00000000000E+00  0.11024216368E+04  0.39152591075E+04  0.37568497991E+04 0.  0.
        2    1    3    3  502    0 -0.18309918708E+04 -0.21450081666E+03  0.17554193866E+03  0.18518522629E+04  0.25500000920E-02 0.  1.
       -2    1    3    3    0  502  0.18309918708E+04  0.21450081666E+03  0.92687969818E+03  0.20634068446E+04  0.25500000920E-02 0. -1.
</event>
<event>
 5   0  0.3889225E-08  0.3864526E+04  0.7818609E-02  0.8032448E-01
       -1   -1    0    0    0  501  0.00000000000E+00  0.00000000000E+00  0.14209948872E+04  0.14209948872E+04  0.50400001928E-02 0.  1.
        1   -1    0    0  501    0  0.00000000000E+00  0.00000000000E+00 -0.26274831927E+04  0.26274831927E+04  0.50400001928E-02 0. -1.
    10030    2    1    2    0    0  0.00000000000E+00  0.00000000000E+00 -0.12064883056E+04  0.40484780799E+04  0.38645259389E+04 0.  0.
        5    1    3    3  502    0  0.76847262660E+03 -0.17659769693E+04 -0.76686192735E+03  0.20729988277E+04  0.46999998093E+01 0. -1.
       -5    1    3    3    0  502 -0.76847262660E+03  0.17659769693E+04 -0.43962637820E+03  0.19754792523E+04  0.46999998093E+01 0.  1.
</event>
<event>
 5   0  0.1143283E-07  0.3780428E+04  0.7818609E-02  0.8050368E-01
        2   -1    0    0  501    0  0.00000000000E+00  0.00000000000E+00  0.17411925743E+04  0.17411925743E+04  0.25500000920E-02 0.  1.
       -2   -1    0    0    0  501  0.00000000000E+00  0.00000000000E+00 -0.20519893113E+04  0.20519893113E+04  0.25500000920E-02 0. -1.
    10030    2    1    2    0    0  0.00000000000E+00  0.00000000000E+00 -0.31079673695E+03  0.37931818856E+04  0.37804277807E+04 0.  0.
        1    1    3    3  502    0 -0.18616658831E+04  0.27542755309E+03 -0.33276678737E+03  0.19111237354E+04  0.50400001928E-02 0. -1.
       -1    1    3    3    0  502  0.18616658831E+04 -0.27542755309E+03  0.21970050421E+02  0.18820581501E+04  0.50400001928E-02 0.  1.
</event>
<event>
 5   0  0.1174870E-07  0.3798794E+04  0.7818609E-02  0.8046414E-01
        2   -1    0    0  501    0  0.00000000000E+00  0.00000000000E+00  0.24044914609E+04  0.24044914609E+04  0.25500000920E-02 0. -1.
       -2   -1    0    0    0  501  0.00000000000E+00  0.00000000000E+00 -0.15004038718E+04  0.15004038718E+04  0.25500000920E-02 0.  1.
    10030    2    1    2    0    0  0.00000000000E+00  0.00000000000E+00  0.90408758905E+03  0.39048953327E+04  0.37987936494E+04 0.  0.
        5    1    3    3  502    0  0.19189270424E+03 -0.74685929914E+03  0.22363439553E+04  0.23655608213E+04  0.46999998093E+01 0. -1.
       -5    1    3    3    0  502 -0.19189270424E+03  0.74685929914E+03 -0.13322563662E+04  0.15393345114E+04  0.46999998093E+01 0.  1.
</event>
<event>
 5   0  0.3701250E-08  0.3796880E+04  0.7818609E-02  0.8046825E-01
        1   -1    0    0  501    0  0.00000000000E+00  0.00000000000E+00  0.16497527860E+04  0.16497527860E+04  0.50400001928E-02 0.  1.
       -1   -1    0    0    0  501  0.00000000000E+00  0.00000000000E+00 -0.21846145596E+04  0.21846145596E+04  0.50400001928E-02 0. -1.
    10030    2    1    2    0    0  0.00000000000E+00  0.00000000000E+00 -0.53486177358E+03  0.38343673456E+04  0.37968797484E+04 0.  0.
        4    1    3    3  502    0 -0.88657089249E+03 -0.78461976945E+03  0.12312823543E+04  0.17081258674E+04  0.12699999809E+01 0.  1.
       -4    1    3    3    0  502  0.88657089249E+03  0.78461976945E+03 -0.17661441279E+04  0.21262414782E+04  0.12699999809E+01 0. -1.
</event>
<event>
 5   0  0.7858367E-08  0.3801890E+04  0.7818609E-02  0.8045749E-01
        2   -1    0    0  501    0  0.00000000000E+00  0.00000000000E+00  0.24637439524E+04  0.24637439524E+04  0.25500000920E-02 0.  1.
       -2   -1    0    0    0  501  0.00000000000E+00  0.00000000000E+00 -0.14667077281E+04  0.14667077281E+04  0.25500000920E-02 0. -1.
    10030    2    1    2    0    0  0.00000000000E+00  0.00000000000E+00  0.99703622431E+03  0.39304516805E+04  0.38018902115E+04 0.  0.
        2    1    3    3  502    0 -0.17750396668E+04 -0.61715225354E+03  0.79446667536E+03  0.20402990029E+04  0.25500000920E-02 0.  1.
       -2    1    3    3    0  502  0.17750396668E+04  0.61715225354E+03  0.20256954895E+03  0.18901526777E+04  0.25500000920E-02 0. -1.
</event>
<event>
 5   0  0.1193861E-07  0.3810622E+04  0.7818609E-02  0.8043879E-01
        2   -1    0    0  501    0  0.00000000000E+00  0.00000000000E+00  0.18731070093E+04  0.18731070093E+04  0.25500000920E-02 0. -1.
       -2   -1    0    0    0  501  0.00000000000E+00  0.00000000000E+00 -0.19380686697E+04  0.19380686697E+04  0.25500000920E-02 0.  1.
    10030    2    1    2    0    0  0.00000000000E+00  0.00000000000E+00 -0.64961660387E+02  0.38111756791E+04  0.38106220017E+04 0.  0.
        3    1    3    3  502    0 -0.75907777337E+03  0.16043788247E+04  0.66042537635E+03  0.18937772222E+04  0.10100000352E+00 0. -1.
       -3    1    3    3    0  502  0.75907777337E+03 -0.16043788247E+04 -0.72538703674E+03  0.19173984569E+04  0.10100000352E+00 0.  1.
</event>
<event>
 5   0  0.1174870E-07  0.3830396E+04  0.7818609E-02  0.8039663E-01
       -2   -1    0    0    0  501  0.00000000000E+00  0.00000000000E+00  0.13082794475E+04  0.13082794475E+04  0.25500000920E-02 0. -1.
        2   -1    0    0  501    0  0.00000000000E+00  0.00000000000E+00 -0.28036690228E+04  0.28036690228E+04  0.25500000920E-02 0.  1.
    10030    2    1    2    0    0  0.00000000000E+00  0.00000000000E+00 -0.14953895754E+04  0.41119484703E+04  0.38303955723E+04 0.  0.
        5    1    3    3  502    0 -0.11517557945E+04 -0.14170682064E+04 -0.12790325247E+03  0.18305750583E+04  0.46999998093E+01 0.  1.
       -5    1    3    3    0  502  0.11517557945E+04  0.14170682064E+04 -0.13674863229E+04  0.22813734121E+04  0.46999998093E+01 0. -1.
</event>
<event>
 5   0  0.3889225E-08  0.3837699E+04  0.7818609E-02  0.8038113E-01
        1   -1    0    0  501    0  0.00000000000E+00  0.00000000000E+00  0.24460302011E+04  0.24460302011E+04  0.50400001928E-02 0.  1.
       -1   -1    0    0    0  501  0.00000000000E+00  0.00000000000E+00 -0.15052890766E+04  0.15052890767E+04  0.50400001928E-02 0. -1.
    10030    2    1    2    0    0  0.00000000000E+00  0.00000000000E+00  0.94074112443E+03  0.39513192777E+04  0.38376985514E+04 0.  0.
        5    1    3    3  502    0 -0.99980225024E+03 -0.14834025161E+04  0.11850931561E+04  0.21458227893E+04  0.46999998093E+01 0.  1.
       -5    1    3    3    0  502  0.99980225024E+03  0.14834025161E+04 -0.24435203170E+03  0.18054964884E+04  0.46999998093E+01 0. -1.
</event>
<event>
 5   0  0.1150235E-07  0.3804325E+04  0.7818609E-02  0.8045227E-01
       -2   -1    0    0    0  501  0.00000000000E+00  0.00000000000E+00  0.11539373219E+04  0.11539373219E+04  0.25500000920E-02 0.  1.
        2   -1    0    0  501    0  0.00000000000E+00  0.00000000000E+00 -0.31355448731E+04  0.31355448731E+04  0.25500000920E-02 0. -1.
    10030    2    1    2    0    0  0.00000000000E+00  0.00000000000E+00 -0.19816075512E+04  0.42894821950E+04  0.38043250406E+04 0.  0.
        4    1    3    3  502    0 -0.17370506365E+04  0.48843839377E+03 -0.31212601887E+03  0.18312130523E+04  0.12699999809E+01 0. -1.
       -4    1    3    3    0  502  0.17370506365E+04 -0.48843839377E+03 -0.16694815323E+04  0.24582691427E+04  0.12699999809E+01 0.  1.
</event>
<event>
 5   0  0.3701250E-08  0.3792241E+04  0.7818609E-02  0.8047822E-01
        1   -1    0    0  501    0  0.00000000000E+00  0.00000000000E+00  0.13310429391E+04  0.13310429391E+04  0.50400001928E-02 0. -1.
       -1   -1    0    0    0  501  0.00000000000E+00  0.00000000000E+00 -0.27010951861E+04  0.27010951861E+04  0.50400001928E-02 0.  1.
    10030    2    1    2    0    0  0.00000000000E+00  0.00000000000E+00 -0.13700522470E+04  0.40321381251E+04  0.37922413822E+04 0.  0.
        3    1    3    3  502    0 -0.10491532166E+04 -0.49927489437E+03 -0.22782407066E+04  0.25574163954E+04  0.10100000352E+00 0.  1.
       -3    1    3    3    0  502  0.10491532166E+04  0.49927489437E+03  0.90818845959E+03  0.14747217298E+04  0.10100000352E+00 0. -1.
</event>
<event>
 5   0  0.1174870E-07  0.3801611E+04  0.7818609E-02  0.8045809E-01
        2   -1    0    0  501    0  0.00000000000E+00  0.00000000000E+00  0.22538060988E+04  0.22538060988E+04  0.25500000920E-02 0. -1.
       -2   -1    0    0    0  501  0.00000000000E+00  0.00000000000E+00 -0.16030930338E+04  0.16030930339E+04  0.25500000920E-02 0.  1.
    10030    2    1    2    0    0  0.00000000000E+00  0.00000000000E+00  0.65071306499E+03  0.38568991327E+04  0.38016106359E+04 0.  0.
        5    1    3    3  502    0 -0.64485034504E+03 -0.16509188631E+03  0.21316859457E+04  0.22332027135E+04  0.46999998093E+01 0. -1.
       -5    1    3    3    0  502  0.64485034504E+03  0.16509188631E+03 -0.14809728807E+04  0.16236964192E+04  0.46999998093E+01 0.  1.
</event>
<event>
 5   0  0.7858367E-08  0.3788131E+04  0.7818609E-02  0.8048707E-01
       -2   -1    0    0    0  501  0.00000000000E+00  0.00000000000E+00  0.15655415648E+04  0.15655415648E+04  0.25500000920E-02 0.  1.
        2   -1    0    0  501    0  0.00000000000E+00  0.00000000000E+00 -0.22915297187E+04  0.22915297187E+04  0.25500000920E-02 0. -1.
    10030    2    1    2    0    0  0.00000000000E+00  0.00000000000E+00 -0.72598815393E+03  0.38570712835E+04  0.37881314769E+04 0.  0.
        2    1    3    3  502    0 -0.58920445527E+03  0.13619042829E+04  0.83551722229E+03  0.17029486765E+04  0.25500000920E-02 0.  1.
       -2    1    3    3    0  502  0.58920445527E+03 -0.13619042829E+04 -0.15615053762E+04  0.21541226070E+04  0.25500000920E-02 0. -1.
</event>
<event>
 5   0  0.1193861E-07  0.3738277E+04  0.7818609E-02  0.8059532E-01
       -2   -1    0    0    0  501  0.00000000000E+00  0.00000000000E+00  0.19662048369E+04  0.19662048369E+04  0.25500000920E-02 0. -1.
        2   -1    0    0  501    0  0.00000000000E+00  0.00000000000E+00 -0.17768642867E+04  0.17768642867E+04  0.25500000920E-02 0.  1.
    10030    2    1    2    0    0  0.00000000000E+00  0.00000000000E+00  0.18934055015E+03  0.37430691236E+04  0.37382772262E+04 0.  0.
        3    1    3    3  502    0  0.12298337953E+04 -0.14050454733E+04  0.10686668202E+02  0.18672863094E+04  0.10100000352E+00 0. -1.
       -3    1    3    3    0  502 -0.12298337953E+04  0.14050454733E+04  0.17865388194E+03  0.18757828142E+04  0.10100000352E+00 0.  1.
</event>
<event>
 5   0  0.3701250E-08  0.3737726E+04  0.7818609E-02  0.8059652E-01
        1   -1    0    0  501    0  0.00000000000E+00  0.00000000000E+00  0.26946793185E+04  0.26946793185E+04  0.50400001928E-02 0. -1.
       -1   -1    0    0    0  501  0.00000000000E+00  0.00000000000E+00 -0.12961279192E+04  0.12961279192E+04  0.50400001928E-02 0.  1.
    10030    2    1    2    0    0  0.00000000000E+00  0.00000000000E+00  0.13985513993E+04  0.39908072377E+04  0.37377260991E+04 0.  0.
        4    1    3    3  502    0  0.12280781041E+04  0.33163311363E+03  0.21610993144E+04  0.25076898157E+04  0.12699999809E+01 0. -1.
       -4    1    3    3    0  502 -0.12280781041E+04 -0.33163311363E+03 -0.76254791508E+03  0.14831174220E+04  0.12699999809E+01 0.  1.
</event>
<event>
 5   0  0.1193861E-07  0.3783713E+04  0.7818609E-02  0.8049659E-01
       -2   -1    0    0    0  501  0.00000000000E+00  0.00000000000E+00  0.11927592791E+04  0.11927592791E+04  0.25500000920E-02 0. -1.
        2   -1    0    0  501    0  0.00000000000E+00  0.00000000000E+00 -0.30007062500E+04  0.30007062500E+04  0.25500000920E-02 0.  1.
    10030    2    1    2    0    0  0.00000000000E+00  0.00000000000E+00 -0.18079469709E+04  0.41934655291E+04  0.37837125808E+04 0.  0.
        3    1    3    3  502    0  0.11293762034E+04  0.15131811616E+04 -0.10346975676E+04  0.21530924047E+04  0.10100000352E+00 0.  1.
       -3    1    3    3    0  502 -0.11293762034E+04 -0.15131811616E+04 -0.77324940328E+03  0.20403731244E+04  0.10100000352E+00 0. -1.
</event>
<event>
 5   0  0.3701250E-08  0.3799424E+04  0.7818609E-02  0.8046279E-01
        1   -1    0    0  501    0  0.00000000000E+00  0.00000000000E+00  0.13812232456E+04  0.13812232456E+04  0.50400001928E-02 0.  1.
       -1   -1    0    0    0  501  0.00000000000E+00  0.00000000000E+00 -0.26128325605E+04  0.26128325605E+04  0.50400001928E-02 0. -1.
    10030    2    1    2    0    0  0.00000000000E+00  0.00000000000E+00 -0.12316093149E+04  0.39940558061E+04  0.37994236770E+04 0.  0.
        1    1    3    3  502    0 -0.86483990540E+03  0.15694954544E+04  0.47086150283E+02  0.17926185174E+04  0.50400001928E-02 0.  1.
       -1    1    3    3    0  502  0.86483990540E+03 -0.15694954544E+04 -0.12786954652E+04  0.22014372887E+04  0.50400001928E-02 0. -1.
</event>
<event>
 5   0  0.7858367E-08  0.3801501E+04  0.7818609E-02  0.8045833E-01
        2   -1    0    0  501    0  0.00000000000E+00  0.00000000000E+00  0.15540406500E+04  0.15540406500E+04  0.25500000920E-02 0.  1.
       -2   -1    0    0    0  501  0.00000000000E+00  0.00000000000E+00 -0.23248125518E+04  0.23248125518E+04  0.25500000920E-02 0. -1.
    10030    2    1    2    0    0  0.00000000000E+00  0.00000000000E+00 -0.77077190187E+03  0.38788532018E+04  0.38015013924E+04 0.  0.
        2    1    3    3  502    0 -0.15173771394E+04 -0.33559189410E+03  0.73132291628E+03  0.17175239476E+04  0.25500000920E-02 0.  1.
       -2    1    3    3    0  502  0.15173771394E+04  0.33559189410E+03 -0.15020948181E+04  0.21613292542E+04  0.25500000920E-02 0. -1.
</event>
<event>
 5   0  0.1143283E-07  0.3767096E+04  0.7818609E-02  0.8053253E-01
        2   -1    0    0  501    0  0.00000000000E+00  0.00000000000E+00  0.23657755987E+04  0.23657755987E+04  0.25500000920E-02 0. -1.
       -2   -1    0    0    0  501  0.00000000000E+00  0.00000000000E+00 -0.14996149950E+04  0.14996149950E+04  0.25500000920E-02 0.  1.
    10030    2    1    2    0    0  0.00000000000E+00  0.00000000000E+00  0.86616060375E+03  0.38653905937E+04  0.37670957315E+04 0.  0.
        1    1    3    3  502    0  0.15476641755E+04 -0.98821223869E+03  0.86345841754E+03  0.20291348569E+04  0.50400001928E-02 0.  1.
       -1    1    3    3    0  502 -0.15476641755E+04  0.98821223869E+03  0.27021862122E+01  0.18362557367E+04  0.50400001928E-02 0. -1.
</event>
<event>
 5   0  0.1143283E-07  0.3804711E+04  0.7818609E-02  0.8045145E-01
       -2   -1    0    0    0  501  0.00000000000E+00  0.00000000000E+00  0.14881331620E+04  0.14881331620E+04  0.25500000920E-02 0. -1.
        2   -1    0    0  501    0  0.00000000000E+00  0.00000000000E+00 -0.24318767349E+04  0.24318767349E+04  0.25500000920E-02 0.  1.
    10030    2    1    2    0    0  0.00000000000E+00  0.00000000000E+00 -0.94374357286E+03  0.39200098969E+04  0.38047109825E+04 0.  0.
        1    1    3    3  502    0  0.66614445516E+03  0.30731926546E+03  0.13365287438E+04  0.15246319717E+04  0.50400001928E-02 0. -1.
       -1    1    3    3    0  502 -0.66614445516E+03 -0.30731926546E+03 -0.22802723167E+04  0.23953779252E+04  0.50400001928E-02 0.  1.
</event>
<event>
 5   0  0.3701250E-08  0.3752531E+04  0.7818609E-02  0.8056419E-01
       -1   -1    0    0    0  501  0.00000000000E+00  0.00000000000E+00  0.14891149739E+04  0.14891149739E+04  0.50400001928E-02 0. -1.
        1   -1    0    0  501    0  0.00000000000E+00  0.00000000000E+00 -0.23640705437E+04  0.23640705437E+04  0.50400001928E-02 0.  1.
    10030    2    1    2    0    0  0.00000000000E+00  0.00000000000E+00 -0.87495556975E+03  0.38531855176E+04  0.37525313302E+04 0.  0.
        4    1    3    3  502    0 -0.89795818564E+02 -0.97311693669E+02 -0.23592665143E+04  0.23629796768E+04  0.12699999809E+01 0.  1.
       -4    1    3    3    0  502  0.89795818564E+02  0.97311693669E+02  0.14843109446E+04  0.14902058408E+04  0.12699999809E+01 0. -1.
</event>
<event>
 5   0  0.1143283E-07  0.3799739E+04  0.7818609E-02  0.8046211E-01
       -2   -1    0    0    0  501  0.00000000000E+00  0.00000000000E+00  0.17775064700E+04  0.17775064700E+04  0.25500000920E-02 0. -1.
        2   -1    0    0  501    0  0.00000000000E+00  0.00000000000E+00 -0.20306562354E+04  0.20306562354E+04  0.25500000920E-02 0.  1.
    10030    2    1    2    0    0  0.00000000000E+00  0.00000000000E+00 -0.25314976539E+03  0.38081627053E+04  0.37997392525E+04 0.  0.
        1    1    3    3  502    0 -0.53678272105E+03 -0.36854505751E+03  0.16621908505E+04  0.17851721409E+04  0.50400001928E-02 0. -1.
       -1    1    3    3    0  502  0.53678272105E+03  0.36854505751E+03 -0.19153406159E+04  0.20229905645E+04  0.50400001928E-02 0.  1.
</event>
<event>
 5   0  0.3701250E-08  0.3783269E+04  0.7818609E-02  0.8049755E-01
       -1   -1    0    0    0  501  0.00000000000E+00  0.00000000000E+00  0.15516223010E+04  0.15516223010E+04  0.50400001928E-02 0.  1.
        1   -1    0    0  501    0  0.00000000000E+00  0.00000000000E+00 -0.23061545475E+04  0.23061545475E+04  0.50400001928E-02 0. -1.
    10030    2    1    2    0    0  0.00000000000E+00  0.00000000000E+00 -0.75453224657E+03  0.38577768485E+04  0.37832688646E+04 0.  0.
        4    1    3    3  502    0 -0.48766560586E+03 -0.86303575052E+03 -0.20200913098E+04  0.22502042047E+04  0.12699999809E+01 0. -1.
       -4    1    3    3    0  502  0.48766560586E+03  0.86303575052E+03  0.12655590632E+04  0.16075726438E+04  0.12699999809E+01 0.  1.
</event>
<event>
 5   0  0.1193861E-07  0.3796840E+04  0.7818609E-02  0.8046833E-01
       -2   -1    0    0    0  501  0.00000000000E+00  0.00000000000E+00  0.23616269983E+04  0.23616269983E+04  0.25500000920E-02 0.  1.
        2   -1    0    0  501    0  0.00000000000E+00  0.00000000000E+00 -0.15260660440E+04  0.15260660440E+04  0.25500000920E-02 0. -1.
    10030    2    1    2    0    0  0.00000000000E+00  0.00000000000E+00  0.83556095430E+03  0.38876930422E+04  0.37968401444E+04 0.  0.
        3    1    3    3  502    0  0.14766618689E+04  0.63755133940E+02  0.16376759835E+04  0.22060321007E+04  0.10100000352E+00 0.  1.
       -3    1    3    3    0  502 -0.14766618689E+04 -0.63755133940E+02 -0.80211502918E+03  0.16816609416E+04  0.10100000352E+00 0. -1.
</event>
<event>
 5   0  0.3701250E-08  0.3807886E+04  0.7818609E-02  0.8044465E-01
        1   -1    0    0  501    0  0.00000000000E+00  0.00000000000E+00  0.11152869766E+04  0.11152869766E+04  0.50400001928E-02 0.  1.
       -1   -1    0    0    0  501  0.00000000000E+00  0.00000000000E+00 -0.32502829698E+04  0.32502829698E+04  0.50400001928E-02 0. -1.
    10030    2    1    2    0    0  0.00000000000E+00  0.00000000000E+00 -0.21349959932E+04  0.43655699465E+04  0.38078856425E+04 0.  0.
        2    1    3    3  502    0  0.66365737709E+03  0.12340650068E+04 -0.25453318667E+04  0.29055243704E+04  0.25500000920E-02 0. -1.
       -2    1    3    3    0  502 -0.66365737709E+03 -0.12340650068E+04  0.41033587350E+03  0.14600455761E+04  0.25500000920E-02 0.  1.
</event>
<event>
 5   0  0.3701250E-08  0.3813643E+04  0.7818609E-02  0.8043233E-01
        1   -1    0    0  501    0  0.00000000000E+00  0.00000000000E+00  0.18655910728E+04  0.18655910728E+04  0.50400001928E-02 0. -1.
       -1   -1    0    0    0  501  0.00000000000E+00  0.00000000000E+00 -0.19489630465E+04  0.19489630465E+04  0.50400001928E-02 0.  1.
    10030    2    1    2    0    0  0.00000000000E+00  0.00000000000E+00 -0.83371973708E+02  0.38145541192E+04  0.38136429097E+04 0.  0.
        3    1    3    3  502    0 -0.11463499496E+04  0.12318897167E+04 -0.93872665682E+03  0.19268830342E+04  0.10100000352E+00 0.  1.
       -3    1    3    3    0  502  0.11463499496E+04 -0.12318897167E+04  0.85535468311E+03  0.18876710850E+04  0.10100000352E+00 0. -1.
</event>
<event>
 5   0  0.1143283E-07  0.3811598E+04  0.7818609E-02  0.8043671E-01
        2   -1    0    0  501    0  0.00000000000E+00  0.00000000000E+00  0.14775435977E+04  0.14775435977E+04  0.25500000920E-02 0. -1.
       -2   -1    0    0    0  501  0.00000000000E+00  0.00000000000E+00 -0.24581812539E+04  0.24581812539E+04  0.25500000920E-02 0.  1.
    10030    2    1    2    0    0  0.00000000000E+00  0.00000000000E+00 -0.98063765612E+03  0.39357248516E+04  0.38115980763E+04 0.  0.
        1    1    3    3  502    0 -0.98415120664E+03  0.92648943511E+03  0.89698734070E+03  0.16221968316E+04  0.50400001928E-02 0. -1.
       -1    1    3    3    0  502  0.98415120664E+03 -0.92648943511E+03 -0.18776249968E+04  0.23135280201E+04  0.50400001928E-02 0.  1.
</event>
<event>
 5   0  0.7858367E-08  0.3779717E+04  0.7818609E-02  0.8050522E-01
       -2   -1    0    0    0  501  0.00000000000E+00  0.00000000000E+00  0.16456302823E+04  0.16456302823E+04  0.25500000920E-02 0.  1.
        2   -1    0    0  501    0  0.00000000000E+00  0.00000000000E+00 -0.21703327692E+04  0.21703327692E+04  0.25500000920E-02 0. -1.
    10030    2    1    2    0    0  0.00000000000E+00  0.00000000000E+00 -0.52470248690E+03  0.38159630515E+04  0.37797170940E+04 0.  0.
        2    1    3    3  502    0 -0.62527897016E+03  0.93674571407E+03  0.12697983488E+04  0.16973079185E+04  0.25500000920E-02 0.  1.
       -2    1    3    3    0  502  0.62527897016E+03 -0.93674571407E+03 -0.17945008357E+04  0.21186551330E+04  0.25500000920E-02 0. -1.
</event>
<event>
 5   0  0.1143283E-07  0.3776565E+04  0.7818609E-02  0.8051203E-01
       -2   -1    0    0    0  501  0.00000000000E+00  0.00000000000E+00  0.16254353263E+04  0.16254353263E+04  0.25500000920E-02 0.  1.
        2   -1    0    0  501    0  0.00000000000E+00  0.00000000000E+00 -0.21936347992E+04  0.21936347992E+04  0.25500000920E-02 0. -1.
    10030    2    1    2    0    0  0.00000000000E+00  0.00000000000E+00 -0.56819947297E+03  0.38190701255E+04  0.37765653685E+04 0.  0.
        1    1    3    3  502    0  0.12492412256E+04 -0.51053014848E+03  0.10515098749E+04  0.17108236874E+04  0.50400001928E-02 0.  1.
       -1    1    3    3    0  502 -0.12492412256E+04  0.51053014848E+03 -0.16197093478E+04  0.21082464381E+04  0.50400001928E-02 0. -1.
</event>
<event>
 5   0  0.3701250E-08  0.3770300E+04  0.7818609E-02  0.8052559E-01
        1   -1    0    0  501    0  0.00000000000E+00  0.00000000000E+00  0.12961933952E+04  0.12961933952E+04  0.50400001928E-02 0. -1.
       -1   -1    0    0    0  501  0.00000000000E+00  0.00000000000E+00 -0.27417132321E+04  0.27417132321E+04  0.50400001928E-02 0.  1.
    10030    2    1    2    0    0  0.00000000000E+00  0.00000000000E+00 -0.14455198370E+04  0.40379066273E+04  0.37703000321E+04 0.  0.
        2    1    3    3  502    0 -0.14078326981E+04 -0.17315800624E+03 -0.20525906047E+04  0.24950159902E+04  0.25500000920E-02 0.  1.
       -2    1    3    3    0  502  0.14078326981E+04  0.17315800624E+03  0.60707076778E+03  0.15428906371E+04  0.25500000920E-02 0. -1.
</event>
<event>
 5   0  0.3701250E-08  0.3808300E+04  0.7818609E-02  0.8044376E-01
        1   -1    0    0  501    0  0.00000000000E+00  0.00000000000E+00  0.15768213797E+04  0.15768213797E+04  0.50400001928E-02 0. -1.
       -1   -1    0    0    0  501  0.00000000000E+00  0.00000000000E+00 -0.22994278848E+04  0.22994278848E+04  0.50400001928E-02 0.  1.
    10030    2    1    2    0    0  0.00000000000E+00  0.00000000000E+00 -0.72260650510E+03  0.38762492645E+04  0.38082999093E+04 0.  0.
        2    1    3    3  502    0 -0.57963976151E+03  0.17821727139E+04 -0.70446142173E+03  0.20020958344E+04  0.25500000920E-02 0.  1.
       -2    1    3    3    0  502  0.57963976151E+03 -0.17821727139E+04 -0.18145083369E+02  0.18741534301E+04  0.25500000920E-02 0. -1.
</event>
<event>
 5   0  0.1174870E-07  0.3801800E+04  0.7818609E-02  0.8045769E-01
       -2   -1    0    0    0  501  0.00000000000E+00  0.00000000000E+00  0.23583630791E+04  0.23583630791E+04  0.25500000920E-02 0.  1.
        2   -1    0    0  501    0  0.00000000000E+00  0.00000000000E+00 -0.15321731866E+04  0.15321731866E+04  0.25500000920E-02 0. -1.
    10030    2    1    2    0    0  0.00000000000E+00  0.00000000000E+00  0.82618989248E+03  0.38905362656E+04  0.38017999284E+04 0.  0.
        5    1    3    3  502    0  0.18030714447E+03 -0.34784813519E+03 -0.14903982549E+04  0.15410444639E+04  0.46999998093E+01 0. -1.
       -5    1    3    3    0  502 -0.18030714447E+03  0.34784813519E+03  0.23165881474E+04  0.23494918017E+04  0.46999998093E+01 0.  1.
</event>
<event>
 5   0  0.3701250E-08  0.3714315E+04  0.7818609E-02  0.8064797E-01
       -1   -1    0    0    0  501  0.00000000000E+00  0.00000000000E+00  0.24519384721E+04  0.24519384721E+04  0.50400001928E-02 0.  1.
        1   -1    0    0  501    0  0.00000000000E+00  0.00000000000E+00 -0.14066561359E+04  0.14066561359E+04  0.50400001928E-02 0. -1.
    10030    2    1    2    0    0  0.00000000000E+00  0.00000000000E+00  0.10452823363E+04  0.38585946080E+04  0.37143151706E+04 0.  0.
        4    1    3    3  502    0  0.52952514850E+03 -0.14835011757E+04 -0.49937245717E+03  0.16524367113E+04  0.12699999809E+01 0.  1.
       -4    1    3    3    0  502 -0.52952514850E+03  0.14835011757E+04  0.15446547935E+04  0.22061578967E+04  0.12699999809E+01 0. -1.
</event>
<event>
 5   0  0.1143283E-07  0.3792039E+04  0.7818609E-02  0.8047865E-01
        2   -1    0    0  501    0  0.00000000000E+00  0.00000000000E+00  0.21774997719E+04  0.21774997719E+04  0.25500000920E-02 0. -1.
       -2   -1    0    0    0  501  0.00000000000E+00  0.00000000000E+00 -0.16509257587E+04  0.16509257587E+04  0.25500000920E-02 0.  1.
    10030    2    1    2    0    0  0.00000000000E+00  0.00000000000E+00  0.52657401322E+03  0.38284255306E+04  0.37920392735E+04 0.  0.
        1    1    3    3  502    0 -0.13900976093E+04 -0.50677466535E+03  0.14602851415E+04  0.20788517551E+04  0.50400001928E-02 0. -1.
       -1    1    3    3    0  502  0.13900976093E+04  0.50677466535E+03 -0.93371112831E+03  0.17495737756E+04  0.50400001928E-02 0.  1.
</event>
<event>
 5   0  0.1174870E-07  0.3823788E+04  0.7818609E-02  0.8041069E-01
       -2   -1    0    0    0  501  0.00000000000E+00  0.00000000000E+00  0.20523534728E+04  0.20523534728E+04  0.25500000920E-02 0. -1.
        2   -1    0    0  501    0  0.00000000000E+00  0.00000000000E+00 -0.17810476376E+04  0.17810476376E+04  0.25500000920E-02 0.  1.
    10030    2    1    2    0    0  0.00000000000E+00  0.00000000000E+00  0.27130583513E+03  0.38334011104E+04  0.38237883332E+04 0.  0.
        5    1    3    3  502    0  0.12950330005E+04  0.32227615273E+03  0.15081618074E+04  0.20138387518E+04  0.46999998093E+01 0. -1.
       -5    1    3    3    0  502 -0.12950330005E+04 -0.32227615273E+03 -0.12368559722E+04  0.18195623586E+04  0.46999998093E+01 0.  1.
</event>
<event>
 5   0  0.3701250E-08  0.3816229E+04  0.7818609E-02  0.8042681E-01
        1   -1    0    0  501    0  0.00000000000E+00  0.00000000000E+00  0.19919931049E+04  0.19919931049E+04  0.50400001928E-02 0. -1.
       -1   -1    0    0    0  501  0.00000000000E+00  0.00000000000E+00 -0.18277676498E+04  0.18277676498E+04  0.50400001928E-02 0.  1.
    10030    2    1    2    0    0  0.00000000000E+00  0.00000000000E+00  0.16422545514E+03  0.38197607547E+04  0.38162287959E+04 0.  0.
        4    1    3    3  502    0  0.91231929240E+03 -0.48953902068E+03  0.16863824462E+04  0.19788537874E+04  0.12699999809E+01 0. -1.
       -4    1    3    3    0  502 -0.91231929240E+03  0.48953902068E+03 -0.15221569910E+04  0.18409069673E+04  0.12699999809E+01 0.  1.
</event>
<event>
 5   0  0.3889225E-08  0.3802023E+04  0.7818609E-02  0.8045721E-01
       -1   -1    0    0    0  501  0.00000000000E+00  0.00000000000E+00  0.21503665691E+04  0.21503665691E+04  0.50400001928E-02 0.  1.
        1   -1    0    0  501    0  0.00000000000E+00  0.00000000000E+00 -0.16805712789E+04  0.16805712789E+04  0.50400001928E-02 0. -1.
    10030    2    1    2    0    0  0.00000000000E+00  0.00000000000E+00  0.46979529022E+03  0.38309378479E+04  0.38020227748E+04 0.  0.
        5    1    3    3  502    0 -0.68706192639E+03  0.15720053987E+03  0.20138433851E+04  0.21336244680E+04  0.46999998093E+01 0.  1.
       -5    1    3    3    0  502  0.68706192639E+03 -0.15720053987E+03 -0.15440480949E+04  0.16973133800E+04  0.46999998093E+01 0. -1.
</event>
<event>
 5   0  0.7858367E-08  0.3780466E+04  0.7818609E-02  0.8050360E-01
        2   -1    0    0  501    0  0.00000000000E+00  0.00000000000E+00  0.25158758430E+04  0.25158758430E+04  0.25500000920E-02 0. -1.
       -2   -1    0    0    0  501  0.00000000000E+00  0.00000000000E+00 -0.14201735691E+04  0.14201735691E+04  0.25500000920E-02 0.  1.
    10030    2    1    2    0    0  0.00000000000E+00  0.00000000000E+00  0.10957022739E+04  0.39360494121E+04  0.37804657783E+04 0.  0.
        2    1    3    3  502    0  0.64471229852E+03  0.41445110848E+03 -0.12511353158E+04  0.14672297869E+04  0.25500000920E-02 0.  1.
       -2    1    3    3    0  502 -0.64471229852E+03 -0.41445110848E+03  0.23468375897E+04  0.24688196251E+04  0.25500000920E-02 0. -1.
</event>
<event>
 5   0  0.3701250E-08  0.3796701E+04  0.7818609E-02  0.8046863E-01
       -1   -1    0    0    0  501  0.00000000000E+00  0.00000000000E+00  0.31774503874E+04  0.31774503874E+04  0.50400001928E-02 0. -1.
        1   -1    0    0  501    0  0.00000000000E+00  0.00000000000E+00 -0.11341589985E+04  0.11341589985E+04  0.50400001928E-02 0.  1.
    10030    2    1    2    0    0  0.00000000000E+00  0.00000000000E+00  0.20432913889E+04  0.43116093858E+04  0.37967006461E+04 0.  0.
        3    1    3    3  502    0 -0.12332180774E+04  0.11550996839E+04  0.39054204431E+02  0.16901500961E+04  0.10100000352E+00 0.  1.
       -3    1    3    3    0  502  0.12332180774E+04 -0.11550996839E+04  0.20042371845E+04  0.26214592898E+04  0.10100000352E+00 0. -1.
</event>
<event>
 5   0  0.7858367E-08  0.3791524E+04  0.7818609E-02  0.8047976E-01
        2   -1    0    0  501    0  0.00000000000E+00  0.00000000000E+00  0.28125786943E+04  0.28125786943E+04  0.25500000920E-02 0.  1.
       -2   -1    0    0    0  501  0.00000000000E+00  0.00000000000E+00 -0.12778004538E+04  0.12778004538E+04  0.25500000920E-02 0. -1.
    10030    2    1    2    0    0  0.00000000000E+00  0.00000000000E+00  0.15347782405E+04  0.40903791482E+04  0.37915244069E+04 0.  0.
        2    1    3    3  502    0  0.57760799280E+03 -0.52120026071E+03  0.26324200954E+04  0.27449801937E+04  0.25500000920E-02 0.  1.
       -2    1    3    3    0  502 -0.57760799280E+03  0.52120026071E+03 -0.10976418549E+04  0.13453989545E+04  0.25500000920E-02 0. -1.
</event>
<event>
 5   0  0.3701250E-08  0.3778527E+04  0.7818609E-02  0.8050779E-01
       -1   -1    0    0    0  501  0.00000000000E+00  0.00000000000E+00  0.22831910066E+04  0.22831910066E+04  0.50400001928E-02 0.  1.
        1   -1    0    0  501    0  0.00000000000E+00  0.00000000000E+00 -0.15633021160E+04  0.15633021161E+04  0.50400001928E-02 0. -1.
    10030    2    1    2    0    0  0.00000000000E+00  0.00000000000E+00  0.71988889055E+03  0.38464931227E+04  0.37785274020E+04 0.  0.
        2    1    3    3  502    0 -0.13361366062E+04 -0.11279523267E+04  0.10882002846E+04  0.20595429933E+04  0.25500000920E-02 0.  1.
       -2    1    3    3    0  502  0.13361366062E+04  0.11279523267E+04 -0.36831139410E+03  0.17869501294E+04  0.25500000920E-02 0. -1.
</event>
<event>
 5   0  0.3701250E-08  0.3799274E+04  0.7818609E-02  0.8046311E-01
        1   -1    0    0  501    0  0.00000000000E+00  0.00000000000E+00  0.22536481855E+04  0.22536481855E+04  0.50400001928E-02 0.  1.
       -1   -1    0    0    0  501  0.00000000000E+00  0.00000000000E+00 -0.16012347625E+04  0.16012347625E+04  0.50400001928E-02 0. -1.
    10030    2    1    2    0    0  0.00000000000E+00  0.00000000000E+00  0.65241342300E+03  0.38548829480E+04  0.37992735185E+04 0.  0.
        4    1    3    3  502    0  0.10806210412E+04 -0.52034809275E+03 -0.11684860538E+04  0.16744746171E+04  0.12699999809E+01 0. -1.
       -4    1    3    3    0  502 -0.10806210412E+04  0.52034809275E+03  0.18208994768E+04  0.21804083310E+04  0.12699999809E+01 0.  1.
</event>
<event>
 5   0  0.7858367E-08  0.3813832E+04  0.7818609E-02  0.8043193E-01
        2   -1    0    0  501    0  0.00000000000E+00  0.00000000000E+00  0.22350590473E+04  0.22350590473E+04  0.25500000920E-02 0. -1.
       -2   -1    0    0    0  501  0.00000000000E+00  0.00000000000E+00 -0.16269494846E+04  0.16269494846E+04  0.25500000920E-02 0.  1.
    10030    2    1    2    0    0  0.00000000000E+00  0.00000000000E+00  0.60810956271E+03  0.38620085319E+04  0.38138317556E+04 0.  0.
        2    1    3    3  502    0 -0.52208674024E+03  0.73867278467E+03 -0.13958756178E+04  0.16633342380E+04  0.25500000920E-02 0.  1.
       -2    1    3    3    0  502  0.52208674024E+03 -0.73867278467E+03  0.20039851805E+04  0.21986742939E+04  0.25500000920E-02 0. -1.
</event>
<event>
 5   0  0.1150235E-07  0.3819508E+04  0.7818609E-02  0.8041981E-01
        2   -1    0    0  501    0  0.00000000000E+00  0.00000000000E+00  0.23631191664E+04  0.23631191664E+04  0.25500000920E-02 0.  1.
       -2   -1    0    0    0  501  0.00000000000E+00  0.00000000000E+00 -0.15433674659E+04  0.15433674659E+04  0.25500000920E-02 0. -1.
    10030    2    1    2    0    0  0.00000000000E+00  0.00000000000E+00  0.81975170052E+03  0.39064866323E+04  0.38195084707E+04 0.  0.
        4    1    3    3  502    0 -0.99095190981E+03 -0.16000610676E+04  0.78493719903E+02  0.18837048560E+04  0.12699999809E+01 0. -1.
       -4    1    3    3    0  502  0.99095190981E+03  0.16000610676E+04  0.74125798062E+03  0.20227817762E+04  0.12699999809E+01 0.  1.
</event>
<event>
 5   0  0.1174870E-07  0.3803207E+04  0.7818609E-02  0.8045467E-01
        2   -1    0    0  501    0  0.00000000000E+00  0.00000000000E+00  0.20615093522E+04  0.20615093522E+04  0.25500000920E-02 0.  1.
       -2   -1    0    0    0  501  0.00000000000E+00  0.00000000000E+00 -0.17541014707E+04  0.17541014707E+04  0.25500000920E-02 0. -1.
    10030    2    1    2    0    0  0.00000000000E+00  0.00000000000E+00  0.30740788152E+03  0.38156108229E+04  0.38032073762E+04 0.  0.
        5    1    3    3  502    0 -0.16198911685E+04  0.89632642407E+03  0.58943135957E+03  0.19429101559E+04  0.46999998093E+01 0. -1.
       -5    1    3    3    0  502  0.16198911685E+04 -0.89632642407E+03 -0.28202347804E+03  0.18727006670E+04  0.46999998093E+01 0.  1.
</event>
<event>
 5   0  0.3701250E-08  0.3652016E+04  0.7818609E-02  0.8078680E-01
        1   -1    0    0  501    0  0.00000000000E+00  0.00000000000E+00  0.18874577146E+04  0.18874577146E+04  0.50400001928E-02 0. -1.
       -1   -1    0    0    0  501  0.00000000000E+00  0.00000000000E+00 -0.17665592112E+04  0.17665592112E+04  0.50400001928E-02 0.  1.
    10030    2    1    2    0    0  0.00000000000E+00  0.00000000000E+00  0.12089850345E+03  0.36540169258E+04  0.36520163261E+04 0.  0.
        1    1    3    3  502    0  0.48038074203E+03 -0.16767830040E+04 -0.48016045164E+03  0.18091215988E+04  0.50400001928E-02 0.  1.
       -1    1    3    3    0  502 -0.48038074203E+03  0.16767830040E+04  0.60105895509E+03  0.18448953270E+04  0.50400001928E-02 0. -1.
</event>
<event>
 5   0  0.3701250E-08  0.3772646E+04  0.7818609E-02  0.8052051E-01
       -1   -1    0    0    0  501  0.00000000000E+00  0.00000000000E+00  0.21892059499E+04  0.21892059499E+04  0.50400001928E-02 0. -1.
        1   -1    0    0  501    0  0.00000000000E+00  0.00000000000E+00 -0.16253445510E+04  0.16253445510E+04  0.50400001928E-02 0.  1.
    10030    2    1    2    0    0  0.00000000000E+00  0.00000000000E+00  0.56386139887E+03  0.38145505009E+04  0.37726457357E+04 0.  0.
        4    1    3    3  502    0 -0.40577809538E+03 -0.46339189914E+03 -0.15207990047E+04  0.16407983242E+04  0.12699999809E+01 0.  1.
       -4    1    3    3    0  502  0.40577809538E+03  0.46339189914E+03  0.20846604036E+04  0.21737521768E+04  0.12699999809E+01 0. -1.
</event>
<event>
 5   0  0.7858367E-08  0.3818558E+04  0.7818609E-02  0.8042184E-01
       -2   -1    0    0    0  501  0.00000000000E+00  0.00000000000E+00  0.23277314833E+04  0.23277314833E+04  0.25500000920E-02 0.  1.
        2   -1    0    0  501    0  0.00000000000E+00  0.00000000000E+00 -0.15660511933E+04  0.15660511933E+04  0.25500000920E-02 0. -1.
    10030    2    1    2    0    0  0.00000000000E+00  0.00000000000E+00  0.76168029004E+03  0.38937826766E+04  0.38185581923E+04 0.  0.
        2    1    3    3  502    0 -0.12912382976E+04 -0.11940056988E+04 -0.37703805005E+03  0.17986393860E+04  0.25500000920E-02 0. -1.
       -2    1    3    3    0  502  0.12912382976E+04  0.11940056988E+04  0.11387183401E+04  0.20951432905E+04  0.25500000920E-02 0.  1.
</event>
<event>
 5   0  0.3701250E-08  0.3807805E+04  0.7818609E-02  0.8044482E-01
        1   -1    0    0  501    0  0.00000000000E+00  0.00000000000E+00  0.15916552670E+04  0.15916552670E+04  0.50400001928E-02 0. -1.
       -1   -1    0    0    0  501  0.00000000000E+00  0.00000000000E+00 -0.22774059445E+04  0.22774059445E+04  0.50400001928E-02 0.  1.
    10030    2    1    2    0    0  0.00000000000E+00  0.00000000000E+00 -0.68575067752E+03  0.38690612114E+04  0.38078052295E+04 0.  0.
        3    1    3    3  502    0  0.50259757280E+03 -0.16657358815E+04 -0.11283340879E+04  0.20737449629E+04  0.10100000352E+00 0.  1.
       -3    1    3    3    0  502 -0.50259757280E+03  0.16657358815E+04  0.44258341036E+03  0.17953162486E+04  0.10100000352E+00 0. -1.
</event>
<event>
 5   0  0.3701250E-08  0.3804357E+04  0.7818609E-02  0.8045221E-01
       -1   -1    0    0    0  501  0.00000000000E+00  0.00000000000E+00  0.25629115650E+04  0.25629115650E+04  0.50400001928E-02 0. -1.
        1   -1    0    0  501    0  0.00000000000E+00  0.00000000000E+00 -0.14117858581E+04  0.14117858582E+04  0.50400001928E-02 0.  1.
    10030    2    1    2    0    0  0.00000000000E+00  0.00000000000E+00  0.11511257068E+04  0.39746974231E+04  0.38043566095E+04 0.  0.
        1    1    3    3  502    0  0.13890546657E+02 -0.92634374807E+03  0.23112664158E+04  0.24900317532E+04  0.50400001928E-02 0. -1.
       -1    1    3    3    0  502 -0.13890546657E+02  0.92634374807E+03 -0.11601407090E+04  0.14846656700E+04  0.50400001928E-02 0.  1.
</event>
<event>
 5   0  0.3701250E-08  0.3669260E+04  0.7818609E-02  0.8074809E-01
        1   -1    0    0  501    0  0.00000000000E+00  0.00000000000E+00  0.17571385358E+04  0.17571385358E+04  0.50400001928E-02 0. -1.
       -1   -1    0    0    0  501  0.00000000000E+00  0.00000000000E+00 -0.19155389734E+04  0.19155389734E+04  0.50400001928E-02 0.  1.
    10030    2    1    2    0    0  0.00000000000E+00  0.00000000000E+00 -0.15840043759E+03  0.36726775091E+04  0.36692600599E+04 0.  0.
        1    1    3    3  502    0 -0.13924548330E+04  0.11062666976E+04 -0.53029821113E+03  0.18557943477E+04  0.50400001928E-02 0. -1.
       -1    1    3    3    0  502  0.13924548330E+04 -0.11062666976E+04  0.37189777354E+03  0.18168831614E+04  0.50400001928E-02 0.  1.
</event>
<event>
 5   0  0.1150235E-07  0.3804234E+04  0.7818609E-02  0.8045247E-01
       -2   -1    0    0    0  501  0.00000000000E+00  0.00000000000E+00  0.30111506668E+04  0.30111506668E+04  0.25500000920E-02 0. -1.
        2   -1    0    0  501    0  0.00000000000E+00  0.00000000000E+00 -0.12015505123E+04  0.12015505123E+04  0.25500000920E-02 0.  1.
    10030    2    1    2    0    0  0.00000000000E+00  0.00000000000E+00  0.18096001546E+04  0.42127011791E+04  0.38042342863E+04 0.  0.
        4    1    3    3  502    0 -0.67031335775E+03  0.24122793757E+03  0.28578398678E+04  0.29452947625E+04  0.12699999809E+01 0. -1.
       -4    1    3    3    0  502  0.67031335775E+03 -0.24122793757E+03 -0.10482397132E+04  0.12674064165E+04  0.12699999809E+01 0.  1.
</event>
<event>
 5   0  0.1143283E-07  0.3799324E+04  0.7818609E-02  0.8046300E-01
       -2   -1    0    0    0  501  0.00000000000E+00  0.00000000000E+00  0.22908267826E+04  0.22908267826E+04  0.25500000920E-02 0. -1.
        2   -1    0    0  501    0  0.00000000000E+00  0.00000000000E+00 -0.15752896493E+04  0.15752896493E+04  0.25500000920E-02 0.  1.
    10030    2    1    2    0    0  0.00000000000E+00  0.00000000000E+00  0.71553713324E+03  0.38661164319E+04  0.37993240025E+04 0.  0.
        1    1    3    3  502    0  0.98836363850E+03  0.14694729982E+04  0.10572408170E+04  0.20625158714E+04  0.50400001928E-02 0. -1.
       -1    1    3    3    0  502 -0.98836363850E+03 -0.14694729982E+04 -0.34170368377E+03  0.18036005605E+04  0.50400001928E-02 0.  1.
</event>
<event>
 5   0  0.1174870E-07  0.3797711E+04  0.7818609E-02  0.8046646E-01
        2   -1    0    0  501    0  0.00000000000E+00  0.00000000000E+00  0.22316017420E+04  0.22316017420E+04  0.25500000920E-02 0. -1.
       -2   -1    0    0    0  501  0.00000000000E+00  0.00000000000E+00 -0.16157242425E+04  0.16157242425E+04  0.25500000920E-02 0.  1.
    10030    2    1    2    0    0  0.00000000000E+00  0.00000000000E+00  0.61587749954E+03  0.38473259845E+04  0.37977114341E+04 0.  0.
        5    1    3    3  502    0 -0.11457839421E+04 -0.13412597916E+04 -0.40397397916E+03  0.18097004549E+04  0.46999998093E+01 0.  1.
       -5    1    3    3    0  502  0.11457839421E+04  0.13412597916E+04  0.10198514787E+04  0.20376255296E+04  0.46999998093E+01 0. -1.
</event>
<event>
 5   0  0.1143283E-07  0.3762046E+04  0.7818609E-02  0.8054349E-01
       -2   -1    0    0    0  501  0.00000000000E+00  0.00000000000E+00  0.19515617080E+04  0.19515617080E+04  0.25500000920E-02 0. -1.
        2   -1    0    0  501    0  0.00000000000E+00  0.00000000000E+00 -0.18130340608E+04  0.18130340608E+04  0.25500000920E-02 0.  1.
    10030    2    1    2    0    0  0.00000000000E+00  0.00000000000E+00  0.13852764720E+03  0.37645957688E+04  0.37620461711E+04 0.  0.
        1    1    3    3  502    0  0.85694271883E+03 -0.84049963735E+03 -0.13799778083E+04  0.18289694407E+04  0.50400001928E-02 0.  1.
       -1    1    3    3    0  502 -0.85694271883E+03  0.84049963735E+03  0.15185054555E+04  0.19356263281E+04  0.50400001928E-02 0. -1.
</event>
<event>
 5   0  0.3701250E-08  0.3799998E+04  0.7818609E-02  0.8046155E-01
        1   -1    0    0  501    0  0.00000000000E+00  0.00000000000E+00  0.22935652843E+04  0.22935652843E+04  0.50400001928E-02 0. -1.
       -1   -1    0    0    0  501  0.00000000000E+00  0.00000000000E+00 -0.15739668392E+04  0.15739668392E+04  0.50400001928E-02 0.  1.
    10030    2    1    2    0    0  0.00000000000E+00  0.00000000000E+00  0.71959844510E+03  0.38675321236E+04  0.37999977375E+04 0.  0.
        3    1    3    3  502    0  0.17529895740E+04 -0.14269510816E+03  0.10913653335E+04  0.20698822773E+04  0.10100000352E+00 0. -1.
       -3    1    3    3    0  502 -0.17529895740E+04  0.14269510816E+03 -0.37176688841E+03  0.17976498463E+04  0.10100000352E+00 0.  1.
</event>
<event>
 5   0  0.1174870E-07  0.3763613E+04  0.7818609E-02  0.8054009E-01
       -2   -1    0    0    0  501  0.00000000000E+00  0.00000000000E+00  0.17768638830E+04  0.17768638830E+04  0.25500000920E-02 0. -1.
        2   -1    0    0  501    0  0.00000000000E+00  0.00000000000E+00 -0.19929472807E+04  0.19929472807E+04  0.25500000920E-02 0.  1.
    10030    2    1    2    0    0  0.00000000000E+00  0.00000000000E+00 -0.21608339771E+03  0.37698111638E+04  0.37636131809E+04 0.  0.
        5    1    3    3  502    0  0.12446698473E+04  0.62269142829E+03 -0.13767080836E+04  0.19576248060E+04  0.46999998093E+01 0.  1.
       -5    1    3    3    0  502 -0.12446698473E+04 -0.62269142829E+03  0.11606246859E+04  0.18121863577E+04  0.46999998093E+01 0. -1.
</event>
<event>
 5   0  0.7858367E-08  0.3827360E+04  0.7818609E-02  0.8040309E-01
       -2   -1    0    0    0  501  0.00000000000E+00  0.00000000000E+00  0.13624331646E+04  0.13624331646E+04  0.25500000920E-02 0. -1.
        2   -1    0    0  501    0  0.00000000000E+00  0.00000000000E+00 -0.26879645458E+04  0.26879645458E+04  0.25500000920E-02 0.  1.
    10030    2    1    2    0    0  0.00000000000E+00  0.00000000000E+00 -0.13255313812E+04  0.40503977104E+04  0.38273604704E+04 0.  0.
        2    1    3    3  502    0 -0.14105332684E+04  0.12407494187E+04 -0.27666398461E+03  0.18988433800E+04  0.25500000920E-02 0.  1.
       -2    1    3    3    0  502  0.14105332684E+04 -0.12407494187E+04 -0.10488673966E+04  0.21515543304E+04  0.25500000920E-02 0. -1.
</event>
<event>
 5   0  0.1193861E-07  0.3783061E+04  0.7818609E-02  0.8049800E-01
       -2   -1    0    0    0  501  0.00000000000E+00  0.00000000000E+00  0.12211381982E+04  0.12211381982E+04  0.25500000920E-02 0.  1.
        2   -1    0    0  501    0  0.00000000000E+00  0.00000000000E+00 -0.29299619069E+04  0.29299619069E+04  0.25500000920E-02 0. -1.
    10030    2    1    2    0    0  0.00000000000E+00  0.00000000000E+00 -0.17088237088E+04  0.41511001051E+04  0.37830614078E+04 0.  0.
        3    1    3    3  502    0 -0.27042329285E+03 -0.40976994361E+03 -0.28588286941E+04  0.29006795197E+04  0.10100000352E+00 0. -1.
       -3    1    3    3    0  502  0.27042329285E+03  0.40976994361E+03  0.11500049853E+04  0.12504205854E+04  0.10100000352E+00 0.  1.
</event>
<event>
 5   0  0.3701250E-08  0.3807338E+04  0.7818609E-02  0.8044582E-01
       -1   -1    0    0    0  501  0.00000000000E+00  0.00000000000E+00  0.13914342734E+04  0.13914342735E+04  0.50400001928E-02 0. -1.
        1   -1    0    0  501    0  0.00000000000E+00  0.00000000000E+00 -0.26044743985E+04  0.26044743985E+04  0.50400001928E-02 0.  1.
    10030    2    1    2    0    0  0.00000000000E+00  0.00000000000E+00 -0.12130401251E+04  0.39959086720E+04  0.38073376222E+04 0.  0.
        4    1    3    3  502    0  0.15669668526E+04  0.65323714610E+03  0.29744584357E+03  0.17235369241E+04  0.12699999809E+01 0. -1.
       -4    1    3    3    0  502 -0.15669668526E+04 -0.65323714610E+03 -0.15104859686E+04  0.22723717479E+04  0.12699999809E+01 0.  1.
</event>
<event>
 5   0  0.7858367E-08  0.3809441E+04  0.7818609E-02  0.8044132E-01
       -2   -1    0    0    0  501  0.00000000000E+00  0.00000000000E+00  0.14810368749E+04  0.14810368749E+04  0.25500000920E-02 0. -1.
        2   -1    0    0  501    0  0.00000000000E+00  0.00000000000E+00 -0.24496077580E+04  0.24496077580E+04  0.25500000920E-02 0.  1.
    10030    2    1    2    0    0  0.00000000000E+00  0.00000000000E+00 -0.96857088312E+03  0.39306446329E+04  0.38094405987E+04 0.  0.
        2    1    3    3  502    0 -0.25772768179E+03 -0.15163897325E+04  0.67488986649E+03  0.16796838127E+04  0.25500000920E-02 0. -1.
       -2    1    3    3    0  502  0.25772768179E+03  0.15163897325E+04 -0.16434607496E+04  0.22509608202E+04  0.25500000920E-02 0.  1.
</event>
<event>
 5   0  0.3889225E-08  0.3788144E+04  0.7818609E-02  0.8048704E-01
       -1   -1    0    0    0  501  0.00000000000E+00  0.00000000000E+00  0.24603473941E+04  0.24603473941E+04  0.50400001928E-02 0.  1.
        1   -1    0    0  501    0  0.00000000000E+00  0.00000000000E+00 -0.14581313581E+04  0.14581313581E+04  0.50400001928E-02 0. -1.
    10030    2    1    2    0    0  0.00000000000E+00  0.00000000000E+00  0.10022160360E+04  0.39184787522E+04  0.37881444995E+04 0.  0.
        5    1    3    3  502    0 -0.48100035139E+03  0.15856825483E+04 -0.44792035757E+03  0.17165096035E+04  0.46999998093E+01 0. -1.
       -5    1    3    3    0  502  0.48100035139E+03 -0.15856825483E+04  0.14501363936E+04  0.22019691488E+04  0.46999998093E+01 0.  1.
</event>
<event>
 5   0  0.3701250E-08  0.3766514E+04  0.7818609E-02  0.8053379E-01
        1   -1    0    0  501    0  0.00000000000E+00  0.00000000000E+00  0.11195866150E+04  0.11195866150E+04  0.50400001928E-02 0.  1.
       -1   -1    0    0    0  501  0.00000000000E+00  0.00000000000E+00 -0.31678270126E+04  0.31678270126E+04  0.50400001928E-02 0. -1.
    10030    2    1    2    0    0  0.00000000000E+00  0.00000000000E+00 -0.20482403977E+04  0.42874136276E+04  0.37665138906E+04 0.  0.
        3    1    3    3  502    0 -0.26349320451E+03  0.67076565322E+03  0.95641993463E+03  0.11975367769E+04  0.10100000352E+00 0.  1.
       -3    1    3    3    0  502  0.26349320451E+03 -0.67076565322E+03 -0.30046603323E+04  0.30898768508E+04  0.10100000352E+00 0. -1.
</event>
<event>
 5   0  0.7858367E-08  0.3813261E+04  0.7818609E-02  0.8043315E-01
       -2   -1    0    0    0  501  0.00000000000E+00  0.00000000000E+00  0.24546842890E+04  0.24546842890E+04  0.25500000920E-02 0.  1.
        2   -1    0    0  501    0  0.00000000000E+00  0.00000000000E+00 -0.14809396863E+04  0.14809396863E+04  0.25500000920E-02 0. -1.
    10030    2    1    2    0    0  0.00000000000E+00  0.00000000000E+00  0.97374460275E+03  0.39356239753E+04  0.38132607469E+04 0.  0.
        2    1    3    3  502    0 -0.43271885745E+03  0.18567270163E+04  0.46248007954E+03  0.19617769105E+04  0.25500000920E-02 0. -1.
       -2    1    3    3    0  502  0.43271885745E+03 -0.18567270163E+04  0.51126452321E+03  0.19738470648E+04  0.25500000920E-02 0.  1.
</event>
<event>
 5   0  0.3701250E-08  0.3798460E+04  0.7818609E-02  0.8046485E-01
       -1   -1    0    0    0  501  0.00000000000E+00  0.00000000000E+00  0.16999998165E+04  0.16999998165E+04  0.50400001928E-02 0.  1.
        1   -1    0    0  501    0  0.00000000000E+00  0.00000000000E+00 -0.21218088186E+04  0.21218088186E+04  0.50400001928E-02 0. -1.
    10030    2    1    2    0    0  0.00000000000E+00  0.00000000000E+00 -0.42180900210E+03  0.38218086351E+04  0.37984600049E+04 0.  0.
        3    1    3    3  502    0 -0.99689575968E+03 -0.15870615105E+04  0.98408673870E+02  0.18767657475E+04  0.10100000352E+00 0.  1.
       -3    1    3    3    0  502  0.99689575968E+03  0.15870615105E+04 -0.52021767597E+03  0.19450428875E+04  0.10100000352E+00 0. -1.
</event>
<event>
 5   0  0.3701250E-08  0.3799992E+04  0.7818609E-02  0.8046157E-01
        1   -1    0    0  501    0  0.00000000000E+00  0.00000000000E+00  0.21564100212E+04  0.21564100212E+04  0.50400001928E-02 0.  1.
       -1   -1    0    0    0  501  0.00000000000E+00  0.00000000000E+00 -0.16740715471E+04  0.16740715471E+04  0.50400001928E-02 0. -1.
    10030    2    1    2    0    0  0.00000000000E+00  0.00000000000E+00  0.48233847416E+03  0.38304815683E+04  0.37999919265E+04 0.  0.
        4    1    3    3  502    0  0.11976803582E+04 -0.11195860703E+04 -0.72678111478E+03  0.17933554056E+04  0.12699999809E+01 0. -1.
       -4    1    3    3    0  502 -0.11976803582E+04  0.11195860703E+04  0.12091195889E+04  0.20371261626E+04  0.12699999809E+01 0.  1.
</event>
<event>
 5   0  0.3701250E-08  0.3800288E+04  0.7818609E-02  0.8046093E-01
        1   -1    0    0  501    0  0.00000000000E+00  0.00000000000E+00  0.24885784560E+04  0.24885784560E+04  0.50400001928E-02 0. -1.
       -1   -1    0    0    0  501  0.00000000000E+00  0.00000000000E+00 -0.14508473867E+04  0.14508473867E+04  0.50400001928E-02 0.  1.
    10030    2    1    2    0    0  0.00000000000E+00  0.00000000000E+00  0.10377310693E+04  0.39394258427E+04  0.38002881730E+04 0.  0.
        3    1    3    3  502    0  0.13657553031E+04  0.13025004940E+04  0.28998195264E+03  0.19094199716E+04  0.10100000352E+00 0.  1.
       -3    1    3    3    0  502 -0.13657553031E+04 -0.13025004940E+04  0.74774911671E+03  0.20300058711E+04  0.10100000352E+00 0. -1.
</event>
<event>
 5   0  0.1193861E-07  0.3822796E+04  0.7818609E-02  0.8041281E-01
       -2   -1    0    0    0  501  0.00000000000E+00  0.00000000000E+00  0.11775757903E+04  0.11775757903E+04  0.25500000920E-02 0. -1.
        2   -1    0    0  501    0  0.00000000000E+00  0.00000000000E+00 -0.31025108153E+04  0.31025108153E+04  0.25500000920E-02 0.  1.
    10030    2    1    2    0    0  0.00000000000E+00  0.00000000000E+00 -0.19249350250E+04  0.42800866056E+04  0.38227956395E+04 0.  0.
        3    1    3    3  502    0 -0.96616452592E+03  0.16470822115E+04 -0.10567282093E+04  0.21824363040E+04  0.10100000352E+00 0. -1.
       -3    1    3    3    0  502  0.96616452592E+03 -0.16470822115E+04 -0.86820681567E+03  0.20976503016E+04  0.10100000352E+00 0.  1.
</event>
<event>
 5   0  0.3701250E-08  0.3801936E+04  0.7818609E-02  0.8045740E-01
        1   -1    0    0  501    0  0.00000000000E+00  0.00000000000E+00  0.29906901080E+04  0.29906901080E+04  0.50400001928E-02 0.  1.
       -1   -1    0    0    0  501  0.00000000000E+00  0.00000000000E+00 -0.12083096011E+04  0.12083096012E+04  0.50400001928E-02 0. -1.
    10030    2    1    2    0    0  0.00000000000E+00  0.00000000000E+00  0.17823805069E+04  0.41989997092E+04  0.38019361234E+04 0.  0.
        4    1    3    3  502    0 -0.18129833622E+03 -0.14431483766E+04 -0.46062087084E+03  0.15256865743E+04  0.12699999809E+01 0. -1.
       -4    1    3    3    0  502  0.18129833622E+03  0.14431483766E+04  0.22430013777E+04  0.26733131348E+04  0.12699999809E+01 0.  1.
</event>
<event>
 5   0  0.3889225E-08  0.3790823E+04  0.7818609E-02  0.8048127E-01
        1   -1    0    0  501    0  0.00000000000E+00  0.00000000000E+00  0.26868877051E+04  0.26868877051E+04  0.50400001928E-02 0.  1.
       -1   -1    0    0    0  501  0.00000000000E+00  0.00000000000E+00 -0.13370800943E+04  0.13370800943E+04  0.50400001928E-02 0. -1.
    10030    2    1    2    0    0  0.00000000000E+00  0.00000000000E+00  0.13498076108E+04  0.40239677994E+04  0.37908226369E+04 0.  0.
        5    1    3    3  502    0 -0.10438838813E+04  0.60602238216E+03 -0.87634523354E+03  0.14916298950E+04  0.46999998093E+01 0. -1.
       -5    1    3    3    0  502  0.10438838813E+04 -0.60602238216E+03  0.22261528444E+04  0.25323379044E+04  0.46999998093E+01 0.  1.
</event>
<event>
 5   0  0.1174870E-07  0.3796786E+04  0.7818609E-02  0.8046845E-01
        2   -1    0    0  501    0  0.00000000000E+00  0.00000000000E+00  0.17837552126E+04  0.17837552126E+04  0.25500000920E-02 0. -1.
       -2   -1    0    0    0  501  0.00000000000E+00  0.00000000000E+00 -0.20203977891E+04  0.20203977891E+04  0.25500000920E-02 0.  1.
    10030    2    1    2    0    0  0.00000000000E+00  0.00000000000E+00 -0.23664257656E+03  0.38041530017E+04  0.37967855288E+04 0.  0.
        5    1    3    3  502    0  0.12728103424E+04 -0.13628605690E+04 -0.47459234883E+03  0.19242388328E+04  0.46999998093E+01 0.  1.
       -5    1    3    3    0  502 -0.12728103424E+04  0.13628605690E+04  0.23794977227E+03  0.18799141689E+04  0.46999998093E+01 0. -1.
</event>
<event>
 5   0  0.3889225E-08  0.3796810E+04  0.7818609E-02  0.8046840E-01
        1   -1    0    0  501    0  0.00000000000E+00  0.00000000000E+00  0.12207127665E+04  0.12207127665E+04  0.50400001928E-02 0. -1.
       -1   -1    0    0    0  501  0.00000000000E+00  0.00000000000E+00 -0.29523260720E+04  0.29523260720E+04  0.50400001928E-02 0.  1.
    10030    2    1    2    0    0  0.00000000000E+00  0.00000000000E+00 -0.17316133055E+04  0.41730388385E+04  0.37968103071E+04 0.  0.
        5    1    3    3  502    0  0.14746096391E+04  0.58989136870E+03 -0.20087947117E+04  0.25608052832E+04  0.46999998093E+01 0.  1.
       -5    1    3    3    0  502 -0.14746096391E+04 -0.58989136870E+03  0.27718140628E+03  0.16122335553E+04  0.46999998093E+01 0. -1.
</event>
<event>
 5   0  0.1150235E-07  0.3703247E+04  0.7818609E-02  0.8067243E-01
        2   -1    0    0  501    0  0.00000000000E+00  0.00000000000E+00  0.16676425347E+04  0.16676425347E+04  0.25500000920E-02 0. -1.
       -2   -1    0    0    0  501  0.00000000000E+00  0.00000000000E+00 -0.20559024217E+04  0.20559024217E+04  0.25500000920E-02 0.  1.
    10030    2    1    2    0    0  0.00000000000E+00  0.00000000000E+00 -0.38825988706E+03  0.37235449564E+04  0.37032473996E+04 0.  0.
        4    1    3    3  502    0 -0.17959417125E+04  0.35534181514E+03 -0.47283918340E+03  0.18908339289E+04  0.12699999809E+01 0.  1.
       -4    1    3    3    0  502  0.17959417125E+04 -0.35534181514E+03  0.84579296341E+02  0.18327110276E+04  0.12699999809E+01 0. -1.
</event>
<event>
 5   0  0.3701250E-08  0.3847074E+04  0.7818609E-02  0.8036128E-01
       -1   -1    0    0    0  501  0.00000000000E+00  0.00000000000E+00  0.20488725146E+04  0.20488725146E+04  0.50400001928E-02 0.  1.
        1   -1    0    0  501    0  0.00000000000E+00  0.00000000000E+00 -0.18058686249E+04  0.18058686249E+04  0.50400001928E-02 0. -1.
    10030    2    1    2    0    0  0.00000000000E+00  0.00000000000E+00  0.24300388970E+03  0.38547411395E+04  0.38470740001E+04 0.  0.
        2    1    3    3  502    0 -0.81059968765E+03 -0.38474386560E+03 -0.15833280541E+04  0.18198976407E+04  0.25500000920E-02 0. -1.
       -2    1    3    3    0  502  0.81059968765E+03  0.38474386560E+03  0.18263319438E+04  0.20348434988E+04  0.25500000920E-02 0.  1.
</event>
<event>
 5   0  0.1174870E-07  0.3829550E+04  0.7818609E-02  0.8039843E-01
       -2   -1    0    0    0  501  0.00000000000E+00  0.00000000000E+00  0.14821822867E+04  0.14821822867E+04  0.25500000920E-02 0.  1.
        2   -1    0    0  501    0  0.00000000000E+00  0.00000000000E+00 -0.24736245389E+04  0.24736245389E+04  0.25500000920E-02 0. -1.
    10030    2    1    2    0    0  0.00000000000E+00  0.00000000000E+00 -0.99144225228E+03  0.39558068256E+04  0.38295495691E+04 0.  0.
        5    1    3    3  502    0  0.16384562638E+04 -0.51909160578E+03  0.37611062318E+03  0.17593965768E+04  0.46999998093E+01 0.  1.
       -5    1    3    3    0  502 -0.16384562638E+04  0.51909160578E+03 -0.13675528755E+04  0.21964102488E+04  0.46999998093E+01 0. -1.
</event>
<event>
 5   0  0.3701250E-08  0.3914064E+04  0.7818609E-02  0.8022111E-01
       -1   -1    0    0    0  501  0.00000000000E+00  0.00000000000E+00  0.20980180886E+04  0.20980180886E+04  0.50400001928E-02 0. -1.
        1   -1    0    0  501    0  0.00000000000E+00  0.00000000000E+00 -0.18255199279E+04  0.18255199279E+04  0.50400001928E-02 0.  1.
    10030    2    1    2    0    0  0.00000000000E+00  0.00000000000E+00  0.27249816071E+03  0.39235380164E+04  0.39140637858E+04 0.  0.
        1    1    3    3  502    0 -0.18996345178E+04 -0.20911268999E+03  0.55873624228E+03  0.19911116510E+04  0.50400001928E-02 0.  1.
       -1    1    3    3    0  502  0.18996345178E+04  0.20911268999E+03 -0.28623808156E+03  0.19324263654E+04  0.50400001928E-02 0. -1.
</event>
<event>
 5   0  0.1143283E-07  0.3804508E+04  0.7818609E-02  0.8045188E-01
        2   -1    0    0  501    0  0.00000000000E+00  0.00000000000E+00  0.22008956626E+04  0.22008956626E+04  0.25500000920E-02 0. -1.
       -2   -1    0    0    0  501  0.00000000000E+00  0.00000000000E+00 -0.16441356029E+04  0.16441356029E+04  0.25500000920E-02 0.  1.
    10030    2    1    2    0    0  0.00000000000E+00  0.00000000000E+00  0.55676005970E+03  0.38450312655E+04  0.38045083347E+04 0.  0.
        1    1    3    3  502    0 -0.14064607515E+03 -0.15990783063E+04  0.13099070871E+04  0.20718806252E+04  0.50400001928E-02 0. -1.
       -1    1    3    3    0  502  0.14064607515E+03  0.15990783063E+04 -0.75314702742E+03  0.17731506403E+04  0.50400001928E-02 0.  1.
</event>
<event>
 5   0  0.1174870E-07  0.3799841E+04  0.7818609E-02  0.8046189E-01
        2   -1    0    0  501    0  0.00000000000E+00  0.00000000000E+00  0.15857767033E+04  0.15857767033E+04  0.25500000920E-02 0. -1.
       -2   -1    0    0    0  501  0.00000000000E+00  0.00000000000E+00 -0.22762961312E+04  0.22762961312E+04  0.25500000920E-02 0.  1.
    10030    2    1    2    0    0  0.00000000000E+00  0.00000000000E+00 -0.69051942785E+03  0.38620728345E+04  0.37998407202E+04 0.  0.
        5    1    3    3  502    0  0.13330575806E+04 -0.13152086583E+04 -0.67122858205E+03  0.19893180308E+04  0.46999998093E+01 0. -1.
       -5    1    3    3    0  502 -0.13330575806E+04  0.13152086583E+04 -0.19290845803E+02  0.18727548037E+04  0.46999998093E+01 0.  1.
</event>
<event>
 5   0  0.3701250E-08  0.3811147E+04  0.7818609E-02  0.8043767E-01
        3   -1    0    0  501    0  0.00000000000E+00  0.00000000000E+00  0.18464898980E+04  0.18464899007E+04  0.10100000352E+00 0.  1.
       -3   -1    0    0    0  501  0.00000000000E+00  0.00000000000E+00 -0.19665475940E+04  0.19665475966E+04  0.10100000352E+00 0. -1.
    10030    2    1    2    0    0  0.00000000000E+00  0.00000000000E+00 -0.12005769607E+03  0.38130374974E+04  0.38111469541E+04 0.  0.
        3    1    3    3  502    0  0.27317262537E+03  0.17228334790E+04  0.70744474887E+03  0.18823539950E+04  0.10100000352E+00 0.  1.
       -3    1    3    3    0  502 -0.27317262537E+03 -0.17228334790E+04 -0.82750244494E+03  0.19306835023E+04  0.10100000352E+00 0. -1.
</event>
<event>
 5   0  0.3701250E-08  0.3776790E+04  0.7818609E-02  0.8051154E-01
       -1   -1    0    0    0  501  0.00000000000E+00  0.00000000000E+00  0.25498421959E+04  0.25498421959E+04  0.50400001928E-02 0.  1.
        1   -1    0    0  501    0  0.00000000000E+00  0.00000000000E+00 -0.13985318576E+04  0.13985318576E+04  0.50400001928E-02 0. -1.
    10030    2    1    2    0    0  0.00000000000E+00  0.00000000000E+00  0.11513103383E+04  0.39483740535E+04  0.37767899295E+04 0.  0.
        2    1    3    3  502    0 -0.15797847778E+04 -0.80919424074E+03 -0.98238803634E+02  0.17776856094E+04  0.25500000920E-02 0. -1.
       -2    1    3    3    0  502  0.15797847778E+04  0.80919424074E+03  0.12495491419E+04  0.21706884441E+04  0.25500000920E-02 0.  1.
</event>
<event>
 5   0  0.1174870E-07  0.3804552E+04  0.7818609E-02  0.8045179E-01
        2   -1    0    0  501    0  0.00000000000E+00  0.00000000000E+00  0.19211259400E+04  0.19211259400E+04  0.25500000920E-02 0. -1.
       -2   -1    0    0    0  501  0.00000000000E+00  0.00000000000E+00 -0.18836113441E+04  0.18836113441E+04  0.25500000920E-02 0.  1.
    10030    2    1    2    0    0  0.00000000000E+00  0.00000000000E+00  0.37514595985E+02  0.38047372841E+04  0.38045523332E+04 0.  0.
        5    1    3    3  502    0 -0.17600394094E+04 -0.70955709628E+03  0.15075814141E+03  0.19036701664E+04  0.46999998093E+01 0.  1.
       -5    1    3    3    0  502  0.17600394094E+04  0.70955709628E+03 -0.11324354543E+03  0.19010671177E+04  0.46999998093E+01 0. -1.
</event>
<event>
 5   0  0.1150235E-07  0.3813705E+04  0.7818609E-02  0.8043220E-01
        2   -1    0    0  501    0  0.00000000000E+00  0.00000000000E+00  0.17664963747E+04  0.17664963747E+04  0.25500000920E-02 0.  1.
       -2   -1    0    0    0  501  0.00000000000E+00  0.00000000000E+00 -0.20583601298E+04  0.20583601298E+04  0.25500000920E-02 0. -1.
    10030    2    1    2    0    0  0.00000000000E+00  0.00000000000E+00 -0.29186375507E+03  0.38248565046E+04  0.38137046069E+04 0.  0.
        4    1    3    3  502    0  0.26355805782E+03  0.28754898251E+03 -0.20179206121E+04  0.20552743070E+04  0.12699999809E+01 0. -1.
       -4    1    3    3    0  502 -0.26355805782E+03 -0.28754898251E+03  0.17260568571E+04  0.17695821976E+04  0.12699999809E+01 0.  1.
</event>
<event>
 5   0  0.1174870E-07  0.3792904E+04  0.7818609E-02  0.8047679E-01
       -2   -1    0    0    0  501  0.00000000000E+00  0.00000000000E+00  0.14465617626E+04  0.14465617626E+04  0.25500000920E-02 0.  1.
        2   -1    0    0  501    0  0.00000000000E+00  0.00000000000E+00 -0.24862606944E+04  0.24862606944E+04  0.25500000920E-02 0. -1.
    10030    2    1    2    0    0  0.00000000000E+00  0.00000000000E+00 -0.10396989318E+04  0.39328224570E+04  0.37929037174E+04 0.  0.
        5    1    3    3  502    0  0.74478392605E+03  0.64667184120E+03 -0.21993609929E+04  0.24104145772E+04  0.46999998093E+01 0. -1.
       -5    1    3    3    0  502 -0.74478392605E+03 -0.64667184120E+03  0.11596620611E+04  0.15224078798E+04  0.46999998093E+01 0.  1.
</event>
<event>
 5   0  0.3701250E-08  0.3788872E+04  0.7818609E-02  0.8048547E-01
       -1   -1    0    0    0  501  0.00000000000E+00  0.00000000000E+00  0.13398497433E+04  0.13398497433E+04  0.50400001928E-02 0.  1.
        1   -1    0    0  501    0  0.00000000000E+00  0.00000000000E+00 -0.26785741010E+04  0.26785741010E+04  0.50400001928E-02 0. -1.
    10030    2    1    2    0    0  0.00000000000E+00  0.00000000000E+00 -0.13387243577E+04  0.40184238443E+04  0.37888715057E+04 0.  0.
        1    1    3    3  502    0  0.15320764876E+04 -0.69901192274E+03 -0.15896982941E+04  0.23158187965E+04  0.50400001928E-02 0. -1.
       -1    1    3    3    0  502 -0.15320764876E+04  0.69901192274E+03  0.25097393644E+03  0.17026050478E+04  0.50400001928E-02 0.  1.
</event>
<event>
 5   0  0.3701250E-08  0.3791661E+04  0.7818609E-02  0.8047947E-01
       -1   -1    0    0    0  501  0.00000000000E+00  0.00000000000E+00  0.20196057411E+04  0.20196057411E+04  0.50400001928E-02 0. -1.
        1   -1    0    0  501    0  0.00000000000E+00  0.00000000000E+00 -0.17796410762E+04  0.17796410762E+04  0.50400001928E-02 0.  1.
    10030    2    1    2    0    0  0.00000000000E+00  0.00000000000E+00  0.23996466495E+03  0.37992468173E+04  0.37916610263E+04 0.  0.
        3    1    3    3  502    0  0.10686103044E+04 -0.12014768319E+04  0.11263316307E+04  0.19631855524E+04  0.10100000352E+00 0. -1.
       -3    1    3    3    0  502 -0.10686103044E+04  0.12014768319E+04 -0.88636696579E+03  0.18360612650E+04  0.10100000352E+00 0.  1.
</event>
<event>
 5   0  0.7858367E-08  0.3829664E+04  0.7818609E-02  0.8039819E-01
       -2   -1    0    0    0  501  0.00000000000E+00  0.00000000000E+00  0.15859246981E+04  0.15859246981E+04  0.25500000920E-02 0. -1.
        2   -1    0    0  501    0  0.00000000000E+00  0.00000000000E+00 -0.23119514155E+04  0.23119514155E+04  0.25500000920E-02 0.  1.
    10030    2    1    2    0    0  0.00000000000E+00  0.00000000000E+00 -0.72602671734E+03  0.38978761136E+04  0.38296636149E+04 0.  0.
        2    1    3    3  502    0 -0.12575045941E+04  0.66983694064E+03  0.93906231315E+03  0.17064106654E+04  0.25500000920E-02 0. -1.
       -2    1    3    3    0  502  0.12575045941E+04 -0.66983694064E+03 -0.16650890305E+04  0.21914654482E+04  0.25500000920E-02 0.  1.
</event>
<event>
 5   0  0.3701250E-08  0.3791265E+04  0.7818609E-02  0.8048032E-01
        1   -1    0    0  501    0  0.00000000000E+00  0.00000000000E+00  0.26945534197E+04  0.26945534197E+04  0.50400001928E-02 0. -1.
       -1   -1    0    0    0  501  0.00000000000E+00  0.00000000000E+00 -0.13335871461E+04  0.13335871461E+04  0.50400001928E-02 0.  1.
    10030    2    1    2    0    0  0.00000000000E+00  0.00000000000E+00  0.13609662736E+04  0.40281405657E+04  0.37912645937E+04 0.  0.
        1    1    3    3  502    0  0.12220366377E+04  0.95280313154E+02 -0.85588189933E+03  0.14949868587E+04  0.50400001928E-02 0.  1.
       -1    1    3    3    0  502 -0.12220366377E+04 -0.95280313154E+02  0.22168481729E+04  0.25331537071E+04  0.50400001928E-02 0. -1.
</event>
<event>
 5   0  0.1174870E-07  0.3788069E+04  0.7818609E-02  0.8048720E-01
       -2   -1    0    0    0  501  0.00000000000E+00  0.00000000000E+00  0.14495646731E+04  0.14495646731E+04  0.25500000920E-02 0. -1.
        2   -1    0    0  501    0  0.00000000000E+00  0.00000000000E+00 -0.24747893369E+04  0.24747893369E+04  0.25500000920E-02 0.  1.
    10030    2    1    2    0    0  0.00000000000E+00  0.00000000000E+00 -0.10252246638E+04  0.39243540100E+04  0.37880692687E+04 0.  0.
        5    1    3    3  502    0  0.61260977361E+03 -0.13874949121E+04 -0.16878473713E+04  0.22692033194E+04  0.46999998093E+01 0.  1.
       -5    1    3    3    0  502 -0.61260977361E+03  0.13874949121E+04  0.66262270747E+03  0.16551506905E+04  0.46999998093E+01 0. -1.
</event>
<event>
 5   0  0.3701250E-08  0.3835740E+04  0.7818609E-02  0.8038528E-01
       -1   -1    0    0    0  501  0.00000000000E+00  0.00000000000E+00  0.18470982841E+04  0.18470982841E+04  0.50400001928E-02 0. -1.
        1   -1    0    0  501    0  0.00000000000E+00  0.00000000000E+00 -0.19913538480E+04  0.19913538480E+04  0.50400001928E-02 0.  1.
    10030    2    1    2    0    0  0.00000000000E+00  0.00000000000E+00 -0.14425556393E+03  0.38384521321E+04  0.38357404895E+04 0.  0.
        1    1    3    3  502    0  0.16138888427E+04  0.69412560908E+03  0.69768759786E+03  0.18902950939E+04  0.50400001928E-02 0. -1.
       -1    1    3    3    0  502 -0.16138888427E+04 -0.69412560908E+03 -0.84194316179E+03  0.19481570382E+04  0.50400001928E-02 0.  1.
</event>
<event>
 5   0  0.7858367E-08  0.3788699E+04  0.7818609E-02  0.8048584E-01
        2   -1    0    0  501    0  0.00000000000E+00  0.00000000000E+00  0.18305119533E+04  0.18305119533E+04  0.25500000920E-02 0.  1.
       -2   -1    0    0    0  501  0.00000000000E+00  0.00000000000E+00 -0.19604135735E+04  0.19604135735E+04  0.25500000920E-02 0. -1.
    10030    2    1    2    0    0  0.00000000000E+00  0.00000000000E+00 -0.12990162017E+03  0.37909255268E+04  0.37886992383E+04 0.  0.
        2    1    3    3  502    0  0.46025761131E+03 -0.15877924129E+04  0.86060012230E+03  0.18637474040E+04  0.25500000920E-02 0.  1.
       -2    1    3    3    0  502 -0.46025761131E+03  0.15877924129E+04 -0.99050174247E+03  0.19271781228E+04  0.25500000920E-02 0. -1.
</event>
<event>
 5   0  0.3889225E-08  0.3824038E+04  0.7818609E-02  0.8041016E-01
       -1   -1    0    0    0  501  0.00000000000E+00  0.00000000000E+00  0.16517575308E+04  0.16517575308E+04  0.50400001928E-02 0.  1.
        1   -1    0    0  501    0  0.00000000000E+00  0.00000000000E+00 -0.22132892096E+04  0.22132892096E+04  0.50400001928E-02 0. -1.
    10030    2    1    2    0    0  0.00000000000E+00  0.00000000000E+00 -0.56153167875E+03  0.38650467404E+04  0.38240382424E+04 0.  0.
        5    1    3    3  502    0 -0.18650038698E+04  0.57237298513E+02  0.14117898080E+03  0.18712212957E+04  0.46999998093E+01 0.  1.
       -5    1    3    3    0  502  0.18650038698E+04 -0.57237298513E+02 -0.70271065955E+03  0.19938254447E+04  0.46999998093E+01 0. -1.
</event>
<event>
 5   0  0.1193861E-07  0.3805566E+04  0.7818609E-02  0.8044961E-01
        2   -1    0    0  501    0  0.00000000000E+00  0.00000000000E+00  0.27987744283E+04  0.27987744283E+04  0.25500000920E-02 0. -1.
       -2   -1    0    0    0  501  0.00000000000E+00  0.00000000000E+00 -0.12936319708E+04  0.12936319708E+04  0.25500000920E-02 0.  1.
    10030    2    1    2    0    0  0.00000000000E+00  0.00000000000E+00  0.15051424575E+04  0.40924063991E+04  0.38055664910E+04 0.  0.
        3    1    3    3  502    0 -0.76460084769E+03  0.15803322311E+04 -0.36579967313E+02  0.17559619931E+04  0.10100000352E+00 0.  1.
       -3    1    3    3    0  502  0.76460084769E+03 -0.15803322311E+04  0.15417224248E+04  0.23364444060E+04  0.10100000352E+00 0. -1.
</event>
<event>
 5   0  0.3701250E-08  0.3802508E+04  0.7818609E-02  0.8045617E-01
        1   -1    0    0  501    0  0.00000000000E+00  0.00000000000E+00  0.25157713911E+04  0.25157713911E+04  0.50400001928E-02 0. -1.
       -1   -1    0    0    0  501  0.00000000000E+00  0.00000000000E+00 -0.14368424509E+04  0.14368424509E+04  0.50400001928E-02 0.  1.
    10030    2    1    2    0    0  0.00000000000E+00  0.00000000000E+00  0.10789289402E+04  0.39526138420E+04  0.38025081888E+04 0.  0.
        1    1    3    3  502    0 -0.15758191783E+03  0.13492857843E+04  0.19221476917E+04  0.23537323419E+04  0.50400001928E-02 0. -1.
       -1    1    3    3    0  502  0.15758191783E+03 -0.13492857843E+04 -0.84321875148E+03  0.15988815001E+04  0.50400001928E-02 0.  1.
</event>
<event>
 5   0  0.3701250E-08  0.3781794E+04  0.7818609E-02  0.8050073E-01
       -1   -1    0    0    0  501  0.00000000000E+00  0.00000000000E+00  0.15840530343E+04  0.15840530343E+04  0.50400001928E-02 0.  1.
        1   -1    0    0  501    0  0.00000000000E+00  0.00000000000E+00 -0.22571786521E+04  0.22571786521E+04  0.50400001928E-02 0. -1.
    10030    2    1    2    0    0  0.00000000000E+00  0.00000000000E+00 -0.67312561775E+03  0.38412316864E+04  0.37817935919E+04 0.  0.
        2    1    3    3  502    0 -0.76476351845E+03 -0.17292278091E+04 -0.31628308470E+03  0.19170620868E+04  0.25500000920E-02 0.  1.
       -2    1    3    3    0  502  0.76476351845E+03  0.17292278091E+04 -0.35684253305E+03  0.19241695997E+04  0.25500000920E-02 0. -1.
</event>
<event>
 5   0  0.1193861E-07  0.3801705E+04  0.7818609E-02  0.8045789E-01
       -2   -1    0    0    0  501  0.00000000000E+00  0.00000000000E+00  0.13368783055E+04  0.13368783055E+04  0.25500000920E-02 0.  1.
        2   -1    0    0  501    0  0.00000000000E+00  0.00000000000E+00 -0.27027445572E+04  0.27027445572E+04  0.25500000920E-02 0. -1.
    10030    2    1    2    0    0  0.00000000000E+00  0.00000000000E+00 -0.13658662517E+04  0.40396228627E+04  0.38017051773E+04 0.  0.
        3    1    3    3  502    0  0.17381294173E+04 -0.13933633708E+03  0.12121885720E+03  0.17479137587E+04  0.10100000352E+00 0.  1.
       -3    1    3    3    0  502 -0.17381294173E+04  0.13933633708E+03 -0.14870851089E+04  0.22917091040E+04  0.10100000352E+00 0. -1.
</event>
<event>
 5   0  0.3701250E-08  0.3796132E+04  0.7818609E-02  0.8046985E-01
       -1   -1    0    0    0  501  0.00000000000E+00  0.00000000000E+00  0.14434527441E+04  0.14434527441E+04  0.50400001928E-02 0. -1.
        1   -1    0    0  501    0  0.00000000000E+00  0.00000000000E+00 -0.24958594950E+04  0.24958594950E+04  0.50400001928E-02 0.  1.
    10030    2    1    2    0    0  0.00000000000E+00  0.00000000000E+00 -0.10524067509E+04  0.39393122391E+04  0.37961323670E+04 0.  0.
        3    1    3    3  502    0 -0.47984077203E+03  0.11637826029E+04 -0.20003530741E+04  0.23634825036E+04  0.10100000352E+00 0.  1.
       -3    1    3    3    0  502  0.47984077203E+03 -0.11637826029E+04  0.94794632326E+03  0.15758297355E+04  0.10100000352E+00 0. -1.
</event>
<event>
 5   0  0.1150235E-07  0.3793027E+04  0.7818609E-02  0.8047653E-01
        2   -1    0    0  501    0  0.00000000000E+00  0.00000000000E+00  0.14877039252E+04  0.14877039252E+04  0.25500000920E-02 0. -1.
       -2   -1    0    0    0  501  0.00000000000E+00  0.00000000000E+00 -0.24176605640E+04  0.24176605640E+04  0.25500000920E-02 0.  1.
    10030    2    1    2    0    0  0.00000000000E+00  0.00000000000E+00 -0.92995663882E+03  0.39053644892E+04  0.37930268182E+04 0.  0.
        4    1    3    3  502    0  0.47973133336E+02 -0.33940467498E+03 -0.23855007562E+04  0.24100025780E+04  0.12699999809E+01 0.  1.
       -4    1    3    3    0  502 -0.47973133336E+02  0.33940467498E+03  0.14555441174E+04  0.14953619112E+04  0.12699999809E+01 0. -1.
</event>
<event>
 5   0  0.3701250E-08  0.3830029E+04  0.7818609E-02  0.8039741E-01
       -1   -1    0    0    0  501  0.00000000000E+00  0.00000000000E+00  0.18961660137E+04  0.18961660137E+04  0.50400001928E-02 0. -1.
        1   -1    0    0  501    0  0.00000000000E+00  0.00000000000E+00 -0.19340501017E+04  0.19340501017E+04  0.50400001928E-02 0.  1.
    10030    2    1    2    0    0  0.00000000000E+00  0.00000000000E+00 -0.37884087961E+02  0.38302161154E+04  0.38300287580E+04 0.  0.
        4    1    3    3  502    0 -0.55923159669E+03 -0.17641581919E+04  0.47330592087E+03  0.19102393076E+04  0.12699999809E+01 0. -1.
       -4    1    3    3    0  502  0.55923159669E+03  0.17641581919E+04 -0.51119000883E+03  0.19199768079E+04  0.12699999809E+01 0.  1.
</event>
<event>
 5   0  0.7858367E-08  0.3800725E+04  0.7818609E-02  0.8045999E-01
       -2   -1    0    0    0  501  0.00000000000E+00  0.00000000000E+00  0.19072920386E+04  0.19072920386E+04  0.25500000920E-02 0.  1.
        2   -1    0    0  501    0  0.00000000000E+00  0.00000000000E+00 -0.18934578450E+04  0.18934578450E+04  0.25500000920E-02 0. -1.
    10030    2    1    2    0    0  0.00000000000E+00  0.00000000000E+00  0.13834193660E+02  0.38007498836E+04  0.38007247063E+04 0.  0.
        2    1    3    3  502    0  0.14595033357E+04 -0.25658961065E+03  0.11966261411E+04  0.19047053150E+04  0.25500000920E-02 0.  1.
       -2    1    3    3    0  502 -0.14595033357E+04  0.25658961065E+03 -0.11827919475E+04  0.18960445686E+04  0.25500000920E-02 0. -1.
</event>
<event>
 5   0  0.3701250E-08  0.3724252E+04  0.7818609E-02  0.8062608E-01
       -1   -1    0    0    0  501  0.00000000000E+00  0.00000000000E+00  0.16259304229E+04  0.16259304230E+04  0.50400001928E-02 0. -1.
        1   -1    0    0  501    0  0.00000000000E+00  0.00000000000E+00 -0.21326335767E+04  0.21326335767E+04  0.50400001928E-02 0.  1.
    10030    2    1    2    0    0  0.00000000000E+00  0.00000000000E+00 -0.50670315371E+03  0.37585639996E+04  0.37242523079E+04 0.  0.
        1    1    3    3  502    0  0.17538389345E+04 -0.60423357444E+03 -0.89173388338E+02  0.18571486516E+04  0.50400001928E-02 0. -1.
       -1    1    3    3    0  502 -0.17538389345E+04  0.60423357444E+03 -0.41752976538E+03  0.19014153481E+04  0.50400001928E-02 0.  1.
</event>
<event>
 5   0  0.7858367E-08  0.3813531E+04  0.7818609E-02  0.8043257E-01
       -2   -1    0    0    0  501  0.00000000000E+00  0.00000000000E+00  0.16411975504E+04  0.16411975504E+04  0.25500000920E-02 0. -1.
        2   -1    0    0  501    0  0.00000000000E+00  0.00000000000E+00 -0.22153056538E+04  0.22153056538E+04  0.25500000920E-02 0.  1.
    10030    2    1    2    0    0  0.00000000000E+00  0.00000000000E+00 -0.57410810344E+03  0.38565032042E+04  0.38135307589E+04 0.  0.
        2    1    3    3  502    0 -0.11571451860E+04  0.13950256105E+04  0.31179514205E+03  0.18391024022E+04  0.25500000920E-02 0.  1.
       -2    1    3    3    0  502  0.11571451860E+04 -0.13950256105E+04 -0.88590324550E+03  0.20174008019E+04  0.25500000920E-02 0. -1.
</event>
<event>
 5   0  0.1143283E-07  0.3802386E+04  0.7818609E-02  0.8045643E-01
        2   -1    0    0  501    0  0.00000000000E+00  0.00000000000E+00  0.18980397447E+04  0.18980397447E+04  0.25500000920E-02 0.  1.
       -2   -1    0    0    0  501  0.00000000000E+00  0.00000000000E+00 -0.19043516972E+04  0.19043516972E+04  0.25500000920E-02 0. -1.
    10030    2    1    2    0    0  0.00000000000E+00  0.00000000000E+00 -0.63119525775E+01  0.38023914419E+04  0.38023862030E+04 0.  0.
        1    1    3    3  502    0 -0.93122041134E+02  0.11722254971E+04 -0.14970626093E+04  0.19036755992E+04  0.50400001928E-02 0. -1.
       -1    1    3    3    0  502  0.93122041134E+02 -0.11722254971E+04  0.14907506567E+04  0.18987158427E+04  0.50400001928E-02 0.  1.
</event>
<event>
 5   0  0.3701250E-08  0.3801359E+04  0.7818609E-02  0.8045863E-01
        1   -1    0    0  501    0  0.00000000000E+00  0.00000000000E+00  0.14791197470E+04  0.14791197470E+04  0.50400001928E-02 0. -1.
       -1   -1    0    0    0  501  0.00000000000E+00  0.00000000000E+00 -0.24423868802E+04  0.24423868802E+04  0.50400001928E-02 0.  1.
    10030    2    1    2    0    0  0.00000000000E+00  0.00000000000E+00 -0.96326713318E+03  0.39215066273E+04  0.38013590541E+04 0.  0.
        3    1    3    3  502    0  0.14549884857E+04 -0.12045358939E+04 -0.69970171010E+03  0.20143189187E+04  0.10100000352E+00 0. -1.
       -3    1    3    3    0  502 -0.14549884857E+04  0.12045358939E+04 -0.26356542308E+03  0.19071877085E+04  0.10100000352E+00 0.  1.
</event>
<event>
 5   0  0.3889225E-08  0.3774694E+04  0.7818609E-02  0.8051607E-01
       -1   -1    0    0    0  501  0.00000000000E+00  0.00000000000E+00  0.17405040247E+04  0.17405040247E+04  0.50400001928E-02 0.  1.
        1   -1    0    0  501    0  0.00000000000E+00  0.00000000000E+00 -0.20465785818E+04  0.20465785819E+04  0.50400001928E-02 0. -1.
    10030    2    1    2    0    0  0.00000000000E+00  0.00000000000E+00 -0.30607455717E+03  0.37870826065E+04  0.37746937669E+04 0.  0.
        5    1    3    3  502    0  0.90153482764E+03 -0.16017635964E+04  0.27690685017E+03  0.18587929303E+04  0.46999998093E+01 0. -1.
       -5    1    3    3    0  502 -0.90153482764E+03  0.16017635964E+04 -0.58298140734E+03  0.19282896762E+04  0.46999998093E+01 0.  1.
</event>
<event>
 5   0  0.3701250E-08  0.3819764E+04  0.7818609E-02  0.8041927E-01
        1   -1    0    0  501    0  0.00000000000E+00  0.00000000000E+00  0.15694079984E+04  0.15694079984E+04  0.50400001928E-02 0. -1.
       -1   -1    0    0    0  501  0.00000000000E+00  0.00000000000E+00 -0.23242198220E+04  0.23242198220E+04  0.50400001928E-02 0.  1.
    10030    2    1    2    0    0  0.00000000000E+00  0.00000000000E+00 -0.75481182360E+03  0.38936278204E+04  0.38197639606E+04 0.  0.
        3    1    3    3  502    0 -0.15018136945E+04 -0.64338328294E+03  0.63079170662E+03  0.17513664976E+04  0.10100000352E+00 0. -1.
       -3    1    3    3    0  502  0.15018136945E+04  0.64338328294E+03 -0.13856035302E+04  0.21422613227E+04  0.10100000352E+00 0.  1.
</event>
<event>
 5   0  0.3889225E-08  0.3780874E+04  0.7818609E-02  0.8050272E-01
       -1   -1    0    0    0  501  0.00000000000E+00  0.00000000000E+00  0.33290558048E+04  0.33290558048E+04  0.50400001928E-02 0.  1.
        1   -1    0    0  501    0  0.00000000000E+00  0.00000000000E+00 -0.10735034172E+04  0.10735034172E+04  0.50400001928E-02 0. -1.
    10030    2    1    2    0    0  0.00000000000E+00  0.00000000000E+00  0.22555523877E+04  0.44025592220E+04  0.37808743869E+04 0.  0.
        5    1    3    3  502    0  0.11441735121E+03 -0.15419564009E+04 -0.13872945919E+03  0.15524138705E+04  0.46999998093E+01 0. -1.
       -5    1    3    3    0  502 -0.11441735121E+03  0.15419564009E+04  0.23942818469E+04  0.28501453515E+04  0.46999998093E+01 0.  1.
</event>
<event>
 5   0  0.7858367E-08  0.3768841E+04  0.7818609E-02  0.8052875E-01
       -2   -1    0    0    0  501  0.00000000000E+00  0.00000000000E+00  0.18368022765E+04  0.18368022765E+04  0.25500000920E-02 0. -1.
        2   -1    0    0  501    0  0.00000000000E+00  0.00000000000E+00 -0.19332729141E+04  0.19332729141E+04  0.25500000920E-02 0.  1.
    10030    2    1    2    0    0  0.00000000000E+00  0.00000000000E+00 -0.96470637552E+02  0.37700751906E+04  0.37688407182E+04 0.  0.
        2    1    3    3  502    0  0.25554920695E+03  0.18582967131E+04  0.13201254320E+03  0.18804253196E+04  0.25500000920E-02 0.  1.
       -2    1    3    3    0  502 -0.25554920695E+03 -0.18582967131E+04 -0.22848318075E+03  0.18896498710E+04  0.25500000920E-02 0. -1.
</event>
<event>
 5   0  0.3701250E-08  0.3809619E+04  0.7818609E-02  0.8044094E-01
        1   -1    0    0  501    0  0.00000000000E+00  0.00000000000E+00  0.26579446525E+04  0.26579446525E+04  0.50400001928E-02 0.  1.
       -1   -1    0    0    0  501  0.00000000000E+00  0.00000000000E+00 -0.13650770984E+04  0.13650770984E+04  0.50400001928E-02 0. -1.
    10030    2    1    2    0    0  0.00000000000E+00  0.00000000000E+00  0.12928675541E+04  0.40230217509E+04  0.38096190749E+04 0.  0.
        1    1    3    3  502    0  0.22551984463E+03  0.70356614651E+02  0.26424145169E+04  0.26529537751E+04  0.50400001928E-02 0.  1.
       -1    1    3    3    0  502 -0.22551984463E+03 -0.70356614651E+02 -0.13495469628E+04  0.13700679758E+04  0.50400001928E-02 0. -1.
</event>
<event>
 5   0  0.1143283E-07  0.3807663E+04  0.7818609E-02  0.8044512E-01
       -2   -1    0    0    0  501  0.00000000000E+00  0.00000000000E+00  0.21422770813E+04  0.21422770813E+04  0.25500000920E-02 0.  1.
        2   -1    0    0  501    0  0.00000000000E+00  0.00000000000E+00 -0.16919257722E+04  0.16919257722E+04  0.25500000920E-02 0. -1.
    10030    2    1    2    0    0  0.00000000000E+00  0.00000000000E+00  0.45035130910E+03  0.38342028535E+04  0.38076626978E+04 0.  0.
        1    1    3    3  502    0 -0.18226417767E+04 -0.55004347826E+03  0.22689960118E+03  0.19173039152E+04  0.50400001928E-02 0.  1.
       -1    1    3    3    0  502  0.18226417767E+04  0.55004347826E+03  0.22345170792E+03  0.19168989384E+04  0.50400001928E-02 0. -1.
</event>
<event>
 5   0  0.1150235E-07  0.3806641E+04  0.7818609E-02  0.8044731E-01
       -2   -1    0    0    0  501  0.00000000000E+00  0.00000000000E+00  0.17943293989E+04  0.17943293989E+04  0.25500000920E-02 0. -1.
        2   -1    0    0  501    0  0.00000000000E+00  0.00000000000E+00 -0.20189318751E+04  0.20189318751E+04  0.25500000920E-02 0.  1.
    10030    2    1    2    0    0  0.00000000000E+00  0.00000000000E+00 -0.22460247618E+03  0.38132612740E+04  0.38066409434E+04 0.  0.
        4    1    3    3  502    0 -0.14445916388E+04  0.11229543128E+04  0.41278192604E+03  0.18757030476E+04  0.12699999809E+01 0. -1.
       -4    1    3    3    0  502  0.14445916388E+04 -0.11229543128E+04 -0.63738440222E+03  0.19375582264E+04  0.12699999809E+01 0.  1.
</event>
<event>
 5   0  0.3701250E-08  0.3813050E+04  0.7818609E-02  0.8043360E-01
        1   -1    0    0  501    0  0.00000000000E+00  0.00000000000E+00  0.16309164297E+04  0.16309164297E+04  0.50400001928E-02 0.  1.
       -1   -1    0    0    0  501  0.00000000000E+00  0.00000000000E+00 -0.22287082731E+04  0.22287082731E+04  0.50400001928E-02 0. -1.
    10030    2    1    2    0    0  0.00000000000E+00  0.00000000000E+00 -0.59779184343E+03  0.38596247028E+04  0.38130496664E+04 0.  0.
        3    1    3    3  502    0  0.18742868596E+04  0.24550503804E+03 -0.47644400816E+02  0.18908976585E+04  0.10100000352E+00 0.  1.
       -3    1    3    3    0  502 -0.18742868596E+04 -0.24550503804E+03 -0.55014744261E+03  0.19687270442E+04  0.10100000352E+00 0. -1.
</event>
<event>
 5   0  0.1143283E-07  0.3806686E+04  0.7818609E-02  0.8044722E-01
        2   -1    0    0  501    0  0.00000000000E+00  0.00000000000E+00  0.26844249818E+04  0.26844249818E+04  0.25500000920E-02 0. -1.
       -2   -1    0    0    0  501  0.00000000000E+00  0.00000000000E+00 -0.13495308985E+04  0.13495308985E+04  0.25500000920E-02 0.  1.
    10030    2    1    2    0    0  0.00000000000E+00  0.00000000000E+00  0.13348940833E+04  0.40339558803E+04  0.38066859380E+04 0.  0.
        1    1    3    3  502    0  0.16119749370E+04 -0.10006834645E+04  0.50714141188E+03  0.19639304991E+04  0.50400001928E-02 0.  1.
       -1    1    3    3    0  502 -0.16119749370E+04  0.10006834645E+04  0.82775267143E+03  0.20700253812E+04  0.50400001928E-02 0. -1.
</event>
<event>
 5   0  0.1143283E-07  0.3809703E+04  0.7818609E-02  0.8044076E-01
        2   -1    0    0  501    0  0.00000000000E+00  0.00000000000E+00  0.15043763025E+04  0.15043763025E+04  0.25500000920E-02 0.  1.
       -2   -1    0    0    0  501  0.00000000000E+00  0.00000000000E+00 -0.24119356624E+04  0.24119356624E+04  0.25500000920E-02 0. -1.
    10030    2    1    2    0    0  0.00000000000E+00  0.00000000000E+00 -0.90755935989E+03  0.39163119649E+04  0.38097027988E+04 0.  0.
        1    1    3    3  502    0  0.84149276332E+03 -0.11625677393E+03 -0.22064338655E+04  0.23643130315E+04  0.50400001928E-02 0. -1.
       -1    1    3    3    0  502 -0.84149276332E+03  0.11625677393E+03  0.12988745056E+04  0.15519989335E+04  0.50400001928E-02 0.  1.
</event>
<event>
 5   0  0.3701250E-08  0.3790805E+04  0.7818609E-02  0.8048131E-01
       -1   -1    0    0    0  501  0.00000000000E+00  0.00000000000E+00  0.15469698546E+04  0.15469698546E+04  0.50400001928E-02 0. -1.
        1   -1    0    0  501    0  0.00000000000E+00  0.00000000000E+00 -0.23223148888E+04  0.23223148888E+04  0.50400001928E-02 0.  1.
    10030    2    1    2    0    0  0.00000000000E+00  0.00000000000E+00 -0.77534503417E+03  0.38692847434E+04  0.37908052579E+04 0.  0.
        2    1    3    3  502    0  0.10526946773E+04 -0.15596389880E+04 -0.62022985163E+03  0.19812432777E+04  0.25500000920E-02 0.  1.
       -2    1    3    3    0  502 -0.10526946773E+04  0.15596389880E+04 -0.15511518254E+03  0.18880414657E+04  0.25500000920E-02 0. -1.
</event>
<event>
 5   0  0.3701250E-08  0.3808276E+04  0.7818609E-02  0.8044381E-01
       -1   -1    0    0    0  501  0.00000000000E+00  0.00000000000E+00  0.14650975950E+04  0.14650975950E+04  0.50400001928E-02 0. -1.
        1   -1    0    0  501    0  0.00000000000E+00  0.00000000000E+00 -0.24747437026E+04  0.24747437026E+04  0.50400001928E-02 0.  1.
    10030    2    1    2    0    0  0.00000000000E+00  0.00000000000E+00 -0.10096461076E+04  0.39398412976E+04  0.38082757500E+04 0.  0.
        3    1    3    3  502    0 -0.67234718838E+03 -0.14527093217E+04 -0.15716243667E+04  0.22433052122E+04  0.10100000352E+00 0.  1.
       -3    1    3    3    0  502  0.67234718838E+03  0.14527093217E+04  0.56197825906E+03  0.16965360854E+04  0.10100000352E+00 0. -1.
</event>
<event>
 5   0  0.3701250E-08  0.3766120E+04  0.7818609E-02  0.8053465E-01
        1   -1    0    0  501    0  0.00000000000E+00  0.00000000000E+00  0.10846939037E+04  0.10846939037E+04  0.50400001928E-02 0. -1.
       -1   -1    0    0    0  501  0.00000000000E+00  0.00000000000E+00 -0.32690463828E+04  0.32690463828E+04  0.50400001928E-02 0.  1.
    10030    2    1    2    0    0  0.00000000000E+00  0.00000000000E+00 -0.21843524791E+04  0.43537402866E+04  0.37661198507E+04 0.  0.
        4    1    3    3  502    0 -0.65068833396E+03 -0.18402121304E+02 -0.31348419079E+04  0.32017135016E+04  0.12699999809E+01 0.  1.
       -4    1    3    3    0  502  0.65068833396E+03  0.18402121304E+02  0.95048942882E+03  0.11520267849E+04  0.12699999809E+01 0. -1.
</event>
<event>
 5   0  0.1193861E-07  0.3721995E+04  0.7818609E-02  0.8063105E-01
        2   -1    0    0  501    0  0.00000000000E+00  0.00000000000E+00  0.15555285484E+04  0.15555285484E+04  0.25500000920E-02 0. -1.
       -2   -1    0    0    0  501  0.00000000000E+00  0.00000000000E+00 -0.22264529107E+04  0.22264529107E+04  0.25500000920E-02 0.  1.
    10030    2    1    2    0    0  0.00000000000E+00  0.00000000000E+00 -0.67092436225E+03  0.37819814592E+04  0.37219946611E+04 0.  0.
        3    1    3    3  502    0 -0.18175096205E+04 -0.32226642094E+03 -0.57616434198E+03  0.19336913471E+04  0.10100000352E+00 0. -1.
       -3    1    3    3    0  502  0.18175096205E+04  0.32226642094E+03 -0.94760020271E+02  0.18482901121E+04  0.10100000352E+00 0.  1.
</event>
<event>
 5   0  0.1143283E-07  0.3776529E+04  0.7818609E-02  0.8051211E-01
        2   -1    0    0  501    0  0.00000000000E+00  0.00000000000E+00  0.27068034341E+04  0.27068034341E+04  0.25500000920E-02 0.  1.
       -2   -1    0    0    0  501  0.00000000000E+00  0.00000000000E+00 -0.13172519218E+04  0.13172519218E+04  0.25500000920E-02 0. -1.
    10030    2    1    2    0    0  0.00000000000E+00  0.00000000000E+00  0.13895515124E+04  0.40240553559E+04  0.37765285782E+04 0.  0.
        1    1    3    3  502    0 -0.13895183329E+04  0.12129877191E+04  0.11255527507E+04  0.21607798126E+04  0.50400001928E-02 0.  1.
       -1    1    3    3    0  502  0.13895183329E+04 -0.12129877191E+04  0.26399876168E+03  0.18632755433E+04  0.50400001928E-02 0. -1.
</event>
<event>
 5   0  0.7858367E-08  0.3792385E+04  0.7818609E-02  0.8047791E-01
        2   -1    0    0  501    0  0.00000000000E+00  0.00000000000E+00  0.19984459117E+04  0.19984459117E+04  0.25500000920E-02 0.  1.
       -2   -1    0    0    0  501  0.00000000000E+00  0.00000000000E+00 -0.17991708646E+04  0.17991708646E+04  0.25500000920E-02 0. -1.
    10030    2    1    2    0    0  0.00000000000E+00  0.00000000000E+00  0.19927504711E+03  0.37976167764E+04  0.37923848217E+04 0.  0.
        2    1    3    3  502    0 -0.16464798569E+03  0.15113122621E+04  0.12345023686E+04  0.19583589587E+04  0.25500000920E-02 0.  1.
       -2    1    3    3    0  502  0.16464798569E+03 -0.15113122621E+04 -0.10352273215E+04  0.18392578177E+04  0.25500000920E-02 0. -1.
</event>
<event>
 5   0  0.1143283E-07  0.3785599E+04  0.7818609E-02  0.8049252E-01
        2   -1    0    0  501    0  0.00000000000E+00  0.00000000000E+00  0.18473091006E+04  0.18473091006E+04  0.25500000920E-02 0. -1.
       -2   -1    0    0    0  501  0.00000000000E+00  0.00000000000E+00 -0.19394104630E+04  0.19394104630E+04  0.25500000920E-02 0.  1.
    10030    2    1    2    0    0  0.00000000000E+00  0.00000000000E+00 -0.92101362402E+02  0.37867195637E+04  0.37855993440E+04 0.  0.
        1    1    3    3  502    0 -0.13916324654E+04  0.29546640589E+03 -0.12949189437E+04  0.19237350094E+04  0.50400001928E-02 0.  1.
       -1    1    3    3    0  502  0.13916324654E+04 -0.29546640589E+03  0.12028175813E+04  0.18629845543E+04  0.50400001928E-02 0. -1.
</event>
<event>
 5   0  0.3889225E-08  0.3814063E+04  0.7818609E-02  0.8043144E-01
        1   -1    0    0  501    0  0.00000000000E+00  0.00000000000E+00  0.21564035719E+04  0.21564035720E+04  0.50400001928E-02 0.  1.
       -1   -1    0    0    0  501  0.00000000000E+00  0.00000000000E+00 -0.16864977708E+04  0.16864977708E+04  0.50400001928E-02 0. -1.
    10030    2    1    2    0    0  0.00000000000E+00  0.00000000000E+00  0.46990580112E+03  0.38429013428E+04  0.38140633540E+04 0.  0.
        5    1    3    3  502    0  0.11584731706E+04 -0.27373894960E+03  0.17361019566E+04  0.21050095471E+04  0.46999998093E+01 0.  1.
       -5    1    3    3    0  502 -0.11584731706E+04  0.27373894960E+03 -0.12661961555E+04  0.17378917957E+04  0.46999998093E+01 0. -1.
</event>
<event>
 5   0  0.3701250E-08  0.3775833E+04  0.7818609E-02  0.8051361E-01
       -1   -1    0    0    0  501  0.00000000000E+00  0.00000000000E+00  0.13732879376E+04  0.13732879377E+04  0.50400001928E-02 0. -1.
        1   -1    0    0  501    0  0.00000000000E+00  0.00000000000E+00 -0.25953981567E+04  0.25953981567E+04  0.50400001928E-02 0.  1.
    10030    2    1    2    0    0  0.00000000000E+00  0.00000000000E+00 -0.12221102191E+04  0.39686860944E+04  0.37758331436E+04 0.  0.
        4    1    3    3  502    0  0.16133616487E+04  0.77921630910E+03  0.14413039901E+02  0.17917374848E+04  0.12699999809E+01 0. -1.
       -4    1    3    3    0  502 -0.16133616487E+04 -0.77921630910E+03 -0.12365232590E+04  0.21769486096E+04  0.12699999809E+01 0.  1.
</event>
<event>
 5   0  0.3889225E-08  0.3809554E+04  0.7818609E-02  0.8044108E-01
       -1   -1    0    0    0  501  0.00000000000E+00  0.00000000000E+00  0.13905178443E+04  0.13905178443E+04  0.50400001928E-02 0. -1.
        1   -1    0    0  501    0  0.00000000000E+00  0.00000000000E+00 -0.26092265176E+04  0.26092265176E+04  0.50400001928E-02 0.  1.
    10030    2    1    2    0    0  0.00000000000E+00  0.00000000000E+00 -0.12187086733E+04  0.39997443619E+04  0.38095543218E+04 0.  0.
        5    1    3    3  502    0  0.51293529223E+02 -0.23046165186E+03 -0.25937978130E+04  0.26045254432E+04  0.46999998093E+01 0.  1.
       -5    1    3    3    0  502 -0.51293529223E+02  0.23046165186E+03  0.13750891397E+04  0.13952189188E+04  0.46999998093E+01 0. -1.
</event>
<event>
 5   0  0.3701250E-08  0.3815605E+04  0.7818609E-02  0.8042814E-01
       -1   -1    0    0    0  501  0.00000000000E+00  0.00000000000E+00  0.16990282577E+04  0.16990282577E+04  0.50400001928E-02 0. -1.
        1   -1    0    0  501    0  0.00000000000E+00  0.00000000000E+00 -0.21422304756E+04  0.21422304756E+04  0.50400001928E-02 0.  1.
    10030    2    1    2    0    0  0.00000000000E+00  0.00000000000E+00 -0.44320221783E+03  0.38412587333E+04  0.38156048603E+04 0.  0.
        4    1    3    3  502    0 -0.13816881633E+04  0.12299965005E+04  0.24817850149E+03  0.18664264661E+04  0.12699999809E+01 0. -1.
       -4    1    3    3    0  502  0.13816881633E+04 -0.12299965005E+04 -0.69138071932E+03  0.19748322672E+04  0.12699999809E+01 0.  1.
</event>
<event>
 5   0  0.1193861E-07  0.3791095E+04  0.7818609E-02  0.8048069E-01
       -2   -1    0    0    0  501  0.00000000000E+00  0.00000000000E+00  0.15070273073E+04  0.15070273073E+04  0.25500000920E-02 0. -1.
        2   -1    0    0  501    0  0.00000000000E+00  0.00000000000E+00 -0.23842298095E+04  0.23842298095E+04  0.25500000920E-02 0.  1.
    10030    2    1    2    0    0  0.00000000000E+00  0.00000000000E+00 -0.87720250222E+03  0.38912571168E+04  0.37910945279E+04 0.  0.
        3    1    3    3  502    0 -0.41190686165E+03  0.10319395525E+04 -0.20149281465E+04  0.23009784763E+04  0.10100000352E+00 0.  1.
       -3    1    3    3    0  502  0.41190686165E+03 -0.10319395525E+04  0.11377256442E+04  0.15902786405E+04  0.10100000352E+00 0. -1.
</event>
<event>
 5   0  0.3701250E-08  0.3808266E+04  0.7818609E-02  0.8044383E-01
        1   -1    0    0  501    0  0.00000000000E+00  0.00000000000E+00  0.17762145503E+04  0.17762145503E+04  0.50400001928E-02 0.  1.
       -1   -1    0    0    0  501  0.00000000000E+00  0.00000000000E+00 -0.20412636057E+04  0.20412636057E+04  0.50400001928E-02 0. -1.
    10030    2    1    2    0    0  0.00000000000E+00  0.00000000000E+00 -0.26504905543E+03  0.38174781561E+04  0.38082658088E+04 0.  0.
        1    1    3    3  502    0  0.15491765768E+04 -0.25365913371E+03 -0.12128286462E+04  0.19837450308E+04  0.50400001928E-02 0. -1.
       -1    1    3    3    0  502 -0.15491765768E+04  0.25365913371E+03  0.94777959075E+03  0.18337331253E+04  0.50400001928E-02 0.  1.
</event>
<event>
 5   0  0.1174870E-07  0.3801055E+04  0.7818609E-02  0.8045928E-01
        2   -1    0    0  501    0  0.00000000000E+00  0.00000000000E+00  0.19271627161E+04  0.19271627161E+04  0.25500000920E-02 0.  1.
       -2   -1    0    0    0  501  0.00000000000E+00  0.00000000000E+00 -0.18742606453E+04  0.18742606453E+04  0.25500000920E-02 0. -1.
    10030    2    1    2    0    0  0.00000000000E+00  0.00000000000E+00  0.52902070813E+02  0.38014233614E+04  0.38010552408E+04 0.  0.
        5    1    3    3  502    0 -0.36461447735E+03 -0.38503755579E+03  0.18516717600E+04  0.19261121549E+04  0.46999998093E+01 0.  1.
       -5    1    3    3    0  502  0.36461447735E+03  0.38503755579E+03 -0.17987696892E+04  0.18753112065E+04  0.46999998093E+01 0. -1.
</event>
<event>
 5   0  0.1193861E-07  0.3729464E+04  0.7818609E-02  0.8061463E-01
       -2   -1    0    0    0  501  0.00000000000E+00  0.00000000000E+00  0.22082000265E+04  0.22082000265E+04  0.25500000920E-02 0.  1.
        2   -1    0    0  501    0  0.00000000000E+00  0.00000000000E+00 -0.15746880788E+04  0.15746880788E+04  0.25500000920E-02 0. -1.
    10030    2    1    2    0    0  0.00000000000E+00  0.00000000000E+00  0.63351194776E+03  0.37828881053E+04  0.37294644427E+04 0.  0.
        3    1    3    3  502    0  0.16675377840E+04  0.75609532249E+03 -0.41666624790E+02  0.18314198087E+04  0.10100000352E+00 0.  1.
       -3    1    3    3    0  502 -0.16675377840E+04 -0.75609532249E+03  0.67517857255E+03  0.19514682966E+04  0.10100000352E+00 0. -1.
</event>
<event>
 5   0  0.3701250E-08  0.3793014E+04  0.7818609E-02  0.8047656E-01
       -1   -1    0    0    0  501  0.00000000000E+00  0.00000000000E+00  0.25501069599E+04  0.25501069599E+04  0.50400001928E-02 0. -1.
        1   -1    0    0  501    0  0.00000000000E+00  0.00000000000E+00 -0.14104263525E+04  0.14104263525E+04  0.50400001928E-02 0.  1.
    10030    2    1    2    0    0  0.00000000000E+00  0.00000000000E+00  0.11396806074E+04  0.39605333123E+04  0.37930136081E+04 0.  0.
        3    1    3    3  502    0 -0.11422456183E+04 -0.27847912487E+03 -0.98398941053E+03  0.15331375822E+04  0.10100000352E+00 0.  1.
       -3    1    3    3    0  502  0.11422456183E+04  0.27847912487E+03  0.21236700179E+04  0.24273957302E+04  0.10100000352E+00 0. -1.
</event>
<event>
 5   0  0.1150235E-07  0.3749870E+04  0.7818609E-02  0.8056999E-01
       -2   -1    0    0    0  501  0.00000000000E+00  0.00000000000E+00  0.16781792642E+04  0.16781792642E+04  0.25500000920E-02 0. -1.
        2   -1    0    0  501    0  0.00000000000E+00  0.00000000000E+00 -0.20947593598E+04  0.20947593598E+04  0.25500000920E-02 0.  1.
    10030    2    1    2    0    0  0.00000000000E+00  0.00000000000E+00 -0.41658009560E+03  0.37729386240E+04  0.37498702490E+04 0.  0.
        4    1    3    3  502    0  0.16484351921E+04 -0.64498428167E+03  0.41360357051E+03  0.18178043989E+04  0.12699999809E+01 0.  1.
       -4    1    3    3    0  502 -0.16484351921E+04  0.64498428167E+03 -0.83018366611E+03  0.19551342252E+04  0.12699999809E+01 0. -1.
</event>
<event>
 5   0  0.1174870E-07  0.3797591E+04  0.7818609E-02  0.8046672E-01
        2   -1    0    0  501    0  0.00000000000E+00  0.00000000000E+00  0.21303724938E+04  0.21303724938E+04  0.25500000920E-02 0. -1.
       -2   -1    0    0    0  501  0.00000000000E+00  0.00000000000E+00 -0.16923916008E+04  0.16923916008E+04  0.25500000920E-02 0.  1.
    10030    2    1    2    0    0  0.00000000000E+00  0.00000000000E+00  0.43798089295E+03  0.38227640946E+04  0.37975910865E+04 0.  0.
        5    1    3    3  502    0  0.70507354917E+03 -0.14790700215E+04  0.11848429712E+04  0.20220414918E+04  0.46999998093E+01 0. -1.
       -5    1    3    3    0  502 -0.70507354917E+03  0.14790700215E+04 -0.74686207829E+03  0.18007226028E+04  0.46999998093E+01 0.  1.
</event>
<event>
 5   0  0.1174870E-07  0.3757161E+04  0.7818609E-02  0.8055411E-01
        2   -1    0    0  501    0  0.00000000000E+00  0.00000000000E+00  0.12714494672E+04  0.12714494672E+04  0.25500000920E-02 0.  1.
       -2   -1    0    0    0  501  0.00000000000E+00  0.00000000000E+00 -0.27756234248E+04  0.27756234248E+04  0.25500000920E-02 0. -1.
    10030    2    1    2    0    0  0.00000000000E+00  0.00000000000E+00 -0.15041739576E+04  0.40470728920E+04  0.37571611222E+04 0.  0.
        5    1    3    3  502    0 -0.94199372265E+03  0.38893780407E+03 -0.24519633382E+04  0.26553288103E+04  0.46999998093E+01 0. -1.
       -5    1    3    3    0  502  0.94199372265E+03 -0.38893780407E+03  0.94778938061E+03  0.13917440817E+04  0.46999998093E+01 0.  1.
</event>
<event>
 5   0  0.3701250E-08  0.3798281E+04  0.7818609E-02  0.8046524E-01
        1   -1    0    0  501    0  0.00000000000E+00  0.00000000000E+00  0.24174611708E+04  0.24174611708E+04  0.50400001928E-02 0. -1.
       -1   -1    0    0    0  501  0.00000000000E+00  0.00000000000E+00 -0.14919511471E+04  0.14919511471E+04  0.50400001928E-02 0.  1.
    10030    2    1    2    0    0  0.00000000000E+00  0.00000000000E+00  0.92551002368E+03  0.39094123179E+04  0.37982806462E+04 0.  0.
        4    1    3    3  502    0  0.56562163442E+02 -0.17685584996E+04  0.11726702206E+04  0.21227707140E+04  0.12699999809E+01 0. -1.
       -4    1    3    3    0  502 -0.56562163442E+02  0.17685584996E+04 -0.24716019694E+03  0.17866416039E+04  0.12699999809E+01 0.  1.
</event>
<event>
 5   0  0.3701250E-08  0.3803898E+04  0.7818609E-02  0.8045319E-01
       -1   -1    0    0    0  501  0.00000000000E+00  0.00000000000E+00  0.18589792824E+04  0.18589792824E+04  0.50400001928E-02 0.  1.
        1   -1    0    0  501    0  0.00000000000E+00  0.00000000000E+00 -0.19459115595E+04  0.19459115596E+04  0.50400001928E-02 0. -1.
    10030    2    1    2    0    0  0.00000000000E+00  0.00000000000E+00 -0.86932277194E+02  0.38048908419E+04  0.38038976193E+04 0.  0.
        1    1    3    3  502    0  0.11077504564E+04 -0.63579508089E+03 -0.14531115193E+04  0.19346523063E+04  0.50400001928E-02 0. -1.
       -1    1    3    3    0  502 -0.11077504564E+04  0.63579508089E+03  0.13661792421E+04  0.18702385356E+04  0.50400001928E-02 0.  1.
</event>
<event>
 5   0  0.3889225E-08  0.3784288E+04  0.7818609E-02  0.8049535E-01
       -1   -1    0    0    0  501  0.00000000000E+00  0.00000000000E+00  0.35315950027E+04  0.35315950027E+04  0.50400001928E-02 0.  1.
        1   -1    0    0  501    0  0.00000000000E+00  0.00000000000E+00 -0.10137656538E+04  0.10137656538E+04  0.50400001928E-02 0. -1.
    10030    2    1    2    0    0  0.00000000000E+00  0.00000000000E+00  0.25178293489E+04  0.45453606565E+04  0.37842884229E+04 0.  0.
        5    1    3    3  502    0  0.16896631113E+04 -0.78191867453E+03  0.85367560303E+03  0.20482046696E+04  0.46999998093E+01 0. -1.
       -5    1    3    3    0  502 -0.16896631113E+04  0.78191867453E+03  0.16641537459E+04  0.24971559869E+04  0.46999998093E+01 0.  1.
</event>
<event>
 5   0  0.1143283E-07  0.3769287E+04  0.7818609E-02  0.8052778E-01
        2   -1    0    0  501    0  0.00000000000E+00  0.00000000000E+00  0.20584950188E+04  0.20584950188E+04  0.25500000920E-02 0.  1.
       -2   -1    0    0    0  501  0.00000000000E+00  0.00000000000E+00 -0.17254744006E+04  0.17254744006E+04  0.25500000920E-02 0. -1.
    10030    2    1    2    0    0  0.00000000000E+00  0.00000000000E+00  0.33302061816E+03  0.37839694194E+04  0.37692866480E+04 0.  0.
        1    1    3    3  502    0  0.13896343013E+04  0.94949234126E+03 -0.68488604672E+03  0.18170547858E+04  0.50400001928E-02 0. -1.
       -1    1    3    3    0  502 -0.13896343013E+04 -0.94949234126E+03  0.10179066649E+04  0.19669146336E+04  0.50400001928E-02 0.  1.
</event>
<event>
 5   0  0.3701250E-08  0.3804264E+04  0.7818609E-02  0.8045241E-01
       -1   -1    0    0    0  501  0.00000000000E+00  0.00000000000E+00  0.19292359906E+04  0.19292359906E+04  0.50400001928E-02 0. -1.
        1   -1    0    0  501    0  0.00000000000E+00  0.00000000000E+00 -0.18754085252E+04  0.18754085252E+04  0.50400001928E-02 0.  1.
    10030    2    1    2    0    0  0.00000000000E+00  0.00000000000E+00  0.53827465446E+02  0.38046445158E+04  0.38042637258E+04 0.  0.
        4    1    3    3  502    0  0.16344216463E+04 -0.96433703845E+03 -0.10280649521E+03  0.19004869981E+04  0.12699999809E+01 0. -1.
       -4    1    3    3    0  502 -0.16344216463E+04  0.96433703845E+03  0.15663396066E+03  0.19041575177E+04  0.12699999809E+01 0.  1.
</event>
<event>
 5   0  0.1143283E-07  0.3802327E+04  0.7818609E-02  0.8045656E-01
       -2   -1    0    0    0  501  0.00000000000E+00  0.00000000000E+00  0.18202448987E+04  0.18202448987E+04  0.25500000920E-02 0.  1.
        2   -1    0    0  501    0  0.00000000000E+00  0.00000000000E+00 -0.19856795447E+04  0.19856795447E+04  0.25500000920E-02 0. -1.
    10030    2    1    2    0    0  0.00000000000E+00  0.00000000000E+00 -0.16543464601E+03  0.38059244434E+04  0.38023272145E+04 0.  0.
        1    1    3    3  502    0  0.46621728775E+03  0.10364403453E+04 -0.16082510371E+04  0.19692736090E+04  0.50400001928E-02 0. -1.
       -1    1    3    3    0  502 -0.46621728775E+03 -0.10364403453E+04  0.14428163911E+04  0.18366508343E+04  0.50400001928E-02 0.  1.
</event>
<event>
 5   0  0.3701250E-08  0.3783158E+04  0.7818609E-02  0.8049779E-01
       -1   -1    0    0    0  501  0.00000000000E+00  0.00000000000E+00  0.14467796570E+04  0.14467796570E+04  0.50400001928E-02 0. -1.
        1   -1    0    0  501    0  0.00000000000E+00  0.00000000000E+00 -0.24731282459E+04  0.24731282459E+04  0.50400001928E-02 0.  1.
    10030    2    1    2    0    0  0.00000000000E+00  0.00000000000E+00 -0.10263485889E+04  0.39199079029E+04  0.37831582760E+04 0.  0.
        3    1    3    3  502    0 -0.16669493001E+04 -0.78936763956E+03 -0.78177165812E+02  0.18460587528E+04  0.10100000352E+00 0. -1.
       -3    1    3    3    0  502  0.16669493001E+04  0.78936763956E+03 -0.94817142305E+03  0.20738491500E+04  0.10100000352E+00 0.  1.
</event>
<event>
 5   0  0.1174870E-07  0.3790747E+04  0.7818609E-02  0.8048143E-01
        2   -1    0    0  501    0  0.00000000000E+00  0.00000000000E+00  0.11329002583E+04  0.11329002583E+04  0.25500000920E-02 0.  1.
       -2   -1    0    0    0  501  0.00000000000E+00  0.00000000000E+00 -0.31710126048E+04  0.31710126048E+04  0.25500000920E-02 0. -1.
    10030    2    1    2    0    0  0.00000000000E+00  0.00000000000E+00 -0.20381123464E+04  0.43039128631E+04  0.37907471554E+04 0.  0.
        5    1    3    3  502    0 -0.18883498107E+04 -0.24962922736E+02 -0.83622669253E+03  0.20653777684E+04  0.46999998093E+01 0. -1.
       -5    1    3    3    0  502  0.18883498107E+04  0.24962922736E+02 -0.12018856539E+04  0.22385350947E+04  0.46999998093E+01 0.  1.
</event>
<event>
 5   0  0.3889225E-08  0.3800027E+04  0.7818609E-02  0.8046149E-01
       -1   -1    0    0    0  501  0.00000000000E+00  0.00000000000E+00  0.14836483429E+04  0.14836483429E+04  0.50400001928E-02 0. -1.
        1   -1    0    0  501    0  0.00000000000E+00  0.00000000000E+00 -0.24332262276E+04  0.24332262277E+04  0.50400001928E-02 0.  1.
    10030    2    1    2    0    0  0.00000000000E+00  0.00000000000E+00 -0.94957788480E+03  0.39168745705E+04  0.38000274001E+04 0.  0.
        5    1    3    3  502    0 -0.97426241534E+03  0.90221941808E+03 -0.18755624069E+04  0.22980303663E+04  0.46999998093E+01 0.  1.
       -5    1    3    3    0  502  0.97426241534E+03 -0.90221941808E+03  0.92598452211E+03  0.16188442042E+04  0.46999998093E+01 0. -1.
</event>
<event>
 5   0  0.1193861E-07  0.3799211E+04  0.7818609E-02  0.8046324E-01
       -2   -1    0    0    0  501  0.00000000000E+00  0.00000000000E+00  0.20066744731E+04  0.20066744731E+04  0.25500000920E-02 0.  1.
        2   -1    0    0  501    0  0.00000000000E+00  0.00000000000E+00 -0.17982494867E+04  0.17982494867E+04  0.25500000920E-02 0. -1.
    10030    2    1    2    0    0  0.00000000000E+00  0.00000000000E+00  0.20842498640E+03  0.38049239598E+04  0.37992111503E+04 0.  0.
        3    1    3    3  502    0 -0.14269605513E+04  0.84031684934E+03 -0.82786009238E+03  0.18514051866E+04  0.10100000352E+00 0. -1.
       -3    1    3    3    0  502  0.14269605513E+04 -0.84031684934E+03  0.10362850788E+04  0.19535187732E+04  0.10100000352E+00 0.  1.
</event>
<event>
 5   0  0.1193861E-07  0.3887276E+04  0.7818609E-02  0.8027681E-01
       -2   -1    0    0    0  501  0.00000000000E+00  0.00000000000E+00  0.11486371214E+04  0.11486371214E+04  0.25500000920E-02 0. -1.
        2   -1    0    0  501    0  0.00000000000E+00  0.00000000000E+00 -0.32888783903E+04  0.32888783903E+04  0.25500000920E-02 0.  1.
    10030    2    1    2    0    0  0.00000000000E+00  0.00000000000E+00 -0.21402412690E+04  0.44375155117E+04  0.38872755533E+04 0.  0.
        3    1    3    3  502    0 -0.67606206214E+03  0.56015366539E+03  0.90937132995E+03  0.12640364974E+04  0.10100000352E+00 0. -1.
       -3    1    3    3    0  502  0.67606206214E+03 -0.56015366539E+03 -0.30496125989E+04  0.31734790143E+04  0.10100000352E+00 0.  1.
</event>
<event>
 5   0  0.1174870E-07  0.3810196E+04  0.7818609E-02  0.8043970E-01
        2   -1    0    0  501    0  0.00000000000E+00  0.00000000000E+00  0.25006220496E+04  0.25006220496E+04  0.25500000920E-02 0. -1.
       -2   -1    0    0    0  501  0.00000000000E+00  0.00000000000E+00 -0.14513985621E+04  0.14513985621E+04  0.25500000920E-02 0.  1.
    10030    2    1    2    0    0  0.00000000000E+00  0.00000000000E+00  0.10492234875E+04  0.39520206117E+04  0.38101964502E+04 0.  0.
        5    1    3    3  502    0 -0.30344090834E+03  0.18669940105E+04  0.28892221104E+03  0.19134370003E+04  0.46999998093E+01 0.  1.
       -5    1    3    3    0  502  0.30344090834E+03 -0.18669940105E+04  0.76030127643E+03  0.20385836115E+04  0.46999998093E+01 0. -1.
</event>
<event>
 5   0  0.3701250E-08  0.3685417E+04  0.7818609E-02  0.8071201E-01
       -1   -1    0    0    0  501  0.00000000000E+00  0.00000000000E+00  0.24455269730E+04  0.24455269730E+04  0.50400001928E-02 0. -1.
        1   -1    0    0  501    0  0.00000000000E+00  0.00000000000E+00 -0.13884837426E+04  0.13884837426E+04  0.50400001928E-02 0.  1.
    10030    2    1    2    0    0  0.00000000000E+00  0.00000000000E+00  0.10570432304E+04  0.38340107156E+04  0.36854169067E+04 0.  0.
        2    1    3    3  502    0  0.73361568877E+03 -0.53574854203E+03 -0.11393527536E+04  0.14571695771E+04  0.25500000920E-02 0.  1.
       -2    1    3    3    0  502 -0.73361568877E+03  0.53574854203E+03  0.21963959840E+04  0.23768411385E+04  0.25500000920E-02 0. -1.
</event>
<event>
 5   0  0.7858367E-08  0.3822355E+04  0.7818609E-02  0.8041375E-01
       -2   -1    0    0    0  501  0.00000000000E+00  0.00000000000E+00  0.26648685811E+04  0.26648685811E+04  0.25500000920E-02 0.  1.
        2   -1    0    0  501    0  0.00000000000E+00  0.00000000000E+00 -0.13706487956E+04  0.13706487956E+04  0.25500000920E-02 0. -1.
    10030    2    1    2    0    0  0.00000000000E+00  0.00000000000E+00  0.12942197856E+04  0.40355173767E+04  0.38223547251E+04 0.  0.
        2    1    3    3  502    0 -0.11164943616E+04 -0.46522110602E+03  0.22093632834E+04  0.25187847178E+04  0.25500000920E-02 0.  1.
       -2    1    3    3    0  502  0.11164943616E+04  0.46522110602E+03 -0.91514349781E+03  0.15167326589E+04  0.25500000920E-02 0. -1.
</event>
<event>
 5   0  0.1143283E-07  0.3951572E+04  0.7818609E-02  0.8014388E-01
        2   -1    0    0  501    0  0.00000000000E+00  0.00000000000E+00  0.20900351645E+04  0.20900351645E+04  0.25500000920E-02 0.  1.
       -2   -1    0    0    0  501  0.00000000000E+00  0.00000000000E+00 -0.18677821969E+04  0.18677821969E+04  0.25500000920E-02 0. -1.
    10030    2    1    2    0    0  0.00000000000E+00  0.00000000000E+00  0.22225296762E+03  0.39578173614E+04  0.39515720776E+04 0.  0.
        1    1    3    3  502    0 -0.18637245570E+04 -0.30621439337E+03  0.69212429800E+03  0.20115348674E+04  0.50400001928E-02 0.  1.
       -1    1    3    3    0  502  0.18637245570E+04  0.30621439337E+03 -0.46987133037E+03  0.19462824939E+04  0.50400001928E-02 0. -1.
</event>
<event>
 5   0  0.3701250E-08  0.3771951E+04  0.7818609E-02  0.8052201E-01
        1   -1    0    0  501    0  0.00000000000E+00  0.00000000000E+00  0.11859959568E+04  0.11859959568E+04  0.50400001928E-02 0.  1.
       -1   -1    0    0    0  501  0.00000000000E+00  0.00000000000E+00 -0.29990852960E+04  0.29990852960E+04  0.50400001928E-02 0. -1.
    10030    2    1    2    0    0  0.00000000000E+00  0.00000000000E+00 -0.18130893392E+04  0.41850812529E+04  0.37719507077E+04 0.  0.
        1    1    3    3  502    0  0.13965427717E+04 -0.10980156563E+04 -0.20400030406E+03  0.17881795824E+04  0.50400001928E-02 0.  1.
       -1    1    3    3    0  502 -0.13965427717E+04  0.10980156563E+04 -0.16090890351E+04  0.23969016705E+04  0.50400001928E-02 0. -1.
</event>
<event>
 5   0  0.1143283E-07  0.3800644E+04  0.7818609E-02  0.8046017E-01
        2   -1    0    0  501    0  0.00000000000E+00  0.00000000000E+00  0.17367441289E+04  0.17367441289E+04  0.25500000920E-02 0.  1.
       -2   -1    0    0    0  501  0.00000000000E+00  0.00000000000E+00 -0.20793072065E+04  0.20793072065E+04  0.25500000920E-02 0. -1.
    10030    2    1    2    0    0  0.00000000000E+00  0.00000000000E+00 -0.34256307760E+03  0.38160513354E+04  0.38006444628E+04 0.  0.
        1    1    3    3  502    0 -0.11128092696E+04  0.37580865462E+03  0.13286443720E+04  0.17733788323E+04  0.50400001928E-02 0.  1.
       -1    1    3    3    0  502  0.11128092696E+04 -0.37580865462E+03 -0.16712074496E+04  0.20426725031E+04  0.50400001928E-02 0. -1.
</event>
<event>
 5   0  0.3701250E-08  0.3627568E+04  0.7818609E-02  0.8084206E-01
        1   -1    0    0  501    0  0.00000000000E+00  0.00000000000E+00  0.19455799315E+04  0.19455799316E+04  0.50400001928E-02 0. -1.
       -1   -1    0    0    0  501  0.00000000000E+00  0.00000000000E+00 -0.16909159608E+04  0.16909159608E+04  0.50400001928E-02 0.  1.
    10030    2    1    2    0    0  0.00000000000E+00  0.00000000000E+00  0.25466397075E+03  0.36364958924E+04  0.36275678680E+04 0.  0.
        4    1    3    3  502    0  0.43571905166E+03  0.45413785568E+03 -0.15779479321E+04  0.16988271169E+04  0.12699999809E+01 0.  1.
       -4    1    3    3    0  502 -0.43571905166E+03 -0.45413785568E+03  0.18326119028E+04  0.19376687754E+04  0.12699999809E+01 0. -1.
</event>
<event>
 5   0  0.1193861E-07  0.3792454E+04  0.7818609E-02  0.8047776E-01
       -2   -1    0    0    0  501  0.00000000000E+00  0.00000000000E+00  0.21578568482E+04  0.21578568482E+04  0.25500000920E-02 0.  1.
        2   -1    0    0  501    0  0.00000000000E+00  0.00000000000E+00 -0.16663187687E+04  0.16663187687E+04  0.25500000920E-02 0. -1.
    10030    2    1    2    0    0  0.00000000000E+00  0.00000000000E+00  0.49153807950E+03  0.38241756168E+04  0.37924542799E+04 0.  0.
        3    1    3    3  502    0  0.49899352841E+03 -0.63874308110E+03 -0.14828304025E+04  0.16899033339E+04  0.10100000352E+00 0. -1.
       -3    1    3    3    0  502 -0.49899352841E+03  0.63874308110E+03  0.19743684820E+04  0.21342722830E+04  0.10100000352E+00 0.  1.
</event>
<event>
 5   0  0.3701250E-08  0.3803114E+04  0.7818609E-02  0.8045487E-01
       -1   -1    0    0    0  501  0.00000000000E+00  0.00000000000E+00  0.28994162194E+04  0.28994162194E+04  0.50400001928E-02 0.  1.
        1   -1    0    0  501    0  0.00000000000E+00  0.00000000000E+00 -0.12471194291E+04  0.12471194291E+04  0.50400001928E-02 0. -1.
    10030    2    1    2    0    0  0.00000000000E+00  0.00000000000E+00  0.16522967903E+04  0.41465356485E+04  0.38031136192E+04 0.  0.
        3    1    3    3  502    0 -0.16460185354E+04 -0.78413830873E+03  0.14149795505E+04  0.23079031706E+04  0.10100000352E+00 0.  1.
       -3    1    3    3    0  502  0.16460185354E+04  0.78413830873E+03  0.23731723982E+03  0.18386324779E+04  0.10100000352E+00 0. -1.
</event>
<event>
 5   0  0.7858367E-08  0.3797795E+04  0.7818609E-02  0.8046628E-01
        2   -1    0    0  501    0  0.00000000000E+00  0.00000000000E+00  0.25917014916E+04  0.25917014916E+04  0.25500000920E-02 0. -1.
       -2   -1    0    0    0  501  0.00000000000E+00  0.00000000000E+00 -0.13912915313E+04  0.13912915313E+04  0.25500000920E-02 0.  1.
    10030    2    1    2    0    0  0.00000000000E+00  0.00000000000E+00  0.12004099603E+04  0.39829930228E+04  0.37977953272E+04 0.  0.
        2    1    3    3  502    0 -0.11514391397E+04  0.14329813825E+04  0.10100562190E+03  0.18410458633E+04  0.25500000920E-02 0.  1.
       -2    1    3    3    0  502  0.11514391397E+04 -0.14329813825E+04  0.10994043384E+04  0.21419471596E+04  0.25500000920E-02 0. -1.
</event>
<event>
 5   0  0.3889225E-08  0.3818207E+04  0.7818609E-02  0.8042259E-01
        1   -1    0    0  501    0  0.00000000000E+00  0.00000000000E+00  0.14374704084E+04  0.14374704084E+04  0.50400001928E-02 0.  1.
       -1   -1    0    0    0  501  0.00000000000E+00  0.00000000000E+00 -0.25354794038E+04  0.25354794038E+04  0.50400001928E-02 0. -1.
    10030    2    1    2    0    0  0.00000000000E+00  0.00000000000E+00 -0.10980089953E+04  0.39729498122E+04  0.38182072307E+04 0.  0.
        5    1    3    3  502    0 -0.10039509259E+03  0.18326622743E+04 -0.10955780178E+04  0.21375320979E+04  0.46999998093E+01 0. -1.
       -5    1    3    3    0  502  0.10039509259E+03 -0.18326622743E+04 -0.24309775452E+01  0.18354177143E+04  0.46999998093E+01 0.  1.
</event>
<event>
 5   0  0.3701250E-08  0.3800307E+04  0.7818609E-02  0.8046089E-01
       -1   -1    0    0    0  501  0.00000000000E+00  0.00000000000E+00  0.12648047307E+04  0.12648047307E+04  0.50400001928E-02 0.  1.
        1   -1    0    0  501    0  0.00000000000E+00  0.00000000000E+00 -0.28546572699E+04  0.28546572699E+04  0.50400001928E-02 0. -1.
    10030    2    1    2    0    0  0.00000000000E+00  0.00000000000E+00 -0.15898525392E+04  0.41194620006E+04  0.38003073662E+04 0.  0.
        2    1    3    3  502    0 -0.11436202991E+04  0.14313262263E+03  0.84264968392E+03  0.14277299556E+04  0.25500000920E-02 0.  1.
       -2    1    3    3    0  502  0.11436202991E+04 -0.14313262263E+03 -0.24325022232E+04  0.26917320450E+04  0.25500000920E-02 0. -1.
</event>
<event>
 5   0  0.3889225E-08  0.3821501E+04  0.7818609E-02  0.8041557E-01
       -1   -1    0    0    0  501  0.00000000000E+00  0.00000000000E+00  0.19317668670E+04  0.19317668670E+04  0.50400001928E-02 0. -1.
        1   -1    0    0  501    0  0.00000000000E+00  0.00000000000E+00 -0.18899625351E+04  0.18899625351E+04  0.50400001928E-02 0.  1.
    10030    2    1    2    0    0  0.00000000000E+00  0.00000000000E+00  0.41804331941E+02  0.38217294021E+04  0.38215007551E+04 0.  0.
        5    1    3    3  502    0 -0.18075930381E+04 -0.32648937850E+03 -0.50539637318E+03  0.19051077370E+04  0.46999998093E+01 0. -1.
       -5    1    3    3    0  502  0.18075930381E+04  0.32648937850E+03  0.54720070512E+03  0.19166216651E+04  0.46999998093E+01 0.  1.
</event>
<event>
 5   0  0.1193861E-07  0.3800727E+04  0.7818609E-02  0.8045999E-01
       -2   -1    0    0    0  501  0.00000000000E+00  0.00000000000E+00  0.18955037965E+04  0.18955037965E+04  0.25500000920E-02 0. -1.
        2   -1    0    0  501    0  0.00000000000E+00  0.00000000000E+00 -0.19052356485E+04  0.19052356485E+04  0.25500000920E-02 0.  1.
    10030    2    1    2    0    0  0.00000000000E+00  0.00000000000E+00 -0.97318520755E+01  0.38007394450E+04  0.38007269857E+04 0.  0.
        3    1    3    3  502    0 -0.12930701181E+04  0.61100069108E+03 -0.12562809201E+04  0.19035739899E+04  0.10100000352E+00 0.  1.
       -3    1    3    3    0  502  0.12930701181E+04 -0.61100069108E+03  0.12465490680E+04  0.18971654551E+04  0.10100000352E+00 0. -1.
</event>
<event>
 5   0  0.3889225E-08  0.3815366E+04  0.7818609E-02  0.8042865E-01
       -1   -1    0    0    0  501  0.00000000000E+00  0.00000000000E+00  0.20873501488E+04  0.20873501488E+04  0.50400001928E-02 0.  1.
        1   -1    0    0  501    0  0.00000000000E+00  0.00000000000E+00 -0.17434810240E+04  0.17434810240E+04  0.50400001928E-02 0. -1.
    10030    2    1    2    0    0  0.00000000000E+00  0.00000000000E+00  0.34386912483E+03  0.38308311728E+04  0.38153664961E+04 0.  0.
        5    1    3    3  502    0 -0.11651511360E+04 -0.14039433192E+04 -0.38763871649E+03  0.18651862850E+04  0.46999998093E+01 0. -1.
       -5    1    3    3    0  502  0.11651511360E+04  0.14039433192E+04  0.73150784132E+03  0.19656448879E+04  0.46999998093E+01 0.  1.
</event>
<event>
 5   0  0.1143283E-07  0.3782466E+04  0.7818609E-02  0.8049928E-01
       -2   -1    0    0    0  501  0.00000000000E+00  0.00000000000E+00  0.14518061324E+04  0.14518061324E+04  0.25500000920E-02 0.  1.
        2   -1    0    0  501    0  0.00000000000E+00  0.00000000000E+00 -0.24636643208E+04  0.24636643208E+04  0.25500000920E-02 0. -1.
    10030    2    1    2    0    0  0.00000000000E+00  0.00000000000E+00 -0.10118581883E+04  0.39154704532E+04  0.37824663748E+04 0.  0.
        1    1    3    3  502    0 -0.12371436846E+04 -0.97127702757E+03  0.58116954316E+03  0.16768010015E+04  0.50400001928E-02 0.  1.
       -1    1    3    3    0  502  0.12371436846E+04  0.97127702757E+03 -0.15930277315E+04  0.22386694517E+04  0.50400001928E-02 0. -1.
</event>
<event>
 5   0  0.1193861E-07  0.3808295E+04  0.7818609E-02  0.8044377E-01
       -2   -1    0    0    0  501  0.00000000000E+00  0.00000000000E+00  0.10288061317E+04  0.10288061317E+04  0.25500000920E-02 0.  1.
        2   -1    0    0  501    0  0.00000000000E+00  0.00000000000E+00 -0.35242568307E+04  0.35242568307E+04  0.25500000920E-02 0. -1.
    10030    2    1    2    0    0  0.00000000000E+00  0.00000000000E+00 -0.24954506991E+04  0.45530629624E+04  0.38082946509E+04 0.  0.
        3    1    3    3  502    0  0.25426840986E+03  0.68016514267E+03 -0.33522250207E+04  0.34299693359E+04  0.10100000352E+00 0. -1.
       -3    1    3    3    0  502 -0.25426840986E+03 -0.68016514267E+03  0.85677432163E+03  0.11230936265E+04  0.10100000352E+00 0.  1.
</event>
<event>
 5   0  0.1193861E-07  0.3814424E+04  0.7818609E-02  0.8043067E-01
       -2   -1    0    0    0  501  0.00000000000E+00  0.00000000000E+00  0.13080779655E+04  0.13080779655E+04  0.25500000920E-02 0.  1.
        2   -1    0    0  501    0  0.00000000000E+00  0.00000000000E+00 -0.27807645862E+04  0.27807645862E+04  0.25500000920E-02 0. -1.
    10030    2    1    2    0    0  0.00000000000E+00  0.00000000000E+00 -0.14726866207E+04  0.40888425518E+04  0.38144236171E+04 0.  0.
        3    1    3    3  502    0  0.90142388185E+03  0.15701773419E+03 -0.25301220906E+04  0.26904901760E+04  0.10100000352E+00 0. -1.
       -3    1    3    3    0  502 -0.90142388185E+03 -0.15701773419E+03  0.10574354699E+04  0.13983523758E+04  0.10100000352E+00 0.  1.
</event>
<event>
 5   0  0.3701250E-08  0.3594570E+04  0.7818609E-02  0.8091737E-01
        1   -1    0    0  501    0  0.00000000000E+00  0.00000000000E+00  0.31658356771E+04  0.31658356771E+04  0.50400001928E-02 0.  1.
       -1   -1    0    0    0  501  0.00000000000E+00  0.00000000000E+00 -0.10203412027E+04  0.10203412027E+04  0.50400001928E-02 0. -1.
    10030    2    1    2    0    0  0.00000000000E+00  0.00000000000E+00  0.21454944745E+04  0.41861768799E+04  0.35945695611E+04 0.  0.
        3    1    3    3  502    0  0.16173603677E+04 -0.59195997883E+03  0.16710773923E+04  0.23997439107E+04  0.10100000352E+00 0. -1.
       -3    1    3    3    0  502 -0.16173603677E+04  0.59195997883E+03  0.47441708211E+03  0.17864329692E+04  0.10100000352E+00 0.  1.
</event>
<event>
 5   0  0.3889225E-08  0.3728070E+04  0.7818609E-02  0.8061769E-01
        1   -1    0    0  501    0  0.00000000000E+00  0.00000000000E+00  0.22023047289E+04  0.22023047289E+04  0.50400001928E-02 0. -1.
       -1   -1    0    0    0  501  0.00000000000E+00  0.00000000000E+00 -0.15777230155E+04  0.15777230155E+04  0.50400001928E-02 0.  1.
    10030    2    1    2    0    0  0.00000000000E+00  0.00000000000E+00  0.62458171335E+03  0.37800277444E+04  0.37280702021E+04 0.  0.
        5    1    3    3  502    0  0.98387578203E+03  0.14083485763E+04  0.10456605916E+04  0.20111900531E+04  0.46999998093E+01 0. -1.
       -5    1    3    3    0  502 -0.98387578203E+03 -0.14083485763E+04 -0.42107887823E+03  0.17688376914E+04  0.46999998093E+01 0.  1.
</event>
<event>
 5   0  0.1193861E-07  0.3801305E+04  0.7818609E-02  0.8045875E-01
       -2   -1    0    0    0  501  0.00000000000E+00  0.00000000000E+00  0.17749291075E+04  0.17749291075E+04  0.25500000920E-02 0. -1.
        2   -1    0    0  501    0  0.00000000000E+00  0.00000000000E+00 -0.20352809369E+04  0.20352809369E+04  0.25500000920E-02 0.  1.
    10030    2    1    2    0    0  0.00000000000E+00  0.00000000000E+00 -0.26035182943E+03  0.38102100444E+04  0.38013047112E+04 0.  0.
        3    1    3    3  502    0  0.29540990618E+03 -0.18745867833E+04 -0.24397906016E+02  0.18978772060E+04  0.10100000352E+00 0.  1.
       -3    1    3    3    0  502 -0.29540990618E+03  0.18745867833E+04 -0.23595392341E+03  0.19123328385E+04  0.10100000352E+00 0. -1.
</event>
<event>
 5   0  0.3701250E-08  0.3806257E+04  0.7818609E-02  0.8044813E-01
        1   -1    0    0  501    0  0.00000000000E+00  0.00000000000E+00  0.21187223376E+04  0.21187223376E+04  0.50400001928E-02 0.  1.
       -1   -1    0    0    0  501  0.00000000000E+00  0.00000000000E+00 -0.17094730024E+04  0.17094730024E+04  0.50400001928E-02 0. -1.
    10030    2    1    2    0    0  0.00000000000E+00  0.00000000000E+00  0.40924933516E+03  0.38281953400E+04  0.38062572881E+04 0.  0.
        2    1    3    3  502    0  0.18024692803E+03  0.15317643544E+03 -0.16946307332E+04  0.17110597002E+04  0.25500000920E-02 0. -1.
       -2    1    3    3    0  502 -0.18024692803E+03 -0.15317643544E+03  0.21038800684E+04  0.21171356399E+04  0.25500000920E-02 0.  1.
</event>
<event>
 5   0  0.1150235E-07  0.3760430E+04  0.7818609E-02  0.8054700E-01
       -2   -1    0    0    0  501  0.00000000000E+00  0.00000000000E+00  0.17289066513E+04  0.17289066513E+04  0.25500000920E-02 0. -1.
        2   -1    0    0  501    0  0.00000000000E+00  0.00000000000E+00 -0.20447654557E+04  0.20447654557E+04  0.25500000920E-02 0.  1.
    10030    2    1    2    0    0  0.00000000000E+00  0.00000000000E+00 -0.31585880437E+03  0.37736721069E+04  0.37604300800E+04 0.  0.
        4    1    3    3  502    0 -0.86042698084E+01  0.81812657223E+03  0.15408998247E+04  0.17446429447E+04  0.12699999809E+01 0. -1.
       -4    1    3    3    0  502  0.86042698084E+01 -0.81812657223E+03 -0.18567586291E+04  0.20290291623E+04  0.12699999809E+01 0.  1.
</event>
<event>
 5   0  0.3889225E-08  0.3795198E+04  0.7818609E-02  0.8047186E-01
       -1   -1    0    0    0  501  0.00000000000E+00  0.00000000000E+00  0.16439585740E+04  0.16439585740E+04  0.50400001928E-02 0. -1.
        1   -1    0    0  501    0  0.00000000000E+00  0.00000000000E+00 -0.21903723696E+04  0.21903723696E+04  0.50400001928E-02 0.  1.
    10030    2    1    2    0    0  0.00000000000E+00  0.00000000000E+00 -0.54641379565E+03  0.38343309436E+04  0.37951977220E+04 0.  0.
        5    1    3    3  502    0  0.92509241419E+03 -0.11321518485E+04 -0.14953476218E+04  0.20913274212E+04  0.46999998093E+01 0.  1.
       -5    1    3    3    0  502 -0.92509241419E+03  0.11321518485E+04  0.94893382614E+03  0.17430035224E+04  0.46999998093E+01 0. -1.
</event>
<event>
 5   0  0.3701250E-08  0.3770458E+04  0.7818609E-02  0.8052524E-01
        1   -1    0    0  501    0  0.00000000000E+00  0.00000000000E+00  0.23825907619E+04  0.23825907619E+04  0.50400001928E-02 0.  1.
       -1   -1    0    0    0  501  0.00000000000E+00  0.00000000000E+00 -0.14916906512E+04  0.14916906512E+04  0.50400001928E-02 0. -1.
    10030    2    1    2    0    0  0.00000000000E+00  0.00000000000E+00  0.89090011075E+03  0.38742814131E+04  0.37704579909E+04 0.  0.
        1    1    3    3  502    0  0.11045896030E+04 -0.14596371741E+04 -0.18001150304E+02  0.18305690133E+04  0.50400001928E-02 0.  1.
       -1    1    3    3    0  502 -0.11045896030E+04  0.14596371741E+04  0.90890126105E+03  0.20437123999E+04  0.50400001928E-02 0. -1.
</event>
<event>
 5   0  0.3701250E-08  0.3789297E+04  0.7818609E-02  0.8048456E-01
        1   -1    0    0  501    0  0.00000000000E+00  0.00000000000E+00  0.23572693301E+04  0.23572693301E+04  0.50400001928E-02 0. -1.
       -1   -1    0    0    0  501  0.00000000000E+00  0.00000000000E+00 -0.15228186826E+04  0.15228186826E+04  0.50400001928E-02 0.  1.
    10030    2    1    2    0    0  0.00000000000E+00  0.00000000000E+00  0.83445064746E+03  0.38800880127E+04  0.37892974419E+04 0.  0.
        1    1    3    3  502    0 -0.13861487894E+04 -0.41788002112E+03  0.16686623141E+04  0.22091776970E+04  0.50400001928E-02 0. -1.
       -1    1    3    3    0  502  0.13861487894E+04  0.41788002112E+03 -0.83421166662E+03  0.16709103157E+04  0.50400001928E-02 0.  1.
</event>
<event>
 5   0  0.3701250E-08  0.3723493E+04  0.7818609E-02  0.8062775E-01
       -1   -1    0    0    0  501  0.00000000000E+00  0.00000000000E+00  0.17759677680E+04  0.17759677680E+04  0.50400001928E-02 0. -1.
        1   -1    0    0  501    0  0.00000000000E+00  0.00000000000E+00 -0.19516681959E+04  0.19516681960E+04  0.50400001928E-02 0.  1.
    10030    2    1    2    0    0  0.00000000000E+00  0.00000000000E+00 -0.17570042799E+03  0.37276359639E+04  0.37234928816E+04 0.  0.
        2    1    3    3  502    0 -0.12276250838E+04 -0.12995233037E+04 -0.60830909401E+03  0.18883495749E+04  0.25500000920E-02 0.  1.
       -2    1    3    3    0  502  0.12276250838E+04  0.12995233037E+04  0.43260866602E+03  0.18392863891E+04  0.25500000920E-02 0. -1.
</event>
<event>
 5   0  0.7858367E-08  0.3771830E+04  0.7818609E-02  0.8052227E-01
        2   -1    0    0  501    0  0.00000000000E+00  0.00000000000E+00  0.12962067680E+04  0.12962067680E+04  0.25500000920E-02 0. -1.
       -2   -1    0    0    0  501  0.00000000000E+00  0.00000000000E+00 -0.27439102640E+04  0.27439102640E+04  0.25500000920E-02 0.  1.
    10030    2    1    2    0    0  0.00000000000E+00  0.00000000000E+00 -0.14477034961E+04  0.40401170320E+04  0.37718298238E+04 0.  0.
        2    1    3    3  502    0  0.10672658158E+04 -0.68432290661E+02 -0.23877039086E+04  0.26162701036E+04  0.25500000920E-02 0.  1.
       -2    1    3    3    0  502 -0.10672658158E+04  0.68432290661E+02  0.94000041251E+03  0.14238469284E+04  0.25500000920E-02 0. -1.
</event>
<event>
 5   0  0.1143283E-07  0.3800272E+04  0.7818609E-02  0.8046096E-01
        2   -1    0    0  501    0  0.00000000000E+00  0.00000000000E+00  0.23614458636E+04  0.23614458636E+04  0.25500000920E-02 0. -1.
       -2   -1    0    0    0  501  0.00000000000E+00  0.00000000000E+00 -0.15289434373E+04  0.15289434373E+04  0.25500000920E-02 0.  1.
    10030    2    1    2    0    0  0.00000000000E+00  0.00000000000E+00  0.83250242627E+03  0.38903893010E+04  0.38002721775E+04 0.  0.
        1    1    3    3  502    0 -0.17615551314E+04  0.67359583369E+03  0.17900285360E+03  0.18944259948E+04  0.50400001928E-02 0. -1.
       -1    1    3    3    0  502  0.17615551314E+04 -0.67359583369E+03  0.65349957267E+03  0.19959633062E+04  0.50400001928E-02 0.  1.
</event>
<event>
 5   0  0.3701250E-08  0.3808925E+04  0.7818609E-02  0.8044242E-01
        1   -1    0    0  501    0  0.00000000000E+00  0.00000000000E+00  0.20730917183E+04  0.20730917183E+04  0.50400001928E-02 0.  1.
       -1   -1    0    0    0  501  0.00000000000E+00  0.00000000000E+00 -0.17495501092E+04  0.17495501092E+04  0.50400001928E-02 0. -1.
    10030    2    1    2    0    0  0.00000000000E+00  0.00000000000E+00  0.32354160910E+03  0.38226418275E+04  0.38089252249E+04 0.  0.
        4    1    3    3  502    0 -0.16166901572E+04  0.79664104789E+03 -0.45579239154E+03  0.18590514626E+04  0.12699999809E+01 0. -1.
       -4    1    3    3    0  502  0.16166901572E+04 -0.79664104789E+03  0.77933400064E+03  0.19635903649E+04  0.12699999809E+01 0.  1.
</event>
<event>
 5   0  0.1193861E-07  0.3794716E+04  0.7818609E-02  0.8047290E-01
        2   -1    0    0  501    0  0.00000000000E+00  0.00000000000E+00  0.20810162375E+04  0.20810162375E+04  0.25500000920E-02 0. -1.
       -2   -1    0    0    0  501  0.00000000000E+00  0.00000000000E+00 -0.17299085427E+04  0.17299085427E+04  0.25500000920E-02 0.  1.
    10030    2    1    2    0    0  0.00000000000E+00  0.00000000000E+00  0.35110769480E+03  0.38109247803E+04  0.37947162038E+04 0.  0.
        3    1    3    3  502    0  0.18030355044E+04 -0.42717382891E+03  0.58540638296E+03  0.19432228780E+04  0.10100000352E+00 0.  1.
       -3    1    3    3    0  502 -0.18030355044E+04  0.42717382891E+03 -0.23429868816E+03  0.18677019023E+04  0.10100000352E+00 0. -1.
</event>
<event>
 5   0  0.1193861E-07  0.3811404E+04  0.7818609E-02  0.8043712E-01
        2   -1    0    0  501    0  0.00000000000E+00  0.00000000000E+00  0.14663026888E+04  0.14663026888E+04  0.25500000920E-02 0. -1.
       -2   -1    0    0    0  501  0.00000000000E+00  0.00000000000E+00 -0.24767742583E+04  0.24767742583E+04  0.25500000920E-02 0.  1.
    10030    2    1    2    0    0  0.00000000000E+00  0.00000000000E+00 -0.10104715695E+04  0.39430769470E+04  0.38114043367E+04 0.  0.
        3    1    3    3  502    0 -0.71726640484E+03 -0.89456476698E+03 -0.20799860907E+04  0.23750914436E+04  0.10100000352E+00 0.  1.
       -3    1    3    3    0  502  0.71726640484E+03  0.89456476698E+03  0.10695145212E+04  0.15679855034E+04  0.10100000352E+00 0. -1.
</event>
<event>
 5   0  0.7858367E-08  0.3812260E+04  0.7818609E-02  0.8043529E-01
       -2   -1    0    0    0  501  0.00000000000E+00  0.00000000000E+00  0.13994816964E+04  0.13994816964E+04  0.25500000920E-02 0. -1.
        2   -1    0    0  501    0  0.00000000000E+00  0.00000000000E+00 -0.25961973820E+04  0.25961973820E+04  0.25500000920E-02 0.  1.
    10030    2    1    2    0    0  0.00000000000E+00  0.00000000000E+00 -0.11967156855E+04  0.39956790784E+04  0.38122595486E+04 0.  0.
        2    1    3    3  502    0 -0.13545698138E+04 -0.30308692372E+03 -0.19675841591E+04  0.24079261797E+04  0.25500000920E-02 0.  1.
       -2    1    3    3    0  502  0.13545698138E+04  0.30308692372E+03  0.77086847359E+03  0.15877528987E+04  0.25500000920E-02 0. -1.
</event>
<event>
 5   0  0.7858367E-08  0.3800496E+04  0.7818609E-02  0.8046048E-01
        2   -1    0    0  501    0  0.00000000000E+00  0.00000000000E+00  0.23886195909E+04  0.23886195909E+04  0.25500000920E-02 0.  1.
       -2   -1    0    0    0  501  0.00000000000E+00  0.00000000000E+00 -0.15117279165E+04  0.15117279165E+04  0.25500000920E-02 0. -1.
    10030    2    1    2    0    0  0.00000000000E+00  0.00000000000E+00  0.87689167435E+03  0.39003475074E+04  0.38004962400E+04 0.  0.
        2    1    3    3  502    0  0.12820919663E+04 -0.91627395797E+03  0.15282422420E+04  0.21951861256E+04  0.25500000920E-02 0.  1.
       -2    1    3    3    0  502 -0.12820919663E+04  0.91627395797E+03 -0.65135056763E+03  0.17051613818E+04  0.25500000920E-02 0. -1.
</event>
<event>
 5   0  0.7858367E-08  0.3763550E+04  0.7818609E-02  0.8054023E-01
       -2   -1    0    0    0  501  0.00000000000E+00  0.00000000000E+00  0.14949603358E+04  0.14949603358E+04  0.25500000920E-02 0.  1.
        2   -1    0    0  501    0  0.00000000000E+00  0.00000000000E+00 -0.23686760640E+04  0.23686760640E+04  0.25500000920E-02 0. -1.
    10030    2    1    2    0    0  0.00000000000E+00  0.00000000000E+00 -0.87371572816E+03  0.38636363998E+04  0.37635497946E+04 0.  0.
        2    1    3    3  502    0  0.25784674896E+03  0.17120476046E+04  0.31996159636E+03  0.17606724198E+04  0.25500000920E-02 0.  1.
       -2    1    3    3    0  502 -0.25784674896E+03 -0.17120476046E+04 -0.11936773245E+04  0.21029639801E+04  0.25500000920E-02 0. -1.
</event>
<event>
 5   0  0.7858367E-08  0.3798971E+04  0.7818609E-02  0.8046376E-01
        2   -1    0    0  501    0  0.00000000000E+00  0.00000000000E+00  0.28766014825E+04  0.28766014825E+04  0.25500000920E-02 0. -1.
       -2   -1    0    0    0  501  0.00000000000E+00  0.00000000000E+00 -0.12542738336E+04  0.12542738336E+04  0.25500000920E-02 0.  1.
    10030    2    1    2    0    0  0.00000000000E+00  0.00000000000E+00  0.16223276489E+04  0.41308753161E+04  0.37989714235E+04 0.  0.
        2    1    3    3  502    0 -0.87576947306E+00  0.50590697553E+03 -0.11796688454E+04  0.12835736129E+04  0.25500000920E-02 0.  1.
       -2    1    3    3    0  502  0.87576947306E+00 -0.50590697553E+03  0.28019964943E+04  0.28473017032E+04  0.25500000920E-02 0. -1.
</event>
<event>
 5   0  0.1143283E-07  0.3790835E+04  0.7818609E-02  0.8048125E-01
        2   -1    0    0  501    0  0.00000000000E+00  0.00000000000E+00  0.25882148363E+04  0.25882148363E+04  0.25500000920E-02 0. -1.
       -2   -1    0    0    0  501  0.00000000000E+00  0.00000000000E+00 -0.13880638339E+04  0.13880638339E+04  0.25500000920E-02 0.  1.
    10030    2    1    2    0    0  0.00000000000E+00  0.00000000000E+00  0.12001510024E+04  0.39762786702E+04  0.37908349522E+04 0.  0.
        1    1    3    3  502    0  0.18423365908E+04 -0.34177105964E+03  0.89969904768E+03  0.20785740178E+04  0.50400001928E-02 0. -1.
       -1    1    3    3    0  502 -0.18423365908E+04  0.34177105964E+03  0.30045195475E+03  0.18977046525E+04  0.50400001928E-02 0.  1.
</event>
<event>
 5   0  0.1150235E-07  0.3788723E+04  0.7818609E-02  0.8048579E-01
        2   -1    0    0  501    0  0.00000000000E+00  0.00000000000E+00  0.22501357927E+04  0.22501357927E+04  0.25500000920E-02 0. -1.
       -2   -1    0    0    0  501  0.00000000000E+00  0.00000000000E+00 -0.15948394320E+04  0.15948394320E+04  0.25500000920E-02 0.  1.
    10030    2    1    2    0    0  0.00000000000E+00  0.00000000000E+00  0.65529636072E+03  0.38449752246E+04  0.37887228927E+04 0.  0.
        4    1    3    3  502    0 -0.73956211800E+02 -0.87945606039E+03 -0.13734524234E+04  0.16325702605E+04  0.12699999809E+01 0.  1.
       -4    1    3    3    0  502  0.73956211800E+02  0.87945606039E+03  0.20287487841E+04  0.22124049641E+04  0.12699999809E+01 0. -1.
</event>
<event>
 5   0  0.1150235E-07  0.3759628E+04  0.7818609E-02  0.8054874E-01
       -2   -1    0    0    0  501  0.00000000000E+00  0.00000000000E+00  0.11349791932E+04  0.11349791932E+04  0.25500000920E-02 0.  1.
        2   -1    0    0  501    0  0.00000000000E+00  0.00000000000E+00 -0.31134500324E+04  0.31134500324E+04  0.25500000920E-02 0. -1.
    10030    2    1    2    0    0  0.00000000000E+00  0.00000000000E+00 -0.19784708391E+04  0.42484292256E+04  0.37596281763E+04 0.  0.
        4    1    3    3  502    0  0.46124506092E+03 -0.18079579090E+04 -0.73095736148E+03  0.20039358982E+04  0.12699999809E+01 0.  1.
       -4    1    3    3    0  502 -0.46124506092E+03  0.18079579090E+04 -0.12475134777E+04  0.22444933274E+04  0.12699999809E+01 0. -1.
</event>
<event>
 5   0  0.3701250E-08  0.3782706E+04  0.7818609E-02  0.8049876E-01
       -1   -1    0    0    0  501  0.00000000000E+00  0.00000000000E+00  0.15767484555E+04  0.15767484555E+04  0.50400001928E-02 0.  1.
        1   -1    0    0  501    0  0.00000000000E+00  0.00000000000E+00 -0.22687301363E+04  0.22687301363E+04  0.50400001928E-02 0. -1.
    10030    2    1    2    0    0  0.00000000000E+00  0.00000000000E+00 -0.69198168081E+03  0.38454785917E+04  0.37827063001E+04 0.  0.
        4    1    3    3  502    0  0.11077255820E+04 -0.14175645013E+04  0.24736435458E+03  0.18159669097E+04  0.12699999809E+01 0.  1.
       -4    1    3    3    0  502 -0.11077255820E+04  0.14175645013E+04 -0.93934603539E+03  0.20295116820E+04  0.12699999809E+01 0. -1.
</event>
<event>
 5   0  0.3701250E-08  0.3772726E+04  0.7818609E-02  0.8052033E-01
       -1   -1    0    0    0  501  0.00000000000E+00  0.00000000000E+00  0.19934694761E+04  0.19934694761E+04  0.50400001928E-02 0. -1.
        1   -1    0    0  501    0  0.00000000000E+00  0.00000000000E+00 -0.17850115555E+04  0.17850115555E+04  0.50400001928E-02 0.  1.
    10030    2    1    2    0    0  0.00000000000E+00  0.00000000000E+00  0.20845792057E+03  0.37784810316E+04  0.37727263619E+04 0.  0.
        3    1    3    3  502    0  0.16486965406E+04  0.92178143760E+02 -0.80912093355E+03  0.18388512144E+04  0.10100000352E+00 0.  1.
       -3    1    3    3    0  502 -0.16486965406E+04 -0.92178143760E+02  0.10175788541E+04  0.19396298172E+04  0.10100000352E+00 0. -1.
</event>
<event>
 5   0  0.3701250E-08  0.3750783E+04  0.7818609E-02  0.8056800E-01
        1   -1    0    0  501    0  0.00000000000E+00  0.00000000000E+00  0.22445688999E+04  0.22445688999E+04  0.50400001928E-02 0. -1.
       -1   -1    0    0    0  501  0.00000000000E+00  0.00000000000E+00 -0.15669346734E+04  0.15669346734E+04  0.50400001928E-02 0.  1.
    10030    2    1    2    0    0  0.00000000000E+00  0.00000000000E+00  0.67763422647E+03  0.38115035734E+04  0.37507827643E+04 0.  0.
        4    1    3    3  502    0 -0.14060847154E+04 -0.12298598294E+03 -0.91603886352E+03  0.16826552205E+04  0.12699999809E+01 0.  1.
       -4    1    3    3    0  502  0.14060847154E+04  0.12298598294E+03  0.15936730900E+04  0.21288483528E+04  0.12699999809E+01 0. -1.
</event>
<event>
 5   0  0.7858367E-08  0.3771074E+04  0.7818609E-02  0.8052391E-01
        2   -1    0    0  501    0  0.00000000000E+00  0.00000000000E+00  0.19576071054E+04  0.19576071054E+04  0.25500000920E-02 0.  1.
       -2   -1    0    0    0  501  0.00000000000E+00  0.00000000000E+00 -0.18161200544E+04  0.18161200544E+04  0.25500000920E-02 0. -1.
    10030    2    1    2    0    0  0.00000000000E+00  0.00000000000E+00  0.14148705103E+03  0.37737271598E+04  0.37710738645E+04 0.  0.
        2    1    3    3  502    0 -0.14130285301E+04 -0.12011158039E+04  0.41145440097E+03  0.18996377353E+04  0.25500000920E-02 0.  1.
       -2    1    3    3    0  502  0.14130285301E+04  0.12011158039E+04 -0.26996734994E+03  0.18740894246E+04  0.25500000920E-02 0. -1.
</event>
<event>
 5   0  0.7858367E-08  0.3675679E+04  0.7818609E-02  0.8073373E-01
       -2   -1    0    0    0  501  0.00000000000E+00  0.00000000000E+00  0.10655513850E+04  0.10655513850E+04  0.25500000920E-02 0.  1.
        2   -1    0    0  501    0  0.00000000000E+00  0.00000000000E+00 -0.31698643299E+04  0.31698643299E+04  0.25500000920E-02 0. -1.
    10030    2    1    2    0    0  0.00000000000E+00  0.00000000000E+00 -0.21043129448E+04  0.42354157149E+04  0.36756786187E+04 0.  0.
        2    1    3    3  502    0  0.63225344406E+03 -0.78080921307E+03 -0.28254143876E+04  0.29987287151E+04  0.25500000920E-02 0. -1.
       -2    1    3    3    0  502 -0.63225344406E+03  0.78080921307E+03  0.72110144280E+03  0.12366869998E+04  0.25500000920E-02 0.  1.
</event>
<event>
 5   0  0.7858367E-08  0.3799773E+04  0.7818609E-02  0.8046204E-01
       -2   -1    0    0    0  501  0.00000000000E+00  0.00000000000E+00  0.15334618196E+04  0.15334618196E+04  0.25500000920E-02 0.  1.
        2   -1    0    0  501    0  0.00000000000E+00  0.00000000000E+00 -0.23538695916E+04  0.23538695916E+04  0.25500000920E-02 0. -1.
    10030    2    1    2    0    0  0.00000000000E+00  0.00000000000E+00 -0.82040777208E+03  0.38873314112E+04  0.37997732285E+04 0.  0.
        2    1    3    3  502    0 -0.77563194084E+02  0.83752257702E+03 -0.21530167279E+04  0.23114802934E+04  0.25500000920E-02 0. -1.
       -2    1    3    3    0  502  0.77563194084E+02 -0.83752257702E+03  0.13326089559E+04  0.15758511178E+04  0.25500000920E-02 0.  1.
</event>
<event>
 5   0  0.1143283E-07  0.3794757E+04  0.7818609E-02  0.8047281E-01
        2   -1    0    0  501    0  0.00000000000E+00  0.00000000000E+00  0.24230642042E+04  0.24230642042E+04  0.25500000920E-02 0.  1.
       -2   -1    0    0    0  501  0.00000000000E+00  0.00000000000E+00 -0.14857407916E+04  0.14857407916E+04  0.25500000920E-02 0. -1.
    10030    2    1    2    0    0  0.00000000000E+00  0.00000000000E+00  0.93732341259E+03  0.39088049958E+04  0.37947570825E+04 0.  0.
        1    1    3    3  502    0 -0.12200855853E+04  0.43966879191E+03  0.18952504720E+04  0.22964955549E+04  0.50400001928E-02 0.  1.
       -1    1    3    3    0  502  0.12200855853E+04 -0.43966879191E+03 -0.95792705944E+03  0.16123094409E+04  0.50400001928E-02 0. -1.
</event>
<event>
 5   0  0.1193861E-07  0.3779027E+04  0.7818609E-02  0.8050671E-01
        2   -1    0    0  501    0  0.00000000000E+00  0.00000000000E+00  0.25154882373E+04  0.25154882373E+04  0.25500000920E-02 0.  1.
       -2   -1    0    0    0  501  0.00000000000E+00  0.00000000000E+00 -0.14193116291E+04  0.14193116291E+04  0.25500000920E-02 0. -1.
    10030    2    1    2    0    0  0.00000000000E+00  0.00000000000E+00  0.10961766081E+04  0.39347998664E+04  0.37790272336E+04 0.  0.
        3    1    3    3  502    0 -0.10038676731E+04 -0.19010126354E+03 -0.11068863751E+04  0.15063486492E+04  0.10100000352E+00 0. -1.
       -3    1    3    3    0  502  0.10038676731E+04  0.19010126354E+03  0.22030629833E+04  0.24284512171E+04  0.10100000352E+00 0.  1.
</event>
<event>
 5   0  0.3701250E-08  0.3787640E+04  0.7818609E-02  0.8048813E-01
       -1   -1    0    0    0  501  0.00000000000E+00  0.00000000000E+00  0.26272770072E+04  0.26272770072E+04  0.50400001928E-02 0. -1.
        1   -1    0    0  501    0  0.00000000000E+00  0.00000000000E+00 -0.13651220335E+04  0.13651220335E+04  0.50400001928E-02 0.  1.
    10030    2    1    2    0    0  0.00000000000E+00  0.00000000000E+00  0.12621549736E+04  0.39923990407E+04  0.37876397562E+04 0.  0.
        2    1    3    3  502    0  0.18879569051E+03  0.18666988289E+04  0.90257801851E+03  0.20820315584E+04  0.25500000920E-02 0.  1.
       -2    1    3    3    0  502 -0.18879569051E+03 -0.18666988289E+04  0.35957695512E+03  0.19103674823E+04  0.25500000920E-02 0. -1.
</event>
<event>
 5   0  0.3701250E-08  0.3799008E+04  0.7818609E-02  0.8046368E-01
       -1   -1    0    0    0  501  0.00000000000E+00  0.00000000000E+00  0.17014280015E+04  0.17014280015E+04  0.50400001928E-02 0. -1.
        1   -1    0    0  501    0  0.00000000000E+00  0.00000000000E+00 -0.21206391489E+04  0.21206391490E+04  0.50400001928E-02 0.  1.
    10030    2    1    2    0    0  0.00000000000E+00  0.00000000000E+00 -0.41921114742E+03  0.38220671505E+04  0.37990076753E+04 0.  0.
        3    1    3    3  502    0  0.44982610211E+03 -0.10775841380E+04 -0.17168928967E+04  0.20763555393E+04  0.10100000352E+00 0.  1.
       -3    1    3    3    0  502 -0.44982610211E+03  0.10775841380E+04  0.12976817493E+04  0.17457116112E+04  0.10100000352E+00 0. -1.
</event>
<event>
 5   0  0.3701250E-08  0.3796778E+04  0.7818609E-02  0.8046847E-01
       -1   -1    0    0    0  501  0.00000000000E+00  0.00000000000E+00  0.17646193266E+04  0.17646193266E+04  0.50400001928E-02 0.  1.
        1   -1    0    0  501    0  0.00000000000E+00  0.00000000000E+00 -0.20422994722E+04  0.20422994722E+04  0.50400001928E-02 0. -1.
    10030    2    1    2    0    0  0.00000000000E+00  0.00000000000E+00 -0.27768014563E+03  0.38069187988E+04  0.37967781707E+04 0.  0.
        1    1    3    3  502    0 -0.15483672098E+04  0.68700564402E+03 -0.99813738538E+03  0.19661373328E+04  0.50400001928E-02 0. -1.
       -1    1    3    3    0  502  0.15483672098E+04 -0.68700564402E+03  0.72045723975E+03  0.18407814660E+04  0.50400001928E-02 0.  1.
</event>
<event>
 5   0  0.3701250E-08  0.3643335E+04  0.7818609E-02  0.8080637E-01
       -1   -1    0    0    0  501  0.00000000000E+00  0.00000000000E+00  0.12989644994E+04  0.12989644994E+04  0.50400001928E-02 0. -1.
        1   -1    0    0  501    0  0.00000000000E+00  0.00000000000E+00 -0.25547063832E+04  0.25547063832E+04  0.50400001928E-02 0.  1.
    10030    2    1    2    0    0  0.00000000000E+00  0.00000000000E+00 -0.12557418838E+04  0.38536708826E+04  0.36433352293E+04 0.  0.
        2    1    3    3  502    0 -0.13492108437E+04 -0.10052431906E+04  0.11071747725E+03  0.16861619533E+04  0.25500000920E-02 0. -1.
       -2    1    3    3    0  502  0.13492108437E+04  0.10052431906E+04 -0.13664593610E+04  0.21675089293E+04  0.25500000920E-02 0.  1.
</event>
<event>
 5   0  0.1193861E-07  0.3785009E+04  0.7818609E-02  0.8049380E-01
       -2   -1    0    0    0  501  0.00000000000E+00  0.00000000000E+00  0.17894871224E+04  0.17894871224E+04  0.25500000920E-02 0.  1.
        2   -1    0    0  501    0  0.00000000000E+00  0.00000000000E+00 -0.20014521858E+04  0.20014521858E+04  0.25500000920E-02 0. -1.
    10030    2    1    2    0    0  0.00000000000E+00  0.00000000000E+00 -0.21196506342E+03  0.37909393081E+04  0.37850088045E+04 0.  0.
        3    1    3    3  502    0  0.12564878220E+04 -0.29844626403E+03  0.12795653143E+04  0.18179986863E+04  0.10100000352E+00 0.  1.
       -3    1    3    3    0  502 -0.12564878220E+04  0.29844626403E+03 -0.14915303777E+04  0.19729406219E+04  0.10100000352E+00 0. -1.
</event>
<event>
 5   0  0.3701250E-08  0.3799812E+04  0.7818609E-02  0.8046195E-01
        1   -1    0    0  501    0  0.00000000000E+00  0.00000000000E+00  0.27930923804E+04  0.27930923804E+04  0.50400001928E-02 0.  1.
       -1   -1    0    0    0  501  0.00000000000E+00  0.00000000000E+00 -0.12923464444E+04  0.12923464444E+04  0.50400001928E-02 0. -1.
    10030    2    1    2    0    0  0.00000000000E+00  0.00000000000E+00  0.15007459360E+04  0.40854388248E+04  0.37998121042E+04 0.  0.
        2    1    3    3  502    0  0.13900070454E+04 -0.84153681532E+02  0.21399807437E+04  0.25531782178E+04  0.25500000920E-02 0.  1.
       -2    1    3    3    0  502 -0.13900070454E+04  0.84153681532E+02 -0.63923480768E+03  0.15322606070E+04  0.25500000920E-02 0. -1.
</event>
<event>
 5   0  0.1193861E-07  0.3805557E+04  0.7818609E-02  0.8044963E-01
       -2   -1    0    0    0  501  0.00000000000E+00  0.00000000000E+00  0.13978079505E+04  0.13978079505E+04  0.25500000920E-02 0. -1.
        2   -1    0    0  501    0  0.00000000000E+00  0.00000000000E+00 -0.25901745338E+04  0.25901745338E+04  0.25500000920E-02 0.  1.
    10030    2    1    2    0    0  0.00000000000E+00  0.00000000000E+00 -0.11923665833E+04  0.39879824842E+04  0.38055572819E+04 0.  0.
        3    1    3    3  502    0  0.13804396756E+04 -0.81220587307E+03 -0.16726923636E+04  0.23158566086E+04  0.10100000352E+00 0.  1.
       -3    1    3    3    0  502 -0.13804396756E+04  0.81220587307E+03  0.48032578032E+03  0.16721258756E+04  0.10100000352E+00 0. -1.
</event>
<event>
 5   0  0.1150235E-07  0.3800365E+04  0.7818609E-02  0.8046077E-01
        2   -1    0    0  501    0  0.00000000000E+00  0.00000000000E+00  0.13867124391E+04  0.13867124391E+04  0.25500000920E-02 0.  1.
       -2   -1    0    0    0  501  0.00000000000E+00  0.00000000000E+00 -0.26037789702E+04  0.26037789702E+04  0.25500000920E-02 0. -1.
    10030    2    1    2    0    0  0.00000000000E+00  0.00000000000E+00 -0.12170665311E+04  0.39904914094E+04  0.38003645545E+04 0.  0.
        4    1    3    3  502    0  0.68998212052E+03  0.83453781102E+03  0.10310460667E+04  0.14951877104E+04  0.12699999809E+01 0.  1.
       -4    1    3    3    0  502 -0.68998212052E+03 -0.83453781102E+03 -0.22481125978E+04  0.24953036990E+04  0.12699999809E+01 0. -1.
</event>
<event>
 5   0  0.3889225E-08  0.3778820E+04  0.7818609E-02  0.8050715E-01
        1   -1    0    0  501    0  0.00000000000E+00  0.00000000000E+00  0.14679797879E+04  0.14679797879E+04  0.50400001928E-02 0. -1.
       -1   -1    0    0    0  501  0.00000000000E+00  0.00000000000E+00 -0.24318245123E+04  0.24318245123E+04  0.50400001928E-02 0.  1.
    10030    2    1    2    0    0  0.00000000000E+00  0.00000000000E+00 -0.96384472439E+03  0.38998043002E+04  0.37788195151E+04 0.  0.
        5    1    3    3  502    0  0.14804721995E+04  0.11425888809E+04 -0.75987769707E+03  0.20185993879E+04  0.46999998093E+01 0. -1.
       -5    1    3    3    0  502 -0.14804721995E+04 -0.11425888809E+04 -0.20396702732E+03  0.18812049124E+04  0.46999998093E+01 0.  1.
</event>
<event>
 5   0  0.3701250E-08  0.3811029E+04  0.7818609E-02  0.8043792E-01
       -1   -1    0    0    0  501  0.00000000000E+00  0.00000000000E+00  0.12555301413E+04  0.12555301413E+04  0.50400001928E-02 0. -1.
        1   -1    0    0  501    0  0.00000000000E+00  0.00000000000E+00 -0.28919943503E+04  0.28919943503E+04  0.50400001928E-02 0.  1.
    10030    2    1    2    0    0  0.00000000000E+00  0.00000000000E+00 -0.16364642090E+04  0.41475244915E+04  0.38110292967E+04 0.  0.
        3    1    3    3  502    0  0.69297731016E+03  0.12616747630E+03 -0.27451139006E+04  0.28340405999E+04  0.10100000352E+00 0.  1.
       -3    1    3    3    0  502 -0.69297731016E+03 -0.12616747630E+03  0.11086496916E+04  0.13134838916E+04  0.10100000352E+00 0. -1.
</event>
<event>
 5   0  0.3701250E-08  0.3811680E+04  0.7818609E-02  0.8043653E-01
       -1   -1    0    0    0  501  0.00000000000E+00  0.00000000000E+00  0.16423375886E+04  0.16423375886E+04  0.50400001928E-02 0.  1.
        1   -1    0    0  501    0  0.00000000000E+00  0.00000000000E+00 -0.22116195642E+04  0.22116195642E+04  0.50400001928E-02 0. -1.
    10030    2    1    2    0    0  0.00000000000E+00  0.00000000000E+00 -0.56928197560E+03  0.38539571528E+04  0.38116799141E+04 0.  0.
        4    1    3    3  502    0  0.18111236489E+04 -0.58925686157E+03 -0.35492318191E+03  0.19373602139E+04  0.12699999809E+01 0. -1.
       -4    1    3    3    0  502 -0.18111236489E+04  0.58925686157E+03 -0.21435879369E+03  0.19165969388E+04  0.12699999809E+01 0.  1.
</event>
<event>
 5   0  0.3889225E-08  0.3799676E+04  0.7818609E-02  0.8046225E-01
        1   -1    0    0  501    0  0.00000000000E+00  0.00000000000E+00  0.17971549890E+04  0.17971549890E+04  0.50400001928E-02 0. -1.
       -1   -1    0    0    0  501  0.00000000000E+00  0.00000000000E+00 -0.20083874749E+04  0.20083874749E+04  0.50400001928E-02 0.  1.
    10030    2    1    2    0    0  0.00000000000E+00  0.00000000000E+00 -0.21123248595E+03  0.38055424639E+04  0.37996755495E+04 0.  0.
        5    1    3    3  502    0 -0.14294373989E+04  0.63718167397E+03  0.97311213330E+03  0.18428947547E+04  0.46999998093E+01 0. -1.
       -5    1    3    3    0  502  0.14294373989E+04 -0.63718167397E+03 -0.11843446192E+04  0.19626477092E+04  0.46999998093E+01 0.  1.
</event>
<event>
 5   0  0.7858367E-08  0.3809334E+04  0.7818609E-02  0.8044155E-01
        2   -1    0    0  501    0  0.00000000000E+00  0.00000000000E+00  0.24972745647E+04  0.24972745647E+04  0.25500000920E-02 0. -1.
       -2   -1    0    0    0  501  0.00000000000E+00  0.00000000000E+00 -0.14526860807E+04  0.14526860807E+04  0.25500000920E-02 0.  1.
    10030    2    1    2    0    0  0.00000000000E+00  0.00000000000E+00  0.10445884840E+04  0.39499606454E+04  0.38093337999E+04 0.  0.
        2    1    3    3  502    0 -0.17849839161E+04  0.59593453321E+03  0.82717314325E+03  0.20556071992E+04  0.25500000920E-02 0. -1.
       -2    1    3    3    0  502  0.17849839161E+04 -0.59593453321E+03  0.21741534074E+03  0.18943534462E+04  0.25500000920E-02 0.  1.
</event>
<event>
 5   0  0.3701250E-08  0.3805676E+04  0.7818609E-02  0.8044938E-01
       -1   -1    0    0    0  501  0.00000000000E+00  0.00000000000E+00  0.19692246712E+04  0.19692246712E+04  0.50400001928E-02 0. -1.
        1   -1    0    0  501    0  0.00000000000E+00  0.00000000000E+00 -0.18386889164E+04  0.18386889164E+04  0.50400001928E-02 0.  1.
    10030    2    1    2    0    0  0.00000000000E+00  0.00000000000E+00  0.13053575485E+03  0.38079135876E+04  0.38056755389E+04 0.  0.
        2    1    3    3  502    0 -0.81102482970E+03 -0.48105269173E+03 -0.15884649866E+04  0.18472666240E+04  0.25500000920E-02 0.  1.
       -2    1    3    3    0  502  0.81102482970E+03  0.48105269173E+03  0.17190007415E+04  0.19606469636E+04  0.25500000920E-02 0. -1.
</event>
<event>
 5   0  0.1193861E-07  0.3846329E+04  0.7818609E-02  0.8036285E-01
        2   -1    0    0  501    0  0.00000000000E+00  0.00000000000E+00  0.17925529284E+04  0.17925529284E+04  0.25500000920E-02 0.  1.
       -2   -1    0    0    0  501  0.00000000000E+00  0.00000000000E+00 -0.20632931175E+04  0.20632931175E+04  0.25500000920E-02 0. -1.
    10030    2    1    2    0    0  0.00000000000E+00  0.00000000000E+00 -0.27074018908E+03  0.38558460458E+04  0.38463292214E+04 0.  0.
        3    1    3    3  502    0  0.19126815360E+04 -0.17566616378E+03 -0.23231951631E+03  0.19347303758E+04  0.10100000352E+00 0.  1.
       -3    1    3    3    0  502 -0.19126815360E+04  0.17566616378E+03 -0.38420672775E+02  0.19211156700E+04  0.10100000352E+00 0. -1.
</event>
<event>
 5   0  0.3701250E-08  0.3783361E+04  0.7818609E-02  0.8049735E-01
        1   -1    0    0  501    0  0.00000000000E+00  0.00000000000E+00  0.22430814558E+04  0.22430814558E+04  0.50400001928E-02 0. -1.
       -1   -1    0    0    0  501  0.00000000000E+00  0.00000000000E+00 -0.15953303045E+04  0.15953303045E+04  0.50400001928E-02 0.  1.
    10030    2    1    2    0    0  0.00000000000E+00  0.00000000000E+00  0.64775115126E+03  0.38384117603E+04  0.37833613742E+04 0.  0.
        1    1    3    3  502    0 -0.14262471336E+04  0.12053013519E+04  0.16944931093E+02  0.18674098012E+04  0.50400001928E-02 0. -1.
       -1    1    3    3    0  502  0.14262471336E+04 -0.12053013519E+04  0.63080622017E+03  0.19710019590E+04  0.50400001928E-02 0.  1.
</event>
<event>
 5   0  0.1193861E-07  0.3827266E+04  0.7818609E-02  0.8040329E-01
       -2   -1    0    0    0  501  0.00000000000E+00  0.00000000000E+00  0.13749879724E+04  0.13749879724E+04  0.25500000920E-02 0.  1.
        2   -1    0    0  501    0  0.00000000000E+00  0.00000000000E+00 -0.26632899283E+04  0.26632899283E+04  0.25500000920E-02 0. -1.
    10030    2    1    2    0    0  0.00000000000E+00  0.00000000000E+00 -0.12883019559E+04  0.40382779007E+04  0.38272661879E+04 0.  0.
        3    1    3    3  502    0  0.16055718546E+04  0.17003997115E+03  0.43972210410E+03  0.16733589307E+04  0.10100000352E+00 0.  1.
       -3    1    3    3    0  502 -0.16055718546E+04 -0.17003997115E+03 -0.17280240600E+04  0.23649189699E+04  0.10100000352E+00 0. -1.
</event>
<event>
 5   0  0.1193861E-07  0.3805471E+04  0.7818609E-02  0.8044982E-01
       -2   -1    0    0    0  501  0.00000000000E+00  0.00000000000E+00  0.17722667391E+04  0.17722667391E+04  0.25500000920E-02 0. -1.
        2   -1    0    0  501    0  0.00000000000E+00  0.00000000000E+00 -0.20428089392E+04  0.20428089392E+04  0.25500000920E-02 0.  1.
    10030    2    1    2    0    0  0.00000000000E+00  0.00000000000E+00 -0.27054220008E+03  0.38150756783E+04  0.38054709760E+04 0.  0.
        3    1    3    3  502    0 -0.11549793117E+04  0.11742200304E+04 -0.10903730847E+04  0.19752679221E+04  0.10100000352E+00 0.  1.
       -3    1    3    3    0  502  0.11549793117E+04 -0.11742200304E+04  0.81983088458E+03  0.18398077562E+04  0.10100000352E+00 0. -1.
</event>
<event>
 5   0  0.1174870E-07  0.3796946E+04  0.7818609E-02  0.8046810E-01
        2   -1    0    0  501    0  0.00000000000E+00  0.00000000000E+00  0.27246217500E+04  0.27246217501E+04  0.25500000920E-02 0.  1.
       -2   -1    0    0    0  501  0.00000000000E+00  0.00000000000E+00 -0.13228260151E+04  0.13228260151E+04  0.25500000920E-02 0. -1.
    10030    2    1    2    0    0  0.00000000000E+00  0.00000000000E+00  0.14017957350E+04  0.40474477651E+04  0.37969464217E+04 0.  0.
        5    1    3    3  502    0 -0.84388643750E+03 -0.16888800839E+04  0.91334040595E+03  0.20973013718E+04  0.46999998093E+01 0.  1.
       -5    1    3    3    0  502  0.84388643750E+03  0.16888800839E+04  0.48845532900E+03  0.19501463933E+04  0.46999998093E+01 0. -1.
</event>
<event>
 5   0  0.1143283E-07  0.3794490E+04  0.7818609E-02  0.8047338E-01
        2   -1    0    0  501    0  0.00000000000E+00  0.00000000000E+00  0.30576926358E+04  0.30576926358E+04  0.25500000920E-02 0.  1.
       -2   -1    0    0    0  501  0.00000000000E+00  0.00000000000E+00 -0.11772075927E+04  0.11772075927E+04  0.25500000920E-02 0. -1.
    10030    2    1    2    0    0  0.00000000000E+00  0.00000000000E+00  0.18804850431E+04  0.42349002285E+04  0.37944902093E+04 0.  0.
        1    1    3    3  502    0  0.37586496401E+03 -0.10627354411E+04  0.26434252380E+04  0.28737393894E+04  0.50400001928E-02 0.  1.
       -1    1    3    3    0  502 -0.37586496401E+03  0.10627354411E+04 -0.76294019499E+03  0.13611608392E+04  0.50400001928E-02 0. -1.
</event>
<event>
 5   0  0.3701250E-08  0.3815569E+04  0.7818609E-02  0.8042822E-01
       -1   -1    0    0    0  501  0.00000000000E+00  0.00000000000E+00  0.21098895378E+04  0.21098895378E+04  0.50400001928E-02 0. -1.
        1   -1    0    0  501    0  0.00000000000E+00  0.00000000000E+00 -0.17250389168E+04  0.17250389168E+04  0.50400001928E-02 0.  1.
    10030    2    1    2    0    0  0.00000000000E+00  0.00000000000E+00  0.38485062099E+03  0.38349284546E+04  0.38155689290E+04 0.  0.
        1    1    3    3  502    0  0.89602089100E+02 -0.19380172745E+03 -0.17129926589E+04  0.17262478076E+04  0.50400001928E-02 0.  1.
       -1    1    3    3    0  502 -0.89602089100E+02  0.19380172745E+03  0.20978432799E+04  0.21086806470E+04  0.50400001928E-02 0. -1.
</event>
<event>
 5   0  0.3701250E-08  0.3867168E+04  0.7818609E-02  0.8031892E-01
        1   -1    0    0  501    0  0.00000000000E+00  0.00000000000E+00  0.20411551141E+04  0.20411551141E+04  0.50400001928E-02 0.  1.
       -1   -1    0    0    0  501  0.00000000000E+00  0.00000000000E+00 -0.18316819324E+04  0.18316819324E+04  0.50400001928E-02 0. -1.
    10030    2    1    2    0    0  0.00000000000E+00  0.00000000000E+00  0.20947318168E+03  0.38728370465E+04  0.38671679269E+04 0.  0.
        2    1    3    3  502    0  0.12418931030E+04  0.88777104361E+03  0.12931990955E+04  0.20006998290E+04  0.25500000920E-02 0.  1.
       -2    1    3    3    0  502 -0.12418931030E+04 -0.88777104361E+03 -0.10837259138E+04  0.18721372176E+04  0.25500000920E-02 0. -1.
</event>
<event>
 5   0  0.3889225E-08  0.3787270E+04  0.7818609E-02  0.8048892E-01
       -1   -1    0    0    0  501  0.00000000000E+00  0.00000000000E+00  0.16604265190E+04  0.16604265190E+04  0.50400001928E-02 0.  1.
        1   -1    0    0  501    0  0.00000000000E+00  0.00000000000E+00 -0.21595980779E+04  0.21595980779E+04  0.50400001928E-02 0. -1.
    10030    2    1    2    0    0  0.00000000000E+00  0.00000000000E+00 -0.49917155890E+03  0.38200245970E+04  0.37872702143E+04 0.  0.
        5    1    3    3  502    0 -0.10631706904E+04  0.13048649680E+04 -0.11247459712E+04  0.20243715300E+04  0.46999998093E+01 0. -1.
       -5    1    3    3    0  502  0.10631706904E+04 -0.13048649680E+04  0.62557441232E+03  0.17956530670E+04  0.46999998093E+01 0.  1.
</event>
<event>
 5   0  0.7858367E-08  0.3811824E+04  0.7818609E-02  0.8043622E-01
        2   -1    0    0  501    0  0.00000000000E+00  0.00000000000E+00  0.18696401072E+04  0.18696401072E+04  0.25500000920E-02 0. -1.
       -2   -1    0    0    0  501  0.00000000000E+00  0.00000000000E+00 -0.19428871005E+04  0.19428871005E+04  0.25500000920E-02 0.  1.
    10030    2    1    2    0    0  0.00000000000E+00  0.00000000000E+00 -0.73246993251E+02  0.38125272077E+04  0.38118235252E+04 0.  0.
        2    1    3    3  502    0  0.76024162690E+03  0.11988760909E+04  0.12353142326E+04  0.18818268958E+04  0.25500000920E-02 0. -1.
       -2    1    3    3    0  502 -0.76024162690E+03 -0.11988760909E+04 -0.13085612258E+04  0.19307003119E+04  0.25500000920E-02 0.  1.
</event>
<event>
 5   0  0.3701250E-08  0.3799824E+04  0.7818609E-02  0.8046193E-01
       -1   -1    0    0    0  501  0.00000000000E+00  0.00000000000E+00  0.16650044547E+04  0.16650044547E+04  0.50400001928E-02 0.  1.
        1   -1    0    0  501    0  0.00000000000E+00  0.00000000000E+00 -0.21679611501E+04  0.21679611501E+04  0.50400001928E-02 0. -1.
    10030    2    1    2    0    0  0.00000000000E+00  0.00000000000E+00 -0.50295669536E+03  0.38329656048E+04  0.37998236657E+04 0.  0.
        3    1    3    3  502    0 -0.76845350411E+03 -0.36602772442E+03 -0.19648714852E+04  0.21413119919E+04  0.10100000352E+00 0. -1.
       -3    1    3    3    0  502  0.76845350411E+03  0.36602772442E+03  0.14619147899E+04  0.16916536129E+04  0.10100000352E+00 0.  1.
</event>
<event>
 5   0  0.3701250E-08  0.3804984E+04  0.7818609E-02  0.8045086E-01
       -1   -1    0    0    0  501  0.00000000000E+00  0.00000000000E+00  0.15078319202E+04  0.15078319202E+04  0.50400001928E-02 0. -1.
        1   -1    0    0  501    0  0.00000000000E+00  0.00000000000E+00 -0.24004505517E+04  0.24004505518E+04  0.50400001928E-02 0.  1.
    10030    2    1    2    0    0  0.00000000000E+00  0.00000000000E+00 -0.89261863153E+03  0.39082824720E+04  0.38049840814E+04 0.  0.
        4    1    3    3  502    0 -0.10609126076E+04  0.11024600735E+04 -0.16077230617E+04  0.22193983038E+04  0.12699999809E+01 0.  1.
       -4    1    3    3    0  502  0.10609126076E+04 -0.11024600735E+04  0.71510443019E+03  0.16888841682E+04  0.12699999809E+01 0. -1.
</event>
<event>
 5   0  0.1150235E-07  0.3819194E+04  0.7818609E-02  0.8042048E-01
        2   -1    0    0  501    0  0.00000000000E+00  0.00000000000E+00  0.11901166735E+04  0.11901166735E+04  0.25500000920E-02 0.  1.
       -2   -1    0    0    0  501  0.00000000000E+00  0.00000000000E+00 -0.30640360486E+04  0.30640360486E+04  0.25500000920E-02 0. -1.
    10030    2    1    2    0    0  0.00000000000E+00  0.00000000000E+00 -0.18739193751E+04  0.42541527222E+04  0.38191938363E+04 0.  0.
        4    1    3    3  502    0 -0.14915531279E+04 -0.11641019542E+04 -0.12246246608E+04  0.22537904219E+04  0.12699999809E+01 0.  1.
       -4    1    3    3    0  502  0.14915531279E+04  0.11641019542E+04 -0.64929471432E+03  0.20003623002E+04  0.12699999809E+01 0. -1.
</event>
<event>
 5   0  0.3701250E-08  0.3788874E+04  0.7818609E-02  0.8048547E-01
        3   -1    0    0  501    0  0.00000000000E+00  0.00000000000E+00  0.12977363004E+04  0.12977363043E+04  0.10100000352E+00 0.  1.
       -3   -1    0    0    0  501  0.00000000000E+00  0.00000000000E+00 -0.27655012218E+04  0.27655012237E+04  0.10100000352E+00 0. -1.
    10030    2    1    2    0    0  0.00000000000E+00  0.00000000000E+00 -0.14677649215E+04  0.40632375280E+04  0.37888738887E+04 0.  0.
        5    1    3    3  502    0 -0.15179397456E+04  0.11266106164E+04 -0.86729638360E+03  0.20798119288E+04  0.46999998093E+01 0.  1.
       -5    1    3    3    0  502  0.15179397456E+04 -0.11266106164E+04 -0.60046853785E+03  0.19834255991E+04  0.46999998093E+01 0. -1.
</event>
<event>
 5   0  0.3701250E-08  0.3800117E+04  0.7818609E-02  0.8046130E-01
        1   -1    0    0  501    0  0.00000000000E+00  0.00000000000E+00  0.18322892279E+04  0.18322892279E+04  0.50400001928E-02 0.  1.
       -1   -1    0    0    0  501  0.00000000000E+00  0.00000000000E+00 -0.19703340315E+04  0.19703340315E+04  0.50400001928E-02 0. -1.
    10030    2    1    2    0    0  0.00000000000E+00  0.00000000000E+00 -0.13804480363E+03  0.38026232594E+04  0.38001167463E+04 0.  0.
        4    1    3    3  502    0  0.88969307653E+03 -0.29237414216E+03 -0.17233472010E+04  0.19613677874E+04  0.12699999809E+01 0. -1.
       -4    1    3    3    0  502 -0.88969307653E+03  0.29237414216E+03  0.15853023973E+04  0.18412554720E+04  0.12699999809E+01 0.  1.
</event>
<event>
 5   0  0.3701250E-08  0.3833727E+04  0.7818609E-02  0.8038956E-01
        1   -1    0    0  501    0  0.00000000000E+00  0.00000000000E+00  0.13777590925E+04  0.13777590925E+04  0.50400001928E-02 0. -1.
       -1   -1    0    0    0  501  0.00000000000E+00  0.00000000000E+00 -0.26669148132E+04  0.26669148132E+04  0.50400001928E-02 0.  1.
    10030    2    1    2    0    0  0.00000000000E+00  0.00000000000E+00 -0.12891557208E+04  0.40446739057E+04  0.38337272375E+04 0.  0.
        4    1    3    3  502    0 -0.16468769954E+04  0.49338359055E+03  0.24985179602E+03  0.17372560946E+04  0.12699999809E+01 0. -1.
       -4    1    3    3    0  502  0.16468769954E+04 -0.49338359055E+03 -0.15390075168E+04  0.23074178111E+04  0.12699999809E+01 0.  1.
</event>
<event>
 5   0  0.3701250E-08  0.3798783E+04  0.7818609E-02  0.8046416E-01
       -1   -1    0    0    0  501  0.00000000000E+00  0.00000000000E+00  0.19280696346E+04  0.19280696346E+04  0.50400001928E-02 0. -1.
        1   -1    0    0  501    0  0.00000000000E+00  0.00000000000E+00 -0.18711399351E+04  0.18711399351E+04  0.50400001928E-02 0.  1.
    10030    2    1    2    0    0  0.00000000000E+00  0.00000000000E+00  0.56929699465E+02  0.37992095697E+04  0.37987830109E+04 0.  0.
        1    1    3    3  502    0 -0.15696461943E+04 -0.90285670723E+03  0.60189532966E+03  0.19081974209E+04  0.50400001928E-02 0. -1.
       -1    1    3    3    0  502  0.15696461943E+04  0.90285670723E+03 -0.54496563020E+03  0.18910121489E+04  0.50400001928E-02 0.  1.
</event>
<event>
 5   0  0.1143283E-07  0.3696864E+04  0.7818609E-02  0.8068657E-01
       -2   -1    0    0    0  501  0.00000000000E+00  0.00000000000E+00  0.12830030640E+04  0.12830030640E+04  0.25500000920E-02 0. -1.
        2   -1    0    0  501    0  0.00000000000E+00  0.00000000000E+00 -0.26630491268E+04  0.26630491268E+04  0.25500000920E-02 0.  1.
    10030    2    1    2    0    0  0.00000000000E+00  0.00000000000E+00 -0.13800460628E+04  0.39460521908E+04  0.36968636379E+04 0.  0.
        1    1    3    3  502    0  0.25936959970E+03 -0.77513961050E+03  0.10796134917E+04  0.13541341501E+04  0.50400001928E-02 0. -1.
       -1    1    3    3    0  502 -0.25936959970E+03  0.77513961050E+03 -0.24596595546E+04  0.25919180407E+04  0.50400001928E-02 0.  1.
</event>
<event>
 5   0  0.3701250E-08  0.3787372E+04  0.7818609E-02  0.8048870E-01
       -1   -1    0    0    0  501  0.00000000000E+00  0.00000000000E+00  0.16950355175E+04  0.16950355175E+04  0.50400001928E-02 0.  1.
        1   -1    0    0  501    0  0.00000000000E+00  0.00000000000E+00 -0.21156174348E+04  0.21156174348E+04  0.50400001928E-02 0. -1.
    10030    2    1    2    0    0  0.00000000000E+00  0.00000000000E+00 -0.42058191735E+03  0.38106529523E+04  0.37873720142E+04 0.  0.
        3    1    3    3  502    0 -0.13332208359E+03 -0.10960039030E+04 -0.17582693897E+04  0.20761769169E+04  0.10100000352E+00 0. -1.
       -3    1    3    3    0  502  0.13332208359E+03  0.10960039030E+04  0.13376874724E+04  0.17344760354E+04  0.10100000352E+00 0.  1.
</event>
<event>
 5   0  0.7858367E-08  0.3803005E+04  0.7818609E-02  0.8045510E-01
        2   -1    0    0  501    0  0.00000000000E+00  0.00000000000E+00  0.18486053866E+04  0.18486053866E+04  0.25500000920E-02 0.  1.
       -2   -1    0    0    0  501  0.00000000000E+00  0.00000000000E+00 -0.19559130585E+04  0.19559130585E+04  0.25500000920E-02 0. -1.
    10030    2    1    2    0    0  0.00000000000E+00  0.00000000000E+00 -0.10730767192E+03  0.38045184451E+04  0.38030048202E+04 0.  0.
        2    1    3    3  502    0 -0.12574348593E+04  0.32867630274E+03  0.13348974736E+04  0.18630946843E+04  0.25500000920E-02 0.  1.
       -2    1    3    3    0  502  0.12574348593E+04 -0.32867630274E+03 -0.14422051456E+04  0.19414237609E+04  0.25500000920E-02 0. -1.
</event>
<event>
 5   0  0.1193861E-07  0.3860335E+04  0.7818609E-02  0.8033330E-01
        2   -1    0    0  501    0  0.00000000000E+00  0.00000000000E+00  0.12785463662E+04  0.12785463662E+04  0.25500000920E-02 0. -1.
       -2   -1    0    0    0  501  0.00000000000E+00  0.00000000000E+00 -0.29138918832E+04  0.29138918832E+04  0.25500000920E-02 0.  1.
    10030    2    1    2    0    0  0.00000000000E+00  0.00000000000E+00 -0.16353455170E+04  0.41924382493E+04  0.38603346376E+04 0.  0.
        3    1    3    3  502    0  0.10383227107E+04 -0.10895575738E+04  0.49471504336E+03  0.15842956613E+04  0.10100000352E+00 0. -1.
       -3    1    3    3    0  502 -0.10383227107E+04  0.10895575738E+04 -0.21300605604E+04  0.26081425880E+04  0.10100000352E+00 0.  1.
</event>
<event>
 5   0  0.3889225E-08  0.3888559E+04  0.7818609E-02  0.8027413E-01
        1   -1    0    0  501    0  0.00000000000E+00  0.00000000000E+00  0.21068279983E+04  0.21068279983E+04  0.50400001928E-02 0.  1.
       -1   -1    0    0    0  501  0.00000000000E+00  0.00000000000E+00 -0.17942720737E+04  0.17942720737E+04  0.50400001928E-02 0. -1.
    10030    2    1    2    0    0  0.00000000000E+00  0.00000000000E+00  0.31255592459E+03  0.39011000721E+04  0.38885589318E+04 0.  0.
        5    1    3    3  502    0 -0.11299333058E+04  0.15693718052E+04  0.35823147616E+03  0.19667305405E+04  0.46999998093E+01 0.  1.
       -5    1    3    3    0  502  0.11299333058E+04 -0.15693718052E+04 -0.45675551576E+02  0.19343695315E+04  0.46999998093E+01 0. -1.
</event>
<event>
 5   0  0.3889225E-08  0.3799520E+04  0.7818609E-02  0.8046258E-01
        1   -1    0    0  501    0  0.00000000000E+00  0.00000000000E+00  0.17253588981E+04  0.17253588981E+04  0.50400001928E-02 0.  1.
       -1   -1    0    0    0  501  0.00000000000E+00  0.00000000000E+00 -0.20917900952E+04  0.20917900952E+04  0.50400001928E-02 0. -1.
    10030    2    1    2    0    0  0.00000000000E+00  0.00000000000E+00 -0.36643119713E+03  0.38171489933E+04  0.37995203138E+04 0.  0.
        5    1    3    3  502    0  0.46167198859E+03 -0.99418180305E+03  0.13756045902E+04  0.17589339275E+04  0.46999998093E+01 0.  1.
       -5    1    3    3    0  502 -0.46167198859E+03  0.99418180305E+03 -0.17420357874E+04  0.20582150658E+04  0.46999998093E+01 0. -1.
</event>
<event>
 5   0  0.1150235E-07  0.3724093E+04  0.7818609E-02  0.8062644E-01
        2   -1    0    0  501    0  0.00000000000E+00  0.00000000000E+00  0.24377550760E+04  0.24377550760E+04  0.25500000920E-02 0. -1.
       -2   -1    0    0    0  501  0.00000000000E+00  0.00000000000E+00 -0.14222989060E+04  0.14222989060E+04  0.25500000920E-02 0.  1.
    10030    2    1    2    0    0  0.00000000000E+00  0.00000000000E+00  0.10154561701E+04  0.38600539820E+04  0.37240925754E+04 0.  0.
        4    1    3    3  502    0  0.14528212379E+04  0.70543703751E+03  0.14683226297E+04  0.21827285495E+04  0.12699999809E+01 0. -1.
       -4    1    3    3    0  502 -0.14528212379E+04 -0.70543703751E+03 -0.45286645966E+03  0.16773254324E+04  0.12699999809E+01 0.  1.
</event>
<event>
 5   0  0.1150235E-07  0.3806863E+04  0.7818609E-02  0.8044684E-01
       -2   -1    0    0    0  501  0.00000000000E+00  0.00000000000E+00  0.13446672017E+04  0.13446672017E+04  0.25500000920E-02 0. -1.
        2   -1    0    0  501    0  0.00000000000E+00  0.00000000000E+00 -0.26943852156E+04  0.26943852156E+04  0.25500000920E-02 0.  1.
    10030    2    1    2    0    0  0.00000000000E+00  0.00000000000E+00 -0.13497180139E+04  0.40390524172E+04  0.38068629752E+04 0.  0.
        4    1    3    3  502    0 -0.35156485021E+03  0.13399655286E+04  0.71010965972E+03  0.15567153894E+04  0.12699999809E+01 0. -1.
       -4    1    3    3    0  502  0.35156485021E+03 -0.13399655286E+04 -0.20598276736E+04  0.24823370278E+04  0.12699999809E+01 0.  1.
</event>
<event>
 5   0  0.7858367E-08  0.3806039E+04  0.7818609E-02  0.8044860E-01
       -2   -1    0    0    0  501  0.00000000000E+00  0.00000000000E+00  0.13430932060E+04  0.13430932060E+04  0.25500000920E-02 0. -1.
        2   -1    0    0  501    0  0.00000000000E+00  0.00000000000E+00 -0.26963758561E+04  0.26963758561E+04  0.25500000920E-02 0.  1.
    10030    2    1    2    0    0  0.00000000000E+00  0.00000000000E+00 -0.13532826501E+04  0.40394690620E+04  0.38060394601E+04 0.  0.
        2    1    3    3  502    0  0.16688724587E+04 -0.35458265652E+03 -0.15713253796E+04  0.23194670923E+04  0.25500000920E-02 0.  1.
       -2    1    3    3    0  502 -0.16688724587E+04  0.35458265652E+03  0.21804272949E+03  0.17200019697E+04  0.25500000920E-02 0. -1.
</event>
<event>
 5   0  0.3701250E-08  0.3903930E+04  0.7818609E-02  0.8024212E-01
        1   -1    0    0  501    0  0.00000000000E+00  0.00000000000E+00  0.15908850832E+04  0.15908850832E+04  0.50400001928E-02 0.  1.
       -1   -1    0    0    0  501  0.00000000000E+00  0.00000000000E+00 -0.23949988514E+04  0.23949988514E+04  0.50400001928E-02 0. -1.
    10030    2    1    2    0    0  0.00000000000E+00  0.00000000000E+00 -0.80411376824E+03  0.39858839346E+04  0.39039303001E+04 0.  0.
        3    1    3    3  502    0 -0.13497570783E+04 -0.13804992134E+04 -0.69539587223E+03  0.20521202883E+04  0.10100000352E+00 0. -1.
       -3    1    3    3    0  502  0.13497570783E+04  0.13804992134E+04 -0.10871789602E+03  0.19337636463E+04  0.10100000352E+00 0.  1.
</event>
<event>
 5   0  0.1143283E-07  0.3797302E+04  0.7818609E-02  0.8046734E-01
       -2   -1    0    0    0  501  0.00000000000E+00  0.00000000000E+00  0.18881262292E+04  0.18881262292E+04  0.25500000920E-02 0.  1.
        2   -1    0    0  501    0  0.00000000000E+00  0.00000000000E+00 -0.19092341586E+04  0.19092341586E+04  0.25500000920E-02 0. -1.
    10030    2    1    2    0    0  0.00000000000E+00  0.00000000000E+00 -0.21107929409E+02  0.37973603878E+04  0.37973017223E+04 0.  0.
        1    1    3    3  502    0 -0.45069437308E+03 -0.16568592602E+04  0.79974681495E+03  0.18941760726E+04  0.50400001928E-02 0.  1.
       -1    1    3    3    0  502  0.45069437308E+03  0.16568592602E+04 -0.82085474436E+03  0.19031843152E+04  0.50400001928E-02 0. -1.
</event>
<event>
 5   0  0.3889225E-08  0.3800303E+04  0.7818609E-02  0.8046090E-01
       -1   -1    0    0    0  501  0.00000000000E+00  0.00000000000E+00  0.20129852181E+04  0.20129852182E+04  0.50400001928E-02 0. -1.
        1   -1    0    0  501    0  0.00000000000E+00  0.00000000000E+00 -0.17936427937E+04  0.17936427937E+04  0.50400001928E-02 0.  1.
    10030    2    1    2    0    0  0.00000000000E+00  0.00000000000E+00  0.21934242447E+03  0.38066280118E+04  0.38003033723E+04 0.  0.
        5    1    3    3  502    0  0.92263585627E+03 -0.63056097931E+03  0.16490079774E+04  0.19920124175E+04  0.46999998093E+01 0. -1.
       -5    1    3    3    0  502 -0.92263585627E+03  0.63056097931E+03 -0.14296655530E+04  0.18146155943E+04  0.46999998093E+01 0.  1.
</event>
<event>
 5   0  0.3701250E-08  0.3727259E+04  0.7818609E-02  0.8061948E-01
        1   -1    0    0  501    0  0.00000000000E+00  0.00000000000E+00  0.26302189610E+04  0.26302189610E+04  0.50400001928E-02 0.  1.
       -1   -1    0    0    0  501  0.00000000000E+00  0.00000000000E+00 -0.13204661920E+04  0.13204661921E+04  0.50400001928E-02 0. -1.
    10030    2    1    2    0    0  0.00000000000E+00  0.00000000000E+00  0.13097527690E+04  0.39506851531E+04  0.37272591623E+04 0.  0.
        3    1    3    3  502    0  0.51093370521E+03 -0.74838514180E+03 -0.10712320922E+04  0.14030936452E+04  0.10100000352E+00 0. -1.
       -3    1    3    3    0  502 -0.51093370521E+03  0.74838514180E+03  0.23809848612E+04  0.25475915079E+04  0.10100000352E+00 0.  1.
</event>
<event>
 5   0  0.3889225E-08  0.3805567E+04  0.7818609E-02  0.8044961E-01
       -1   -1    0    0    0  501  0.00000000000E+00  0.00000000000E+00  0.18727772700E+04  0.18727772700E+04  0.50400001928E-02 0.  1.
        1   -1    0    0  501    0  0.00000000000E+00  0.00000000000E+00 -0.19332708430E+04  0.19332708430E+04  0.50400001928E-02 0. -1.
    10030    2    1    2    0    0  0.00000000000E+00  0.00000000000E+00 -0.60493572963E+02  0.38060481130E+04  0.38055673383E+04 0.  0.
        5    1    3    3  502    0  0.54554640493E+03 -0.33936682402E+03 -0.18214987053E+04  0.19314943295E+04  0.46999998093E+01 0. -1.
       -5    1    3    3    0  502 -0.54554640493E+03  0.33936682402E+03  0.17610051324E+04  0.18745537836E+04  0.46999998093E+01 0.  1.
</event>
<event>
 5   0  0.1150235E-07  0.3782398E+04  0.7818609E-02  0.8049943E-01
        2   -1    0    0  501    0  0.00000000000E+00  0.00000000000E+00  0.22753345329E+04  0.22753345329E+04  0.25500000920E-02 0.  1.
       -2   -1    0    0    0  501  0.00000000000E+00  0.00000000000E+00 -0.15719154631E+04  0.15719154632E+04  0.25500000920E-02 0. -1.
    10030    2    1    2    0    0  0.00000000000E+00  0.00000000000E+00  0.70341906975E+03  0.38472499961E+04  0.37823979358E+04 0.  0.
        4    1    3    3  502    0  0.64037540988E+03 -0.11045829987E+04 -0.10673628692E+04  0.16641662700E+04  0.12699999809E+01 0. -1.
       -4    1    3    3    0  502 -0.64037540988E+03  0.11045829987E+04  0.17707819390E+04  0.21830837261E+04  0.12699999809E+01 0.  1.
</event>
<event>
 5   0  0.3701250E-08  0.3796240E+04  0.7818609E-02  0.8046962E-01
       -1   -1    0    0    0  501  0.00000000000E+00  0.00000000000E+00  0.13973760416E+04  0.13973760416E+04  0.50400001928E-02 0. -1.
        1   -1    0    0  501    0  0.00000000000E+00  0.00000000000E+00 -0.25783040020E+04  0.25783040020E+04  0.50400001928E-02 0.  1.
    10030    2    1    2    0    0  0.00000000000E+00  0.00000000000E+00 -0.11809279604E+04  0.39756800436E+04  0.37962403719E+04 0.  0.
        2    1    3    3  502    0  0.22379413700E+03  0.10422363031E+03 -0.25614190299E+04  0.25732885240E+04  0.25500000920E-02 0.  1.
       -2    1    3    3    0  502 -0.22379413700E+03 -0.10422363031E+03  0.13804910696E+04  0.14023915195E+04  0.25500000920E-02 0. -1.
</event>
<event>
 5   0  0.3701250E-08  0.3798716E+04  0.7818609E-02  0.8046431E-01
        1   -1    0    0  501    0  0.00000000000E+00  0.00000000000E+00  0.16658589414E+04  0.16658589414E+04  0.50400001928E-02 0. -1.
       -1   -1    0    0    0  501  0.00000000000E+00  0.00000000000E+00 -0.21655854680E+04  0.21655854680E+04  0.50400001928E-02 0.  1.
    10030    2    1    2    0    0  0.00000000000E+00  0.00000000000E+00 -0.49972652660E+03  0.38314444094E+04  0.37987155278E+04 0.  0.
        3    1    3    3  502    0 -0.65689163512E+03 -0.17276778691E+04  0.19114810583E+03  0.18582021010E+04  0.10100000352E+00 0.  1.
       -3    1    3    3    0  502  0.65689163512E+03  0.17276778691E+04 -0.69087463243E+03  0.19732423084E+04  0.10100000352E+00 0. -1.
</event>
<event>
 5   0  0.7858367E-08  0.3796660E+04  0.7818609E-02  0.8046872E-01
       -2   -1    0    0    0  501  0.00000000000E+00  0.00000000000E+00  0.12233321982E+04  0.12233321982E+04  0.25500000920E-02 0. -1.
        2   -1    0    0  501    0  0.00000000000E+00  0.00000000000E+00 -0.29457705216E+04  0.29457705216E+04  0.25500000920E-02 0.  1.
    10030    2    1    2    0    0  0.00000000000E+00  0.00000000000E+00 -0.17224383234E+04  0.41691027199E+04  0.37966595464E+04 0.  0.
        2    1    3    3  502    0  0.44048460033E+02  0.17388751192E+04 -0.16960831866E+04  0.24294701321E+04  0.25500000920E-02 0.  1.
       -2    1    3    3    0  502 -0.44048460033E+02 -0.17388751192E+04 -0.26355136766E+02  0.17396325877E+04  0.25500000920E-02 0. -1.
</event>
<event>
 5   0  0.3701250E-08  0.3798780E+04  0.7818609E-02  0.8046417E-01
        1   -1    0    0  501    0  0.00000000000E+00  0.00000000000E+00  0.21134826447E+04  0.21134826447E+04  0.50400001928E-02 0.  1.
       -1   -1    0    0    0  501  0.00000000000E+00  0.00000000000E+00 -0.17069842844E+04  0.17069842844E+04  0.50400001928E-02 0. -1.
    10030    2    1    2    0    0  0.00000000000E+00  0.00000000000E+00  0.40649836029E+03  0.38204669291E+04  0.37987796250E+04 0.  0.
        3    1    3    3  502    0 -0.15078955806E+04  0.41983274866E+03  0.12853439619E+04  0.20253685417E+04  0.10100000352E+00 0.  1.
       -3    1    3    3    0  502  0.15078955806E+04 -0.41983274866E+03 -0.87884560158E+03  0.17950983874E+04  0.10100000352E+00 0. -1.
</event>
<event>
 5   0  0.1150235E-07  0.3786620E+04  0.7818609E-02  0.8049032E-01
       -2   -1    0    0    0  501  0.00000000000E+00  0.00000000000E+00  0.21338013284E+04  0.21338013284E+04  0.25500000920E-02 0.  1.
        2   -1    0    0  501    0  0.00000000000E+00  0.00000000000E+00 -0.16799233929E+04  0.16799233929E+04  0.25500000920E-02 0. -1.
    10030    2    1    2    0    0  0.00000000000E+00  0.00000000000E+00  0.45387793541E+03  0.38137247213E+04  0.37866200060E+04 0.  0.
        4    1    3    3  502    0 -0.11192851529E+04  0.63308068628E+03  0.16265011899E+04  0.20734266668E+04  0.12699999809E+01 0.  1.
       -4    1    3    3    0  502  0.11192851529E+04 -0.63308068628E+03 -0.11726232545E+04  0.17402980545E+04  0.12699999809E+01 0. -1.
</event>
<event>
 5   0  0.1143283E-07  0.3795592E+04  0.7818609E-02  0.8047102E-01
        2   -1    0    0  501    0  0.00000000000E+00  0.00000000000E+00  0.21294802850E+04  0.21294802850E+04  0.25500000920E-02 0. -1.
       -2   -1    0    0    0  501  0.00000000000E+00  0.00000000000E+00 -0.16913185201E+04  0.16913185201E+04  0.25500000920E-02 0.  1.
    10030    2    1    2    0    0  0.00000000000E+00  0.00000000000E+00  0.43816176486E+03  0.38207988051E+04  0.37955918875E+04 0.  0.
        1    1    3    3  502    0  0.69744362923E+03  0.16185925773E+04 -0.48941133121E+03  0.18291508955E+04  0.50400001928E-02 0.  1.
       -1    1    3    3    0  502 -0.69744362923E+03 -0.16185925773E+04  0.92757309607E+03  0.19916479096E+04  0.50400001928E-02 0. -1.
</event>
<event>
 5   0  0.1143283E-07  0.3804560E+04  0.7818609E-02  0.8045177E-01
       -2   -1    0    0    0  501  0.00000000000E+00  0.00000000000E+00  0.15425910434E+04  0.15425910434E+04  0.25500000920E-02 0.  1.
        2   -1    0    0  501    0  0.00000000000E+00  0.00000000000E+00 -0.23458382138E+04  0.23458382138E+04  0.25500000920E-02 0. -1.
    10030    2    1    2    0    0  0.00000000000E+00  0.00000000000E+00 -0.80324717041E+03  0.38884292572E+04  0.38045599051E+04 0.  0.
        1    1    3    3  502    0  0.14472049315E+04  0.11789596403E+04 -0.77620122423E+03  0.20215925128E+04  0.50400001928E-02 0.  1.
       -1    1    3    3    0  502 -0.14472049315E+04 -0.11789596403E+04 -0.27045946180E+02  0.18668367444E+04  0.50400001928E-02 0. -1.
</event>
<event>
 5   0  0.1143283E-07  0.3811875E+04  0.7818609E-02  0.8043611E-01
        2   -1    0    0  501    0  0.00000000000E+00  0.00000000000E+00  0.23433549973E+04  0.23433549973E+04  0.25500000920E-02 0.  1.
       -2   -1    0    0    0  501  0.00000000000E+00  0.00000000000E+00 -0.15501700013E+04  0.15501700013E+04  0.25500000920E-02 0. -1.
    10030    2    1    2    0    0  0.00000000000E+00  0.00000000000E+00  0.79318499601E+03  0.38935249986E+04  0.38118754540E+04 0.  0.
        1    1    3    3  502    0  0.63589889355E+02  0.86706009390E+03 -0.13358395616E+04  0.15938331829E+04  0.50400001928E-02 0. -1.
       -1    1    3    3    0  502 -0.63589889355E+02 -0.86706009390E+03  0.21290245576E+04  0.22996918157E+04  0.50400001928E-02 0.  1.
</event>
<event>
 5   0  0.1193861E-07  0.3821392E+04  0.7818609E-02  0.8041580E-01
        2   -1    0    0  501    0  0.00000000000E+00  0.00000000000E+00  0.17245049879E+04  0.17245049879E+04  0.25500000920E-02 0. -1.
       -2   -1    0    0    0  501  0.00000000000E+00  0.00000000000E+00 -0.21169898586E+04  0.21169898586E+04  0.25500000920E-02 0.  1.
    10030    2    1    2    0    0  0.00000000000E+00  0.00000000000E+00 -0.39248487070E+03  0.38414948465E+04  0.38213921916E+04 0.  0.
        3    1    3    3  502    0  0.11027107885E+04 -0.25189860266E+03 -0.17442573870E+04  0.20789078458E+04  0.10100000352E+00 0.  1.
       -3    1    3    3    0  502 -0.11027107885E+04  0.25189860266E+03  0.13517725163E+04  0.17625870007E+04  0.10100000352E+00 0. -1.
</event>
<event>
 5   0  0.3701250E-08  0.3736042E+04  0.7818609E-02  0.8060021E-01
        1   -1    0    0  501    0  0.00000000000E+00  0.00000000000E+00  0.20771667464E+04  0.20771667464E+04  0.50400001928E-02 0.  1.
       -1   -1    0    0    0  501  0.00000000000E+00  0.00000000000E+00 -0.16799340402E+04  0.16799340402E+04  0.50400001928E-02 0. -1.
    10030    2    1    2    0    0  0.00000000000E+00  0.00000000000E+00  0.39723270621E+03  0.37571007866E+04  0.37360423576E+04 0.  0.
        3    1    3    3  502    0 -0.13308804725E+04  0.12504918579E+04  0.59393564770E+03  0.19203469173E+04  0.10100000352E+00 0. -1.
       -3    1    3    3    0  502  0.13308804725E+04 -0.12504918579E+04 -0.19670294149E+03  0.18367538693E+04  0.10100000352E+00 0.  1.
</event>
<event>
 5   0  0.3701250E-08  0.3797137E+04  0.7818609E-02  0.8046769E-01
        1   -1    0    0  501    0  0.00000000000E+00  0.00000000000E+00  0.16197944829E+04  0.16197944829E+04  0.50400001928E-02 0.  1.
       -1   -1    0    0    0  501  0.00000000000E+00  0.00000000000E+00 -0.22253212193E+04  0.22253212193E+04  0.50400001928E-02 0. -1.
    10030    2    1    2    0    0  0.00000000000E+00  0.00000000000E+00 -0.60552673640E+03  0.38451157021E+04  0.37971373605E+04 0.  0.
        4    1    3    3  502    0  0.43576440093E+03  0.28495424616E+03  0.15460858881E+04  0.16314020724E+04  0.12699999809E+01 0.  1.
       -4    1    3    3    0  502 -0.43576440093E+03 -0.28495424616E+03 -0.21516126245E+04  0.22137136297E+04  0.12699999809E+01 0. -1.
</event>
<event>
 5   0  0.7858367E-08  0.3820454E+04  0.7818609E-02  0.8041780E-01
       -2   -1    0    0    0  501  0.00000000000E+00  0.00000000000E+00  0.25393895232E+04  0.25393895232E+04  0.25500000920E-02 0. -1.
        2   -1    0    0  501    0  0.00000000000E+00  0.00000000000E+00 -0.14369468023E+04  0.14369468023E+04  0.25500000920E-02 0.  1.
    10030    2    1    2    0    0  0.00000000000E+00  0.00000000000E+00  0.11024427209E+04  0.39763363254E+04  0.38204542426E+04 0.  0.
        2    1    3    3  502    0 -0.19019709038E+04  0.16036256856E+03  0.47224250682E+03  0.19662712065E+04  0.25500000920E-02 0.  1.
       -2    1    3    3    0  502  0.19019709038E+04 -0.16036256856E+03  0.63020021407E+03  0.20100651189E+04  0.25500000920E-02 0. -1.
</event>
<event>
 5   0  0.3701250E-08  0.3839199E+04  0.7818609E-02  0.8037795E-01
       -1   -1    0    0    0  501  0.00000000000E+00  0.00000000000E+00  0.18424353119E+04  0.18424353119E+04  0.50400001928E-02 0. -1.
        1   -1    0    0  501    0  0.00000000000E+00  0.00000000000E+00 -0.19999950103E+04  0.19999950104E+04  0.50400001928E-02 0.  1.
    10030    2    1    2    0    0  0.00000000000E+00  0.00000000000E+00 -0.15755969845E+03  0.38424303223E+04  0.38391985782E+04 0.  0.
        1    1    3    3  502    0 -0.41543132454E+03 -0.12325164971E+04 -0.14917690088E+04  0.19791550916E+04  0.50400001928E-02 0.  1.
       -1    1    3    3    0  502  0.41543132454E+03  0.12325164971E+04  0.13342093104E+04  0.18632752306E+04  0.50400001928E-02 0. -1.
</event>
<event>
 5   0  0.3701250E-08  0.3802480E+04  0.7818609E-02  0.8045623E-01
       -1   -1    0    0    0  501  0.00000000000E+00  0.00000000000E+00  0.16825677931E+04  0.16825677931E+04  0.50400001928E-02 0.  1.
        1   -1    0    0  501    0  0.00000000000E+00  0.00000000000E+00 -0.21483315140E+04  0.21483315140E+04  0.50400001928E-02 0. -1.
    10030    2    1    2    0    0  0.00000000000E+00  0.00000000000E+00 -0.46576372094E+03  0.38308993071E+04  0.38024799352E+04 0.  0.
        2    1    3    3  502    0  0.77647568889E+03 -0.31046699911E+03  0.14873364377E+04  0.17063041733E+04  0.25500000920E-02 0.  1.
       -2    1    3    3    0  502 -0.77647568889E+03  0.31046699911E+03 -0.19531001586E+04  0.21245951338E+04  0.25500000920E-02 0. -1.
</event>
<event>
 5   0  0.3701250E-08  0.3784988E+04  0.7818609E-02  0.8049384E-01
       -1   -1    0    0    0  501  0.00000000000E+00  0.00000000000E+00  0.28047369712E+04  0.28047369712E+04  0.50400001928E-02 0.  1.
        1   -1    0    0  501    0  0.00000000000E+00  0.00000000000E+00 -0.12769586397E+04  0.12769586397E+04  0.50400001928E-02 0. -1.
    10030    2    1    2    0    0  0.00000000000E+00  0.00000000000E+00  0.15277783315E+04  0.40816956110E+04  0.37849877715E+04 0.  0.
        3    1    3    3  502    0 -0.44593138890E+03 -0.36105233773E+03  0.27086792675E+04  0.27687825806E+04  0.10100000352E+00 0.  1.
       -3    1    3    3    0  502  0.44593138890E+03  0.36105233773E+03 -0.11809009361E+04  0.13129130303E+04  0.10100000352E+00 0. -1.
</event>
<event>
 5   0  0.3701250E-08  0.3737518E+04  0.7818609E-02  0.8059698E-01
       -1   -1    0    0    0  501  0.00000000000E+00  0.00000000000E+00  0.16907901401E+04  0.16907901401E+04  0.50400001928E-02 0. -1.
        1   -1    0    0  501    0  0.00000000000E+00  0.00000000000E+00 -0.20654608290E+04  0.20654608290E+04  0.50400001928E-02 0.  1.
    10030    2    1    2    0    0  0.00000000000E+00  0.00000000000E+00 -0.37467068890E+03  0.37562509691E+04  0.37375183234E+04 0.  0.
        1    1    3    3  502    0  0.11506329663E+04 -0.86085865291E+03  0.10133184327E+04  0.17583651753E+04  0.50400001928E-02 0. -1.
       -1    1    3    3    0  502 -0.11506329663E+04  0.86085865291E+03 -0.13879891216E+04  0.19978857938E+04  0.50400001928E-02 0.  1.
</event>
<event>
 5   0  0.3889225E-08  0.3797533E+04  0.7818609E-02  0.8046684E-01
       -1   -1    0    0    0  501  0.00000000000E+00  0.00000000000E+00  0.12192891203E+04  0.12192891203E+04  0.50400001928E-02 0.  1.
        1   -1    0    0  501    0  0.00000000000E+00  0.00000000000E+00 -0.29568985316E+04  0.29568985316E+04  0.50400001928E-02 0. -1.
    10030    2    1    2    0    0  0.00000000000E+00  0.00000000000E+00 -0.17376094113E+04  0.41761876519E+04  0.37975329936E+04 0.  0.
        5    1    3    3  502    0 -0.24870729535E+03 -0.60187961621E+03  0.10926234979E+04  0.12719915838E+04  0.46999998093E+01 0.  1.
       -5    1    3    3    0  502  0.24870729535E+03  0.60187961621E+03 -0.28302329092E+04  0.29041960680E+04  0.46999998093E+01 0. -1.
</event>
<event>
 5   0  0.1174870E-07  0.3797901E+04  0.7818609E-02  0.8046605E-01
       -2   -1    0    0    0  501  0.00000000000E+00  0.00000000000E+00  0.33864793845E+04  0.33864793845E+04  0.25500000920E-02 0.  1.
        2   -1    0    0  501    0  0.00000000000E+00  0.00000000000E+00 -0.10648266646E+04  0.10648266646E+04  0.25500000920E-02 0. -1.
    10030    2    1    2    0    0  0.00000000000E+00  0.00000000000E+00  0.23216527199E+04  0.44513060492E+04  0.37979012878E+04 0.  0.
        5    1    3    3  502    0 -0.14495291473E+04 -0.11457550387E+04  0.16745266833E+04  0.24935819739E+04  0.46999998093E+01 0.  1.
       -5    1    3    3    0  502  0.14495291473E+04  0.11457550387E+04  0.64712603659E+03  0.19577240753E+04  0.46999998093E+01 0. -1.
</event>
<event>
 5   0  0.3701250E-08  0.3798604E+04  0.7818609E-02  0.8046454E-01
       -3   -1    0    0    0  501  0.00000000000E+00  0.00000000000E+00  0.19699045049E+04  0.19699045075E+04  0.10100000352E+00 0. -1.
        3   -1    0    0  501    0  0.00000000000E+00  0.00000000000E+00 -0.18312300396E+04  0.18312300424E+04  0.10100000352E+00 0.  1.
    10030    2    1    2    0    0  0.00000000000E+00  0.00000000000E+00  0.13867446526E+03  0.38011345499E+04  0.37986041198E+04 0.  0.
        2    1    3    3  502    0  0.81110855597E+03  0.87053665439E+03  0.15507345497E+04  0.19546121866E+04  0.25500000920E-02 0. -1.
       -2    1    3    3    0  502 -0.81110855597E+03 -0.87053665439E+03 -0.14120600845E+04  0.18465223633E+04  0.25500000920E-02 0.  1.
</event>
<event>
 5   0  0.1174870E-07  0.3805203E+04  0.7818609E-02  0.8045039E-01
        2   -1    0    0  501    0  0.00000000000E+00  0.00000000000E+00  0.12757410175E+04  0.12757410175E+04  0.25500000920E-02 0.  1.
       -2   -1    0    0    0  501  0.00000000000E+00  0.00000000000E+00 -0.28374824778E+04  0.28374824778E+04  0.25500000920E-02 0. -1.
    10030    2    1    2    0    0  0.00000000000E+00  0.00000000000E+00 -0.15617414604E+04  0.41132234953E+04  0.38052031658E+04 0.  0.
        5    1    3    3  502    0  0.31115855186E+03 -0.14127474712E+04 -0.21167025832E+04  0.25638110261E+04  0.46999998093E+01 0. -1.
       -5    1    3    3    0  502 -0.31115855186E+03  0.14127474712E+04  0.55496112287E+03  0.15494124692E+04  0.46999998093E+01 0.  1.
</event>
<event>
 5   0  0.1193861E-07  0.3806536E+04  0.7818609E-02  0.8044754E-01
        2   -1    0    0  501    0  0.00000000000E+00  0.00000000000E+00  0.27251759414E+04  0.27251759414E+04  0.25500000920E-02 0.  1.
       -2   -1    0    0    0  501  0.00000000000E+00  0.00000000000E+00 -0.13292462250E+04  0.13292462250E+04  0.25500000920E-02 0. -1.
    10030    2    1    2    0    0  0.00000000000E+00  0.00000000000E+00  0.13959297163E+04  0.40544221664E+04  0.38065363955E+04 0.  0.
        3    1    3    3  502    0 -0.13676428551E+04  0.12628131905E+04  0.11203839960E+04  0.21726491760E+04  0.10100000352E+00 0.  1.
       -3    1    3    3    0  502  0.13676428551E+04 -0.12628131905E+04  0.27554572034E+03  0.18817729904E+04  0.10100000352E+00 0. -1.
</event>
<event>
 5   0  0.3701250E-08  0.3831702E+04  0.7818609E-02  0.8039386E-01
       -1   -1    0    0    0  501  0.00000000000E+00  0.00000000000E+00  0.18531042959E+04  0.18531042959E+04  0.50400001928E-02 0.  1.
        1   -1    0    0  501    0  0.00000000000E+00  0.00000000000E+00 -0.19807224157E+04  0.19807224157E+04  0.50400001928E-02 0. -1.
    10030    2    1    2    0    0  0.00000000000E+00  0.00000000000E+00 -0.12761811985E+03  0.38338267116E+04  0.38317020853E+04 0.  0.
        1    1    3    3  502    0 -0.36521720699E+03 -0.78860524522E+03 -0.17721524544E+04  0.19737796642E+04  0.50400001928E-02 0. -1.
       -1    1    3    3    0  502  0.36521720699E+03  0.78860524522E+03  0.16445343346E+04  0.18600470474E+04  0.50400001928E-02 0.  1.
</event>
<event>
 5   0  0.1174870E-07  0.3798613E+04  0.7818609E-02  0.8046452E-01
       -2   -1    0    0    0  501  0.00000000000E+00  0.00000000000E+00  0.19727602536E+04  0.19727602536E+04  0.25500000920E-02 0.  1.
        2   -1    0    0  501    0  0.00000000000E+00  0.00000000000E+00 -0.18285881808E+04  0.18285881808E+04  0.25500000920E-02 0. -1.
    10030    2    1    2    0    0  0.00000000000E+00  0.00000000000E+00  0.14417207277E+03  0.38013484344E+04  0.37986134751E+04 0.  0.
        5    1    3    3  502    0 -0.17629970200E+03 -0.12575527628E+04  0.14854851281E+04  0.19542795839E+04  0.46999998093E+01 0.  1.
       -5    1    3    3    0  502  0.17629970200E+03  0.12575527628E+04 -0.13413130553E+04  0.18470688505E+04  0.46999998093E+01 0. -1.
</event>
<event>
 5   0  0.3701250E-08  0.3844173E+04  0.7818609E-02  0.8036741E-01
       -1   -1    0    0    0  501  0.00000000000E+00  0.00000000000E+00  0.29822544619E+04  0.29822544619E+04  0.50400001928E-02 0.  1.
        1   -1    0    0  501    0  0.00000000000E+00  0.00000000000E+00 -0.12387996133E+04  0.12387996133E+04  0.50400001928E-02 0. -1.
    10030    2    1    2    0    0  0.00000000000E+00  0.00000000000E+00  0.17434548486E+04  0.42210540752E+04  0.38441725633E+04 0.  0.
        3    1    3    3  502    0  0.18485012924E+04  0.46122223053E+03  0.59235735990E+03  0.19951366435E+04  0.10100000352E+00 0.  1.
       -3    1    3    3    0  502 -0.18485012924E+04 -0.46122223053E+03  0.11510974887E+04  0.22259174317E+04  0.10100000352E+00 0. -1.
</event>
<event>
 5   0  0.7858367E-08  0.3828144E+04  0.7818609E-02  0.8040142E-01
        2   -1    0    0  501    0  0.00000000000E+00  0.00000000000E+00  0.19796247633E+04  0.19796247633E+04  0.25500000920E-02 0.  1.
       -2   -1    0    0    0  501  0.00000000000E+00  0.00000000000E+00 -0.18506896120E+04  0.18506896120E+04  0.25500000920E-02 0. -1.
    10030    2    1    2    0    0  0.00000000000E+00  0.00000000000E+00  0.12893515135E+03  0.38303143753E+04  0.38281436677E+04 0.  0.
        2    1    3    3  502    0  0.16092713334E+03  0.10582254715E+04 -0.15232315888E+04  0.18617124278E+04  0.25500000920E-02 0. -1.
       -2    1    3    3    0  502 -0.16092713334E+03 -0.10582254715E+04  0.16521667401E+04  0.19686019475E+04  0.25500000920E-02 0.  1.
</event>
<event>
 5   0  0.3701250E-08  0.3789988E+04  0.7818609E-02  0.8048307E-01
        1   -1    0    0  501    0  0.00000000000E+00  0.00000000000E+00  0.24275904919E+04  0.24275904920E+04  0.50400001928E-02 0.  1.
       -1   -1    0    0    0  501  0.00000000000E+00  0.00000000000E+00 -0.14792456812E+04  0.14792456812E+04  0.50400001928E-02 0. -1.
    10030    2    1    2    0    0  0.00000000000E+00  0.00000000000E+00  0.94834481075E+03  0.39068361732E+04  0.37899882591E+04 0.  0.
        2    1    3    3  502    0  0.60386483544E+03  0.54481665649E+03 -0.12901824084E+04  0.15251388709E+04  0.25500000920E-02 0. -1.
       -2    1    3    3    0  502 -0.60386483544E+03 -0.54481665649E+03  0.22385272191E+04  0.23816973022E+04  0.25500000920E-02 0.  1.
</event>
<event>
 5   0  0.1150235E-07  0.3830436E+04  0.7818609E-02  0.8039655E-01
        2   -1    0    0  501    0  0.00000000000E+00  0.00000000000E+00  0.24644505247E+04  0.24644505247E+04  0.25500000920E-02 0.  1.
       -2   -1    0    0    0  501  0.00000000000E+00  0.00000000000E+00 -0.14883889204E+04  0.14883889204E+04  0.25500000920E-02 0. -1.
    10030    2    1    2    0    0  0.00000000000E+00  0.00000000000E+00  0.97606160429E+03  0.39528394451E+04  0.38304364534E+04 0.  0.
        4    1    3    3  502    0 -0.39821511250E+03 -0.21910946062E+03  0.24079878510E+04  0.24505083829E+04  0.12699999809E+01 0.  1.
       -4    1    3    3    0  502  0.39821511250E+03  0.21910946062E+03 -0.14319262467E+04  0.15023310622E+04  0.12699999809E+01 0. -1.
</event>
<event>
 5   0  0.7858367E-08  0.3797450E+04  0.7818609E-02  0.8046702E-01
       -2   -1    0    0    0  501  0.00000000000E+00  0.00000000000E+00  0.19402423417E+04  0.19402423417E+04  0.25500000920E-02 0. -1.
        2   -1    0    0  501    0  0.00000000000E+00  0.00000000000E+00 -0.18580964183E+04  0.18580964183E+04  0.25500000920E-02 0.  1.
    10030    2    1    2    0    0  0.00000000000E+00  0.00000000000E+00  0.82145923382E+02  0.37983387601E+04  0.37974503793E+04 0.  0.
        2    1    3    3  502    0 -0.54357674721E+03  0.15801628769E+04  0.94281975120E+03  0.19186712800E+04  0.25500000920E-02 0. -1.
       -2    1    3    3    0  502  0.54357674721E+03 -0.15801628769E+04 -0.86067382782E+03  0.18796674800E+04  0.25500000920E-02 0.  1.
</event>
<event>
 5   0  0.3701250E-08  0.3804415E+04  0.7818609E-02  0.8045208E-01
       -1   -1    0    0    0  501  0.00000000000E+00  0.00000000000E+00  0.21868937040E+04  0.21868937040E+04  0.50400001928E-02 0.  1.
        1   -1    0    0  501    0  0.00000000000E+00  0.00000000000E+00 -0.16545815012E+04  0.16545815012E+04  0.50400001928E-02 0. -1.
    10030    2    1    2    0    0  0.00000000000E+00  0.00000000000E+00  0.53231220280E+03  0.38414752052E+04  0.38044152600E+04 0.  0.
        1    1    3    3  502    0 -0.49572768013E+03  0.28630928062E+03 -0.15655365821E+04  0.16669204321E+04  0.50400001928E-02 0. -1.
       -1    1    3    3    0  502  0.49572768013E+03 -0.28630928062E+03  0.20978487849E+04  0.21745547731E+04  0.50400001928E-02 0.  1.
</event>
<event>
 5   0  0.3889225E-08  0.3784378E+04  0.7818609E-02  0.8049516E-01
       -1   -1    0    0    0  501  0.00000000000E+00  0.00000000000E+00  0.12942752881E+04  0.12942752881E+04  0.50400001928E-02 0.  1.
        1   -1    0    0  501    0  0.00000000000E+00  0.00000000000E+00 -0.27663200769E+04  0.27663200770E+04  0.50400001928E-02 0. -1.
    10030    2    1    2    0    0  0.00000000000E+00  0.00000000000E+00 -0.14720447889E+04  0.40605953650E+04  0.37843782657E+04 0.  0.
        5    1    3    3  502    0 -0.16971422576E+04 -0.74479063832E+03 -0.32694384478E+03  0.18819987526E+04  0.46999998093E+01 0.  1.
       -5    1    3    3    0  502  0.16971422576E+04  0.74479063832E+03 -0.11451009441E+04  0.21785966124E+04  0.46999998093E+01 0. -1.
</event>
<event>
 5   0  0.3701250E-08  0.3788757E+04  0.7818609E-02  0.8048572E-01
       -1   -1    0    0    0  501  0.00000000000E+00  0.00000000000E+00  0.25478193727E+04  0.25478193727E+04  0.50400001928E-02 0.  1.
        1   -1    0    0  501    0  0.00000000000E+00  0.00000000000E+00 -0.14085261480E+04  0.14085261480E+04  0.50400001928E-02 0. -1.
    10030    2    1    2    0    0  0.00000000000E+00  0.00000000000E+00  0.11392932247E+04  0.39563455208E+04  0.37887571614E+04 0.  0.
        1    1    3    3  502    0 -0.93655904658E+03  0.92915451307E+03  0.19892657244E+04  0.23869748803E+04  0.50400001928E-02 0.  1.
       -1    1    3    3    0  502  0.93655904658E+03 -0.92915451307E+03 -0.84997249970E+03  0.15693706405E+04  0.50400001928E-02 0. -1.
</event>
<event>
 5   0  0.1193861E-07  0.3791532E+04  0.7818609E-02  0.8047975E-01
        2   -1    0    0  501    0  0.00000000000E+00  0.00000000000E+00  0.22640769659E+04  0.22640769659E+04  0.25500000920E-02 0. -1.
       -2   -1    0    0    0  501  0.00000000000E+00  0.00000000000E+00 -0.15873702181E+04  0.15873702181E+04  0.25500000920E-02 0.  1.
    10030    2    1    2    0    0  0.00000000000E+00  0.00000000000E+00  0.67670674784E+03  0.38514471840E+04  0.37915317997E+04 0.  0.
        3    1    3    3  502    0 -0.14753042300E+04  0.11343054155E+03  0.15422139384E+04  0.21372442305E+04  0.10100000352E+00 0. -1.
       -3    1    3    3    0  502  0.14753042300E+04 -0.11343054155E+03 -0.86550719051E+03  0.17142029535E+04  0.10100000352E+00 0.  1.
</event>
<event>
 5   0  0.1193861E-07  0.3806366E+04  0.7818609E-02  0.8044790E-01
        2   -1    0    0  501    0  0.00000000000E+00  0.00000000000E+00  0.19056788218E+04  0.19056788218E+04  0.25500000920E-02 0. -1.
       -2   -1    0    0    0  501  0.00000000000E+00  0.00000000000E+00 -0.19006906896E+04  0.19006906896E+04  0.25500000920E-02 0.  1.
    10030    2    1    2    0    0  0.00000000000E+00  0.00000000000E+00  0.49881322529E+01  0.38063695114E+04  0.38063662430E+04 0.  0.
        3    1    3    3  502    0 -0.78029740977E+03  0.15878655355E+04  0.70386830435E+03  0.19041038855E+04  0.10100000352E+00 0. -1.
       -3    1    3    3    0  502  0.78029740977E+03 -0.15878655355E+04 -0.69888017210E+03  0.19022656260E+04  0.10100000352E+00 0.  1.
</event>
<event>
 5   0  0.1193861E-07  0.3818188E+04  0.7818609E-02  0.8042263E-01
       -2   -1    0    0    0  501  0.00000000000E+00  0.00000000000E+00  0.16314487020E+04  0.16314487020E+04  0.25500000920E-02 0.  1.
        2   -1    0    0  501    0  0.00000000000E+00  0.00000000000E+00 -0.22339893593E+04  0.22339893593E+04  0.25500000920E-02 0. -1.
    10030    2    1    2    0    0  0.00000000000E+00  0.00000000000E+00 -0.60254065728E+03  0.38654380613E+04  0.38181875493E+04 0.  0.
        3    1    3    3  502    0  0.21867118172E+03 -0.39810409804E+02  0.16183053044E+04  0.16334974818E+04  0.10100000352E+00 0.  1.
       -3    1    3    3    0  502 -0.21867118172E+03  0.39810409804E+02 -0.22208459617E+04  0.22319405795E+04  0.10100000352E+00 0. -1.
</event>
<event>
 5   0  0.3701250E-08  0.3773643E+04  0.7818609E-02  0.8051835E-01
       -1   -1    0    0    0  501  0.00000000000E+00  0.00000000000E+00  0.28030738995E+04  0.28030738996E+04  0.50400001928E-02 0. -1.
        1   -1    0    0  501    0  0.00000000000E+00  0.00000000000E+00 -0.12700681225E+04  0.12700681225E+04  0.50400001928E-02 0.  1.
    10030    2    1    2    0    0  0.00000000000E+00  0.00000000000E+00  0.15330057770E+04  0.40731420221E+04  0.37736426990E+04 0.  0.
        2    1    3    3  502    0 -0.37346540473E+02  0.79790720168E+03  0.26115699757E+04  0.27309976940E+04  0.25500000920E-02 0. -1.
       -2    1    3    3    0  502  0.37346540473E+02 -0.79790720168E+03 -0.10785641987E+04  0.13421443280E+04  0.25500000920E-02 0.  1.
</event>
<event>
 5   0  0.1150235E-07  0.3794828E+04  0.7818609E-02  0.8047266E-01
        2   -1    0    0  501    0  0.00000000000E+00  0.00000000000E+00  0.26216755374E+04  0.26216755374E+04  0.25500000920E-02 0. -1.
       -2   -1    0    0    0  501  0.00000000000E+00  0.00000000000E+00 -0.13732360264E+04  0.13732360264E+04  0.25500000920E-02 0.  1.
    10030    2    1    2    0    0  0.00000000000E+00  0.00000000000E+00  0.12484395110E+04  0.39949115638E+04  0.37948276891E+04 0.  0.
        4    1    3    3  502    0  0.11710855640E+04 -0.90676392193E+03 -0.62427685177E+03  0.16072913267E+04  0.12699999809E+01 0.  1.
       -4    1    3    3    0  502 -0.11710855640E+04  0.90676392193E+03  0.18727163628E+04  0.23876202371E+04  0.12699999809E+01 0. -1.
</event>
<event>
 5   0  0.3701250E-08  0.3804072E+04  0.7818609E-02  0.8045282E-01
        1   -1    0    0  501    0  0.00000000000E+00  0.00000000000E+00  0.21765906004E+04  0.21765906004E+04  0.50400001928E-02 0. -1.
       -1   -1    0    0    0  501  0.00000000000E+00  0.00000000000E+00 -0.16621137204E+04  0.16621137204E+04  0.50400001928E-02 0.  1.
    10030    2    1    2    0    0  0.00000000000E+00  0.00000000000E+00  0.51447687999E+03  0.38387043208E+04  0.38040720817E+04 0.  0.
        1    1    3    3  502    0 -0.13807441948E+04 -0.32531348521E+03 -0.10213634981E+04  0.17479893565E+04  0.50400001928E-02 0.  1.
       -1    1    3    3    0  502  0.13807441948E+04  0.32531348521E+03  0.15358403780E+04  0.20907149643E+04  0.50400001928E-02 0. -1.
</event>
<event>
 5   0  0.1143283E-07  0.3799728E+04  0.7818609E-02  0.8046213E-01
       -2   -1    0    0    0  501  0.00000000000E+00  0.00000000000E+00  0.17005146633E+04  0.17005146633E+04  0.25500000920E-02 0.  1.
        2   -1    0    0  501    0  0.00000000000E+00  0.00000000000E+00 -0.21225831871E+04  0.21225831871E+04  0.25500000920E-02 0. -1.
    10030    2    1    2    0    0  0.00000000000E+00  0.00000000000E+00 -0.42206852382E+03  0.38230978504E+04  0.37997283238E+04 0.  0.
        1    1    3    3  502    0  0.13075314607E+04  0.24798815965E+03  0.11531613079E+04  0.17609422620E+04  0.50400001928E-02 0.  1.
       -1    1    3    3    0  502 -0.13075314607E+04 -0.24798815965E+03 -0.15752298317E+04  0.20621555884E+04  0.50400001928E-02 0. -1.
</event>
<event>
 5   0  0.3701250E-08  0.3728818E+04  0.7818609E-02  0.8061605E-01
       -1   -1    0    0    0  501  0.00000000000E+00  0.00000000000E+00  0.23914781528E+04  0.23914781528E+04  0.50400001928E-02 0.  1.
        1   -1    0    0  501    0  0.00000000000E+00  0.00000000000E+00 -0.14535029730E+04  0.14535029730E+04  0.50400001928E-02 0. -1.
    10030    2    1    2    0    0  0.00000000000E+00  0.00000000000E+00  0.93797517982E+03  0.38449811259E+04  0.37288178315E+04 0.  0.
        1    1    3    3  502    0 -0.57461478546E+02 -0.59110170083E+03  0.22913347620E+04  0.23670483801E+04  0.50400001928E-02 0.  1.
       -1    1    3    3    0  502  0.57461478546E+02  0.59110170083E+03 -0.13533595822E+04  0.14779327457E+04  0.50400001928E-02 0. -1.
</event>
<event>
 5   0  0.1193861E-07  0.3807370E+04  0.7818609E-02  0.8044575E-01
        2   -1    0    0  501    0  0.00000000000E+00  0.00000000000E+00  0.28379586569E+04  0.28379586569E+04  0.25500000920E-02 0. -1.
       -2   -1    0    0    0  501  0.00000000000E+00  0.00000000000E+00 -0.12769797911E+04  0.12769797911E+04  0.25500000920E-02 0.  1.
    10030    2    1    2    0    0  0.00000000000E+00  0.00000000000E+00  0.15609788657E+04  0.41149384480E+04  0.38073696184E+04 0.  0.
        3    1    3    3  502    0  0.13284370602E+04  0.80856009334E+03  0.19671381169E+04  0.25076177597E+04  0.10100000352E+00 0. -1.
       -3    1    3    3    0  502 -0.13284370602E+04 -0.80856009334E+03 -0.40615925120E+03  0.16073206883E+04  0.10100000352E+00 0.  1.
</event>
<event>
 5   0  0.3889225E-08  0.3763214E+04  0.7818609E-02  0.8054096E-01
        1   -1    0    0  501    0  0.00000000000E+00  0.00000000000E+00  0.11301052999E+04  0.11301052999E+04  0.50400001928E-02 0. -1.
       -1   -1    0    0    0  501  0.00000000000E+00  0.00000000000E+00 -0.31328443989E+04  0.31328443989E+04  0.50400001928E-02 0.  1.
    10030    2    1    2    0    0  0.00000000000E+00  0.00000000000E+00 -0.20027390990E+04  0.42629496989E+04  0.37632135518E+04 0.  0.
        5    1    3    3  502    0  0.14065515618E+04 -0.72465814400E+03  0.15213916615E+03  0.15895550125E+04  0.46999998093E+01 0. -1.
       -5    1    3    3    0  502 -0.14065515618E+04  0.72465814400E+03 -0.21548782651E+04  0.26733946864E+04  0.46999998093E+01 0.  1.
</event>
<event>
 5   0  0.3701250E-08  0.3817280E+04  0.7818609E-02  0.8042457E-01
       -1   -1    0    0    0  501  0.00000000000E+00  0.00000000000E+00  0.18266446659E+04  0.18266446659E+04  0.50400001928E-02 0.  1.
        1   -1    0    0  501    0  0.00000000000E+00  0.00000000000E+00 -0.19943161504E+04  0.19943161504E+04  0.50400001928E-02 0. -1.
    10030    2    1    2    0    0  0.00000000000E+00  0.00000000000E+00 -0.16767148449E+03  0.38209608163E+04  0.38172801617E+04 0.  0.
        2    1    3    3  502    0  0.11869486569E+04 -0.29100822151E+03 -0.15513237141E+04  0.19748767468E+04  0.25500000920E-02 0. -1.
       -2    1    3    3    0  502 -0.11869486569E+04  0.29100822151E+03  0.13836522296E+04  0.18460840695E+04  0.25500000920E-02 0.  1.
</event>
<event>
 5   0  0.7858367E-08  0.3794966E+04  0.7818609E-02  0.8047236E-01
        2   -1    0    0  501    0  0.00000000000E+00  0.00000000000E+00  0.22349118632E+04  0.22349118632E+04  0.25500000920E-02 0.  1.
       -2   -1    0    0    0  501  0.00000000000E+00  0.00000000000E+00 -0.16109992085E+04  0.16109992085E+04  0.25500000920E-02 0. -1.
    10030    2    1    2    0    0  0.00000000000E+00  0.00000000000E+00  0.62391265470E+03  0.38459110717E+04  0.37949657404E+04 0.  0.
        2    1    3    3  502    0  0.14159215900E+04  0.91935054962E+03  0.11898427440E+04  0.20653728810E+04  0.25500000920E-02 0.  1.
       -2    1    3    3    0  502 -0.14159215900E+04 -0.91935054962E+03 -0.56593008933E+03  0.17805381906E+04  0.25500000920E-02 0. -1.
</event>
<event>
 5   0  0.1143283E-07  0.3818427E+04  0.7818609E-02  0.8042212E-01
       -2   -1    0    0    0  501  0.00000000000E+00  0.00000000000E+00  0.14571455438E+04  0.14571455438E+04  0.25500000920E-02 0.  1.
        2   -1    0    0  501    0  0.00000000000E+00  0.00000000000E+00 -0.25015315612E+04  0.25015315612E+04  0.25500000920E-02 0. -1.
    10030    2    1    2    0    0  0.00000000000E+00  0.00000000000E+00 -0.10443860174E+04  0.39586771050E+04  0.38184266744E+04 0.  0.
        1    1    3    3  502    0 -0.23716817911E+03 -0.83881930163E+03 -0.22831784624E+04  0.24439252151E+04  0.50400001928E-02 0. -1.
       -1    1    3    3    0  502  0.23716817911E+03  0.83881930163E+03  0.12387924450E+04  0.15147518899E+04  0.50400001928E-02 0.  1.
</event>
<event>
 5   0  0.3701250E-08  0.3799932E+04  0.7818609E-02  0.8046169E-01
        1   -1    0    0  501    0  0.00000000000E+00  0.00000000000E+00  0.23317516418E+04  0.23317516418E+04  0.50400001928E-02 0.  1.
       -1   -1    0    0    0  501  0.00000000000E+00  0.00000000000E+00 -0.15481370531E+04  0.15481370531E+04  0.50400001928E-02 0. -1.
    10030    2    1    2    0    0  0.00000000000E+00  0.00000000000E+00  0.78361458865E+03  0.38798886949E+04  0.37999321654E+04 0.  0.
        3    1    3    3  502    0  0.97228788198E+03 -0.13347102638E+04 -0.56768708989E+03  0.17461568818E+04  0.10100000352E+00 0. -1.
       -3    1    3    3    0  502 -0.97228788198E+03  0.13347102638E+04  0.13513016785E+04  0.21337318131E+04  0.10100000352E+00 0.  1.
</event>
<event>
 5   0  0.1174870E-07  0.3803788E+04  0.7818609E-02  0.8045342E-01
       -2   -1    0    0    0  501  0.00000000000E+00  0.00000000000E+00  0.17280691904E+04  0.17280691904E+04  0.25500000920E-02 0. -1.
        2   -1    0    0  501    0  0.00000000000E+00  0.00000000000E+00 -0.20932037383E+04  0.20932037383E+04  0.25500000920E-02 0.  1.
    10030    2    1    2    0    0  0.00000000000E+00  0.00000000000E+00 -0.36513454785E+03  0.38212729287E+04  0.38037880537E+04 0.  0.
        5    1    3    3  502    0  0.85037660034E+03  0.16827804929E+04  0.68156092956E+02  0.18866790646E+04  0.46999998093E+01 0. -1.
       -5    1    3    3    0  502 -0.85037660034E+03 -0.16827804929E+04 -0.43329064081E+03  0.19345938641E+04  0.46999998093E+01 0.  1.
</event>
<event>
 5   0  0.1150235E-07  0.3665944E+04  0.7818609E-02  0.8075551E-01
        2   -1    0    0  501    0  0.00000000000E+00  0.00000000000E+00  0.20938059111E+04  0.20938059111E+04  0.25500000920E-02 0. -1.
       -2   -1    0    0    0  501  0.00000000000E+00  0.00000000000E+00 -0.16046311461E+04  0.16046311462E+04  0.25500000920E-02 0.  1.
    10030    2    1    2    0    0  0.00000000000E+00  0.00000000000E+00  0.48917476498E+03  0.36984370573E+04  0.36659439052E+04 0.  0.
        4    1    3    3  502    0 -0.63113556729E+03 -0.12491389793E+04  0.14387614760E+04  0.20071662840E+04  0.12699999809E+01 0. -1.
       -4    1    3    3    0  502  0.63113556729E+03  0.12491389793E+04 -0.94958671102E+03  0.16912707733E+04  0.12699999809E+01 0.  1.
</event>
<event>
 5   0  0.7858367E-08  0.3815343E+04  0.7818609E-02  0.8042870E-01
       -2   -1    0    0    0  501  0.00000000000E+00  0.00000000000E+00  0.24425071705E+04  0.24425071705E+04  0.25500000920E-02 0. -1.
        2   -1    0    0  501    0  0.00000000000E+00  0.00000000000E+00 -0.14899484876E+04  0.14899484876E+04  0.25500000920E-02 0.  1.
    10030    2    1    2    0    0  0.00000000000E+00  0.00000000000E+00  0.95255868292E+03  0.39324556581E+04  0.38153426397E+04 0.  0.
        2    1    3    3  502    0 -0.15437511011E+04  0.79619181440E+03  0.12892366090E+04  0.21631504574E+04  0.25500000920E-02 0.  1.
       -2    1    3    3    0  502  0.15437511011E+04 -0.79619181440E+03 -0.33667792606E+03  0.17693052007E+04  0.25500000920E-02 0. -1.
</event>
<event>
 5   0  0.1174870E-07  0.3803607E+04  0.7818609E-02  0.8045381E-01
        2   -1    0    0  501    0  0.00000000000E+00  0.00000000000E+00  0.26155841500E+04  0.26155841500E+04  0.25500000920E-02 0.  1.
       -2   -1    0    0    0  501  0.00000000000E+00  0.00000000000E+00 -0.13828103004E+04  0.13828103004E+04  0.25500000920E-02 0. -1.
    10030    2    1    2    0    0  0.00000000000E+00  0.00000000000E+00  0.12327738495E+04  0.39983944504E+04  0.38036070797E+04 0.  0.
        5    1    3    3  502    0 -0.19012898601E+02 -0.18888852624E+04  0.84809636462E+03  0.20706372349E+04  0.46999998093E+01 0.  1.
       -5    1    3    3    0  502  0.19012898601E+02  0.18888852624E+04  0.38467748492E+03  0.19277572156E+04  0.46999998093E+01 0. -1.
</event>
<event>
 5   0  0.7858367E-08  0.3743636E+04  0.7818609E-02  0.8058360E-01
        2   -1    0    0  501    0  0.00000000000E+00  0.00000000000E+00  0.20117897690E+04  0.20117897690E+04  0.25500000920E-02 0. -1.
       -2   -1    0    0    0  501  0.00000000000E+00  0.00000000000E+00 -0.17415850219E+04  0.17415850220E+04  0.25500000920E-02 0.  1.
    10030    2    1    2    0    0  0.00000000000E+00  0.00000000000E+00  0.27020474709E+03  0.37533747910E+04  0.37436361624E+04 0.  0.
        2    1    3    3  502    0 -0.17982845604E+04  0.51940114881E+03  0.12517634450E+03  0.18759728225E+04  0.25500000920E-02 0.  1.
       -2    1    3    3    0  502  0.17982845604E+04 -0.51940114881E+03  0.14502840258E+03  0.18774019685E+04  0.25500000920E-02 0. -1.
</event>
<event>
 5   0  0.1174870E-07  0.3808954E+04  0.7818609E-02  0.8044236E-01
        2   -1    0    0  501    0  0.00000000000E+00  0.00000000000E+00  0.21028743103E+04  0.21028743103E+04  0.25500000920E-02 0.  1.
       -2   -1    0    0    0  501  0.00000000000E+00  0.00000000000E+00 -0.17247975306E+04  0.17247975306E+04  0.25500000920E-02 0. -1.
    10030    2    1    2    0    0  0.00000000000E+00  0.00000000000E+00  0.37807677975E+03  0.38276718409E+04  0.38089538814E+04 0.  0.
        5    1    3    3  502    0  0.17225822658E+04 -0.79797283895E+03  0.36768143127E+02  0.18987954868E+04  0.46999998093E+01 0.  1.
       -5    1    3    3    0  502 -0.17225822658E+04  0.79797283895E+03  0.34130863662E+03  0.19288763542E+04  0.46999998093E+01 0. -1.
</event>
<event>
 5   0  0.1150235E-07  0.3795195E+04  0.7818609E-02  0.8047187E-01
        2   -1    0    0  501    0  0.00000000000E+00  0.00000000000E+00  0.16946734884E+04  0.16946734884E+04  0.25500000920E-02 0.  1.
       -2   -1    0    0    0  501  0.00000000000E+00  0.00000000000E+00 -0.21248205200E+04  0.21248205200E+04  0.25500000920E-02 0. -1.
    10030    2    1    2    0    0  0.00000000000E+00  0.00000000000E+00 -0.43014703160E+03  0.38194940084E+04  0.37951953852E+04 0.  0.
        4    1    3    3  502    0 -0.89127164203E+03  0.65533092174E+03 -0.17667136397E+04  0.20844909342E+04  0.12699999809E+01 0. -1.
       -4    1    3    3    0  502  0.89127164203E+03 -0.65533092174E+03  0.13365666081E+04  0.17350030743E+04  0.12699999809E+01 0.  1.
</event>
<event>
 5   0  0.7858367E-08  0.3798574E+04  0.7818609E-02  0.8046461E-01
        2   -1    0    0  501    0  0.00000000000E+00  0.00000000000E+00  0.15613236011E+04  0.15613236011E+04  0.25500000920E-02 0.  1.
       -2   -1    0    0    0  501  0.00000000000E+00  0.00000000000E+00 -0.23104059997E+04  0.23104059997E+04  0.25500000920E-02 0. -1.
    10030    2    1    2    0    0  0.00000000000E+00  0.00000000000E+00 -0.74908239860E+03  0.38717296008E+04  0.37985741617E+04 0.  0.
        2    1    3    3  502    0  0.12183349009E+04 -0.56553044571E+03  0.99412500367E+03  0.16710622786E+04  0.25500000920E-02 0.  1.
       -2    1    3    3    0  502 -0.12183349009E+04  0.56553044571E+03 -0.17432074023E+04  0.22006673223E+04  0.25500000920E-02 0. -1.
</event>
<event>
 5   0  0.1174870E-07  0.3793812E+04  0.7818609E-02  0.8047484E-01
       -2   -1    0    0    0  501  0.00000000000E+00  0.00000000000E+00  0.14704973660E+04  0.14704973660E+04  0.25500000920E-02 0.  1.
        2   -1    0    0  501    0  0.00000000000E+00  0.00000000000E+00 -0.24469632869E+04  0.24469632869E+04  0.25500000920E-02 0. -1.
    10030    2    1    2    0    0  0.00000000000E+00  0.00000000000E+00 -0.97646592089E+03  0.39174606529E+04  0.37938123666E+04 0.  0.
        5    1    3    3  502    0  0.14475425342E+03 -0.16368210458E+03  0.14574526092E+04  0.14737489010E+04  0.46999998093E+01 0.  1.
       -5    1    3    3    0  502 -0.14475425342E+03  0.16368210458E+03 -0.24339185301E+04  0.24437117519E+04  0.46999998093E+01 0. -1.
</event>
<event>
 5   0  0.3701250E-08  0.3818054E+04  0.7818609E-02  0.8042292E-01
        1   -1    0    0  501    0  0.00000000000E+00  0.00000000000E+00  0.17664096922E+04  0.17664096922E+04  0.50400001928E-02 0.  1.
       -1   -1    0    0    0  501  0.00000000000E+00  0.00000000000E+00 -0.20631592155E+04  0.20631592155E+04  0.50400001928E-02 0. -1.
    10030    2    1    2    0    0  0.00000000000E+00  0.00000000000E+00 -0.29674952329E+03  0.38295689076E+04  0.38180541823E+04 0.  0.
        4    1    3    3  502    0  0.52737582604E+03 -0.13481422514E+04  0.10998743604E+04  0.18180588586E+04  0.12699999809E+01 0.  1.
       -4    1    3    3    0  502 -0.52737582604E+03  0.13481422514E+04 -0.13966238837E+04  0.20115100490E+04  0.12699999809E+01 0. -1.
</event>
<event>
 5   0  0.1193861E-07  0.3804564E+04  0.7818609E-02  0.8045176E-01
        2   -1    0    0  501    0  0.00000000000E+00  0.00000000000E+00  0.23944944435E+04  0.23944944435E+04  0.25500000920E-02 0.  1.
       -2   -1    0    0    0  501  0.00000000000E+00  0.00000000000E+00 -0.15112490470E+04  0.15112490470E+04  0.25500000920E-02 0. -1.
    10030    2    1    2    0    0  0.00000000000E+00  0.00000000000E+00  0.88324539655E+03  0.39057434905E+04  0.38045643355E+04 0.  0.
        3    1    3    3  502    0 -0.13404103392E+03 -0.44472520437E+02  0.23891052534E+04  0.23932757313E+04  0.10100000352E+00 0.  1.
       -3    1    3    3    0  502  0.13404103392E+03  0.44472520437E+02 -0.15058598569E+04  0.15124677592E+04  0.10100000352E+00 0. -1.
</event>
<event>
 5   0  0.3701250E-08  0.3809393E+04  0.7818609E-02  0.8044142E-01
        1   -1    0    0  501    0  0.00000000000E+00  0.00000000000E+00  0.15467012916E+04  0.15467012916E+04  0.50400001928E-02 0.  1.
       -1   -1    0    0    0  501  0.00000000000E+00  0.00000000000E+00 -0.23455522270E+04  0.23455522270E+04  0.50400001928E-02 0. -1.
    10030    2    1    2    0    0  0.00000000000E+00  0.00000000000E+00 -0.79885093537E+03  0.38922535186E+04  0.38093929485E+04 0.  0.
        4    1    3    3  502    0 -0.68949927092E+03  0.85862501438E+03  0.11884768193E+04  0.16202237262E+04  0.12699999809E+01 0.  1.
       -4    1    3    3    0  502  0.68949927092E+03 -0.85862501438E+03 -0.19873277547E+04  0.22720297924E+04  0.12699999809E+01 0. -1.
</event>
<event>
 5   0  0.7858367E-08  0.3804018E+04  0.7818609E-02  0.8045293E-01
       -2   -1    0    0    0  501  0.00000000000E+00  0.00000000000E+00  0.14318472839E+04  0.14318472839E+04  0.25500000920E-02 0.  1.
        2   -1    0    0  501    0  0.00000000000E+00  0.00000000000E+00 -0.25265530071E+04  0.25265530071E+04  0.25500000920E-02 0. -1.
    10030    2    1    2    0    0  0.00000000000E+00  0.00000000000E+00 -0.10947057232E+04  0.39584002910E+04  0.38040179078E+04 0.  0.
        2    1    3    3  502    0  0.80792799644E+03 -0.88628490710E+03 -0.20835416172E+04  0.24040370743E+04  0.25500000920E-02 0. -1.
       -2    1    3    3    0  502 -0.80792799644E+03  0.88628490710E+03  0.98883589398E+03  0.15543632166E+04  0.25500000920E-02 0.  1.
</event>
<event>
 5   0  0.1174870E-07  0.3764441E+04  0.7818609E-02  0.8053829E-01
       -2   -1    0    0    0  501  0.00000000000E+00  0.00000000000E+00  0.22159404096E+04  0.22159404096E+04  0.25500000920E-02 0.  1.
        2   -1    0    0  501    0  0.00000000000E+00  0.00000000000E+00 -0.15987586296E+04  0.15987586296E+04  0.25500000920E-02 0. -1.
    10030    2    1    2    0    0  0.00000000000E+00  0.00000000000E+00  0.61718177998E+03  0.38146990391E+04  0.37644409160E+04 0.  0.
        5    1    3    3  502    0  0.86087199687E+03 -0.67496247778E+03  0.18607243384E+04  0.21584698503E+04  0.46999998093E+01 0.  1.
       -5    1    3    3    0  502 -0.86087199687E+03  0.67496247778E+03 -0.12435425584E+04  0.16562291888E+04  0.46999998093E+01 0. -1.
</event>
<event>
 5   0  0.3701250E-08  0.3797766E+04  0.7818609E-02  0.8046635E-01
       -1   -1    0    0    0  501  0.00000000000E+00  0.00000000000E+00  0.18263786357E+04  0.18263786357E+04  0.50400001928E-02 0.  1.
        1   -1    0    0  501    0  0.00000000000E+00  0.00000000000E+00 -0.19742654528E+04  0.19742654528E+04  0.50400001928E-02 0. -1.
    10030    2    1    2    0    0  0.00000000000E+00  0.00000000000E+00 -0.14788681716E+03  0.38006440885E+04  0.37977657875E+04 0.  0.
        1    1    3    3  502    0 -0.14676265272E+04 -0.94841323246E+03 -0.81770312091E+03  0.19292624696E+04  0.50400001928E-02 0. -1.
       -1    1    3    3    0  502  0.14676265272E+04  0.94841323246E+03  0.66981630375E+03  0.18713816189E+04  0.50400001928E-02 0.  1.
</event>
<event>
 5   0  0.3701250E-08  0.3791986E+04  0.7818609E-02  0.8047877E-01
       -1   -1    0    0    0  501  0.00000000000E+00  0.00000000000E+00  0.12426410511E+04  0.12426410511E+04  0.50400001928E-02 0. -1.
        1   -1    0    0  501    0  0.00000000000E+00  0.00000000000E+00 -0.28928626075E+04  0.28928626075E+04  0.50400001928E-02 0.  1.
    10030    2    1    2    0    0  0.00000000000E+00  0.00000000000E+00 -0.16502215564E+04  0.41355036586E+04  0.37919861979E+04 0.  0.
        4    1    3    3  502    0  0.29375325899E+03  0.74339883228E+02 -0.28662842786E+04  0.28822568543E+04  0.12699999809E+01 0.  1.
       -4    1    3    3    0  502 -0.29375325899E+03 -0.74339883228E+02  0.12160627222E+04  0.12532468043E+04  0.12699999809E+01 0. -1.
</event>
<event>
 5   0  0.3701250E-08  0.3597936E+04  0.7818609E-02  0.8090965E-01
        1   -1    0    0  501    0  0.00000000000E+00  0.00000000000E+00  0.14606037531E+04  0.14606037531E+04  0.50400001928E-02 0.  1.
       -1   -1    0    0    0  501  0.00000000000E+00  0.00000000000E+00 -0.22157178254E+04  0.22157178254E+04  0.50400001928E-02 0. -1.
    10030    2    1    2    0    0  0.00000000000E+00  0.00000000000E+00 -0.75511407225E+03  0.36763215785E+04  0.35979359481E+04 0.  0.
        3    1    3    3  502    0 -0.11221423597E+04  0.10501324503E+04  0.57785636567E+03  0.16419194951E+04  0.10100000352E+00 0.  1.
       -3    1    3    3    0  502  0.11221423597E+04 -0.10501324503E+04 -0.13329704379E+04  0.20344020835E+04  0.10100000352E+00 0. -1.
</event>
<event>
 5   0  0.3889225E-08  0.3808228E+04  0.7818609E-02  0.8044392E-01
        1   -1    0    0  501    0  0.00000000000E+00  0.00000000000E+00  0.13068331145E+04  0.13068331145E+04  0.50400001928E-02 0. -1.
       -1   -1    0    0    0  501  0.00000000000E+00  0.00000000000E+00 -0.27743784788E+04  0.27743784788E+04  0.50400001928E-02 0.  1.
    10030    2    1    2    0    0  0.00000000000E+00  0.00000000000E+00 -0.14675453643E+04  0.40812115933E+04  0.38082277601E+04 0.  0.
        5    1    3    3  502    0  0.15284426078E+04  0.75681841032E+03 -0.16410497817E+04  0.23668496757E+04  0.46999998093E+01 0.  1.
       -5    1    3    3    0  502 -0.15284426078E+04 -0.75681841032E+03  0.17350441741E+03  0.17143619176E+04  0.46999998093E+01 0. -1.
</event>
<event>
 5   0  0.3889225E-08  0.3848383E+04  0.7818609E-02  0.8035851E-01
        1   -1    0    0  501    0  0.00000000000E+00  0.00000000000E+00  0.26684742373E+04  0.26684742373E+04  0.50400001928E-02 0.  1.
       -1   -1    0    0    0  501  0.00000000000E+00  0.00000000000E+00 -0.13875019554E+04  0.13875019554E+04  0.50400001928E-02 0. -1.
    10030    2    1    2    0    0  0.00000000000E+00  0.00000000000E+00  0.12809722819E+04  0.40559761927E+04  0.38483831526E+04 0.  0.
        5    1    3    3  502    0  0.30739070832E+03  0.60143399766E+03  0.25394208342E+04  0.26277161499E+04  0.46999998093E+01 0.  1.
       -5    1    3    3    0  502 -0.30739070832E+03 -0.60143399766E+03 -0.12584485523E+04  0.14282600428E+04  0.46999998093E+01 0. -1.
</event>
<event>
 5   0  0.3701250E-08  0.3792921E+04  0.7818609E-02  0.8047676E-01
        1   -1    0    0  501    0  0.00000000000E+00  0.00000000000E+00  0.20978710761E+04  0.20978710761E+04  0.50400001928E-02 0.  1.
       -1   -1    0    0    0  501  0.00000000000E+00  0.00000000000E+00 -0.17143867139E+04  0.17143867139E+04  0.50400001928E-02 0. -1.
    10030    2    1    2    0    0  0.00000000000E+00  0.00000000000E+00  0.38348436214E+03  0.38122577900E+04  0.37929209327E+04 0.  0.
        1    1    3    3  502    0 -0.16287984113E+04 -0.69863320923E+03  0.87008266880E+03  0.19743648286E+04  0.50400001928E-02 0.  1.
       -1    1    3    3    0  502  0.16287984113E+04  0.69863320923E+03 -0.48659830666E+03  0.18378929615E+04  0.50400001928E-02 0. -1.
</event>
<event>
 5   0  0.1193861E-07  0.3733094E+04  0.7818609E-02  0.8060667E-01
        2   -1    0    0  501    0  0.00000000000E+00  0.00000000000E+00  0.22785311722E+04  0.22785311722E+04  0.25500000920E-02 0.  1.
       -2   -1    0    0    0  501  0.00000000000E+00  0.00000000000E+00 -0.15290540441E+04  0.15290540441E+04  0.25500000920E-02 0. -1.
    10030    2    1    2    0    0  0.00000000000E+00  0.00000000000E+00  0.74947712810E+03  0.38075852164E+04  0.37330937859E+04 0.  0.
        3    1    3    3  502    0 -0.24298209479E+03  0.15215665277E+04  0.14492266001E+04  0.21152925909E+04  0.10100000352E+00 0.  1.
       -3    1    3    3    0  502  0.24298209479E+03 -0.15215665277E+04 -0.69974947199E+03  0.16922926255E+04  0.10100000352E+00 0. -1.
</event>
<event>
 5   0  0.3889225E-08  0.3818136E+04  0.7818609E-02  0.8042274E-01
        1   -1    0    0  501    0  0.00000000000E+00  0.00000000000E+00  0.27960128047E+04  0.27960128047E+04  0.50400001928E-02 0.  1.
       -1   -1    0    0    0  501  0.00000000000E+00  0.00000000000E+00 -0.13034780776E+04  0.13034780777E+04  0.50400001928E-02 0. -1.
    10030    2    1    2    0    0  0.00000000000E+00  0.00000000000E+00  0.14925347270E+04  0.40994908823E+04  0.38181364018E+04 0.  0.
        5    1    3    3  502    0  0.20813595435E+03  0.15247306627E+04  0.19592960062E+04  0.24913825678E+04  0.46999998093E+01 0.  1.
       -5    1    3    3    0  502 -0.20813595435E+03 -0.15247306627E+04 -0.46676127922E+03  0.16081083145E+04  0.46999998093E+01 0. -1.
</event>
<event>
 5   0  0.1174870E-07  0.3807832E+04  0.7818609E-02  0.8044476E-01
        2   -1    0    0  501    0  0.00000000000E+00  0.00000000000E+00  0.23884320722E+04  0.23884320722E+04  0.25500000920E-02 0. -1.
       -2   -1    0    0    0  501  0.00000000000E+00  0.00000000000E+00 -0.15176883021E+04  0.15176883021E+04  0.25500000920E-02 0.  1.
    10030    2    1    2    0    0  0.00000000000E+00  0.00000000000E+00  0.87074377009E+03  0.39061203743E+04  0.38078316225E+04 0.  0.
        5    1    3    3  502    0  0.18362458518E+03 -0.37023005389E+03  0.23418613061E+04  0.23780506194E+04  0.46999998093E+01 0. -1.
       -5    1    3    3    0  502 -0.18362458518E+03  0.37023005389E+03 -0.14711175360E+04  0.15280697549E+04  0.46999998093E+01 0.  1.
</event>
<event>
 5   0  0.3701250E-08  0.3796429E+04  0.7818609E-02  0.8046922E-01
       -1   -1    0    0    0  501  0.00000000000E+00  0.00000000000E+00  0.14734102469E+04  0.14734102469E+04  0.50400001928E-02 0.  1.
        1   -1    0    0  501    0  0.00000000000E+00  0.00000000000E+00 -0.24454951917E+04  0.24454951917E+04  0.50400001928E-02 0. -1.
    10030    2    1    2    0    0  0.00000000000E+00  0.00000000000E+00 -0.97208494485E+03  0.39189054386E+04  0.37964286766E+04 0.  0.
        4    1    3    3  502    0 -0.27630840482E+03 -0.32395843773E+03 -0.23955637710E+04  0.24331096971E+04  0.12699999809E+01 0. -1.
       -4    1    3    3    0  502  0.27630840482E+03  0.32395843773E+03  0.14234788262E+04  0.14857957415E+04  0.12699999809E+01 0.  1.
</event>
<event>
 5   0  0.3889225E-08  0.3801619E+04  0.7818609E-02  0.8045808E-01
       -1   -1    0    0    0  501  0.00000000000E+00  0.00000000000E+00  0.16402335611E+04  0.16402335611E+04  0.50400001928E-02 0.  1.
        1   -1    0    0  501    0  0.00000000000E+00  0.00000000000E+00 -0.22027813732E+04  0.22027813732E+04  0.50400001928E-02 0. -1.
    10030    2    1    2    0    0  0.00000000000E+00  0.00000000000E+00 -0.56254781209E+03  0.38430149343E+04  0.38016185690E+04 0.  0.
        5    1    3    3  502    0 -0.33273838844E+03 -0.10773701110E+04  0.12656218934E+04  0.16950699272E+04  0.46999998093E+01 0.  1.
       -5    1    3    3    0  502  0.33273838844E+03  0.10773701110E+04 -0.18281697055E+04  0.21479450070E+04  0.46999998093E+01 0. -1.
</event>
<event>
 5   0  0.1143283E-07  0.3810490E+04  0.7818609E-02  0.8043907E-01
       -2   -1    0    0    0  501  0.00000000000E+00  0.00000000000E+00  0.17927507371E+04  0.17927507371E+04  0.25500000920E-02 0.  1.
        2   -1    0    0  501    0  0.00000000000E+00  0.00000000000E+00 -0.20247984104E+04  0.20247984104E+04  0.25500000920E-02 0. -1.
    10030    2    1    2    0    0  0.00000000000E+00  0.00000000000E+00 -0.23204767323E+03  0.38175491475E+04  0.38104901746E+04 0.  0.
        1    1    3    3  502    0  0.12566857917E+04  0.10427515217E+03  0.13148468619E+04  0.18217998673E+04  0.50400001928E-02 0.  1.
       -1    1    3    3    0  502 -0.12566857917E+04 -0.10427515217E+03 -0.15468945351E+04  0.19957492802E+04  0.50400001928E-02 0. -1.
</event>
<event>
 5   0  0.1174870E-07  0.3805008E+04  0.7818609E-02  0.8045081E-01
        2   -1    0    0  501    0  0.00000000000E+00  0.00000000000E+00  0.22556437044E+04  0.22556437044E+04  0.25500000920E-02 0. -1.
       -2   -1    0    0    0  501  0.00000000000E+00  0.00000000000E+00 -0.16046514827E+04  0.16046514827E+04  0.25500000920E-02 0.  1.
    10030    2    1    2    0    0  0.00000000000E+00  0.00000000000E+00  0.65099222167E+03  0.38602951870E+04  0.38050082862E+04 0.  0.
        5    1    3    3  502    0  0.74280521690E+03  0.12939032361E+04  0.15231378588E+04  0.21321154287E+04  0.46999998093E+01 0. -1.
       -5    1    3    3    0  502 -0.74280521690E+03 -0.12939032361E+04 -0.87214563709E+03  0.17281797583E+04  0.46999998093E+01 0.  1.
</event>
<event>
 5   0  0.3889225E-08  0.3816572E+04  0.7818609E-02  0.8042608E-01
        1   -1    0    0  501    0  0.00000000000E+00  0.00000000000E+00  0.20342276080E+04  0.20342276080E+04  0.50400001928E-02 0. -1.
       -1   -1    0    0    0  501  0.00000000000E+00  0.00000000000E+00 -0.17901415809E+04  0.17901415809E+04  0.50400001928E-02 0.  1.
    10030    2    1    2    0    0  0.00000000000E+00  0.00000000000E+00  0.24408602710E+03  0.38243691889E+04  0.38165719834E+04 0.  0.
        5    1    3    3  502    0 -0.80322956170E+03  0.65584481536E+03 -0.14831733008E+04  0.18097334833E+04  0.46999998093E+01 0.  1.
       -5    1    3    3    0  502  0.80322956170E+03 -0.65584481536E+03  0.17272593279E+04  0.20146357056E+04  0.46999998093E+01 0. -1.
</event>
<event>
 5   0  0.1150235E-07  0.3884641E+04  0.7818609E-02  0.8028231E-01
       -2   -1    0    0    0  501  0.00000000000E+00  0.00000000000E+00  0.15085587577E+04  0.15085587577E+04  0.25500000920E-02 0.  1.
        2   -1    0    0  501    0  0.00000000000E+00  0.00000000000E+00 -0.25008030926E+04  0.25008030926E+04  0.25500000920E-02 0. -1.
    10030    2    1    2    0    0  0.00000000000E+00  0.00000000000E+00 -0.99224433489E+03  0.40093618504E+04  0.38846407333E+04 0.  0.
        4    1    3    3  502    0 -0.49372271760E+03 -0.83117933362E+01  0.14426930242E+04  0.15248593321E+04  0.12699999809E+01 0.  1.
       -4    1    3    3    0  502  0.49372271760E+03  0.83117933362E+01 -0.24349373591E+04  0.24845025183E+04  0.12699999809E+01 0. -1.
</event>
<event>
 5   0  0.3701250E-08  0.3805824E+04  0.7818609E-02  0.8044906E-01
       -1   -1    0    0    0  501  0.00000000000E+00  0.00000000000E+00  0.17410621552E+04  0.17410621552E+04  0.50400001928E-02 0. -1.
        1   -1    0    0  501    0  0.00000000000E+00  0.00000000000E+00 -0.20798075740E+04  0.20798075740E+04  0.50400001928E-02 0.  1.
    10030    2    1    2    0    0  0.00000000000E+00  0.00000000000E+00 -0.33874541876E+03  0.38208697292E+04  0.38058240932E+04 0.  0.
        1    1    3    3  502    0  0.13167933604E+04 -0.11346465122E+04 -0.94684157201E+03  0.19793626308E+04  0.50400001928E-02 0.  1.
       -1    1    3    3    0  502 -0.13167933604E+04  0.11346465122E+04  0.60809615325E+03  0.18415070984E+04  0.50400001928E-02 0. -1.
</event>
<event>
 5   0  0.3701250E-08  0.3761790E+04  0.7818609E-02  0.8054405E-01
        1   -1    0    0  501    0  0.00000000000E+00  0.00000000000E+00  0.18947637234E+04  0.18947637234E+04  0.50400001928E-02 0. -1.
       -1   -1    0    0    0  501  0.00000000000E+00  0.00000000000E+00 -0.18671282230E+04  0.18671282230E+04  0.50400001928E-02 0.  1.
    10030    2    1    2    0    0  0.00000000000E+00  0.00000000000E+00  0.27635500316E+02  0.37618919464E+04  0.37617904375E+04 0.  0.
        2    1    3    3  502    0 -0.44695818743E+03 -0.14295298653E+04  0.11515828518E+04  0.18893041898E+04  0.25500000920E-02 0. -1.
       -2    1    3    3    0  502  0.44695818743E+03  0.14295298653E+04 -0.11239473515E+04  0.18725877566E+04  0.25500000920E-02 0.  1.
</event>
<event>
 5   0  0.3701250E-08  0.3793459E+04  0.7818609E-02  0.8047560E-01
        1   -1    0    0  501    0  0.00000000000E+00  0.00000000000E+00  0.15518253463E+04  0.15518253463E+04  0.50400001928E-02 0. -1.
       -1   -1    0    0    0  501  0.00000000000E+00  0.00000000000E+00 -0.23182911872E+04  0.23182911872E+04  0.50400001928E-02 0.  1.
    10030    2    1    2    0    0  0.00000000000E+00  0.00000000000E+00 -0.76646584093E+03  0.38701165335E+04  0.37934591204E+04 0.  0.
        2    1    3    3  502    0 -0.77884603564E+03 -0.12806277215E+04  0.80256917216E+03  0.17002134526E+04  0.25500000920E-02 0. -1.
       -2    1    3    3    0  502  0.77884603564E+03  0.12806277215E+04 -0.15690350131E+04  0.21699030809E+04  0.25500000920E-02 0.  1.
</event>
<event>
 5   0  0.3701250E-08  0.3747790E+04  0.7818609E-02  0.8057453E-01
       -1   -1    0    0    0  501  0.00000000000E+00  0.00000000000E+00  0.12862873497E+04  0.12862873497E+04  0.50400001928E-02 0.  1.
        1   -1    0    0  501    0  0.00000000000E+00  0.00000000000E+00 -0.27299355600E+04  0.27299355600E+04  0.50400001928E-02 0. -1.
    10030    2    1    2    0    0  0.00000000000E+00  0.00000000000E+00 -0.14436482103E+04  0.40162229097E+04  0.37477895226E+04 0.  0.
        4    1    3    3  502    0  0.57047957528E+03  0.17807751166E+04 -0.59113423425E+03  0.19611344313E+04  0.12699999809E+01 0. -1.
       -4    1    3    3    0  502 -0.57047957528E+03 -0.17807751166E+04 -0.85251397604E+03  0.20550884784E+04  0.12699999809E+01 0.  1.
</event>
<event>
 5   0  0.3701250E-08  0.3779497E+04  0.7818609E-02  0.8050569E-01
       -1   -1    0    0    0  501  0.00000000000E+00  0.00000000000E+00  0.29172627632E+04  0.29172627633E+04  0.50400001928E-02 0.  1.
        1   -1    0    0  501    0  0.00000000000E+00  0.00000000000E+00 -0.12241440978E+04  0.12241440978E+04  0.50400001928E-02 0. -1.
    10030    2    1    2    0    0  0.00000000000E+00  0.00000000000E+00  0.16931186655E+04  0.41414068610E+04  0.37794973175E+04 0.  0.
        4    1    3    3  502    0 -0.23972357368E+03  0.42913834249E+03 -0.11528639919E+04  0.12532853248E+04  0.12699999809E+01 0. -1.
       -4    1    3    3    0  502  0.23972357368E+03 -0.42913834249E+03  0.28459826574E+04  0.28881215362E+04  0.12699999809E+01 0.  1.
</event>
<event>
 5   0  0.3889225E-08  0.3800468E+04  0.7818609E-02  0.8046055E-01
        1   -1    0    0  501    0  0.00000000000E+00  0.00000000000E+00  0.20265048878E+04  0.20265048878E+04  0.50400001928E-02 0. -1.
       -1   -1    0    0    0  501  0.00000000000E+00  0.00000000000E+00 -0.17818308012E+04  0.17818308012E+04  0.50400001928E-02 0.  1.
    10030    2    1    2    0    0  0.00000000000E+00  0.00000000000E+00  0.24467408656E+03  0.38083356890E+04  0.38004677754E+04 0.  0.
        5    1    3    3  502    0  0.17062961088E+02 -0.17244061986E+04  0.92211143508E+03  0.19555509380E+04  0.46999998093E+01 0. -1.
       -5    1    3    3    0  502 -0.17062961088E+02  0.17244061986E+04 -0.67743734852E+03  0.18527847510E+04  0.46999998093E+01 0.  1.
</event>
<event>
 5   0  0.7858367E-08  0.3805988E+04  0.7818609E-02  0.8044871E-01
       -2   -1    0    0    0  501  0.00000000000E+00  0.00000000000E+00  0.17474512558E+04  0.17474512558E+04  0.25500000920E-02 0. -1.
        2   -1    0    0  501    0  0.00000000000E+00  0.00000000000E+00 -0.20723821452E+04  0.20723821452E+04  0.25500000920E-02 0.  1.
    10030    2    1    2    0    0  0.00000000000E+00  0.00000000000E+00 -0.32493088936E+03  0.38198334010E+04  0.38059883248E+04 0.  0.
        2    1    3    3  502    0 -0.80477451904E+02  0.83154804981E+03 -0.18784916447E+04  0.20558890141E+04  0.25500000920E-02 0.  1.
       -2    1    3    3    0  502  0.80477451904E+02 -0.83154804981E+03  0.15535607553E+04  0.17639443868E+04  0.25500000920E-02 0. -1.
</event>
<event>
 5   0  0.3889225E-08  0.3745185E+04  0.7818609E-02  0.8058021E-01
       -1   -1    0    0    0  501  0.00000000000E+00  0.00000000000E+00  0.17918026373E+04  0.17918026373E+04  0.50400001928E-02 0.  1.
        1   -1    0    0  501    0  0.00000000000E+00  0.00000000000E+00 -0.19570248614E+04  0.19570248614E+04  0.50400001928E-02 0. -1.
    10030    2    1    2    0    0  0.00000000000E+00  0.00000000000E+00 -0.16522222407E+03  0.37488274987E+04  0.37451848060E+04 0.  0.
        5    1    3    3  502    0 -0.10471947177E+04 -0.94818426752E+03  0.11477752456E+04  0.18201868823E+04  0.46999998093E+01 0.  1.
       -5    1    3    3    0  502  0.10471947177E+04  0.94818426752E+03 -0.13129974696E+04  0.19286406164E+04  0.46999998093E+01 0. -1.
</event>
<event>
 5   0  0.7858367E-08  0.3801056E+04  0.7818609E-02  0.8045928E-01
       -2   -1    0    0    0  501  0.00000000000E+00  0.00000000000E+00  0.25973491801E+04  0.25973491801E+04  0.25500000920E-02 0. -1.
        2   -1    0    0  501    0  0.00000000000E+00  0.00000000000E+00 -0.13906513745E+04  0.13906513745E+04  0.25500000920E-02 0.  1.
    10030    2    1    2    0    0  0.00000000000E+00  0.00000000000E+00  0.12066978056E+04  0.39880005545E+04  0.38010562781E+04 0.  0.
        2    1    3    3  502    0  0.10086668762E+04  0.56926984271E+03  0.21842858540E+04  0.24723635883E+04  0.25500000920E-02 0. -1.
       -2    1    3    3    0  502 -0.10086668762E+04 -0.56926984271E+03 -0.97758804836E+03  0.15156369662E+04  0.25500000920E-02 0.  1.
</event>
<event>
 5   0  0.3701250E-08  0.3830983E+04  0.7818609E-02  0.8039538E-01
       -1   -1    0    0    0  501  0.00000000000E+00  0.00000000000E+00  0.20161371517E+04  0.20161371518E+04  0.50400001928E-02 0.  1.
        1   -1    0    0  501    0  0.00000000000E+00  0.00000000000E+00 -0.18198703974E+04  0.18198703974E+04  0.50400001928E-02 0. -1.
    10030    2    1    2    0    0  0.00000000000E+00  0.00000000000E+00  0.19626675431E+03  0.38360075492E+04  0.38309833305E+04 0.  0.
        1    1    3    3  502    0 -0.65566613836E+03  0.15186761498E+04 -0.86896607775E+03  0.18685227794E+04  0.50400001928E-02 0. -1.
       -1    1    3    3    0  502  0.65566613836E+03 -0.15186761498E+04  0.10652328321E+04  0.19674847698E+04  0.50400001928E-02 0.  1.
</event>
<event>
 5   0  0.3701250E-08  0.3801784E+04  0.7818609E-02  0.8045772E-01
       -3   -1    0    0    0  501  0.00000000000E+00  0.00000000000E+00  0.18244880207E+04  0.18244880235E+04  0.10100000352E+00 0.  1.
        3   -1    0    0  501    0  0.00000000000E+00  0.00000000000E+00 -0.19804953879E+04  0.19804953905E+04  0.10100000352E+00 0. -1.
    10030    2    1    2    0    0  0.00000000000E+00  0.00000000000E+00 -0.15600736722E+03  0.38049834140E+04  0.38017838553E+04 0.  0.
        5    1    3    3  502    0 -0.17490175412E+04 -0.21046992208E+03  0.63674584158E+03  0.18731864041E+04  0.46999998093E+01 0.  1.
       -5    1    3    3    0  502  0.17490175412E+04  0.21046992208E+03 -0.79275320879E+03  0.19317970100E+04  0.46999998093E+01 0. -1.
</event>
<event>
 5   0  0.1143283E-07  0.3821795E+04  0.7818609E-02  0.8041494E-01
       -2   -1    0    0    0  501  0.00000000000E+00  0.00000000000E+00  0.13389042476E+04  0.13389042476E+04  0.25500000920E-02 0.  1.
        2   -1    0    0  501    0  0.00000000000E+00  0.00000000000E+00 -0.27272512814E+04  0.27272512814E+04  0.25500000920E-02 0. -1.
    10030    2    1    2    0    0  0.00000000000E+00  0.00000000000E+00 -0.13883470338E+04  0.40661555290E+04  0.38217945130E+04 0.  0.
        1    1    3    3  502    0  0.11366817540E+01 -0.81190628886E+02 -0.27254149865E+04  0.27266242974E+04  0.50400001928E-02 0. -1.
       -1    1    3    3    0  502 -0.11366817540E+01  0.81190628886E+02  0.13370679527E+04  0.13395312316E+04  0.50400001928E-02 0.  1.
</event>
<event>
 5   0  0.3701250E-08  0.3695796E+04  0.7818609E-02  0.8068894E-01
        1   -1    0    0  501    0  0.00000000000E+00  0.00000000000E+00  0.18935176162E+04  0.18935176162E+04  0.50400001928E-02 0. -1.
       -1   -1    0    0    0  501  0.00000000000E+00  0.00000000000E+00 -0.18033779087E+04  0.18033779087E+04  0.50400001928E-02 0.  1.
    10030    2    1    2    0    0  0.00000000000E+00  0.00000000000E+00  0.90139707516E+02  0.36968955249E+04  0.36957964440E+04 0.  0.
        1    1    3    3  502    0  0.11540995197E+04  0.14431037989E+04  0.29782539486E+02  0.18480750189E+04  0.50400001928E-02 0. -1.
       -1    1    3    3    0  502 -0.11540995197E+04 -0.14431037989E+04  0.60357168030E+02  0.18488205060E+04  0.50400001928E-02 0.  1.
</event>
<event>
 5   0  0.7858367E-08  0.3801724E+04  0.7818609E-02  0.8045785E-01
       -2   -1    0    0    0  501  0.00000000000E+00  0.00000000000E+00  0.20530479253E+04  0.20530479253E+04  0.25500000920E-02 0. -1.
        2   -1    0    0  501    0  0.00000000000E+00  0.00000000000E+00 -0.17599568850E+04  0.17599568850E+04  0.25500000920E-02 0.  1.
    10030    2    1    2    0    0  0.00000000000E+00  0.00000000000E+00  0.29309104027E+03  0.38130048103E+04  0.38017237308E+04 0.  0.
        2    1    3    3  502    0  0.71360411434E+03  0.98008671899E+02  0.19108672516E+04  0.20421190428E+04  0.25500000920E-02 0. -1.
       -2    1    3    3    0  502 -0.71360411434E+03 -0.98008671899E+02 -0.16177762113E+04  0.17708857675E+04  0.25500000920E-02 0.  1.
</event>
<event>
 5   0  0.3701250E-08  0.3800979E+04  0.7818609E-02  0.8045945E-01
       -1   -1    0    0    0  501  0.00000000000E+00  0.00000000000E+00  0.15913687160E+04  0.15913687160E+04  0.50400001928E-02 0. -1.
        1   -1    0    0  501    0  0.00000000000E+00  0.00000000000E+00 -0.22696560317E+04  0.22696560317E+04  0.50400001928E-02 0.  1.
    10030    2    1    2    0    0  0.00000000000E+00  0.00000000000E+00 -0.67828731571E+03  0.38610247478E+04  0.38009786135E+04 0.  0.
        1    1    3    3  502    0  0.90877899318E+03 -0.90854377198E+03  0.10831646475E+04  0.16806477018E+04  0.50400001928E-02 0. -1.
       -1    1    3    3    0  502 -0.90877899318E+03  0.90854377198E+03 -0.17614519632E+04  0.21803770460E+04  0.50400001928E-02 0.  1.
</event>
<event>
 5   0  0.3701250E-08  0.3832794E+04  0.7818609E-02  0.8039154E-01
        1   -1    0    0  501    0  0.00000000000E+00  0.00000000000E+00  0.19058691427E+04  0.19058691427E+04  0.50400001928E-02 0.  1.
       -1   -1    0    0    0  501  0.00000000000E+00  0.00000000000E+00 -0.19269831484E+04  0.19269831484E+04  0.50400001928E-02 0. -1.
    10030    2    1    2    0    0  0.00000000000E+00  0.00000000000E+00 -0.21114005724E+02  0.38328522911E+04  0.38327941353E+04 0.  0.
        3    1    3    3  502    0  0.10175081178E+04 -0.15683371768E+04 -0.43195803459E+03  0.19187475144E+04  0.10100000352E+00 0.  1.
       -3    1    3    3    0  502 -0.10175081178E+04  0.15683371768E+04  0.41084402886E+03  0.19141047767E+04  0.10100000352E+00 0. -1.
</event>
<event>
 5   0  0.3701250E-08  0.3798024E+04  0.7818609E-02  0.8046579E-01
        1   -1    0    0  501    0  0.00000000000E+00  0.00000000000E+00  0.20547541540E+04  0.20547541540E+04  0.50400001928E-02 0. -1.
       -1   -1    0    0    0  501  0.00000000000E+00  0.00000000000E+00 -0.17550743049E+04  0.17550743049E+04  0.50400001928E-02 0.  1.
    10030    2    1    2    0    0  0.00000000000E+00  0.00000000000E+00  0.29967984915E+03  0.38098284589E+04  0.37980238117E+04 0.  0.
        1    1    3    3  502    0 -0.33594016716E+03  0.15020530008E+04  0.12656042434E+04  0.19926798825E+04  0.50400001928E-02 0. -1.
       -1    1    3    3    0  502  0.33594016716E+03 -0.15020530008E+04 -0.96592439428E+03  0.18171485764E+04  0.50400001928E-02 0.  1.
</event>
<event>
 5   0  0.1174870E-07  0.3791098E+04  0.7818609E-02  0.8048068E-01
       -2   -1    0    0    0  501  0.00000000000E+00  0.00000000000E+00  0.15062077394E+04  0.15062077394E+04  0.25500000920E-02 0.  1.
        2   -1    0    0  501    0  0.00000000000E+00  0.00000000000E+00 -0.23855319578E+04  0.23855319578E+04  0.25500000920E-02 0. -1.
    10030    2    1    2    0    0  0.00000000000E+00  0.00000000000E+00 -0.87932421842E+03  0.38917396973E+04  0.37910983620E+04 0.  0.
        5    1    3    3  502    0 -0.99996621368E+03 -0.23791338637E+02  0.12132331355E+04  0.15724042697E+04  0.46999998093E+01 0.  1.
       -5    1    3    3    0  502  0.99996621368E+03  0.23791338637E+02 -0.20925573539E+04  0.23193354276E+04  0.46999998093E+01 0. -1.
</event>
<event>
 5   0  0.1143283E-07  0.3797171E+04  0.7818609E-02  0.8046762E-01
       -2   -1    0    0    0  501  0.00000000000E+00  0.00000000000E+00  0.18158077984E+04  0.18158077984E+04  0.25500000920E-02 0. -1.
        2   -1    0    0  501    0  0.00000000000E+00  0.00000000000E+00 -0.19851365130E+04  0.19851365130E+04  0.25500000920E-02 0.  1.
    10030    2    1    2    0    0  0.00000000000E+00  0.00000000000E+00 -0.16932871461E+03  0.38009443115E+04  0.37971707159E+04 0.  0.
        1    1    3    3  502    0 -0.63660743081E+03  0.11534892447E+04 -0.14530707965E+04  0.19614334549E+04  0.50400001928E-02 0.  1.
       -1    1    3    3    0  502  0.63660743081E+03 -0.11534892447E+04  0.12837420819E+04  0.18395108565E+04  0.50400001928E-02 0. -1.
</event>
<event>
 5   0  0.1150235E-07  0.3805756E+04  0.7818609E-02  0.8044921E-01
        2   -1    0    0  501    0  0.00000000000E+00  0.00000000000E+00  0.14198440697E+04  0.14198440697E+04  0.25500000920E-02 0.  1.
       -2   -1    0    0    0  501  0.00000000000E+00  0.00000000000E+00 -0.25502406617E+04  0.25502406617E+04  0.25500000920E-02 0. -1.
    10030    2    1    2    0    0  0.00000000000E+00  0.00000000000E+00 -0.11303965920E+04  0.39700847314E+04  0.38057556831E+04 0.  0.
        4    1    3    3  502    0 -0.14841544751E+03  0.29592429048E+03  0.13895712704E+04  0.14284636009E+04  0.12699999809E+01 0.  1.
       -4    1    3    3    0  502  0.14841544751E+03 -0.29592429048E+03 -0.25199678624E+04  0.25416211305E+04  0.12699999809E+01 0. -1.
</event>
<event>
 5   0  0.1174870E-07  0.4025254E+04  0.7818609E-02  0.7999471E-01
       -2   -1    0    0    0  501  0.00000000000E+00  0.00000000000E+00  0.21677307351E+04  0.21677307351E+04  0.25500000920E-02 0.  1.
        2   -1    0    0  501    0  0.00000000000E+00  0.00000000000E+00 -0.18686211580E+04  0.18686211580E+04  0.25500000920E-02 0. -1.
    10030    2    1    2    0    0  0.00000000000E+00  0.00000000000E+00  0.29910957701E+03  0.40363518931E+04  0.40252540374E+04 0.  0.
        5    1    3    3  502    0 -0.15843932597E+04 -0.35592086104E+03  0.13418087947E+04  0.21065266654E+04  0.46999998093E+01 0.  1.
       -5    1    3    3    0  502  0.15843932597E+04  0.35592086104E+03 -0.10426992177E+04  0.19298252276E+04  0.46999998093E+01 0. -1.
</event>
<event>
 5   0  0.3701250E-08  0.3812928E+04  0.7818609E-02  0.8043386E-01
        1   -1    0    0  501    0  0.00000000000E+00  0.00000000000E+00  0.17721328635E+04  0.17721328635E+04  0.50400001928E-02 0. -1.
       -1   -1    0    0    0  501  0.00000000000E+00  0.00000000000E+00 -0.20509777771E+04  0.20509777771E+04  0.50400001928E-02 0.  1.
    10030    2    1    2    0    0  0.00000000000E+00  0.00000000000E+00 -0.27884491361E+03  0.38231106406E+04  0.38129280723E+04 0.  0.
        1    1    3    3  502    0 -0.11043863018E+04 -0.54715826023E+03  0.13189561896E+04  0.18051860556E+04  0.50400001928E-02 0. -1.
       -1    1    3    3    0  502  0.11043863018E+04  0.54715826023E+03 -0.15978011032E+04  0.20179245850E+04  0.50400001928E-02 0.  1.
</event>
<event>
 5   0  0.1174870E-07  0.3794349E+04  0.7818609E-02  0.8047369E-01
        2   -1    0    0  501    0  0.00000000000E+00  0.00000000000E+00  0.14383372070E+04  0.14383372070E+04  0.25500000920E-02 0. -1.
       -2   -1    0    0    0  501  0.00000000000E+00  0.00000000000E+00 -0.25023836069E+04  0.25023836069E+04  0.25500000920E-02 0.  1.
    10030    2    1    2    0    0  0.00000000000E+00  0.00000000000E+00 -0.10640463999E+04  0.39407208139E+04  0.37943491922E+04 0.  0.
        5    1    3    3  502    0  0.14873565172E+04 -0.10218603932E+04 -0.11401193600E+04  0.21345543604E+04  0.46999998093E+01 0. -1.
       -5    1    3    3    0  502 -0.14873565172E+04  0.10218603932E+04  0.76072960055E+02  0.18061664535E+04  0.46999998093E+01 0.  1.
</event>
<event>
 5   0  0.3701250E-08  0.3816895E+04  0.7818609E-02  0.8042539E-01
       -1   -1    0    0    0  501  0.00000000000E+00  0.00000000000E+00  0.16670445422E+04  0.16670445422E+04  0.50400001928E-02 0.  1.
        1   -1    0    0  501    0  0.00000000000E+00  0.00000000000E+00 -0.21848079453E+04  0.21848079453E+04  0.50400001928E-02 0. -1.
    10030    2    1    2    0    0  0.00000000000E+00  0.00000000000E+00 -0.51776340313E+03  0.38518524875E+04  0.38168951576E+04 0.  0.
        3    1    3    3  502    0 -0.29220490150E+03 -0.20848529211E+03  0.16326708603E+04  0.16716650292E+04  0.10100000352E+00 0.  1.
       -3    1    3    3    0  502  0.29220490150E+03  0.20848529211E+03 -0.21504342635E+04  0.21801874583E+04  0.10100000352E+00 0. -1.
</event>
<event>
 5   0  0.3701250E-08  0.3800938E+04  0.7818609E-02  0.8045954E-01
        1   -1    0    0  501    0  0.00000000000E+00  0.00000000000E+00  0.10150358148E+04  0.10150358148E+04  0.50400001928E-02 0.  1.
       -1   -1    0    0    0  501  0.00000000000E+00  0.00000000000E+00 -0.35582804331E+04  0.35582804331E+04  0.50400001928E-02 0. -1.
    10030    2    1    2    0    0  0.00000000000E+00  0.00000000000E+00 -0.25432446183E+04  0.45733162479E+04  0.38009378204E+04 0.  0.
        4    1    3    3  502    0 -0.91922689227E+03 -0.13124440849E+03 -0.32667625828E+04  0.33961658616E+04  0.12699999809E+01 0. -1.
       -4    1    3    3    0  502  0.91922689227E+03  0.13124440849E+03  0.72351796446E+03  0.11771503863E+04  0.12699999809E+01 0.  1.
</event>
<event>
 5   0  0.1193861E-07  0.3807847E+04  0.7818609E-02  0.8044473E-01
        2   -1    0    0  501    0  0.00000000000E+00  0.00000000000E+00  0.20758690793E+04  0.20758690793E+04  0.25500000920E-02 0.  1.
       -2   -1    0    0    0  501  0.00000000000E+00  0.00000000000E+00 -0.17462203555E+04  0.17462203555E+04  0.25500000920E-02 0. -1.
    10030    2    1    2    0    0  0.00000000000E+00  0.00000000000E+00  0.32964872377E+03  0.38220894348E+04  0.38078470776E+04 0.  0.
        3    1    3    3  502    0 -0.13543576965E+04 -0.58517655064E+03 -0.10430920643E+04  0.18068639767E+04  0.10100000352E+00 0. -1.
       -3    1    3    3    0  502  0.13543576965E+04  0.58517655064E+03  0.13727407881E+04  0.20152254581E+04  0.10100000352E+00 0.  1.
</event>
<event>
 5   0  0.3889225E-08  0.3872359E+04  0.7818609E-02  0.8030803E-01
        1   -1    0    0  501    0  0.00000000000E+00  0.00000000000E+00  0.14233589462E+04  0.14233589462E+04  0.50400001928E-02 0.  1.
       -1   -1    0    0    0  501  0.00000000000E+00  0.00000000000E+00 -0.26337633400E+04  0.26337633400E+04  0.50400001928E-02 0. -1.
    10030    2    1    2    0    0  0.00000000000E+00  0.00000000000E+00 -0.12104043939E+04  0.40571222862E+04  0.38723587706E+04 0.  0.
        5    1    3    3  502    0  0.65117766605E+03  0.11727248212E+04 -0.20680490358E+04  0.24649877816E+04  0.46999998093E+01 0. -1.
       -5    1    3    3    0  502 -0.65117766605E+03 -0.11727248212E+04  0.85764464190E+03  0.15921345046E+04  0.46999998093E+01 0.  1.
</event>
<event>
 5   0  0.1174870E-07  0.3763355E+04  0.7818609E-02  0.8054065E-01
        2   -1    0    0  501    0  0.00000000000E+00  0.00000000000E+00  0.19515770560E+04  0.19515770560E+04  0.25500000920E-02 0. -1.
       -2   -1    0    0    0  501  0.00000000000E+00  0.00000000000E+00 -0.18142818475E+04  0.18142818475E+04  0.25500000920E-02 0.  1.
    10030    2    1    2    0    0  0.00000000000E+00  0.00000000000E+00  0.13729520850E+03  0.37658589036E+04  0.37633553257E+04 0.  0.
        5    1    3    3  502    0  0.76799392715E+03 -0.12914252108E+04  0.12021389890E+04  0.19242541376E+04  0.46999998093E+01 0. -1.
       -5    1    3    3    0  502 -0.76799392715E+03  0.12914252108E+04 -0.10648437805E+04  0.18416047660E+04  0.46999998093E+01 0.  1.
</event>
<event>
 5   0  0.1150235E-07  0.3831525E+04  0.7818609E-02  0.8039423E-01
        2   -1    0    0  501    0  0.00000000000E+00  0.00000000000E+00  0.17290627176E+04  0.17290627176E+04  0.25500000920E-02 0.  1.
       -2   -1    0    0    0  501  0.00000000000E+00  0.00000000000E+00 -0.21226217122E+04  0.21226217122E+04  0.25500000920E-02 0. -1.
    10030    2    1    2    0    0  0.00000000000E+00  0.00000000000E+00 -0.39355899465E+03  0.38516844298E+04  0.38315250573E+04 0.  0.
        4    1    3    3  502    0  0.92352765263E+03 -0.12451590510E+04  0.93467344145E+03  0.18102321515E+04  0.12699999809E+01 0.  1.
       -4    1    3    3    0  502 -0.92352765263E+03  0.12451590510E+04 -0.13282324361E+04  0.20414522783E+04  0.12699999809E+01 0. -1.
</event>
<event>
 5   0  0.1150235E-07  0.3808895E+04  0.7818609E-02  0.8044249E-01
       -2   -1    0    0    0  501  0.00000000000E+00  0.00000000000E+00  0.15577513913E+04  0.15577513913E+04  0.25500000920E-02 0.  1.
        2   -1    0    0  501    0  0.00000000000E+00  0.00000000000E+00 -0.23283054742E+04  0.23283054742E+04  0.25500000920E-02 0. -1.
    10030    2    1    2    0    0  0.00000000000E+00  0.00000000000E+00 -0.77055408290E+03  0.38860568654E+04  0.38088954261E+04 0.  0.
        4    1    3    3  502    0 -0.10955654879E+04  0.37010868402E+03 -0.19290984250E+04  0.22491479548E+04  0.12699999809E+01 0. -1.
       -4    1    3    3    0  502  0.10955654879E+04 -0.37010868402E+03  0.11585443421E+04  0.16369089107E+04  0.12699999809E+01 0.  1.
</event>
<event>
 5   0  0.1143283E-07  0.3804613E+04  0.7818609E-02  0.8045166E-01
       -2   -1    0    0    0  501  0.00000000000E+00  0.00000000000E+00  0.12057454151E+04  0.12057454151E+04  0.25500000920E-02 0. -1.
        2   -1    0    0  501    0  0.00000000000E+00  0.00000000000E+00 -0.30012721947E+04  0.30012721947E+04  0.25500000920E-02 0.  1.
    10030    2    1    2    0    0  0.00000000000E+00  0.00000000000E+00 -0.17955267796E+04  0.42070176098E+04  0.38046130885E+04 0.  0.
        1    1    3    3  502    0  0.11231255440E+04  0.13283003857E+04 -0.46266901442E+02  0.17400958389E+04  0.50400001928E-02 0.  1.
       -1    1    3    3    0  502 -0.11231255440E+04 -0.13283003857E+04 -0.17492598782E+04  0.24669217709E+04  0.50400001928E-02 0. -1.
</event>
<event>
 5   0  0.3701250E-08  0.3778147E+04  0.7818609E-02  0.8050861E-01
       -1   -1    0    0    0  501  0.00000000000E+00  0.00000000000E+00  0.12562697353E+04  0.12562697353E+04  0.50400001928E-02 0.  1.
        1   -1    0    0  501    0  0.00000000000E+00  0.00000000000E+00 -0.28406309506E+04  0.28406309507E+04  0.50400001928E-02 0. -1.
    10030    2    1    2    0    0  0.00000000000E+00  0.00000000000E+00 -0.15843612153E+04  0.40969006860E+04  0.37781470022E+04 0.  0.
        2    1    3    3  502    0 -0.56490601985E+03 -0.75792697733E+03 -0.25657191676E+04  0.27343165437E+04  0.25500000920E-02 0. -1.
       -2    1    3    3    0  502  0.56490601985E+03  0.75792697733E+03  0.98135795225E+03  0.13625841422E+04  0.25500000920E-02 0.  1.
</event>
<event>
 5   0  0.1150235E-07  0.3776725E+04  0.7818609E-02  0.8051168E-01
       -2   -1    0    0    0  501  0.00000000000E+00  0.00000000000E+00  0.16639314610E+04  0.16639314610E+04  0.25500000920E-02 0. -1.
        2   -1    0    0  501    0  0.00000000000E+00  0.00000000000E+00 -0.21430648331E+04  0.21430648331E+04  0.25500000920E-02 0.  1.
    10030    2    1    2    0    0  0.00000000000E+00  0.00000000000E+00 -0.47913337211E+03  0.38069962941E+04  0.37767250356E+04 0.  0.
        4    1    3    3  502    0  0.10809002029E+04 -0.89158917056E+03 -0.15156657299E+04  0.20641028839E+04  0.12699999809E+01 0.  1.
       -4    1    3    3    0  502 -0.10809002029E+04  0.89158917056E+03  0.10365323578E+04  0.17428934102E+04  0.12699999809E+01 0. -1.
</event>
<event>
 5   0  0.3889225E-08  0.3801215E+04  0.7818609E-02  0.8045894E-01
       -1   -1    0    0    0  501  0.00000000000E+00  0.00000000000E+00  0.15121590255E+04  0.15121590255E+04  0.50400001928E-02 0. -1.
        1   -1    0    0  501    0  0.00000000000E+00  0.00000000000E+00 -0.23888419393E+04  0.23888419393E+04  0.50400001928E-02 0.  1.
    10030    2    1    2    0    0  0.00000000000E+00  0.00000000000E+00 -0.87668291383E+03  0.39010009648E+04  0.38012150158E+04 0.  0.
        5    1    3    3  502    0  0.78615427553E+03  0.71130238795E+03  0.11805015927E+04  0.15866933328E+04  0.46999998093E+01 0. -1.
       -5    1    3    3    0  502 -0.78615427553E+03 -0.71130238795E+03 -0.20571845065E+04  0.23143076320E+04  0.46999998093E+01 0.  1.
</event>
<event>
 5   0  0.3701250E-08  0.3801880E+04  0.7818609E-02  0.8045752E-01
        1   -1    0    0  501    0  0.00000000000E+00  0.00000000000E+00  0.14703214326E+04  0.14703214326E+04  0.50400001928E-02 0. -1.
       -1   -1    0    0    0  501  0.00000000000E+00  0.00000000000E+00 -0.24576756790E+04  0.24576756790E+04  0.50400001928E-02 0.  1.
    10030    2    1    2    0    0  0.00000000000E+00  0.00000000000E+00 -0.98735424646E+03  0.39279971116E+04  0.38018801797E+04 0.  0.
        3    1    3    3  502    0 -0.16549130770E+04  0.21522056797E+02  0.47242054706E+03  0.17211570745E+04  0.10100000352E+00 0. -1.
       -3    1    3    3    0  502  0.16549130770E+04 -0.21522056797E+02 -0.14597747935E+04  0.22068400371E+04  0.10100000352E+00 0.  1.
</event>
<event>
 5   0  0.7858367E-08  0.3799424E+04  0.7818609E-02  0.8046279E-01
        2   -1    0    0  501    0  0.00000000000E+00  0.00000000000E+00  0.20967887925E+04  0.20967887925E+04  0.25500000920E-02 0.  1.
       -2   -1    0    0    0  501  0.00000000000E+00  0.00000000000E+00 -0.17211583069E+04  0.17211583069E+04  0.25500000920E-02 0. -1.
    10030    2    1    2    0    0  0.00000000000E+00  0.00000000000E+00  0.37563048560E+03  0.38179470993E+04  0.37994238763E+04 0.  0.
        2    1    3    3  502    0 -0.17173375559E+04  0.71051346286E+03  0.58321519336E+03  0.19478751561E+04  0.25500000920E-02 0.  1.
       -2    1    3    3    0  502  0.17173375559E+04 -0.71051346286E+03 -0.20758470776E+03  0.18700719432E+04  0.25500000920E-02 0. -1.
</event>
<event>
 5   0  0.3701250E-08  0.3588723E+04  0.7818609E-02  0.8093080E-01
       -1   -1    0    0    0  501  0.00000000000E+00  0.00000000000E+00  0.12581861147E+04  0.12581861147E+04  0.50400001928E-02 0.  1.
        1   -1    0    0  501    0  0.00000000000E+00  0.00000000000E+00 -0.25590271690E+04  0.25590271691E+04  0.50400001928E-02 0. -1.
    10030    2    1    2    0    0  0.00000000000E+00  0.00000000000E+00 -0.13008410544E+04  0.38172132837E+04  0.35887225867E+04 0.  0.
        4    1    3    3  502    0 -0.10596872340E+04 -0.37002397766E+03  0.83866911389E+03  0.14011503394E+04  0.12699999809E+01 0.  1.
       -4    1    3    3    0  502  0.10596872340E+04  0.37002397766E+03 -0.21395101683E+04  0.24160629444E+04  0.12699999809E+01 0. -1.
</event>
<event>
 5   0  0.1143283E-07  0.3805064E+04  0.7818609E-02  0.8045069E-01
       -2   -1    0    0    0  501  0.00000000000E+00  0.00000000000E+00  0.15103126150E+04  0.15103126150E+04  0.25500000920E-02 0.  1.
        2   -1    0    0  501    0  0.00000000000E+00  0.00000000000E+00 -0.23966089459E+04  0.23966089459E+04  0.25500000920E-02 0. -1.
    10030    2    1    2    0    0  0.00000000000E+00  0.00000000000E+00 -0.88629633087E+03  0.39069215609E+04  0.38050643749E+04 0.  0.
        1    1    3    3  502    0  0.10804253932E+04 -0.14355688823E+04  0.19926105107E+03  0.18077284123E+04  0.50400001928E-02 0.  1.
       -1    1    3    3    0  502 -0.10804253932E+04  0.14355688823E+04 -0.10855573819E+04  0.20991931487E+04  0.50400001928E-02 0. -1.
</event>
<event>
 5   0  0.1143283E-07  0.3800557E+04  0.7818609E-02  0.8046035E-01
       -2   -1    0    0    0  501  0.00000000000E+00  0.00000000000E+00  0.16586335791E+04  0.16586335791E+04  0.25500000920E-02 0. -1.
        2   -1    0    0  501    0  0.00000000000E+00  0.00000000000E+00 -0.21771279250E+04  0.21771279250E+04  0.25500000920E-02 0.  1.
    10030    2    1    2    0    0  0.00000000000E+00  0.00000000000E+00 -0.51849434585E+03  0.38357615041E+04  0.38005565289E+04 0.  0.
        1    1    3    3  502    0 -0.17247847632E+04  0.37821712571E+03  0.44948754341E+03  0.18220784081E+04  0.50400001928E-02 0. -1.
       -1    1    3    3    0  502  0.17247847632E+04 -0.37821712571E+03 -0.96798188926E+03  0.20136830961E+04  0.50400001928E-02 0.  1.
</event>
<event>
 5   0  0.1143283E-07  0.3791597E+04  0.7818609E-02  0.8047961E-01
       -2   -1    0    0    0  501  0.00000000000E+00  0.00000000000E+00  0.19467194985E+04  0.19467194985E+04  0.25500000920E-02 0. -1.
        2   -1    0    0  501    0  0.00000000000E+00  0.00000000000E+00 -0.18462094642E+04  0.18462094642E+04  0.25500000920E-02 0.  1.
    10030    2    1    2    0    0  0.00000000000E+00  0.00000000000E+00  0.10051003431E+03  0.37929289627E+04  0.37915970051E+04 0.  0.
        1    1    3    3  502    0 -0.10461404580E+04  0.55521115456E+03  0.15311069945E+04  0.19357060502E+04  0.50400001928E-02 0. -1.
       -1    1    3    3    0  502  0.10461404580E+04 -0.55521115456E+03 -0.14305969602E+04  0.18572229125E+04  0.50400001928E-02 0.  1.
</event>
<event>
 5   0  0.3701250E-08  0.3675490E+04  0.7818609E-02  0.8073415E-01
       -1   -1    0    0    0  501  0.00000000000E+00  0.00000000000E+00  0.13168907130E+04  0.13168907130E+04  0.50400001928E-02 0. -1.
        1   -1    0    0  501    0  0.00000000000E+00  0.00000000000E+00 -0.25646061384E+04  0.25646061384E+04  0.50400001928E-02 0.  1.
    10030    2    1    2    0    0  0.00000000000E+00  0.00000000000E+00 -0.12477154254E+04  0.38814968514E+04  0.36754896306E+04 0.  0.
        2    1    3    3  502    0 -0.10757497397E+04 -0.11963870752E+04 -0.15617376473E+04  0.22422319272E+04  0.25500000920E-02 0.  1.
       -2    1    3    3    0  502  0.10757497397E+04  0.11963870752E+04  0.31402222194E+03  0.16392649243E+04  0.25500000920E-02 0. -1.
</event>
<event>
 5   0  0.1174870E-07  0.3819272E+04  0.7818609E-02  0.8042032E-01
        2   -1    0    0  501    0  0.00000000000E+00  0.00000000000E+00  0.26391885187E+04  0.26391885187E+04  0.25500000920E-02 0. -1.
       -2   -1    0    0    0  501  0.00000000000E+00  0.00000000000E+00 -0.13817540578E+04  0.13817540578E+04  0.25500000920E-02 0.  1.
    10030    2    1    2    0    0  0.00000000000E+00  0.00000000000E+00  0.12574344609E+04  0.40209425765E+04  0.38192718914E+04 0.  0.
        5    1    3    3  502    0 -0.13614750936E+04 -0.27833585344E+03  0.20076896373E+04  0.24417053564E+04  0.46999998093E+01 0. -1.
       -5    1    3    3    0  502  0.13614750936E+04  0.27833585344E+03 -0.75025517641E+03  0.15792372201E+04  0.46999998093E+01 0.  1.
</event>
<event>
 5   0  0.1174870E-07  0.3859588E+04  0.7818609E-02  0.8033487E-01
       -2   -1    0    0    0  501  0.00000000000E+00  0.00000000000E+00  0.24808279118E+04  0.24808279118E+04  0.25500000920E-02 0.  1.
        2   -1    0    0  501    0  0.00000000000E+00  0.00000000000E+00 -0.15011536698E+04  0.15011536698E+04  0.25500000920E-02 0. -1.
    10030    2    1    2    0    0  0.00000000000E+00  0.00000000000E+00  0.97967424199E+03  0.39819815815E+04  0.38595875033E+04 0.  0.
        5    1    3    3  502    0  0.12603613112E+04 -0.33904566894E+03 -0.97672544891E+03  0.16301770741E+04  0.46999998093E+01 0. -1.
       -5    1    3    3    0  502 -0.12603613112E+04  0.33904566894E+03  0.19563996909E+04  0.23518045074E+04  0.46999998093E+01 0.  1.
</event>
<event>
 5   0  0.1150235E-07  0.3792376E+04  0.7818609E-02  0.8047793E-01
       -2   -1    0    0    0  501  0.00000000000E+00  0.00000000000E+00  0.21233177792E+04  0.21233177792E+04  0.25500000920E-02 0. -1.
        2   -1    0    0  501    0  0.00000000000E+00  0.00000000000E+00 -0.16933543234E+04  0.16933543234E+04  0.25500000920E-02 0.  1.
    10030    2    1    2    0    0  0.00000000000E+00  0.00000000000E+00  0.42996345584E+03  0.38166721026E+04  0.37923762162E+04 0.  0.
        4    1    3    3  502    0  0.94310363839E+03 -0.10287796451E+04 -0.10768678275E+04  0.17628040055E+04  0.12699999809E+01 0. -1.
       -4    1    3    3    0  502 -0.94310363839E+03  0.10287796451E+04  0.15068312833E+04  0.20538680971E+04  0.12699999809E+01 0.  1.
</event>
<event>
 5   0  0.1150235E-07  0.3799966E+04  0.7818609E-02  0.8046162E-01
       -2   -1    0    0    0  501  0.00000000000E+00  0.00000000000E+00  0.20413747256E+04  0.20413747256E+04  0.25500000920E-02 0. -1.
        2   -1    0    0  501    0  0.00000000000E+00  0.00000000000E+00 -0.17683844156E+04  0.17683844156E+04  0.25500000920E-02 0.  1.
    10030    2    1    2    0    0  0.00000000000E+00  0.00000000000E+00  0.27299030998E+03  0.38097591411E+04  0.37999659214E+04 0.  0.
        4    1    3    3  502    0  0.42146518280E+03 -0.86106044197E+03 -0.15081213051E+04  0.17870337067E+04  0.12699999809E+01 0.  1.
       -4    1    3    3    0  502 -0.42146518280E+03  0.86106044197E+03  0.17811116151E+04  0.20227254345E+04  0.12699999809E+01 0. -1.
</event>
<event>
 5   0  0.3701250E-08  0.3817320E+04  0.7818609E-02  0.8042448E-01
       -1   -1    0    0    0  501  0.00000000000E+00  0.00000000000E+00  0.30458027341E+04  0.30458027341E+04  0.50400001928E-02 0. -1.
        1   -1    0    0  501    0  0.00000000000E+00  0.00000000000E+00 -0.11960665572E+04  0.11960665572E+04  0.50400001928E-02 0.  1.
    10030    2    1    2    0    0  0.00000000000E+00  0.00000000000E+00  0.18497361769E+04  0.42418692913E+04  0.38173198924E+04 0.  0.
        2    1    3    3  502    0  0.11819061569E+04  0.14516356525E+04  0.51082311295E+03  0.19403835920E+04  0.25500000920E-02 0.  1.
       -2    1    3    3    0  502 -0.11819061569E+04 -0.14516356525E+04  0.13389130639E+04  0.23014856993E+04  0.25500000920E-02 0. -1.
</event>
<event>
 5   0  0.1143283E-07  0.3802125E+04  0.7818609E-02  0.8045699E-01
        2   -1    0    0  501    0  0.00000000000E+00  0.00000000000E+00  0.13026295282E+04  0.13026295282E+04  0.25500000920E-02 0.  1.
       -2   -1    0    0    0  501  0.00000000000E+00  0.00000000000E+00 -0.27744183081E+04  0.27744183081E+04  0.25500000920E-02 0. -1.
    10030    2    1    2    0    0  0.00000000000E+00  0.00000000000E+00 -0.14717887799E+04  0.40770478363E+04  0.38021253065E+04 0.  0.
        1    1    3    3  502    0  0.49932358397E+03 -0.64847892316E+03 -0.25758286953E+04  0.27027286994E+04  0.50400001928E-02 0. -1.
       -1    1    3    3    0  502 -0.49932358397E+03  0.64847892316E+03  0.11040399153E+04  0.13743191369E+04  0.50400001928E-02 0.  1.
</event>
<event>
 5   0  0.3701250E-08  0.3812371E+04  0.7818609E-02  0.8043505E-01
        1   -1    0    0  501    0  0.00000000000E+00  0.00000000000E+00  0.12728820194E+04  0.12728820195E+04  0.50400001928E-02 0.  1.
       -1   -1    0    0    0  501  0.00000000000E+00  0.00000000000E+00 -0.28545799358E+04  0.28545799358E+04  0.50400001928E-02 0. -1.
    10030    2    1    2    0    0  0.00000000000E+00  0.00000000000E+00 -0.15816979164E+04  0.41274619553E+04  0.38123711642E+04 0.  0.
        4    1    3    3  502    0  0.44227599932E+03 -0.44187751138E+03  0.11587254704E+04  0.13166283163E+04  0.12699999809E+01 0.  1.
       -4    1    3    3    0  502 -0.44227599932E+03  0.44187751138E+03 -0.27404233868E+04  0.28108336390E+04  0.12699999809E+01 0. -1.
</event>
<event>
 5   0  0.1150235E-07  0.3793938E+04  0.7818609E-02  0.8047457E-01
        2   -1    0    0  501    0  0.00000000000E+00  0.00000000000E+00  0.25883175389E+04  0.25883175389E+04  0.25500000920E-02 0.  1.
       -2   -1    0    0    0  501  0.00000000000E+00  0.00000000000E+00 -0.13902817460E+04  0.13902817460E+04  0.25500000920E-02 0. -1.
    10030    2    1    2    0    0  0.00000000000E+00  0.00000000000E+00  0.11980357929E+04  0.39785992848E+04  0.37939375994E+04 0.  0.
        4    1    3    3  502    0 -0.10658260488E+04  0.15687823666E+04  0.55942117049E+03  0.19773762765E+04  0.12699999809E+01 0.  1.
       -4    1    3    3    0  502  0.10658260488E+04 -0.15687823666E+04  0.63861462240E+03  0.20012230083E+04  0.12699999809E+01 0. -1.
</event>
<event>
 5   0  0.7858367E-08  0.3781158E+04  0.7818609E-02  0.8050210E-01
       -2   -1    0    0    0  501  0.00000000000E+00  0.00000000000E+00  0.11291416529E+04  0.11291416529E+04  0.25500000920E-02 0. -1.
        2   -1    0    0  501    0  0.00000000000E+00  0.00000000000E+00 -0.31654923998E+04  0.31654923998E+04  0.25500000920E-02 0.  1.
    10030    2    1    2    0    0  0.00000000000E+00  0.00000000000E+00 -0.20363507470E+04  0.42946340527E+04  0.37811581932E+04 0.  0.
        2    1    3    3  502    0  0.99712005323E+03 -0.77288767495E+03  0.58111836884E+03  0.13889932747E+04  0.25500000920E-02 0. -1.
       -2    1    3    3    0  502 -0.99712005323E+03  0.77288767495E+03 -0.26174691158E+04  0.29056407780E+04  0.25500000920E-02 0.  1.
</event>
<event>
 5   0  0.3701250E-08  0.3796662E+04  0.7818609E-02  0.8046872E-01
        1   -1    0    0  501    0  0.00000000000E+00  0.00000000000E+00  0.22054573111E+04  0.22054573111E+04  0.50400001928E-02 0. -1.
       -1   -1    0    0    0  501  0.00000000000E+00  0.00000000000E+00 -0.16339743993E+04  0.16339743994E+04  0.50400001928E-02 0.  1.
    10030    2    1    2    0    0  0.00000000000E+00  0.00000000000E+00  0.57148291173E+03  0.38394317104E+04  0.37966621052E+04 0.  0.
        4    1    3    3  502    0  0.18831611320E+04 -0.13945837058E+03  0.88831020150E+02  0.18904065830E+04  0.12699999809E+01 0.  1.
       -4    1    3    3    0  502 -0.18831611320E+04  0.13945837058E+03  0.48265189158E+03  0.19490251274E+04  0.12699999809E+01 0. -1.
</event>
<event>
 5   0  0.3701250E-08  0.3796769E+04  0.7818609E-02  0.8046849E-01
       -1   -1    0    0    0  501  0.00000000000E+00  0.00000000000E+00  0.13177509304E+04  0.13177509304E+04  0.50400001928E-02 0.  1.
        1   -1    0    0  501    0  0.00000000000E+00  0.00000000000E+00 -0.27348599962E+04  0.27348599962E+04  0.50400001928E-02 0. -1.
    10030    2    1    2    0    0  0.00000000000E+00  0.00000000000E+00 -0.14171090658E+04  0.40526109266E+04  0.37967693132E+04 0.  0.
        2    1    3    3  502    0  0.57855293818E+03  0.72434878068E+03  0.10597176906E+04  0.14079794892E+04  0.25500000920E-02 0.  1.
       -2    1    3    3    0  502 -0.57855293818E+03 -0.72434878068E+03 -0.24768267564E+04  0.26446314374E+04  0.25500000920E-02 0. -1.
</event>
<event>
 5   0  0.7858367E-08  0.3809012E+04  0.7818609E-02  0.8044224E-01
        2   -1    0    0  501    0  0.00000000000E+00  0.00000000000E+00  0.19428178005E+04  0.19428178005E+04  0.25500000920E-02 0. -1.
       -2   -1    0    0    0  501  0.00000000000E+00  0.00000000000E+00 -0.18669492618E+04  0.18669492618E+04  0.25500000920E-02 0.  1.
    10030    2    1    2    0    0  0.00000000000E+00  0.00000000000E+00  0.75868538645E+02  0.38097670623E+04  0.38090115560E+04 0.  0.
        2    1    3    3  502    0  0.89299154066E+03  0.23665662012E+03 -0.16278395543E+04  0.18717109451E+04  0.25500000920E-02 0.  1.
       -2    1    3    3    0  502 -0.89299154066E+03 -0.23665662012E+03  0.17037080929E+04  0.19380561172E+04  0.25500000920E-02 0. -1.
</event>
<event>
 5   0  0.1150235E-07  0.3782317E+04  0.7818609E-02  0.8049960E-01
       -2   -1    0    0    0  501  0.00000000000E+00  0.00000000000E+00  0.24079497867E+04  0.24079497867E+04  0.25500000920E-02 0.  1.
        2   -1    0    0  501    0  0.00000000000E+00  0.00000000000E+00 -0.14852806206E+04  0.14852806206E+04  0.25500000920E-02 0. -1.
    10030    2    1    2    0    0  0.00000000000E+00  0.00000000000E+00  0.92266916610E+03  0.38932304073E+04  0.37823173604E+04 0.  0.
        4    1    3    3  502    0 -0.17024082755E+04 -0.93401131054E+01  0.13090117992E+04  0.21475089470E+04  0.12699999809E+01 0. -1.
       -4    1    3    3    0  502  0.17024082755E+04  0.93401131054E+01 -0.38634263311E+03  0.17457214603E+04  0.12699999809E+01 0.  1.
</event>
<event>
 5   0  0.3701250E-08  0.3797323E+04  0.7818609E-02  0.8046730E-01
        1   -1    0    0  501    0  0.00000000000E+00  0.00000000000E+00  0.13915848160E+04  0.13915848160E+04  0.50400001928E-02 0.  1.
       -1   -1    0    0    0  501  0.00000000000E+00  0.00000000000E+00 -0.25905105692E+04  0.25905105692E+04  0.50400001928E-02 0. -1.
    10030    2    1    2    0    0  0.00000000000E+00  0.00000000000E+00 -0.11989257532E+04  0.39820953852E+04  0.37973228326E+04 0.  0.
        4    1    3    3  502    0 -0.69143670276E+03  0.88655525603E+03  0.10049672314E+04  0.15079872961E+04  0.12699999809E+01 0.  1.
       -4    1    3    3    0  502  0.69143670276E+03 -0.88655525603E+03 -0.22038929846E+04  0.24741080891E+04  0.12699999809E+01 0. -1.
</event>
<event>
 5   0  0.3701250E-08  0.3825989E+04  0.7818609E-02  0.8040601E-01
       -1   -1    0    0    0  501  0.00000000000E+00  0.00000000000E+00  0.18657487533E+04  0.18657487533E+04  0.50400001928E-02 0. -1.
        1   -1    0    0  501    0  0.00000000000E+00  0.00000000000E+00 -0.19614364159E+04  0.19614364160E+04  0.50400001928E-02 0.  1.
    10030    2    1    2    0    0  0.00000000000E+00  0.00000000000E+00 -0.95687662624E+02  0.38271851693E+04  0.38259887861E+04 0.  0.
        2    1    3    3  502    0 -0.16954144904E+04  0.33510183556E+03 -0.86835882944E+03  0.19341071819E+04  0.25500000920E-02 0.  1.
       -2    1    3    3    0  502  0.16954144904E+04 -0.33510183556E+03  0.77267116681E+03  0.18930779874E+04  0.25500000920E-02 0. -1.
</event>
<event>
 5   0  0.1174870E-07  0.3835159E+04  0.7818609E-02  0.8038652E-01
       -2   -1    0    0    0  501  0.00000000000E+00  0.00000000000E+00  0.30161755814E+04  0.30161755814E+04  0.25500000920E-02 0. -1.
        2   -1    0    0  501    0  0.00000000000E+00  0.00000000000E+00 -0.12191304209E+04  0.12191304209E+04  0.25500000920E-02 0.  1.
    10030    2    1    2    0    0  0.00000000000E+00  0.00000000000E+00  0.17970451604E+04  0.42353060023E+04  0.38351591394E+04 0.  0.
        5    1    3    3  502    0 -0.56577283351E+03 -0.26925242877E+03 -0.11028853236E+04  0.12684533482E+04  0.46999998093E+01 0.  1.
       -5    1    3    3    0  502  0.56577283351E+03  0.26925242877E+03  0.28999304840E+04  0.29668526541E+04  0.46999998093E+01 0. -1.
</event>
<event>
 5   0  0.1174870E-07  0.3803367E+04  0.7818609E-02  0.8045433E-01
       -2   -1    0    0    0  501  0.00000000000E+00  0.00000000000E+00  0.18647803979E+04  0.18647803979E+04  0.25500000920E-02 0. -1.
        2   -1    0    0  501    0  0.00000000000E+00  0.00000000000E+00 -0.19393169580E+04  0.19393169580E+04  0.25500000920E-02 0.  1.
    10030    2    1    2    0    0  0.00000000000E+00  0.00000000000E+00 -0.74536560127E+02  0.38040973558E+04  0.38033670601E+04 0.  0.
        5    1    3    3  502    0  0.63269500067E+03  0.17131530384E+04  0.49309937831E+03  0.18916567828E+04  0.46999998093E+01 0. -1.
       -5    1    3    3    0  502 -0.63269500067E+03 -0.17131530384E+04 -0.56763593844E+03  0.19124405731E+04  0.46999998093E+01 0.  1.
</event>
<event>
 5   0  0.3701250E-08  0.3780625E+04  0.7818609E-02  0.8050326E-01
       -1   -1    0    0    0  501  0.00000000000E+00  0.00000000000E+00  0.14660982399E+04  0.14660982399E+04  0.50400001928E-02 0. -1.
        1   -1    0    0  501    0  0.00000000000E+00  0.00000000000E+00 -0.24372727391E+04  0.24372727392E+04  0.50400001928E-02 0.  1.
    10030    2    1    2    0    0  0.00000000000E+00  0.00000000000E+00 -0.97117449921E+03  0.39033709791E+04  0.37806249606E+04 0.  0.
        3    1    3    3  502    0 -0.10468827567E+04  0.87762548239E+03  0.86338992790E+03  0.16160545076E+04  0.10100000352E+00 0. -1.
       -3    1    3    3    0  502  0.10468827567E+04 -0.87762548239E+03 -0.18345644271E+04  0.22873164715E+04  0.10100000352E+00 0.  1.
</event>
<event>
 5   0  0.7858367E-08  0.3887459E+04  0.7818609E-02  0.8027643E-01
       -2   -1    0    0    0  501  0.00000000000E+00  0.00000000000E+00  0.19682538458E+04  0.19682538458E+04  0.25500000920E-02 0.  1.
        2   -1    0    0  501    0  0.00000000000E+00  0.00000000000E+00 -0.19195105495E+04  0.19195105495E+04  0.25500000920E-02 0. -1.
    10030    2    1    2    0    0  0.00000000000E+00  0.00000000000E+00  0.48743296226E+02  0.38877643953E+04  0.38874588209E+04 0.  0.
        2    1    3    3  502    0  0.29820310492E+03 -0.13422011602E+04 -0.13496559154E+04  0.19266551680E+04  0.25500000920E-02 0. -1.
       -2    1    3    3    0  502 -0.29820310492E+03  0.13422011602E+04  0.13983992117E+04  0.19611092273E+04  0.25500000920E-02 0.  1.
</event>
<event>
 5   0  0.3701250E-08  0.3783287E+04  0.7818609E-02  0.8049751E-01
        1   -1    0    0  501    0  0.00000000000E+00  0.00000000000E+00  0.14834929340E+04  0.14834929340E+04  0.50400001928E-02 0.  1.
       -1   -1    0    0    0  501  0.00000000000E+00  0.00000000000E+00 -0.24120880603E+04  0.24120880603E+04  0.50400001928E-02 0. -1.
    10030    2    1    2    0    0  0.00000000000E+00  0.00000000000E+00 -0.92859512624E+03  0.38955809943E+04  0.37832872446E+04 0.  0.
        4    1    3    3  502    0  0.11678010858E+04  0.11179803585E+04 -0.14756285791E+04  0.21888628953E+04  0.12699999809E+01 0. -1.
       -4    1    3    3    0  502 -0.11678010858E+04 -0.11179803585E+04  0.54703345283E+03  0.17067180990E+04  0.12699999809E+01 0.  1.
</event>
<event>
 5   0  0.1143283E-07  0.3787341E+04  0.7818609E-02  0.8048877E-01
        2   -1    0    0  501    0  0.00000000000E+00  0.00000000000E+00  0.24621511618E+04  0.24621511618E+04  0.25500000920E-02 0. -1.
       -2   -1    0    0    0  501  0.00000000000E+00  0.00000000000E+00 -0.14564451936E+04  0.14564451936E+04  0.25500000920E-02 0.  1.
    10030    2    1    2    0    0  0.00000000000E+00  0.00000000000E+00  0.10057059683E+04  0.39185963554E+04  0.37873411388E+04 0.  0.
        1    1    3    3  502    0  0.22731076429E+03 -0.12747970015E+04  0.19324809290E+04  0.23262115380E+04  0.50400001928E-02 0. -1.
       -1    1    3    3    0  502 -0.22731076429E+03  0.12747970015E+04 -0.92677496075E+03  0.15923848174E+04  0.50400001928E-02 0.  1.
</event>
<event>
 5   0  0.1174870E-07  0.3796551E+04  0.7818609E-02  0.8046895E-01
        2   -1    0    0  501    0  0.00000000000E+00  0.00000000000E+00  0.11487705653E+04  0.11487705653E+04  0.25500000920E-02 0.  1.
       -2   -1    0    0    0  501  0.00000000000E+00  0.00000000000E+00 -0.31367881363E+04  0.31367881363E+04  0.25500000920E-02 0. -1.
    10030    2    1    2    0    0  0.00000000000E+00  0.00000000000E+00 -0.19880175710E+04  0.42855587016E+04  0.37965510036E+04 0.  0.
        5    1    3    3  502    0 -0.50229500136E+03  0.13961218847E+04  0.34254905084E+03  0.15227667344E+04  0.46999998093E+01 0.  1.
       -5    1    3    3    0  502  0.50229500136E+03 -0.13961218847E+04 -0.23305666218E+04  0.27627919672E+04  0.46999998093E+01 0. -1.
</event>
<event>
 5   0  0.7858367E-08  0.3797669E+04  0.7818609E-02  0.8046655E-01
       -2   -1    0    0    0  501  0.00000000000E+00  0.00000000000E+00  0.16556947713E+04  0.16556947713E+04  0.25500000920E-02 0. -1.
        2   -1    0    0  501    0  0.00000000000E+00  0.00000000000E+00 -0.21776790075E+04  0.21776790075E+04  0.25500000920E-02 0.  1.
    10030    2    1    2    0    0  0.00000000000E+00  0.00000000000E+00 -0.52198423626E+03  0.38333737788E+04  0.37976686250E+04 0.  0.
        2    1    3    3  502    0  0.10057833878E+04  0.13414056957E+04 -0.11607776495E+04  0.20392092132E+04  0.25500000920E-02 0.  1.
       -2    1    3    3    0  502 -0.10057833878E+04 -0.13414056957E+04  0.63879341324E+03  0.17941645656E+04  0.25500000920E-02 0. -1.
</event>
<event>
 5   0  0.3701250E-08  0.3763570E+04  0.7818609E-02  0.8054018E-01
        1   -1    0    0  501    0  0.00000000000E+00  0.00000000000E+00  0.18303264109E+04  0.18303264109E+04  0.50400001928E-02 0. -1.
       -1   -1    0    0    0  501  0.00000000000E+00  0.00000000000E+00 -0.19346906669E+04  0.19346906669E+04  0.50400001928E-02 0.  1.
    10030    2    1    2    0    0  0.00000000000E+00  0.00000000000E+00 -0.10436425602E+03  0.37650170778E+04  0.37635703392E+04 0.  0.
        1    1    3    3  502    0 -0.66980597059E+03  0.29551158712E+03 -0.17863848629E+04  0.19305797095E+04  0.50400001928E-02 0.  1.
       -1    1    3    3    0  502  0.66980597059E+03 -0.29551158712E+03  0.16820206069E+04  0.18344373683E+04  0.50400001928E-02 0. -1.
</event>
<event>
 5   0  0.7858367E-08  0.3795237E+04  0.7818609E-02  0.8047178E-01
        2   -1    0    0  501    0  0.00000000000E+00  0.00000000000E+00  0.31246608953E+04  0.31246608953E+04  0.25500000920E-02 0.  1.
       -2   -1    0    0    0  501  0.00000000000E+00  0.00000000000E+00 -0.11524309858E+04  0.11524309858E+04  0.25500000920E-02 0. -1.
    10030    2    1    2    0    0  0.00000000000E+00  0.00000000000E+00  0.19722299096E+04  0.42770918811E+04  0.37952370338E+04 0.  0.
        2    1    3    3  502    0  0.18389683675E+04  0.22709393044E+03  0.14474542125E+04  0.23512762507E+04  0.25500000920E-02 0.  1.
       -2    1    3    3    0  502 -0.18389683675E+04 -0.22709393044E+03  0.52477569705E+03  0.19258156304E+04  0.25500000920E-02 0. -1.
</event>
<event>
 5   0  0.3701250E-08  0.3780631E+04  0.7818609E-02  0.8050324E-01
        1   -1    0    0  501    0  0.00000000000E+00  0.00000000000E+00  0.21764524270E+04  0.21764524270E+04  0.50400001928E-02 0. -1.
       -1   -1    0    0    0  501  0.00000000000E+00  0.00000000000E+00 -0.16417967300E+04  0.16417967300E+04  0.50400001928E-02 0.  1.
    10030    2    1    2    0    0  0.00000000000E+00  0.00000000000E+00  0.53465569703E+03  0.38182491570E+04  0.37806308879E+04 0.  0.
        3    1    3    3  502    0 -0.52422767454E+03  0.16071289717E+04 -0.58702935534E+03  0.17894920119E+04  0.10100000352E+00 0.  1.
       -3    1    3    3    0  502  0.52422767454E+03 -0.16071289717E+04  0.11216850524E+04  0.20287571450E+04  0.10100000352E+00 0. -1.
</event>
<event>
 5   0  0.3701250E-08  0.3797588E+04  0.7818609E-02  0.8046673E-01
        1   -1    0    0  501    0  0.00000000000E+00  0.00000000000E+00  0.23287239339E+04  0.23287239339E+04  0.50400001928E-02 0.  1.
       -1   -1    0    0    0  501  0.00000000000E+00  0.00000000000E+00 -0.15482376389E+04  0.15482376389E+04  0.50400001928E-02 0. -1.
    10030    2    1    2    0    0  0.00000000000E+00  0.00000000000E+00  0.78048629500E+03  0.38769615727E+04  0.37975876790E+04 0.  0.
        4    1    3    3  502    0 -0.52702215871E+03 -0.12020091953E+04 -0.10106020990E+04  0.16564711518E+04  0.12699999809E+01 0. -1.
       -4    1    3    3    0  502  0.52702215871E+03  0.12020091953E+04  0.17910883940E+04  0.22204904209E+04  0.12699999809E+01 0.  1.
</event>
<event>
 5   0  0.1193861E-07  0.3807122E+04  0.7818609E-02  0.8044628E-01
       -2   -1    0    0    0  501  0.00000000000E+00  0.00000000000E+00  0.26751053559E+04  0.26751053559E+04  0.25500000920E-02 0.  1.
        2   -1    0    0  501    0  0.00000000000E+00  0.00000000000E+00 -0.13545427386E+04  0.13545427386E+04  0.25500000920E-02 0. -1.
    10030    2    1    2    0    0  0.00000000000E+00  0.00000000000E+00  0.13205626173E+04  0.40296480945E+04  0.38071220284E+04 0.  0.
        3    1    3    3  502    0 -0.42646272385E+03 -0.63603311380E+03  0.25048823098E+04  0.26193212810E+04  0.10100000352E+00 0.  1.
       -3    1    3    3    0  502  0.42646272385E+03  0.63603311380E+03 -0.11843196925E+04  0.14103268135E+04  0.10100000352E+00 0. -1.
</event>
<event>
 5   0  0.3701250E-08  0.3796520E+04  0.7818609E-02  0.8046902E-01
       -1   -1    0    0    0  501  0.00000000000E+00  0.00000000000E+00  0.16991902988E+04  0.16991902988E+04  0.50400001928E-02 0. -1.
        1   -1    0    0  501    0  0.00000000000E+00  0.00000000000E+00 -0.21206513069E+04  0.21206513069E+04  0.50400001928E-02 0.  1.
    10030    2    1    2    0    0  0.00000000000E+00  0.00000000000E+00 -0.42146100810E+03  0.38198416058E+04  0.37965195261E+04 0.  0.
        1    1    3    3  502    0  0.12029872446E+04 -0.14588639379E+04 -0.42587694947E+02  0.18913688195E+04  0.50400001928E-02 0. -1.
       -1    1    3    3    0  502 -0.12029872446E+04  0.14588639379E+04 -0.37887331315E+03  0.19284727862E+04  0.50400001928E-02 0.  1.
</event>
<event>
 5   0  0.3701250E-08  0.3827693E+04  0.7818609E-02  0.8040238E-01
       -1   -1    0    0    0  501  0.00000000000E+00  0.00000000000E+00  0.17851454858E+04  0.17851454859E+04  0.50400001928E-02 0.  1.
        1   -1    0    0  501    0  0.00000000000E+00  0.00000000000E+00 -0.20518267990E+04  0.20518267990E+04  0.50400001928E-02 0. -1.
    10030    2    1    2    0    0  0.00000000000E+00  0.00000000000E+00 -0.26668131320E+03  0.38369722849E+04  0.38276934820E+04 0.  0.
        2    1    3    3  502    0  0.75155242793E+03 -0.22338804617E+03 -0.18834468866E+04  0.20401238800E+04  0.25500000920E-02 0. -1.
       -2    1    3    3    0  502 -0.75155242793E+03  0.22338804617E+03  0.16167655734E+04  0.17968484049E+04  0.25500000920E-02 0.  1.
</event>
<event>
 5   0  0.3701250E-08  0.3803603E+04  0.7818609E-02  0.8045382E-01
       -1   -1    0    0    0  501  0.00000000000E+00  0.00000000000E+00  0.15706501742E+04  0.15706501742E+04  0.50400001928E-02 0.  1.
        1   -1    0    0  501    0  0.00000000000E+00  0.00000000000E+00 -0.23027716985E+04  0.23027716985E+04  0.50400001928E-02 0. -1.
    10030    2    1    2    0    0  0.00000000000E+00  0.00000000000E+00 -0.73212152428E+03  0.38734218727E+04  0.38036029075E+04 0.  0.
        2    1    3    3  502    0 -0.17876549252E+04 -0.58440452310E+03 -0.65339238010E+03  0.19910199347E+04  0.25500000920E-02 0.  1.
       -2    1    3    3    0  502  0.17876549252E+04  0.58440452310E+03 -0.78729144183E+02  0.18824019380E+04  0.25500000920E-02 0. -1.
</event>
<event>
 5   0  0.7858367E-08  0.3718236E+04  0.7818609E-02  0.8063933E-01
       -2   -1    0    0    0  501  0.00000000000E+00  0.00000000000E+00  0.14019226187E+04  0.14019226187E+04  0.25500000920E-02 0. -1.
        2   -1    0    0  501    0  0.00000000000E+00  0.00000000000E+00 -0.24654139708E+04  0.24654139708E+04  0.25500000920E-02 0.  1.
    10030    2    1    2    0    0  0.00000000000E+00  0.00000000000E+00 -0.10634913521E+04  0.38673365895E+04  0.37182359313E+04 0.  0.
        2    1    3    3  502    0  0.23653916511E+03 -0.16448755947E+03  0.13785620311E+04  0.14083466219E+04  0.25500000920E-02 0. -1.
       -2    1    3    3    0  502 -0.23653916511E+03  0.16448755947E+03 -0.24420533833E+04  0.24589899676E+04  0.25500000920E-02 0.  1.
</event>
<event>
 5   0  0.3701250E-08  0.3787205E+04  0.7818609E-02  0.8048906E-01
        1   -1    0    0  501    0  0.00000000000E+00  0.00000000000E+00  0.21655125329E+04  0.21655125329E+04  0.50400001928E-02 0.  1.
       -1   -1    0    0    0  501  0.00000000000E+00  0.00000000000E+00 -0.16558343222E+04  0.16558343222E+04  0.50400001928E-02 0. -1.
    10030    2    1    2    0    0  0.00000000000E+00  0.00000000000E+00  0.50967821067E+03  0.38213468552E+04  0.37872047620E+04 0.  0.
        4    1    3    3  502    0  0.10344521947E+04  0.11331603239E+04 -0.86493344081E+03  0.17613219844E+04  0.12699999809E+01 0. -1.
       -4    1    3    3    0  502 -0.10344521947E+04 -0.11331603239E+04  0.13746116515E+04  0.20600248708E+04  0.12699999809E+01 0.  1.
</event>
<event>
 5   0  0.3701250E-08  0.3808820E+04  0.7818609E-02  0.8044265E-01
        1   -1    0    0  501    0  0.00000000000E+00  0.00000000000E+00  0.36023154339E+04  0.36023154339E+04  0.50400001928E-02 0. -1.
       -1   -1    0    0    0  501  0.00000000000E+00  0.00000000000E+00 -0.10067904913E+04  0.10067904913E+04  0.50400001928E-02 0.  1.
    10030    2    1    2    0    0  0.00000000000E+00  0.00000000000E+00  0.25955249426E+04  0.46091059252E+04  0.38088197256E+04 0.  0.
        4    1    3    3  502    0 -0.51063054152E+03 -0.26082515093E+03  0.34953780697E+04  0.35420958163E+04  0.12699999809E+01 0. -1.
       -4    1    3    3    0  502  0.51063054152E+03  0.26082515093E+03 -0.89985312705E+03  0.10670101089E+04  0.12699999809E+01 0.  1.
</event>
<event>
 5   0  0.1193861E-07  0.3757989E+04  0.7818609E-02  0.8055231E-01
       -2   -1    0    0    0  501  0.00000000000E+00  0.00000000000E+00  0.13389770381E+04  0.13389770381E+04  0.25500000920E-02 0.  1.
        2   -1    0    0  501    0  0.00000000000E+00  0.00000000000E+00 -0.26368042305E+04  0.26368042305E+04  0.25500000920E-02 0. -1.
    10030    2    1    2    0    0  0.00000000000E+00  0.00000000000E+00 -0.12978271924E+04  0.39757812686E+04  0.37579889934E+04 0.  0.
        3    1    3    3  502    0  0.30984907662E+03 -0.55513052615E+03  0.12217353927E+04  0.13772486092E+04  0.10100000352E+00 0.  1.
       -3    1    3    3    0  502 -0.30984907662E+03  0.55513052615E+03 -0.25195625852E+04  0.25985326594E+04  0.10100000352E+00 0. -1.
</event>
<event>
 5   0  0.1150235E-07  0.3807301E+04  0.7818609E-02  0.8044590E-01
       -2   -1    0    0    0  501  0.00000000000E+00  0.00000000000E+00  0.17068682956E+04  0.17068682956E+04  0.25500000920E-02 0. -1.
        2   -1    0    0  501    0  0.00000000000E+00  0.00000000000E+00 -0.21231198331E+04  0.21231198331E+04  0.25500000920E-02 0.  1.
    10030    2    1    2    0    0  0.00000000000E+00  0.00000000000E+00 -0.41625153756E+03  0.38299881287E+04  0.38073013702E+04 0.  0.
        4    1    3    3  502    0 -0.56870398939E+03 -0.17083579813E+04  0.41359669768E+03  0.18474238986E+04  0.12699999809E+01 0. -1.
       -4    1    3    3    0  502  0.56870398939E+03  0.17083579813E+04 -0.82984823524E+03  0.19825642301E+04  0.12699999809E+01 0.  1.
</event>
<event>
 5   0  0.1143283E-07  0.3793528E+04  0.7818609E-02  0.8047545E-01
        2   -1    0    0  501    0  0.00000000000E+00  0.00000000000E+00  0.20111445883E+04  0.20111445883E+04  0.25500000920E-02 0.  1.
       -2   -1    0    0    0  501  0.00000000000E+00  0.00000000000E+00 -0.17888890723E+04  0.17888890723E+04  0.25500000920E-02 0. -1.
    10030    2    1    2    0    0  0.00000000000E+00  0.00000000000E+00  0.22225551601E+03  0.38000336607E+04  0.37935284773E+04 0.  0.
        1    1    3    3  502    0  0.97820423408E+03 -0.22447987330E+03  0.17233720588E+04  0.19943134132E+04  0.50400001928E-02 0.  1.
       -1    1    3    3    0  502 -0.97820423408E+03  0.22447987330E+03 -0.15011165428E+04  0.18057202475E+04  0.50400001928E-02 0. -1.
</event>
<event>
 5   0  0.3701250E-08  0.3807990E+04  0.7818609E-02  0.8044442E-01
       -1   -1    0    0    0  501  0.00000000000E+00  0.00000000000E+00  0.20376079395E+04  0.20376079395E+04  0.50400001928E-02 0. -1.
        1   -1    0    0  501    0  0.00000000000E+00  0.00000000000E+00 -0.17791435202E+04  0.17791435202E+04  0.50400001928E-02 0.  1.
    10030    2    1    2    0    0  0.00000000000E+00  0.00000000000E+00  0.25846441929E+03  0.38167514597E+04  0.38079900012E+04 0.  0.
        1    1    3    3  502    0  0.28568390504E+03  0.23240575482E+03 -0.17431046652E+04  0.17815840149E+04  0.50400001928E-02 0.  1.
       -1    1    3    3    0  502 -0.28568390504E+03 -0.23240575482E+03  0.20015690844E+04  0.20351674448E+04  0.50400001928E-02 0. -1.
</event>
<event>
 5   0  0.1174870E-07  0.3795736E+04  0.7818609E-02  0.8047071E-01
       -2   -1    0    0    0  501  0.00000000000E+00  0.00000000000E+00  0.14611904086E+04  0.14611904086E+04  0.25500000920E-02 0. -1.
        2   -1    0    0  501    0  0.00000000000E+00  0.00000000000E+00 -0.24650466618E+04  0.24650466618E+04  0.25500000920E-02 0.  1.
    10030    2    1    2    0    0  0.00000000000E+00  0.00000000000E+00 -0.10038562532E+04  0.39262370704E+04  0.37957357859E+04 0.  0.
        5    1    3    3  502    0  0.40860710045E+03 -0.15976070360E+04 -0.14736807616E+04  0.22115752488E+04  0.46999998093E+01 0.  1.
       -5    1    3    3    0  502 -0.40860710045E+03  0.15976070360E+04  0.46982450837E+03  0.17146618216E+04  0.46999998093E+01 0. -1.
</event>
<event>
 5   0  0.7858367E-08  0.3808879E+04  0.7818609E-02  0.8044252E-01
        2   -1    0    0  501    0  0.00000000000E+00  0.00000000000E+00  0.15994111536E+04  0.15994111536E+04  0.25500000920E-02 0. -1.
       -2   -1    0    0    0  501  0.00000000000E+00  0.00000000000E+00 -0.22676407246E+04  0.22676407246E+04  0.25500000920E-02 0.  1.
    10030    2    1    2    0    0  0.00000000000E+00  0.00000000000E+00 -0.66822957103E+03  0.38670518782E+04  0.38088790305E+04 0.  0.
        2    1    3    3  502    0 -0.47933681423E+03  0.17979819628E+04  0.77524185585E+02  0.18623944049E+04  0.25500000920E-02 0. -1.
       -2    1    3    3    0  502  0.47933681423E+03 -0.17979819628E+04 -0.74575375662E+03  0.20046574733E+04  0.25500000920E-02 0.  1.
</event>
<event>
 5   0  0.3889225E-08  0.3709764E+04  0.7818609E-02  0.8065801E-01
        1   -1    0    0  501    0  0.00000000000E+00  0.00000000000E+00  0.17629639262E+04  0.17629639262E+04  0.50400001928E-02 0. -1.
       -1   -1    0    0    0  501  0.00000000000E+00  0.00000000000E+00 -0.19515928564E+04  0.19515928564E+04  0.50400001928E-02 0.  1.
    10030    2    1    2    0    0  0.00000000000E+00  0.00000000000E+00 -0.18862893014E+03  0.37145567826E+04  0.37097643076E+04 0.  0.
        5    1    3    3  502    0  0.96064251385E+03  0.65881560779E+02  0.14931014730E+04  0.17766678131E+04  0.46999998093E+01 0. -1.
       -5    1    3    3    0  502 -0.96064251385E+03 -0.65881560779E+02 -0.16817304031E+04  0.19378889695E+04  0.46999998093E+01 0.  1.
</event>
<event>
 5   0  0.1150235E-07  0.3824125E+04  0.7818609E-02  0.8040997E-01
       -2   -1    0    0    0  501  0.00000000000E+00  0.00000000000E+00  0.16718911329E+04  0.16718911329E+04  0.25500000920E-02 0.  1.
        2   -1    0    0  501    0  0.00000000000E+00  0.00000000000E+00 -0.21867352640E+04  0.21867352640E+04  0.25500000920E-02 0. -1.
    10030    2    1    2    0    0  0.00000000000E+00  0.00000000000E+00 -0.51484413112E+03  0.38586263969E+04  0.38241251538E+04 0.  0.
        4    1    3    3  502    0  0.67186351938E+03 -0.17838355392E+04 -0.40881526866E+03  0.19495131075E+04  0.12699999809E+01 0. -1.
       -4    1    3    3    0  502 -0.67186351938E+03  0.17838355392E+04 -0.10602886246E+03  0.19091132895E+04  0.12699999809E+01 0.  1.
</event>
<event>
 5   0  0.7858367E-08  0.3811368E+04  0.7818609E-02  0.8043720E-01
        2   -1    0    0  501    0  0.00000000000E+00  0.00000000000E+00  0.22912081003E+04  0.22912081003E+04  0.25500000920E-02 0. -1.
       -2   -1    0    0    0  501  0.00000000000E+00  0.00000000000E+00 -0.15850290744E+04  0.15850290744E+04  0.25500000920E-02 0.  1.
    10030    2    1    2    0    0  0.00000000000E+00  0.00000000000E+00  0.70617902592E+03  0.38762371747E+04  0.38113679720E+04 0.  0.
        2    1    3    3  502    0  0.21025807714E+03  0.14720174425E+04  0.15652593656E+04  0.21589536104E+04  0.25500000920E-02 0.  1.
       -2    1    3    3    0  502 -0.21025807714E+03 -0.14720174425E+04 -0.85908033971E+03  0.17172835643E+04  0.25500000920E-02 0. -1.
</event>
<event>
 5   0  0.1150235E-07  0.3818583E+04  0.7818609E-02  0.8042179E-01
        2   -1    0    0  501    0  0.00000000000E+00  0.00000000000E+00  0.20917846912E+04  0.20917846912E+04  0.25500000920E-02 0. -1.
       -2   -1    0    0    0  501  0.00000000000E+00  0.00000000000E+00 -0.17427194886E+04  0.17427194886E+04  0.25500000920E-02 0.  1.
    10030    2    1    2    0    0  0.00000000000E+00  0.00000000000E+00  0.34906520265E+03  0.38345041798E+04  0.38185829557E+04 0.  0.
        4    1    3    3  502    0 -0.16808707500E+04 -0.65543584750E+02 -0.73243301458E+03  0.18346885767E+04  0.12699999809E+01 0.  1.
       -4    1    3    3    0  502  0.16808707500E+04  0.65543584750E+02  0.10814982172E+04  0.19998156031E+04  0.12699999809E+01 0. -1.
</event>
<event>
 5   0  0.7858367E-08  0.3802169E+04  0.7818609E-02  0.8045689E-01
        2   -1    0    0  501    0  0.00000000000E+00  0.00000000000E+00  0.25091755163E+04  0.25091755163E+04  0.25500000920E-02 0.  1.
       -2   -1    0    0    0  501  0.00000000000E+00  0.00000000000E+00 -0.14403627783E+04  0.14403627783E+04  0.25500000920E-02 0. -1.
    10030    2    1    2    0    0  0.00000000000E+00  0.00000000000E+00  0.10688127380E+04  0.39495382947E+04  0.38021693902E+04 0.  0.
        2    1    3    3  502    0  0.14706727318E+04 -0.11128345905E+04  0.55174732713E+02  0.18450808549E+04  0.25500000920E-02 0. -1.
       -2    1    3    3    0  502 -0.14706727318E+04  0.11128345905E+04  0.10136380053E+04  0.21044574398E+04  0.25500000920E-02 0.  1.
</event>
<event>
 5   0  0.3701250E-08  0.3802806E+04  0.7818609E-02  0.8045553E-01
       -1   -1    0    0    0  501  0.00000000000E+00  0.00000000000E+00  0.14954499611E+04  0.14954499611E+04  0.50400001928E-02 0. -1.
        1   -1    0    0  501    0  0.00000000000E+00  0.00000000000E+00 -0.24175555964E+04  0.24175555964E+04  0.50400001928E-02 0.  1.
    10030    2    1    2    0    0  0.00000000000E+00  0.00000000000E+00 -0.92210563528E+03  0.39130055576E+04  0.38028060286E+04 0.  0.
        2    1    3    3  502    0  0.18006665532E+04 -0.38114090492E+03 -0.95202221571E+03  0.20722004547E+04  0.25500000920E-02 0. -1.
       -2    1    3    3    0  502 -0.18006665532E+04  0.38114090492E+03  0.29916580423E+02  0.18408051029E+04  0.25500000920E-02 0.  1.
</event>
<event>
 5   0  0.3701250E-08  0.3863412E+04  0.7818609E-02  0.8032682E-01
        1   -1    0    0  501    0  0.00000000000E+00  0.00000000000E+00  0.17901922323E+04  0.17901922323E+04  0.50400001928E-02 0.  1.
       -1   -1    0    0    0  501  0.00000000000E+00  0.00000000000E+00 -0.20844068643E+04  0.20844068643E+04  0.50400001928E-02 0. -1.
    10030    2    1    2    0    0  0.00000000000E+00  0.00000000000E+00 -0.29421463203E+03  0.38745990966E+04  0.38634124695E+04 0.  0.
        2    1    3    3  502    0 -0.15111036437E+03 -0.96665070196E+02  0.17818209990E+04  0.17908278953E+04  0.25500000920E-02 0.  1.
       -2    1    3    3    0  502  0.15111036437E+03  0.96665070196E+02 -0.20760356310E+04  0.20837712013E+04  0.25500000920E-02 0. -1.
</event>
<event>
 5   0  0.1143283E-07  0.3822188E+04  0.7818609E-02  0.8041410E-01
        2   -1    0    0  501    0  0.00000000000E+00  0.00000000000E+00  0.23544268370E+04  0.23544268370E+04  0.25500000920E-02 0. -1.
       -2   -1    0    0    0  501  0.00000000000E+00  0.00000000000E+00 -0.15512397020E+04  0.15512397020E+04  0.25500000920E-02 0.  1.
    10030    2    1    2    0    0  0.00000000000E+00  0.00000000000E+00  0.80318713493E+03  0.39056665390E+04  0.38221880566E+04 0.  0.
        1    1    3    3  502    0  0.11546544942E+04 -0.13466719451E+04 -0.32494009566E+03  0.18034240751E+04  0.50400001928E-02 0.  1.
       -1    1    3    3    0  502 -0.11546544942E+04  0.13466719451E+04  0.11281272306E+04  0.21022424639E+04  0.50400001928E-02 0. -1.
</event>
<event>
 5   0  0.3701250E-08  0.3746103E+04  0.7818609E-02  0.8057821E-01
       -1   -1    0    0    0  501  0.00000000000E+00  0.00000000000E+00  0.13922656758E+04  0.13922656758E+04  0.50400001928E-02 0. -1.
        1   -1    0    0  501    0  0.00000000000E+00  0.00000000000E+00 -0.25198654938E+04  0.25198654938E+04  0.50400001928E-02 0.  1.
    10030    2    1    2    0    0  0.00000000000E+00  0.00000000000E+00 -0.11275998180E+04  0.39121311695E+04  0.37461031670E+04 0.  0.
        1    1    3    3  502    0  0.22721911287E+03  0.68214567178E+03 -0.23700122825E+04  0.24766730633E+04  0.50400001928E-02 0.  1.
       -1    1    3    3    0  502 -0.22721911287E+03 -0.68214567178E+03  0.12424124645E+04  0.14354581063E+04  0.50400001928E-02 0. -1.
</event>
<event>
 5   0  0.3889225E-08  0.3726002E+04  0.7818609E-02  0.8062224E-01
        1   -1    0    0  501    0  0.00000000000E+00  0.00000000000E+00  0.25928856601E+04  0.25928856601E+04  0.50400001928E-02 0. -1.
       -1   -1    0    0    0  501  0.00000000000E+00  0.00000000000E+00 -0.13385752580E+04  0.13385752581E+04  0.50400001928E-02 0.  1.
    10030    2    1    2    0    0  0.00000000000E+00  0.00000000000E+00  0.12543104020E+04  0.39314609181E+04  0.37260019278E+04 0.  0.
        5    1    3    3  502    0 -0.12911348182E+04  0.13366405831E+04  0.76518670068E+03  0.20097686295E+04  0.46999998093E+01 0.  1.
       -5    1    3    3    0  502  0.12911348182E+04 -0.13366405831E+04  0.48912370134E+03  0.19216922887E+04  0.46999998093E+01 0. -1.
</event>
<event>
 5   0  0.1143283E-07  0.3819250E+04  0.7818609E-02  0.8042036E-01
       -2   -1    0    0    0  501  0.00000000000E+00  0.00000000000E+00  0.13619764670E+04  0.13619764670E+04  0.25500000920E-02 0.  1.
        2   -1    0    0  501    0  0.00000000000E+00  0.00000000000E+00 -0.26774827838E+04  0.26774827838E+04  0.25500000920E-02 0. -1.
    10030    2    1    2    0    0  0.00000000000E+00  0.00000000000E+00 -0.13155063169E+04  0.40394592508E+04  0.38192504722E+04 0.  0.
        1    1    3    3  502    0 -0.32080378639E+03 -0.98267382100E+03 -0.23559789971E+04  0.25727805858E+04  0.50400001928E-02 0. -1.
       -1    1    3    3    0  502  0.32080378639E+03  0.98267382100E+03  0.10404726803E+04  0.14666786650E+04  0.50400001928E-02 0.  1.
</event>
<event>
 5   0  0.3701250E-08  0.3779673E+04  0.7818609E-02  0.8050531E-01
        1   -1    0    0  501    0  0.00000000000E+00  0.00000000000E+00  0.29251370020E+04  0.29251370021E+04  0.50400001928E-02 0.  1.
       -1   -1    0    0    0  501  0.00000000000E+00  0.00000000000E+00 -0.12209625448E+04  0.12209625448E+04  0.50400001928E-02 0. -1.
    10030    2    1    2    0    0  0.00000000000E+00  0.00000000000E+00  0.17041744572E+04  0.41460995469E+04  0.37796733817E+04 0.  0.
        2    1    3    3  502    0 -0.18070597585E+04  0.54127564001E+03  0.97734309783E+03  0.21245337889E+04  0.25500000920E-02 0.  1.
       -2    1    3    3    0  502  0.18070597585E+04 -0.54127564001E+03  0.72683135938E+03  0.20215657580E+04  0.25500000920E-02 0. -1.
</event>
<event>
 5   0  0.7858367E-08  0.3798032E+04  0.7818609E-02  0.8046577E-01
       -2   -1    0    0    0  501  0.00000000000E+00  0.00000000000E+00  0.13806387257E+04  0.13806387257E+04  0.25500000920E-02 0. -1.
        2   -1    0    0  501    0  0.00000000000E+00  0.00000000000E+00 -0.26120244097E+04  0.26120244097E+04  0.25500000920E-02 0.  1.
    10030    2    1    2    0    0  0.00000000000E+00  0.00000000000E+00 -0.12313856840E+04  0.39926631354E+04  0.37980321497E+04 0.  0.
        2    1    3    3  502    0  0.91411745933E+03  0.91941099944E+02  0.11314622121E+04  0.14574877814E+04  0.25500000920E-02 0. -1.
       -2    1    3    3    0  502 -0.91411745933E+03 -0.91941099944E+02 -0.23628478962E+04  0.25351753540E+04  0.25500000920E-02 0.  1.
</event>
<event>
 5   0  0.3701250E-08  0.3816377E+04  0.7818609E-02  0.8042649E-01
       -1   -1    0    0    0  501  0.00000000000E+00  0.00000000000E+00  0.14980251370E+04  0.14980251370E+04  0.50400001928E-02 0.  1.
        1   -1    0    0  501    0  0.00000000000E+00  0.00000000000E+00 -0.24306563296E+04  0.24306563296E+04  0.50400001928E-02 0. -1.
    10030    2    1    2    0    0  0.00000000000E+00  0.00000000000E+00 -0.93263119257E+03  0.39286814666E+04  0.38163774872E+04 0.  0.
        4    1    3    3  502    0  0.81338608217E+03  0.37733015356E+03 -0.22002835152E+04  0.23759680393E+04  0.12699999809E+01 0. -1.
       -4    1    3    3    0  502 -0.81338608217E+03 -0.37733015356E+03  0.12676523226E+04  0.15527134273E+04  0.12699999809E+01 0.  1.
</event>
<event>
 5   0  0.3701250E-08  0.3752775E+04  0.7818609E-02  0.8056366E-01
        1   -1    0    0  501    0  0.00000000000E+00  0.00000000000E+00  0.20262669388E+04  0.20262669388E+04  0.50400001928E-02 0. -1.
       -1   -1    0    0    0  501  0.00000000000E+00  0.00000000000E+00 -0.17375940649E+04  0.17375940649E+04  0.50400001928E-02 0.  1.
    10030    2    1    2    0    0  0.00000000000E+00  0.00000000000E+00  0.28867287393E+03  0.37638610037E+04  0.37527746571E+04 0.  0.
        1    1    3    3  502    0 -0.93186906861E+03 -0.32858683684E+03 -0.14555185605E+04  0.17592281121E+04  0.50400001928E-02 0.  1.
       -1    1    3    3    0  502  0.93186906861E+03  0.32858683684E+03  0.17441914344E+04  0.20046328916E+04  0.50400001928E-02 0. -1.
</event>
<event>
 5   0  0.1174870E-07  0.3796481E+04  0.7818609E-02  0.8046911E-01
        2   -1    0    0  501    0  0.00000000000E+00  0.00000000000E+00  0.19748474397E+04  0.19748474397E+04  0.25500000920E-02 0. -1.
       -2   -1    0    0    0  501  0.00000000000E+00  0.00000000000E+00 -0.18246047902E+04  0.18246047902E+04  0.25500000920E-02 0.  1.
    10030    2    1    2    0    0  0.00000000000E+00  0.00000000000E+00  0.15024264950E+03  0.37994522299E+04  0.37964805273E+04 0.  0.
        5    1    3    3  502    0  0.28161979446E+03 -0.18695774149E+04  0.24456005024E+03  0.19064262711E+04  0.46999998093E+01 0.  1.
       -5    1    3    3    0  502 -0.28161979446E+03  0.18695774149E+04 -0.94317400737E+02  0.18930259589E+04  0.46999998093E+01 0. -1.
</event>
<event>
 5   0  0.3701250E-08  0.3802165E+04  0.7818609E-02  0.8045690E-01
        1   -1    0    0  501    0  0.00000000000E+00  0.00000000000E+00  0.19139033568E+04  0.19139033568E+04  0.50400001928E-02 0.  1.
       -1   -1    0    0    0  501  0.00000000000E+00  0.00000000000E+00 -0.18883476570E+04  0.18883476570E+04  0.50400001928E-02 0. -1.
    10030    2    1    2    0    0  0.00000000000E+00  0.00000000000E+00  0.25555699758E+02  0.38022510138E+04  0.38021651303E+04 0.  0.
        3    1    3    3  502    0  0.22966543465E+03 -0.33367854655E+03 -0.18446890234E+04  0.18886410955E+04  0.10100000352E+00 0. -1.
       -3    1    3    3    0  502 -0.22966543465E+03  0.33367854655E+03  0.18702447232E+04  0.19136099182E+04  0.10100000352E+00 0.  1.
</event>
<event>
 5   0  0.3701250E-08  0.3865684E+04  0.7818609E-02  0.8032204E-01
       -1   -1    0    0    0  501  0.00000000000E+00  0.00000000000E+00  0.20449586638E+04  0.20449586638E+04  0.50400001928E-02 0. -1.
        1   -1    0    0  501    0  0.00000000000E+00  0.00000000000E+00 -0.18268721001E+04  0.18268721001E+04  0.50400001928E-02 0.  1.
    10030    2    1    2    0    0  0.00000000000E+00  0.00000000000E+00  0.21808656370E+03  0.38718307640E+04  0.38656838613E+04 0.  0.
        3    1    3    3  502    0  0.43733474886E+03 -0.64513465815E+03 -0.16625025234E+04  0.18361304584E+04  0.10100000352E+00 0.  1.
       -3    1    3    3    0  502 -0.43733474886E+03  0.64513465815E+03  0.18805890871E+04  0.20357003056E+04  0.10100000352E+00 0. -1.
</event>
<event>
 5   0  0.7858367E-08  0.3883607E+04  0.7818609E-02  0.8028447E-01
       -2   -1    0    0    0  501  0.00000000000E+00  0.00000000000E+00  0.18933141792E+04  0.18933141792E+04  0.25500000920E-02 0.  1.
        2   -1    0    0  501    0  0.00000000000E+00  0.00000000000E+00 -0.19915343738E+04  0.19915343738E+04  0.25500000920E-02 0. -1.
    10030    2    1    2    0    0  0.00000000000E+00  0.00000000000E+00 -0.98220194524E+02  0.38848485530E+04  0.38836067094E+04 0.  0.
        2    1    3    3  502    0  0.20520239311E+03  0.63403556686E+03 -0.18735603928E+04  0.19885516507E+04  0.25500000920E-02 0. -1.
       -2    1    3    3    0  502 -0.20520239311E+03 -0.63403556686E+03  0.17753401982E+04  0.18962969023E+04  0.25500000920E-02 0.  1.
</event>
<event>
 5   0  0.1150235E-07  0.3816757E+04  0.7818609E-02  0.8042568E-01
        2   -1    0    0  501    0  0.00000000000E+00  0.00000000000E+00  0.17215269433E+04  0.17215269433E+04  0.25500000920E-02 0.  1.
       -2   -1    0    0    0  501  0.00000000000E+00  0.00000000000E+00 -0.21155104360E+04  0.21155104360E+04  0.25500000920E-02 0. -1.
    10030    2    1    2    0    0  0.00000000000E+00  0.00000000000E+00 -0.39398349271E+03  0.38370373792E+04  0.38167568506E+04 0.  0.
        4    1    3    3  502    0 -0.10030464588E+04 -0.42035387438E+03  0.13794947362E+04  0.17566464978E+04  0.12699999809E+01 0.  1.
       -4    1    3    3    0  502  0.10030464588E+04  0.42035387438E+03 -0.17734782289E+04  0.20803908814E+04  0.12699999809E+01 0. -1.
</event>
<event>
 5   0  0.3701250E-08  0.3794260E+04  0.7818609E-02  0.8047388E-01
        1   -1    0    0  501    0  0.00000000000E+00  0.00000000000E+00  0.21986964376E+04  0.21986964376E+04  0.50400001928E-02 0. -1.
       -1   -1    0    0    0  501  0.00000000000E+00  0.00000000000E+00 -0.16369256420E+04  0.16369256420E+04  0.50400001928E-02 0.  1.
    10030    2    1    2    0    0  0.00000000000E+00  0.00000000000E+00  0.56177079559E+03  0.38356220797E+04  0.37942601797E+04 0.  0.
        3    1    3    3  502    0 -0.12842117623E+04  0.84498083844E+03 -0.84294853940E+03  0.17532126848E+04  0.10100000352E+00 0.  1.
       -3    1    3    3    0  502  0.12842117623E+04 -0.84498083844E+03  0.14047193350E+04  0.20824093949E+04  0.10100000352E+00 0. -1.
</event>
<event>
 5   0  0.7858367E-08  0.3798334E+04  0.7818609E-02  0.8046513E-01
        2   -1    0    0  501    0  0.00000000000E+00  0.00000000000E+00  0.22121582129E+04  0.22121582129E+04  0.25500000920E-02 0. -1.
       -2   -1    0    0    0  501  0.00000000000E+00  0.00000000000E+00 -0.16304595497E+04  0.16304595497E+04  0.25500000920E-02 0.  1.
    10030    2    1    2    0    0  0.00000000000E+00  0.00000000000E+00  0.58169866321E+03  0.38426177627E+04  0.37983335734E+04 0.  0.
        2    1    3    3  502    0  0.91252010594E+03  0.82304419926E+03 -0.11740451796E+04  0.16995519355E+04  0.25500000920E-02 0.  1.
       -2    1    3    3    0  502 -0.91252010594E+03 -0.82304419926E+03  0.17557438429E+04  0.21430658271E+04  0.25500000920E-02 0. -1.
</event>
<event>
 5   0  0.1150235E-07  0.3781974E+04  0.7818609E-02  0.8050034E-01
       -2   -1    0    0    0  501  0.00000000000E+00  0.00000000000E+00  0.15322158780E+04  0.15322158780E+04  0.25500000920E-02 0. -1.
        2   -1    0    0  501    0  0.00000000000E+00  0.00000000000E+00 -0.23337652358E+04  0.23337652358E+04  0.25500000920E-02 0.  1.
    10030    2    1    2    0    0  0.00000000000E+00  0.00000000000E+00 -0.80154935783E+03  0.38659811138E+04  0.37819741669E+04 0.  0.
        4    1    3    3  502    0 -0.29413320946E+03 -0.18452746027E+04 -0.10401981302E+03  0.18714631813E+04  0.12699999809E+01 0. -1.
       -4    1    3    3    0  502  0.29413320946E+03  0.18452746027E+04 -0.69752954482E+03  0.19945179325E+04  0.12699999809E+01 0.  1.
</event>
<event>
 5   0  0.1143283E-07  0.3802388E+04  0.7818609E-02  0.8045643E-01
       -2   -1    0    0    0  501  0.00000000000E+00  0.00000000000E+00  0.16877410171E+04  0.16877410171E+04  0.25500000920E-02 0. -1.
        2   -1    0    0  501    0  0.00000000000E+00  0.00000000000E+00 -0.21416434296E+04  0.21416434296E+04  0.25500000920E-02 0.  1.
    10030    2    1    2    0    0  0.00000000000E+00  0.00000000000E+00 -0.45390241242E+03  0.38293844467E+04  0.38023884390E+04 0.  0.
        1    1    3    3  502    0 -0.70383520358E+03  0.85094122931E+03  0.13316327003E+04  0.17299510450E+04  0.50400001928E-02 0. -1.
       -1    1    3    3    0  502  0.70383520358E+03 -0.85094122931E+03 -0.17855351127E+04  0.20994334017E+04  0.50400001928E-02 0.  1.
</event>
<event>
 5   0  0.3701250E-08  0.3813683E+04  0.7818609E-02  0.8043225E-01
        1   -1    0    0  501    0  0.00000000000E+00  0.00000000000E+00  0.11897413787E+04  0.11897413787E+04  0.50400001928E-02 0. -1.
       -1   -1    0    0    0  501  0.00000000000E+00  0.00000000000E+00 -0.30561636326E+04  0.30561636326E+04  0.50400001928E-02 0.  1.
    10030    2    1    2    0    0  0.00000000000E+00  0.00000000000E+00 -0.18664222539E+04  0.42459050113E+04  0.38136829096E+04 0.  0.
        3    1    3    3  502    0 -0.10718593746E+02  0.16843943649E+04  0.61804234513E+02  0.16855619355E+04  0.10100000352E+00 0. -1.
       -3    1    3    3    0  502  0.10718593746E+02 -0.16843943649E+04 -0.19282264884E+04  0.25603430758E+04  0.10100000352E+00 0.  1.
</event>
<event>
 5   0  0.7858367E-08  0.3807412E+04  0.7818609E-02  0.8044566E-01
        2   -1    0    0  501    0  0.00000000000E+00  0.00000000000E+00  0.15888907071E+04  0.15888907071E+04  0.25500000920E-02 0.  1.
       -2   -1    0    0    0  501  0.00000000000E+00  0.00000000000E+00 -0.22808978181E+04  0.22808978181E+04  0.25500000920E-02 0. -1.
    10030    2    1    2    0    0  0.00000000000E+00  0.00000000000E+00 -0.69200711100E+03  0.38697885253E+04  0.38074124269E+04 0.  0.
        2    1    3    3  502    0  0.92942492468E+03 -0.16468523521E+04 -0.12299150246E+03  0.18950145830E+04  0.25500000920E-02 0. -1.
       -2    1    3    3    0  502 -0.92942492468E+03  0.16468523521E+04 -0.56901560854E+03  0.19747739423E+04  0.25500000920E-02 0.  1.
</event>
<event>
 5   0  0.3889225E-08  0.3814173E+04  0.7818609E-02  0.8043120E-01
       -1   -1    0    0    0  501  0.00000000000E+00  0.00000000000E+00  0.29685187987E+04  0.29685187987E+04  0.50400001928E-02 0.  1.
        1   -1    0    0  501    0  0.00000000000E+00  0.00000000000E+00 -0.12251831440E+04  0.12251831440E+04  0.50400001928E-02 0. -1.
    10030    2    1    2    0    0  0.00000000000E+00  0.00000000000E+00  0.17433356547E+04  0.41937019427E+04  0.38141731449E+04 0.  0.
        5    1    3    3  502    0  0.10151979371E+04  0.13747108475E+04 -0.59022835487E+02  0.17099598098E+04  0.46999998093E+01 0. -1.
       -5    1    3    3    0  502 -0.10151979371E+04 -0.13747108475E+04  0.18023584902E+04  0.24837421330E+04  0.46999998093E+01 0.  1.
</event>
<event>
 5   0  0.3701250E-08  0.3795106E+04  0.7818609E-02  0.8047206E-01
       -1   -1    0    0    0  501  0.00000000000E+00  0.00000000000E+00  0.12297982585E+04  0.12297982585E+04  0.50400001928E-02 0.  1.
        1   -1    0    0  501    0  0.00000000000E+00  0.00000000000E+00 -0.29278853549E+04  0.29278853549E+04  0.50400001928E-02 0. -1.
    10030    2    1    2    0    0  0.00000000000E+00  0.00000000000E+00 -0.16980870964E+04  0.41576836134E+04  0.37951064863E+04 0.  0.
        2    1    3    3  502    0 -0.16548332215E+04 -0.80485894915E+03 -0.34172851804E+03  0.18716434755E+04  0.25500000920E-02 0.  1.
       -2    1    3    3    0  502  0.16548332215E+04  0.80485894915E+03 -0.13563585783E+04  0.22860401379E+04  0.25500000920E-02 0. -1.
</event>
<event>
 5   0  0.7858367E-08  0.3786308E+04  0.7818609E-02  0.8049099E-01
       -2   -1    0    0    0  501  0.00000000000E+00  0.00000000000E+00  0.20482118593E+04  0.20482118593E+04  0.25500000920E-02 0. -1.
        2   -1    0    0  501    0  0.00000000000E+00  0.00000000000E+00 -0.17498350297E+04  0.17498350297E+04  0.25500000920E-02 0.  1.
    10030    2    1    2    0    0  0.00000000000E+00  0.00000000000E+00  0.29837682965E+03  0.37980468890E+04  0.37863084183E+04 0.  0.
        2    1    3    3  502    0 -0.36936020913E+03  0.42832814132E+03  0.19614829611E+04  0.20413983853E+04  0.25500000920E-02 0. -1.
       -2    1    3    3    0  502  0.36936020913E+03 -0.42832814132E+03 -0.16631061315E+04  0.17566485036E+04  0.25500000920E-02 0.  1.
</event>
<event>
 5   0  0.3701250E-08  0.3794635E+04  0.7818609E-02  0.8047307E-01
        1   -1    0    0  501    0  0.00000000000E+00  0.00000000000E+00  0.30294286717E+04  0.30294286717E+04  0.50400001928E-02 0.  1.
       -1   -1    0    0    0  501  0.00000000000E+00  0.00000000000E+00 -0.11882811476E+04  0.11882811476E+04  0.50400001928E-02 0. -1.
    10030    2    1    2    0    0  0.00000000000E+00  0.00000000000E+00  0.18411475241E+04  0.42177098193E+04  0.37946346220E+04 0.  0.
        3    1    3    3  502    0  0.32605114586E+03  0.55586374846E+03  0.29040575800E+04  0.29747007068E+04  0.10100000352E+00 0.  1.
       -3    1    3    3    0  502 -0.32605114586E+03 -0.55586374846E+03 -0.10629100560E+04  0.12430091125E+04  0.10100000352E+00 0. -1.
</event>
<event>
 5   0  0.3701250E-08  0.3853289E+04  0.7818609E-02  0.8034815E-01
       -1   -1    0    0    0  501  0.00000000000E+00  0.00000000000E+00  0.18266590649E+04  0.18266590649E+04  0.50400001928E-02 0. -1.
        1   -1    0    0  501    0  0.00000000000E+00  0.00000000000E+00 -0.20321029415E+04  0.20321029415E+04  0.50400001928E-02 0.  1.
    10030    2    1    2    0    0  0.00000000000E+00  0.00000000000E+00 -0.20544387661E+03  0.38587620065E+04  0.38532891192E+04 0.  0.
        3    1    3    3  502    0 -0.20588475637E+02 -0.74407618847E+03 -0.18822900742E+04  0.20241267730E+04  0.10100000352E+00 0.  1.
       -3    1    3    3    0  502  0.20588475637E+02  0.74407618847E+03  0.16768461976E+04  0.18346352335E+04  0.10100000352E+00 0. -1.
</event>
<event>
 5   0  0.3701250E-08  0.3786395E+04  0.7818609E-02  0.8049081E-01
       -1   -1    0    0    0  501  0.00000000000E+00  0.00000000000E+00  0.26578410263E+04  0.26578410263E+04  0.50400001928E-02 0.  1.
        1   -1    0    0  501    0  0.00000000000E+00  0.00000000000E+00 -0.13485370784E+04  0.13485370784E+04  0.50400001928E-02 0. -1.
    10030    2    1    2    0    0  0.00000000000E+00  0.00000000000E+00  0.13093039479E+04  0.40063781048E+04  0.37863952105E+04 0.  0.
        3    1    3    3  502    0 -0.12722705045E+04  0.12289860495E+04  0.13684709693E+04  0.22364685892E+04  0.10100000352E+00 0.  1.
       -3    1    3    3    0  502  0.12722705045E+04 -0.12289860495E+04 -0.59167021428E+02  0.17699095155E+04  0.10100000352E+00 0. -1.
</event>
<event>
 5   0  0.1174870E-07  0.3800633E+04  0.7818609E-02  0.8046019E-01
       -2   -1    0    0    0  501  0.00000000000E+00  0.00000000000E+00  0.17266800654E+04  0.17266800654E+04  0.25500000920E-02 0. -1.
        2   -1    0    0  501    0  0.00000000000E+00  0.00000000000E+00 -0.20914141140E+04  0.20914141140E+04  0.25500000920E-02 0.  1.
    10030    2    1    2    0    0  0.00000000000E+00  0.00000000000E+00 -0.36473404860E+03  0.38180941794E+04  0.38006331363E+04 0.  0.
        5    1    3    3  502    0 -0.71181699735E+01 -0.18196371462E+04  0.36791863426E+03  0.18564795241E+04  0.46999998093E+01 0. -1.
       -5    1    3    3    0  502  0.71181699735E+01  0.18196371462E+04 -0.73265268286E+03  0.19616146553E+04  0.46999998093E+01 0.  1.
</event>
<event>
 5   0  0.1193861E-07  0.3801041E+04  0.7818609E-02  0.8045931E-01
       -2   -1    0    0    0  501  0.00000000000E+00  0.00000000000E+00  0.15198243555E+04  0.15198243555E+04  0.25500000920E-02 0. -1.
        2   -1    0    0  501    0  0.00000000000E+00  0.00000000000E+00 -0.23765763080E+04  0.23765763080E+04  0.25500000920E-02 0.  1.
    10030    2    1    2    0    0  0.00000000000E+00  0.00000000000E+00 -0.85675195253E+03  0.38964006635E+04  0.38010412024E+04 0.  0.
        3    1    3    3  502    0  0.15000837590E+04  0.11648877828E+04 -0.35762476105E+03  0.19326433480E+04  0.10100000352E+00 0. -1.
       -3    1    3    3    0  502 -0.15000837590E+04 -0.11648877828E+04 -0.49912719148E+03  0.19637573155E+04  0.10100000352E+00 0.  1.
</event>
<event>
 5   0  0.3701250E-08  0.3816292E+04  0.7818609E-02  0.8042668E-01
        1   -1    0    0  501    0  0.00000000000E+00  0.00000000000E+00  0.23113053950E+04  0.23113053950E+04  0.50400001928E-02 0. -1.
       -1   -1    0    0    0  501  0.00000000000E+00  0.00000000000E+00 -0.15753090602E+04  0.15753090602E+04  0.50400001928E-02 0.  1.
    10030    2    1    2    0    0  0.00000000000E+00  0.00000000000E+00  0.73599633475E+03  0.38866144552E+04  0.38162915663E+04 0.  0.
        4    1    3    3  502    0  0.50394065703E+03 -0.16923705230E+04 -0.36847636281E+03  0.18038432903E+04  0.12699999809E+01 0.  1.
       -4    1    3    3    0  502 -0.50394065703E+03  0.16923705230E+04  0.11044726976E+04  0.20827711650E+04  0.12699999809E+01 0. -1.
</event>
<event>
 5   0  0.3701250E-08  0.3807592E+04  0.7818609E-02  0.8044528E-01
        1   -1    0    0  501    0  0.00000000000E+00  0.00000000000E+00  0.22345813966E+04  0.22345813966E+04  0.50400001928E-02 0. -1.
       -1   -1    0    0    0  501  0.00000000000E+00  0.00000000000E+00 -0.16219771949E+04  0.16219771949E+04  0.50400001928E-02 0.  1.
    10030    2    1    2    0    0  0.00000000000E+00  0.00000000000E+00  0.61260420172E+03  0.38565585915E+04  0.38075924495E+04 0.  0.
        3    1    3    3  502    0 -0.94641770926E+03  0.28898240009E+03 -0.13410278752E+04  0.16666052563E+04  0.10100000352E+00 0.  1.
       -3    1    3    3    0  502  0.94641770926E+03 -0.28898240009E+03  0.19536320769E+04  0.21899533352E+04  0.10100000352E+00 0. -1.
</event>
<event>
 5   0  0.7858367E-08  0.3776222E+04  0.7818609E-02  0.8051277E-01
        2   -1    0    0  501    0  0.00000000000E+00  0.00000000000E+00  0.36120478633E+04  0.36120478633E+04  0.25500000920E-02 0. -1.
       -2   -1    0    0    0  501  0.00000000000E+00  0.00000000000E+00 -0.98696468610E+03  0.98696468611E+03  0.25500000920E-02 0.  1.
    10030    2    1    2    0    0  0.00000000000E+00  0.00000000000E+00  0.26250831772E+04  0.45990125495E+04  0.37762222846E+04 0.  0.
        2    1    3    3  502    0  0.21726377978E+03  0.14186408399E+04  0.28067349038E+04  0.31523810371E+04  0.25500000920E-02 0. -1.
       -2    1    3    3    0  502 -0.21726377978E+03 -0.14186408399E+04 -0.18165172658E+03  0.14466315123E+04  0.25500000920E-02 0.  1.
</event>
<event>
 5   0  0.1174870E-07  0.3797433E+04  0.7818609E-02  0.8046706E-01
       -2   -1    0    0    0  501  0.00000000000E+00  0.00000000000E+00  0.27402365514E+04  0.27402365514E+04  0.25500000920E-02 0. -1.
        2   -1    0    0  501    0  0.00000000000E+00  0.00000000000E+00 -0.13156251578E+04  0.13156251578E+04  0.25500000920E-02 0.  1.
    10030    2    1    2    0    0  0.00000000000E+00  0.00000000000E+00  0.14246113936E+04  0.40558617092E+04  0.37974328937E+04 0.  0.
        5    1    3    3  502    0 -0.84957756075E+02  0.12224604606E+04 -0.83673087999E+03  0.14838355884E+04  0.46999998093E+01 0.  1.
       -5    1    3    3    0  502  0.84957756075E+02 -0.12224604606E+04  0.22613422735E+04  0.25720261208E+04  0.46999998093E+01 0. -1.
</event>
<event>
 5   0  0.1174870E-07  0.3761457E+04  0.7818609E-02  0.8054477E-01
       -2   -1    0    0    0  501  0.00000000000E+00  0.00000000000E+00  0.23473996765E+04  0.23473996765E+04  0.25500000920E-02 0.  1.
        2   -1    0    0  501    0  0.00000000000E+00  0.00000000000E+00 -0.15068330357E+04  0.15068330357E+04  0.25500000920E-02 0. -1.
    10030    2    1    2    0    0  0.00000000000E+00  0.00000000000E+00  0.84056664081E+03  0.38542327122E+04  0.37614568350E+04 0.  0.
        5    1    3    3  502    0 -0.10264165924E+04  0.27159835464E+03 -0.11703651319E+04  0.15802130614E+04  0.46999998093E+01 0. -1.
       -5    1    3    3    0  502  0.10264165924E+04 -0.27159835464E+03  0.20109317727E+04  0.22740196508E+04  0.46999998093E+01 0.  1.
</event>
<event>
 5   0  0.3701250E-08  0.3796819E+04  0.7818609E-02  0.8046838E-01
        1   -1    0    0  501    0  0.00000000000E+00  0.00000000000E+00  0.23998517722E+04  0.23998517722E+04  0.50400001928E-02 0.  1.
       -1   -1    0    0    0  501  0.00000000000E+00  0.00000000000E+00 -0.15017419670E+04  0.15017419671E+04  0.50400001928E-02 0. -1.
    10030    2    1    2    0    0  0.00000000000E+00  0.00000000000E+00  0.89810980517E+03  0.39015937393E+04  0.37968187321E+04 0.  0.
        4    1    3    3  502    0 -0.13747044020E+04  0.28105180561E+03  0.17630735821E+04  0.22532714836E+04  0.12699999809E+01 0.  1.
       -4    1    3    3    0  502  0.13747044020E+04 -0.28105180561E+03 -0.86496377689E+03  0.16483222556E+04  0.12699999809E+01 0. -1.
</event>
<event>
 5   0  0.1143283E-07  0.3794150E+04  0.7818609E-02  0.8047411E-01
       -2   -1    0    0    0  501  0.00000000000E+00  0.00000000000E+00  0.13042861345E+04  0.13042861345E+04  0.25500000920E-02 0.  1.
        2   -1    0    0  501    0  0.00000000000E+00  0.00000000000E+00 -0.27592820781E+04  0.27592820781E+04  0.25500000920E-02 0. -1.
    10030    2    1    2    0    0  0.00000000000E+00  0.00000000000E+00 -0.14549959436E+04  0.40635682127E+04  0.37941498947E+04 0.  0.
        1    1    3    3  502    0  0.49415087113E+03 -0.14773634169E+04  0.43201721604E+03  0.16166096078E+04  0.50400001928E-02 0.  1.
       -1    1    3    3    0  502 -0.49415087113E+03  0.14773634169E+04 -0.18870131596E+04  0.24469586048E+04  0.50400001928E-02 0. -1.
</event>
<event>
 5   0  0.1174870E-07  0.3783339E+04  0.7818609E-02  0.8049740E-01
       -2   -1    0    0    0  501  0.00000000000E+00  0.00000000000E+00  0.13542925056E+04  0.13542925056E+04  0.25500000920E-02 0.  1.
        2   -1    0    0  501    0  0.00000000000E+00  0.00000000000E+00 -0.26422749824E+04  0.26422749824E+04  0.25500000920E-02 0. -1.
    10030    2    1    2    0    0  0.00000000000E+00  0.00000000000E+00 -0.12879824768E+04  0.39965674880E+04  0.37833388462E+04 0.  0.
        5    1    3    3  502    0 -0.11789614885E+04  0.12427949673E+04  0.20366870663E+03  0.17251065341E+04  0.46999998093E+01 0.  1.
       -5    1    3    3    0  502  0.11789614885E+04 -0.12427949673E+04 -0.14916511834E+04  0.22714609539E+04  0.46999998093E+01 0. -1.
</event>
<event>
 5   0  0.3701250E-08  0.3806975E+04  0.7818609E-02  0.8044660E-01
        1   -1    0    0  501    0  0.00000000000E+00  0.00000000000E+00  0.14943298316E+04  0.14943298317E+04  0.50400001928E-02 0. -1.
       -1   -1    0    0    0  501  0.00000000000E+00  0.00000000000E+00 -0.24246751574E+04  0.24246751574E+04  0.50400001928E-02 0.  1.
    10030    2    1    2    0    0  0.00000000000E+00  0.00000000000E+00 -0.93034532570E+03  0.39190049890E+04  0.38069748724E+04 0.  0.
        1    1    3    3  502    0  0.61149440526E+03 -0.65615085794E+03 -0.21935092656E+04  0.23697979353E+04  0.50400001928E-02 0.  1.
       -1    1    3    3    0  502 -0.61149440526E+03  0.65615085794E+03  0.12631639399E+04  0.15492070537E+04  0.50400001928E-02 0. -1.
</event>
<event>
 5   0  0.7858367E-08  0.3798570E+04  0.7818609E-02  0.8046462E-01
        2   -1    0    0  501    0  0.00000000000E+00  0.00000000000E+00  0.20314231119E+04  0.20314231120E+04  0.25500000920E-02 0. -1.
       -2   -1    0    0    0  501  0.00000000000E+00  0.00000000000E+00 -0.17757419713E+04  0.17757419713E+04  0.25500000920E-02 0.  1.
    10030    2    1    2    0    0  0.00000000000E+00  0.00000000000E+00  0.25568114060E+03  0.38071650833E+04  0.37985698790E+04 0.  0.
        2    1    3    3  502    0  0.12774928353E+04  0.21481358480E+03  0.15199219971E+04  0.19970717808E+04  0.25500000920E-02 0. -1.
       -2    1    3    3    0  502 -0.12774928353E+04 -0.21481358480E+03 -0.12642408565E+04  0.18100933025E+04  0.25500000920E-02 0.  1.
</event>
<event>
 5   0  0.1193861E-07  0.3802724E+04  0.7818609E-02  0.8045571E-01
       -2   -1    0    0    0  501  0.00000000000E+00  0.00000000000E+00  0.18075574026E+04  0.18075574026E+04  0.25500000920E-02 0. -1.
        2   -1    0    0  501    0  0.00000000000E+00  0.00000000000E+00 -0.20000347408E+04  0.20000347408E+04  0.25500000920E-02 0.  1.
    10030    2    1    2    0    0  0.00000000000E+00  0.00000000000E+00 -0.19247733823E+03  0.38075921434E+04  0.38027240768E+04 0.  0.
        3    1    3    3  502    0  0.11742872569E+04  0.83776270966E+03  0.11440482607E+04  0.18410984092E+04  0.10100000352E+00 0.  1.
       -3    1    3    3    0  502 -0.11742872569E+04 -0.83776270966E+03 -0.13365255990E+04  0.19664937341E+04  0.10100000352E+00 0. -1.
</event>
<event>
 5   0  0.3701250E-08  0.3790622E+04  0.7818609E-02  0.8048170E-01
       -1   -1    0    0    0  501  0.00000000000E+00  0.00000000000E+00  0.17181774461E+04  0.17181774462E+04  0.50400001928E-02 0. -1.
        1   -1    0    0  501    0  0.00000000000E+00  0.00000000000E+00 -0.20907056719E+04  0.20907056719E+04  0.50400001928E-02 0.  1.
    10030    2    1    2    0    0  0.00000000000E+00  0.00000000000E+00 -0.37252822578E+03  0.38088831181E+04  0.37906217601E+04 0.  0.
        2    1    3    3  502    0 -0.11472880608E+04  0.55997529196E+03 -0.15938556877E+04  0.20421112054E+04  0.25500000920E-02 0.  1.
       -2    1    3    3    0  502  0.11472880608E+04 -0.55997529196E+03  0.12213274619E+04  0.17667719127E+04  0.25500000920E-02 0. -1.
</event>
<event>
 5   0  0.1193861E-07  0.3778727E+04  0.7818609E-02  0.8050735E-01
       -2   -1    0    0    0  501  0.00000000000E+00  0.00000000000E+00  0.13474031677E+04  0.13474031677E+04  0.25500000920E-02 0. -1.
        2   -1    0    0  501    0  0.00000000000E+00  0.00000000000E+00 -0.26493141219E+04  0.26493141219E+04  0.25500000920E-02 0.  1.
    10030    2    1    2    0    0  0.00000000000E+00  0.00000000000E+00 -0.13019109543E+04  0.39967172896E+04  0.37787268968E+04 0.  0.
        3    1    3    3  502    0  0.18012585124E+04 -0.55324085237E+03 -0.79707954818E+03  0.20459578406E+04  0.10100000352E+00 0. -1.
       -3    1    3    3    0  502 -0.18012585124E+04  0.55324085237E+03 -0.50483140608E+03  0.19507594490E+04  0.10100000352E+00 0.  1.
</event>
<event>
 5   0  0.3701250E-08  0.3814766E+04  0.7818609E-02  0.8042994E-01
        1   -1    0    0  501    0  0.00000000000E+00  0.00000000000E+00  0.27382260752E+04  0.27382260752E+04  0.50400001928E-02 0.  1.
       -1   -1    0    0    0  501  0.00000000000E+00  0.00000000000E+00 -0.13286375051E+04  0.13286375051E+04  0.50400001928E-02 0. -1.
    10030    2    1    2    0    0  0.00000000000E+00  0.00000000000E+00  0.14095885702E+04  0.40668635803E+04  0.38147659749E+04 0.  0.
        4    1    3    3  502    0 -0.50699512281E+03  0.17848640488E+04  0.23363246821E+03  0.18701255226E+04  0.12699999809E+01 0. -1.
       -4    1    3    3    0  502  0.50699512281E+03 -0.17848640488E+04  0.11759561019E+04  0.21967380576E+04  0.12699999809E+01 0.  1.
</event>
<event>
 5   0  0.3889225E-08  0.3860298E+04  0.7818609E-02  0.8033337E-01
       -1   -1    0    0    0  501  0.00000000000E+00  0.00000000000E+00  0.18299532990E+04  0.18299532990E+04  0.50400001928E-02 0. -1.
        1   -1    0    0  501    0  0.00000000000E+00  0.00000000000E+00 -0.20358310634E+04  0.20358310634E+04  0.50400001928E-02 0.  1.
    10030    2    1    2    0    0  0.00000000000E+00  0.00000000000E+00 -0.20587776442E+03  0.38657843624E+04  0.38602983152E+04 0.  0.
        5    1    3    3  502    0 -0.11413394371E+04  0.95004287460E+03 -0.13376617157E+04  0.19986490762E+04  0.46999998093E+01 0.  1.
       -5    1    3    3    0  502  0.11413394371E+04 -0.95004287460E+03  0.11317839513E+04  0.18671352861E+04  0.46999998093E+01 0. -1.
</event>
<event>
 5   0  0.3889225E-08  0.3802855E+04  0.7818609E-02  0.8045542E-01
       -1   -1    0    0    0  501  0.00000000000E+00  0.00000000000E+00  0.19620309687E+04  0.19620309687E+04  0.50400001928E-02 0. -1.
        1   -1    0    0  501    0  0.00000000000E+00  0.00000000000E+00 -0.18426960832E+04  0.18426960832E+04  0.50400001928E-02 0.  1.
    10030    2    1    2    0    0  0.00000000000E+00  0.00000000000E+00  0.11933488552E+03  0.38047270519E+04  0.38028551280E+04 0.  0.
        5    1    3    3  502    0  0.25859876135E+03 -0.91861555659E+03  0.17050671498E+04  0.19539713241E+04  0.46999998093E+01 0. -1.
       -5    1    3    3    0  502 -0.25859876135E+03  0.91861555659E+03 -0.15857322643E+04  0.18507557278E+04  0.46999998093E+01 0.  1.
</event>
<event>
 5   0  0.3889225E-08  0.3781692E+04  0.7818609E-02  0.8050095E-01
       -1   -1    0    0    0  501  0.00000000000E+00  0.00000000000E+00  0.14420542010E+04  0.14420542010E+04  0.50400001928E-02 0.  1.
        1   -1    0    0  501    0  0.00000000000E+00  0.00000000000E+00 -0.24793098744E+04  0.24793098744E+04  0.50400001928E-02 0. -1.
    10030    2    1    2    0    0  0.00000000000E+00  0.00000000000E+00 -0.10372556735E+04  0.39213640754E+04  0.37816923301E+04 0.  0.
        5    1    3    3  502    0 -0.39315815586E+02 -0.14965389884E+03  0.14354722339E+04  0.14437952234E+04  0.46999998093E+01 0.  1.
       -5    1    3    3    0  502  0.39315815586E+02  0.14965389884E+03 -0.24727279073E+04  0.24775688520E+04  0.46999998093E+01 0. -1.
</event>
<event>
 5   0  0.1193861E-07  0.3822162E+04  0.7818609E-02  0.8041416E-01
        2   -1    0    0  501    0  0.00000000000E+00  0.00000000000E+00  0.17293593771E+04  0.17293593771E+04  0.25500000920E-02 0. -1.
       -2   -1    0    0    0  501  0.00000000000E+00  0.00000000000E+00 -0.21118975857E+04  0.21118975857E+04  0.25500000920E-02 0.  1.
    10030    2    1    2    0    0  0.00000000000E+00  0.00000000000E+00 -0.38253820858E+03  0.38412569628E+04  0.38221616362E+04 0.  0.
        3    1    3    3  502    0 -0.76304403738E+03 -0.32885199521E+03 -0.19208697745E+04  0.20928737512E+04  0.10100000352E+00 0.  1.
       -3    1    3    3    0  502  0.76304403738E+03  0.32885199521E+03  0.15383315659E+04  0.17483832116E+04  0.10100000352E+00 0. -1.
</event>
<event>
 5   0  0.3701250E-08  0.3830589E+04  0.7818609E-02  0.8039622E-01
       -1   -1    0    0    0  501  0.00000000000E+00  0.00000000000E+00  0.17534346015E+04  0.17534346015E+04  0.50400001928E-02 0.  1.
        1   -1    0    0  501    0  0.00000000000E+00  0.00000000000E+00 -0.20920952912E+04  0.20920952912E+04  0.50400001928E-02 0. -1.
    10030    2    1    2    0    0  0.00000000000E+00  0.00000000000E+00 -0.33866068969E+03  0.38455298927E+04  0.38305886092E+04 0.  0.
        3    1    3    3  502    0 -0.13979510475E+04 -0.70877904283E+03  0.93574362951E+03  0.18254454287E+04  0.10100000352E+00 0.  1.
       -3    1    3    3    0  502  0.13979510475E+04  0.70877904283E+03 -0.12744043192E+04  0.20200844640E+04  0.10100000352E+00 0. -1.
</event>
<event>
 5   0  0.3889225E-08  0.3699704E+04  0.7818609E-02  0.8068027E-01
       -1   -1    0    0    0  501  0.00000000000E+00  0.00000000000E+00  0.11760028342E+04  0.11760028342E+04  0.50400001928E-02 0.  1.
        1   -1    0    0  501    0  0.00000000000E+00  0.00000000000E+00 -0.29098168223E+04  0.29098168223E+04  0.50400001928E-02 0. -1.
    10030    2    1    2    0    0  0.00000000000E+00  0.00000000000E+00 -0.17338139881E+04  0.40858196565E+04  0.36997042207E+04 0.  0.
        5    1    3    3  502    0  0.79591982389E+03 -0.16629535091E+04 -0.69932000241E+03  0.19717944353E+04  0.46999998093E+01 0. -1.
       -5    1    3    3    0  502 -0.79591982389E+03  0.16629535091E+04 -0.10344939856E+04  0.21140252212E+04  0.46999998093E+01 0.  1.
</event>
<event>
 5   0  0.1143283E-07  0.3792282E+04  0.7818609E-02  0.8047813E-01
       -2   -1    0    0    0  501  0.00000000000E+00  0.00000000000E+00  0.15499734355E+04  0.15499734355E+04  0.25500000920E-02 0. -1.
        2   -1    0    0  501    0  0.00000000000E+00  0.00000000000E+00 -0.23196202489E+04  0.23196202489E+04  0.25500000920E-02 0.  1.
    10030    2    1    2    0    0  0.00000000000E+00  0.00000000000E+00 -0.76964681336E+03  0.38695936845E+04  0.37922815119E+04 0.  0.
        1    1    3    3  502    0 -0.76438530347E+03  0.17225847497E+04 -0.59829322007E+03  0.19772551402E+04  0.50400001928E-02 0.  1.
       -1    1    3    3    0  502  0.76438530347E+03 -0.17225847497E+04 -0.17135359330E+03  0.18923385443E+04  0.50400001928E-02 0. -1.
</event>
<event>
 5   0  0.1150235E-07  0.3805877E+04  0.7818609E-02  0.8044895E-01
       -2   -1    0    0    0  501  0.00000000000E+00  0.00000000000E+00  0.23680829985E+04  0.23680829985E+04  0.25500000920E-02 0. -1.
        2   -1    0    0  501    0  0.00000000000E+00  0.00000000000E+00 -0.15291587514E+04  0.15291587514E+04  0.25500000920E-02 0.  1.
    10030    2    1    2    0    0  0.00000000000E+00  0.00000000000E+00  0.83892424712E+03  0.38972417499E+04  0.38058769508E+04 0.  0.
        4    1    3    3  502    0  0.97385096620E+03 -0.67395225907E+01 -0.12546368534E+04  0.15882526160E+04  0.12699999809E+01 0.  1.
       -4    1    3    3    0  502 -0.97385096620E+03  0.67395225907E+01  0.20935611005E+04  0.23089891338E+04  0.12699999809E+01 0. -1.
</event>
<event>
 5   0  0.7858367E-08  0.3811597E+04  0.7818609E-02  0.8043671E-01
        2   -1    0    0  501    0  0.00000000000E+00  0.00000000000E+00  0.22739579829E+04  0.22739579829E+04  0.25500000920E-02 0.  1.
       -2   -1    0    0    0  501  0.00000000000E+00  0.00000000000E+00 -0.15972449465E+04  0.15972449465E+04  0.25500000920E-02 0. -1.
    10030    2    1    2    0    0  0.00000000000E+00  0.00000000000E+00  0.67671303643E+03  0.38712029293E+04  0.38115969864E+04 0.  0.
        2    1    3    3  502    0  0.31079555546E+02 -0.89265119654E+03 -0.13715013732E+04  0.16367064838E+04  0.25500000920E-02 0. -1.
       -2    1    3    3    0  502 -0.31079555546E+02  0.89265119654E+03  0.20482144096E+04  0.22344964456E+04  0.25500000920E-02 0.  1.
</event>
<event>
 5   0  0.3701250E-08  0.3828171E+04  0.7818609E-02  0.8040136E-01
        1   -1    0    0  501    0  0.00000000000E+00  0.00000000000E+00  0.19764335205E+04  0.19764335205E+04  0.50400001928E-02 0.  1.
       -1   -1    0    0    0  501  0.00000000000E+00  0.00000000000E+00 -0.18537045863E+04  0.18537045863E+04  0.50400001928E-02 0. -1.
    10030    2    1    2    0    0  0.00000000000E+00  0.00000000000E+00  0.12272893413E+03  0.38301381068E+04  0.38281713031E+04 0.  0.
        2    1    3    3  502    0  0.81358223391E+03  0.15655770295E+04  0.80388886808E+03  0.19388617277E+04  0.25500000920E-02 0.  1.
       -2    1    3    3    0  502 -0.81358223391E+03 -0.15655770295E+04 -0.68115993395E+03  0.18912763792E+04  0.25500000920E-02 0. -1.
</event>
<event>
 5   0  0.1174870E-07  0.3790839E+04  0.7818609E-02  0.8048124E-01
        2   -1    0    0  501    0  0.00000000000E+00  0.00000000000E+00  0.12438344447E+04  0.12438344447E+04  0.25500000920E-02 0.  1.
       -2   -1    0    0    0  501  0.00000000000E+00  0.00000000000E+00 -0.28883391456E+04  0.28883391456E+04  0.25500000920E-02 0. -1.
    10030    2    1    2    0    0  0.00000000000E+00  0.00000000000E+00 -0.16445047009E+04  0.41321735903E+04  0.37908393357E+04 0.  0.
        5    1    3    3  502    0 -0.18922869877E+04  0.57832402514E+02 -0.72176138839E+03  0.20260938336E+04  0.46999998093E+01 0.  1.
       -5    1    3    3    0  502  0.18922869877E+04 -0.57832402514E+02 -0.92274331249E+03  0.21060797567E+04  0.46999998093E+01 0. -1.
</event>
<event>
 5   0  0.3701250E-08  0.3801381E+04  0.7818609E-02  0.8045859E-01
       -1   -1    0    0    0  501  0.00000000000E+00  0.00000000000E+00  0.12438363519E+04  0.12438363520E+04  0.50400001928E-02 0. -1.
        1   -1    0    0  501    0  0.00000000000E+00  0.00000000000E+00 -0.29044210393E+04  0.29044210393E+04  0.50400001928E-02 0.  1.
    10030    2    1    2    0    0  0.00000000000E+00  0.00000000000E+00 -0.16605846873E+04  0.41482573912E+04  0.38013810491E+04 0.  0.
        4    1    3    3  502    0 -0.17811792468E+04  0.53902559346E+03 -0.12521910746E+04  0.22430185465E+04  0.12699999809E+01 0.  1.
       -4    1    3    3    0  502  0.17811792468E+04 -0.53902559346E+03 -0.40839361277E+03  0.19052388448E+04  0.12699999809E+01 0. -1.
</event>
<event>
 5   0  0.1150235E-07  0.3803764E+04  0.7818609E-02  0.8045348E-01
       -2   -1    0    0    0  501  0.00000000000E+00  0.00000000000E+00  0.14733501090E+04  0.14733501090E+04  0.25500000920E-02 0.  1.
        2   -1    0    0  501    0  0.00000000000E+00  0.00000000000E+00 -0.24550545348E+04  0.24550545348E+04  0.25500000920E-02 0. -1.
    10030    2    1    2    0    0  0.00000000000E+00  0.00000000000E+00 -0.98170442582E+03  0.39284046438E+04  0.38037638551E+04 0.  0.
        4    1    3    3  502    0  0.18361785866E+03  0.15294912517E+04 -0.16427907548E+04  0.22520706215E+04  0.12699999809E+01 0. -1.
       -4    1    3    3    0  502 -0.18361785866E+03 -0.15294912517E+04  0.66108632903E+03  0.16763340223E+04  0.12699999809E+01 0.  1.
</event>
<event>
 5   0  0.1174870E-07  0.3803880E+04  0.7818609E-02  0.8045323E-01
        2   -1    0    0  501    0  0.00000000000E+00  0.00000000000E+00  0.21186567250E+04  0.21186567250E+04  0.25500000920E-02 0.  1.
       -2   -1    0    0    0  501  0.00000000000E+00  0.00000000000E+00 -0.17073909472E+04  0.17073909472E+04  0.25500000920E-02 0. -1.
    10030    2    1    2    0    0  0.00000000000E+00  0.00000000000E+00  0.41126577779E+03  0.38260476722E+04  0.38038797628E+04 0.  0.
        5    1    3    3  502    0 -0.78330677372E+03  0.13254304724E+04  0.13288401947E+04  0.20337585383E+04  0.46999998093E+01 0.  1.
       -5    1    3    3    0  502  0.78330677372E+03 -0.13254304724E+04 -0.91757441696E+03  0.17922891339E+04  0.46999998093E+01 0. -1.
</event>
<event>
 5   0  0.7858367E-08  0.3811141E+04  0.7818609E-02  0.8043768E-01
       -2   -1    0    0    0  501  0.00000000000E+00  0.00000000000E+00  0.13293220994E+04  0.13293220994E+04  0.25500000920E-02 0.  1.
        2   -1    0    0  501    0  0.00000000000E+00  0.00000000000E+00 -0.27316168234E+04  0.27316168234E+04  0.25500000920E-02 0. -1.
    10030    2    1    2    0    0  0.00000000000E+00  0.00000000000E+00 -0.14022947241E+04  0.40609389228E+04  0.38111408320E+04 0.  0.
        2    1    3    3  502    0  0.29589756532E+03 -0.10440536176E+03  0.13016059926E+04  0.13388928294E+04  0.25500000920E-02 0.  1.
       -2    1    3    3    0  502 -0.29589756532E+03  0.10440536176E+03 -0.27039007167E+04  0.27220460933E+04  0.25500000920E-02 0. -1.
</event>
<event>
 5   0  0.3701250E-08  0.3800770E+04  0.7818609E-02  0.8045990E-01
        1   -1    0    0  501    0  0.00000000000E+00  0.00000000000E+00  0.12373336433E+04  0.12373336433E+04  0.50400001928E-02 0.  1.
       -1   -1    0    0    0  501  0.00000000000E+00  0.00000000000E+00 -0.29187460969E+04  0.29187460969E+04  0.50400001928E-02 0. -1.
    10030    2    1    2    0    0  0.00000000000E+00  0.00000000000E+00 -0.16814124536E+04  0.41560797401E+04  0.38007697862E+04 0.  0.
        1    1    3    3  502    0 -0.12692276143E+04  0.12293426786E+04 -0.75861029054E+02  0.17686087906E+04  0.50400001928E-02 0.  1.
       -1    1    3    3    0  502  0.12692276143E+04 -0.12293426786E+04 -0.16055514245E+04  0.23874709496E+04  0.50400001928E-02 0. -1.
</event>
<event>
 5   0  0.3701250E-08  0.3798373E+04  0.7818609E-02  0.8046504E-01
       -1   -1    0    0    0  501  0.00000000000E+00  0.00000000000E+00  0.21833844035E+04  0.21833844035E+04  0.50400001928E-02 0. -1.
        1   -1    0    0  501    0  0.00000000000E+00  0.00000000000E+00 -0.16519809016E+04  0.16519809016E+04  0.50400001928E-02 0.  1.
    10030    2    1    2    0    0  0.00000000000E+00  0.00000000000E+00  0.53140350191E+03  0.38353653050E+04  0.37983729861E+04 0.  0.
        2    1    3    3  502    0  0.17244350568E+04  0.35044145908E+03 -0.45569570726E+03  0.18177304693E+04  0.25500000920E-02 0.  1.
       -2    1    3    3    0  502 -0.17244350568E+04 -0.35044145908E+03  0.98709920918E+03  0.20176348357E+04  0.25500000920E-02 0. -1.
</event>
<event>
 5   0  0.7858367E-08  0.3811706E+04  0.7818609E-02  0.8043647E-01
       -2   -1    0    0    0  501  0.00000000000E+00  0.00000000000E+00  0.15082038799E+04  0.15082038799E+04  0.25500000920E-02 0. -1.
        2   -1    0    0  501    0  0.00000000000E+00  0.00000000000E+00 -0.24083452521E+04  0.24083452521E+04  0.25500000920E-02 0.  1.
    10030    2    1    2    0    0  0.00000000000E+00  0.00000000000E+00 -0.90014137214E+03  0.39165491320E+04  0.38117059978E+04 0.  0.
        2    1    3    3  502    0  0.86462458020E+03 -0.59366491941E+02  0.12940199413E+04  0.15574298230E+04  0.25500000920E-02 0. -1.
       -2    1    3    3    0  502 -0.86462458020E+03  0.59366491941E+02 -0.21941613134E+04  0.23591193090E+04  0.25500000920E-02 0.  1.
</event>
<event>
 5   0  0.1174870E-07  0.3797040E+04  0.7818609E-02  0.8046790E-01
       -2   -1    0    0    0  501  0.00000000000E+00  0.00000000000E+00  0.23529675926E+04  0.23529675926E+04  0.25500000920E-02 0. -1.
        2   -1    0    0  501    0  0.00000000000E+00  0.00000000000E+00 -0.15318433956E+04  0.15318433956E+04  0.25500000920E-02 0.  1.
    10030    2    1    2    0    0  0.00000000000E+00  0.00000000000E+00  0.82112419705E+03  0.38848109882E+04  0.37970398295E+04 0.  0.
        5    1    3    3  502    0 -0.16973063100E+04  0.35573914703E+02 -0.45893068025E+03  0.17586226635E+04  0.46999998093E+01 0.  1.
       -5    1    3    3    0  502  0.16973063100E+04 -0.35573914703E+02  0.12800548773E+04  0.21261883247E+04  0.46999998093E+01 0. -1.
</event>
<event>
 5   0  0.3701250E-08  0.3808963E+04  0.7818609E-02  0.8044234E-01
       -1   -1    0    0    0  501  0.00000000000E+00  0.00000000000E+00  0.21346518909E+04  0.21346518909E+04  0.50400001928E-02 0. -1.
        1   -1    0    0  501    0  0.00000000000E+00  0.00000000000E+00 -0.16991294172E+04  0.16991294172E+04  0.50400001928E-02 0.  1.
    10030    2    1    2    0    0  0.00000000000E+00  0.00000000000E+00  0.43552247369E+03  0.38337813080E+04  0.38089630207E+04 0.  0.
        4    1    3    3  502    0 -0.16133698372E+03  0.44642348414E+03  0.20741552472E+04  0.21277793946E+04  0.12699999809E+01 0. -1.
       -4    1    3    3    0  502  0.16133698372E+03 -0.44642348414E+03 -0.16386327735E+04  0.17060019135E+04  0.12699999809E+01 0.  1.
</event>
<event>
 5   0  0.3701250E-08  0.3792924E+04  0.7818609E-02  0.8047675E-01
        1   -1    0    0  501    0  0.00000000000E+00  0.00000000000E+00  0.20128796065E+04  0.20128796065E+04  0.50400001928E-02 0.  1.
       -1   -1    0    0    0  501  0.00000000000E+00  0.00000000000E+00 -0.17867771833E+04  0.17867771833E+04  0.50400001928E-02 0. -1.
    10030    2    1    2    0    0  0.00000000000E+00  0.00000000000E+00  0.22610242312E+03  0.37996567898E+04  0.37929235972E+04 0.  0.
        2    1    3    3  502    0 -0.65860939316E+03 -0.20859282208E+03  0.18823376790E+04  0.20051115769E+04  0.25500000920E-02 0.  1.
       -2    1    3    3    0  502  0.65860939316E+03  0.20859282208E+03 -0.16562352559E+04  0.17945452129E+04  0.25500000920E-02 0. -1.
</event>
<event>
 5   0  0.1150235E-07  0.3813478E+04  0.7818609E-02  0.8043269E-01
        2   -1    0    0  501    0  0.00000000000E+00  0.00000000000E+00  0.22867545208E+04  0.22867545208E+04  0.25500000920E-02 0.  1.
       -2   -1    0    0    0  501  0.00000000000E+00  0.00000000000E+00 -0.15898745264E+04  0.15898745264E+04  0.25500000920E-02 0. -1.
    10030    2    1    2    0    0  0.00000000000E+00  0.00000000000E+00  0.69687999444E+03  0.38766290472E+04  0.38134775525E+04 0.  0.
        4    1    3    3  502    0  0.33020941888E+03 -0.90719585229E+03 -0.13230545290E+04  0.16378392700E+04  0.12699999809E+01 0. -1.
       -4    1    3    3    0  502 -0.33020941888E+03  0.90719585229E+03  0.20199345234E+04  0.22387897772E+04  0.12699999809E+01 0.  1.
</event>
<event>
 5   0  0.3889225E-08  0.3772597E+04  0.7818609E-02  0.8052061E-01
       -1   -1    0    0    0  501  0.00000000000E+00  0.00000000000E+00  0.18601636537E+04  0.18601636537E+04  0.50400001928E-02 0.  1.
        1   -1    0    0  501    0  0.00000000000E+00  0.00000000000E+00 -0.19128002557E+04  0.19128002557E+04  0.50400001928E-02 0. -1.
    10030    2    1    2    0    0  0.00000000000E+00  0.00000000000E+00 -0.52636601984E+02  0.37729639094E+04  0.37725967250E+04 0.  0.
        5    1    3    3  502    0 -0.81122919652E+03 -0.34289228993E+03  0.16419062467E+04  0.18632085618E+04  0.46999998093E+01 0.  1.
       -5    1    3    3    0  502  0.81122919652E+03  0.34289228993E+03 -0.16945428487E+04  0.19097553476E+04  0.46999998093E+01 0. -1.
</event>
<event>
 5   0  0.1150235E-07  0.3827812E+04  0.7818609E-02  0.8040213E-01
        2   -1    0    0  501    0  0.00000000000E+00  0.00000000000E+00  0.19506642636E+04  0.19506642636E+04  0.25500000920E-02 0.  1.
       -2   -1    0    0    0  501  0.00000000000E+00  0.00000000000E+00 -0.18778405171E+04  0.18778405171E+04  0.25500000920E-02 0. -1.
    10030    2    1    2    0    0  0.00000000000E+00  0.00000000000E+00  0.72823746491E+02  0.38285047807E+04  0.38278121111E+04 0.  0.
        4    1    3    3  502    0  0.16449348244E+04  0.64640088290E+03 -0.69815284761E+03  0.19002798977E+04  0.12699999809E+01 0. -1.
       -4    1    3    3    0  502 -0.16449348244E+04 -0.64640088290E+03  0.77097659410E+03  0.19282248830E+04  0.12699999809E+01 0.  1.
</event>
<event>
 5   0  0.7858367E-08  0.3803767E+04  0.7818609E-02  0.8045347E-01
       -2   -1    0    0    0  501  0.00000000000E+00  0.00000000000E+00  0.29796815213E+04  0.29796815213E+04  0.25500000920E-02 0. -1.
        2   -1    0    0  501    0  0.00000000000E+00  0.00000000000E+00 -0.12139419523E+04  0.12139419523E+04  0.25500000920E-02 0.  1.
    10030    2    1    2    0    0  0.00000000000E+00  0.00000000000E+00  0.17657395689E+04  0.41936234736E+04  0.38037667664E+04 0.  0.
        2    1    3    3  502    0  0.17875896555E+04 -0.64934982550E+03  0.87699121264E+03  0.20943365440E+04  0.25500000920E-02 0. -1.
       -2    1    3    3    0  502 -0.17875896555E+04  0.64934982550E+03  0.88874835629E+03  0.20992869297E+04  0.25500000920E-02 0.  1.
</event>
<event>
 5   0  0.1193861E-07  0.3840349E+04  0.7818609E-02  0.8037551E-01
       -2   -1    0    0    0  501  0.00000000000E+00  0.00000000000E+00  0.19272074967E+04  0.19272074967E+04  0.25500000920E-02 0.  1.
        2   -1    0    0  501    0  0.00000000000E+00  0.00000000000E+00 -0.19131670660E+04  0.19131670661E+04  0.25500000920E-02 0. -1.
    10030    2    1    2    0    0  0.00000000000E+00  0.00000000000E+00  0.14040430665E+02  0.38403745628E+04  0.38403488967E+04 0.  0.
        3    1    3    3  502    0  0.14769396333E+03  0.15892687397E+04  0.10744922286E+04  0.19240899650E+04  0.10100000352E+00 0.  1.
       -3    1    3    3    0  502 -0.14769396333E+03 -0.15892687397E+04 -0.10604517980E+04  0.19162845978E+04  0.10100000352E+00 0. -1.
</event>
<event>
 5   0  0.3701250E-08  0.3800137E+04  0.7818609E-02  0.8046125E-01
        1   -1    0    0  501    0  0.00000000000E+00  0.00000000000E+00  0.13990467726E+04  0.13990467726E+04  0.50400001928E-02 0.  1.
       -1   -1    0    0    0  501  0.00000000000E+00  0.00000000000E+00 -0.25805143113E+04  0.25805143113E+04  0.50400001928E-02 0. -1.
    10030    2    1    2    0    0  0.00000000000E+00  0.00000000000E+00 -0.11814675387E+04  0.39795610839E+04  0.38001369548E+04 0.  0.
        2    1    3    3  502    0  0.18423966420E+04  0.27572869218E+03 -0.19916977814E+03  0.18735315046E+04  0.25500000920E-02 0.  1.
       -2    1    3    3    0  502 -0.18423966420E+04 -0.27572869218E+03 -0.98229776054E+03  0.21060295792E+04  0.25500000920E-02 0. -1.
</event>
<event>
 5   0  0.3701250E-08  0.3805037E+04  0.7818609E-02  0.8045075E-01
        1   -1    0    0  501    0  0.00000000000E+00  0.00000000000E+00  0.13149721857E+04  0.13149721857E+04  0.50400001928E-02 0.  1.
       -1   -1    0    0    0  501  0.00000000000E+00  0.00000000000E+00 -0.27525873152E+04  0.27525873152E+04  0.50400001928E-02 0. -1.
    10030    2    1    2    0    0  0.00000000000E+00  0.00000000000E+00 -0.14376151295E+04  0.40675595009E+04  0.38050365351E+04 0.  0.
        4    1    3    3  502    0 -0.46583284132E+03 -0.66158884203E+03  0.11218720923E+04  0.13832203861E+04  0.12699999809E+01 0.  1.
       -4    1    3    3    0  502  0.46583284132E+03  0.66158884203E+03 -0.25594872218E+04  0.26843391149E+04  0.12699999809E+01 0. -1.
</event>
<event>
 5   0  0.3889225E-08  0.3842098E+04  0.7818609E-02  0.8037181E-01
       -1   -1    0    0    0  501  0.00000000000E+00  0.00000000000E+00  0.19189002526E+04  0.19189002526E+04  0.50400001928E-02 0.  1.
        1   -1    0    0  501    0  0.00000000000E+00  0.00000000000E+00 -0.19232001036E+04  0.19232001036E+04  0.50400001928E-02 0. -1.
    10030    2    1    2    0    0  0.00000000000E+00  0.00000000000E+00 -0.42998510000E+01  0.38421003562E+04  0.38420979501E+04 0.  0.
        5    1    3    3  502    0 -0.17815482558E+04  0.66811495855E+03 -0.26694300861E+03  0.19213465188E+04  0.46999998093E+01 0.  1.
       -5    1    3    3    0  502  0.17815482558E+04 -0.66811495855E+03  0.26264315761E+03  0.19207538374E+04  0.46999998093E+01 0. -1.
</event>
<event>
 5   0  0.1143283E-07  0.3799249E+04  0.7818609E-02  0.8046316E-01
        2   -1    0    0  501    0  0.00000000000E+00  0.00000000000E+00  0.31541141106E+04  0.31541141106E+04  0.25500000920E-02 0. -1.
       -2   -1    0    0    0  501  0.00000000000E+00  0.00000000000E+00 -0.11440844459E+04  0.11440844459E+04  0.25500000920E-02 0.  1.
    10030    2    1    2    0    0  0.00000000000E+00  0.00000000000E+00  0.20100296647E+04  0.42981985565E+04  0.37992488176E+04 0.  0.
        1    1    3    3  502    0  0.14393764994E+04  0.29581217846E+03  0.23669686792E+04  0.27860097416E+04  0.50400001928E-02 0. -1.
       -1    1    3    3    0  502 -0.14393764994E+04 -0.29581217846E+03 -0.35693901453E+03  0.15121888149E+04  0.50400001928E-02 0.  1.
</event>
<event>
 5   0  0.1174870E-07  0.3793873E+04  0.7818609E-02  0.8047471E-01
        2   -1    0    0  501    0  0.00000000000E+00  0.00000000000E+00  0.24288145123E+04  0.24288145123E+04  0.25500000920E-02 0. -1.
       -2   -1    0    0    0  501  0.00000000000E+00  0.00000000000E+00 -0.14815330321E+04  0.14815330321E+04  0.25500000920E-02 0.  1.
    10030    2    1    2    0    0  0.00000000000E+00  0.00000000000E+00  0.94728148020E+03  0.39103475443E+04  0.37938734448E+04 0.  0.
        5    1    3    3  502    0  0.60094955045E+03 -0.16480941758E+04  0.12175981483E+04  0.21353974139E+04  0.46999998093E+01 0.  1.
       -5    1    3    3    0  502 -0.60094955045E+03  0.16480941758E+04 -0.27031666810E+03  0.17749501304E+04  0.46999998093E+01 0. -1.
</event>
<event>
 5   0  0.1150235E-07  0.3789441E+04  0.7818609E-02  0.8048425E-01
       -2   -1    0    0    0  501  0.00000000000E+00  0.00000000000E+00  0.19837492411E+04  0.19837492411E+04  0.25500000920E-02 0.  1.
        2   -1    0    0  501    0  0.00000000000E+00  0.00000000000E+00 -0.18096873131E+04  0.18096873131E+04  0.25500000920E-02 0. -1.
    10030    2    1    2    0    0  0.00000000000E+00  0.00000000000E+00  0.17406192797E+03  0.37934365543E+04  0.37894410322E+04 0.  0.
        4    1    3    3  502    0  0.12609207679E+04 -0.11469567509E+04 -0.74120664157E+03  0.18587145746E+04  0.12699999809E+01 0.  1.
       -4    1    3    3    0  502 -0.12609207679E+04  0.11469567509E+04  0.91526856953E+03  0.19347219797E+04  0.12699999809E+01 0. -1.
</event>
<event>
 5   0  0.3889225E-08  0.3799416E+04  0.7818609E-02  0.8046280E-01
        1   -1    0    0  501    0  0.00000000000E+00  0.00000000000E+00  0.20370299722E+04  0.20370299722E+04  0.50400001928E-02 0. -1.
       -1   -1    0    0    0  501  0.00000000000E+00  0.00000000000E+00 -0.17716430154E+04  0.17716430154E+04  0.50400001928E-02 0.  1.
    10030    2    1    2    0    0  0.00000000000E+00  0.00000000000E+00  0.26538695676E+03  0.38086729876E+04  0.37994157037E+04 0.  0.
        5    1    3    3  502    0  0.41464219648E+03 -0.18080220944E+04 -0.27817806960E+03  0.18757071129E+04  0.46999998093E+01 0.  1.
       -5    1    3    3    0  502 -0.41464219648E+03  0.18080220944E+04  0.54356502636E+03  0.19329658747E+04  0.46999998093E+01 0. -1.
</event>
<event>
 5   0  0.3701250E-08  0.3827643E+04  0.7818609E-02  0.8040249E-01
       -1   -1    0    0    0  501  0.00000000000E+00  0.00000000000E+00  0.19948994451E+04  0.19948994451E+04  0.50400001928E-02 0.  1.
        1   -1    0    0  501    0  0.00000000000E+00  0.00000000000E+00 -0.18360384845E+04  0.18360384846E+04  0.50400001928E-02 0. -1.
    10030    2    1    2    0    0  0.00000000000E+00  0.00000000000E+00  0.15886096052E+03  0.38309379296E+04  0.38276426970E+04 0.  0.
        1    1    3    3  502    0  0.85776959444E+03 -0.71811228898E+03  0.16335899726E+04  0.19799166991E+04  0.50400001928E-02 0.  1.
       -1    1    3    3    0  502 -0.85776959444E+03  0.71811228898E+03 -0.14747290121E+04  0.18510212305E+04  0.50400001928E-02 0. -1.
</event>
<event>
 5   0  0.1174870E-07  0.3803491E+04  0.7818609E-02  0.8045406E-01
       -2   -1    0    0    0  501  0.00000000000E+00  0.00000000000E+00  0.16725416531E+04  0.16725416531E+04  0.25500000920E-02 0. -1.
        2   -1    0    0  501    0  0.00000000000E+00  0.00000000000E+00 -0.21623596050E+04  0.21623596050E+04  0.25500000920E-02 0.  1.
    10030    2    1    2    0    0  0.00000000000E+00  0.00000000000E+00 -0.48981795190E+03  0.38349012581E+04  0.38034912953E+04 0.  0.
        5    1    3    3  502    0 -0.24357120760E+03 -0.15333959161E+04 -0.13521511348E+04  0.20588746319E+04  0.46999998093E+01 0.  1.
       -5    1    3    3    0  502  0.24357120760E+03  0.15333959161E+04  0.86233318285E+03  0.17760266262E+04  0.46999998093E+01 0. -1.
</event>
<event>
 5   0  0.3701250E-08  0.3789200E+04  0.7818609E-02  0.8048477E-01
       -1   -1    0    0    0  501  0.00000000000E+00  0.00000000000E+00  0.15962193198E+04  0.15962193198E+04  0.50400001928E-02 0. -1.
        1   -1    0    0  501    0  0.00000000000E+00  0.00000000000E+00 -0.22487567925E+04  0.22487567925E+04  0.50400001928E-02 0.  1.
    10030    2    1    2    0    0  0.00000000000E+00  0.00000000000E+00 -0.65253747272E+03  0.38449761123E+04  0.37891999354E+04 0.  0.
        2    1    3    3  502    0  0.77054019471E+03  0.16476770923E+04 -0.86410567993E+03  0.20137652838E+04  0.25500000920E-02 0.  1.
       -2    1    3    3    0  502 -0.77054019471E+03 -0.16476770923E+04  0.21156820721E+03  0.18312108285E+04  0.25500000920E-02 0. -1.
</event>
<event>
 5   0  0.3701250E-08  0.3800549E+04  0.7818609E-02  0.8046037E-01
        1   -1    0    0  501    0  0.00000000000E+00  0.00000000000E+00  0.10946729883E+04  0.10946729883E+04  0.50400001928E-02 0. -1.
       -1   -1    0    0    0  501  0.00000000000E+00  0.00000000000E+00 -0.32987408474E+04  0.32987408474E+04  0.50400001928E-02 0.  1.
    10030    2    1    2    0    0  0.00000000000E+00  0.00000000000E+00 -0.22040678591E+04  0.43934138357E+04  0.38005486451E+04 0.  0.
        3    1    3    3  502    0 -0.18066463616E+03  0.51226224601E+03  0.10030161635E+04  0.11406549670E+04  0.10100000352E+00 0. -1.
       -3    1    3    3    0  502  0.18066463616E+03 -0.51226224601E+03 -0.32070840226E+04  0.32527588686E+04  0.10100000352E+00 0.  1.
</event>
<event>
 5   0  0.1143283E-07  0.3794320E+04  0.7818609E-02  0.8047375E-01
        2   -1    0    0  501    0  0.00000000000E+00  0.00000000000E+00  0.31378513418E+04  0.31378513418E+04  0.25500000920E-02 0. -1.
       -2   -1    0    0    0  501  0.00000000000E+00  0.00000000000E+00 -0.11470321676E+04  0.11470321676E+04  0.25500000920E-02 0.  1.
    10030    2    1    2    0    0  0.00000000000E+00  0.00000000000E+00  0.19908191742E+04  0.42848835094E+04  0.37943201901E+04 0.  0.
        1    1    3    3  502    0 -0.18806392686E+04  0.37037425709E+02  0.12744161552E+04  0.22720722626E+04  0.50400001928E-02 0.  1.
       -1    1    3    3    0  502  0.18806392686E+04 -0.37037425709E+02  0.71640301901E+03  0.20128112468E+04  0.50400001928E-02 0. -1.
</event>
<event>
 5   0  0.3701250E-08  0.3793796E+04  0.7818609E-02  0.8047488E-01
       -1   -1    0    0    0  501  0.00000000000E+00  0.00000000000E+00  0.11929718375E+04  0.11929718375E+04  0.50400001928E-02 0. -1.
        1   -1    0    0  501    0  0.00000000000E+00  0.00000000000E+00 -0.30161833525E+04  0.30161833525E+04  0.50400001928E-02 0.  1.
    10030    2    1    2    0    0  0.00000000000E+00  0.00000000000E+00 -0.18232115150E+04  0.42091551900E+04  0.37937958808E+04 0.  0.
        2    1    3    3  502    0  0.45307620348E+03 -0.12459176388E+03 -0.29505885205E+04  0.29877707026E+04  0.25500000920E-02 0.  1.
       -2    1    3    3    0  502 -0.45307620348E+03  0.12459176388E+03  0.11273770055E+04  0.12213844875E+04  0.25500000920E-02 0. -1.
</event>
<event>
 5   0  0.3701250E-08  0.3799534E+04  0.7818609E-02  0.8046255E-01
        1   -1    0    0  501    0  0.00000000000E+00  0.00000000000E+00  0.11456204806E+04  0.11456204806E+04  0.50400001928E-02 0.  1.
       -1   -1    0    0    0  501  0.00000000000E+00  0.00000000000E+00 -0.31503583010E+04  0.31503583010E+04  0.50400001928E-02 0. -1.
    10030    2    1    2    0    0  0.00000000000E+00  0.00000000000E+00 -0.20047378204E+04  0.42959787816E+04  0.37995341772E+04 0.  0.
        4    1    3    3  502    0 -0.14563150076E+04 -0.86634993700E+03 -0.19734846777E+04  0.26011649315E+04  0.12699999809E+01 0. -1.
       -4    1    3    3    0  502  0.14563150076E+04  0.86634993700E+03 -0.31253142721E+02  0.16948138501E+04  0.12699999809E+01 0.  1.
</event>
<event>
 5   0  0.1150235E-07  0.3814514E+04  0.7818609E-02  0.8043047E-01
        2   -1    0    0  501    0  0.00000000000E+00  0.00000000000E+00  0.15577342258E+04  0.15577342258E+04  0.25500000920E-02 0.  1.
       -2   -1    0    0    0  501  0.00000000000E+00  0.00000000000E+00 -0.23352056955E+04  0.23352056955E+04  0.25500000920E-02 0. -1.
    10030    2    1    2    0    0  0.00000000000E+00  0.00000000000E+00 -0.77747146968E+03  0.38929399213E+04  0.38145143000E+04 0.  0.
        4    1    3    3  502    0  0.10416804094E+04 -0.10486189982E+03  0.12382600477E+04  0.16215374346E+04  0.12699999809E+01 0.  1.
       -4    1    3    3    0  502 -0.10416804094E+04  0.10486189982E+03 -0.20157315174E+04  0.22714024866E+04  0.12699999809E+01 0. -1.
</event>
<event>
 5   0  0.3889225E-08  0.3798775E+04  0.7818609E-02  0.8046418E-01
        1   -1    0    0  501    0  0.00000000000E+00  0.00000000000E+00  0.14899949545E+04  0.14899949545E+04  0.50400001928E-02 0. -1.
       -1   -1    0    0    0  501  0.00000000000E+00  0.00000000000E+00 -0.24212647222E+04  0.24212647222E+04  0.50400001928E-02 0.  1.
    10030    2    1    2    0    0  0.00000000000E+00  0.00000000000E+00 -0.93126976773E+03  0.39112596767E+04  0.37987746548E+04 0.  0.
        5    1    3    3  502    0  0.37031041230E+03  0.98942308205E+03 -0.20908430419E+04  0.23425914182E+04  0.46999998093E+01 0.  1.
       -5    1    3    3    0  502 -0.37031041230E+03 -0.98942308205E+03  0.11595732742E+04  0.15686682584E+04  0.46999998093E+01 0. -1.
</event>
<event>
 5   0  0.3889225E-08  0.3785405E+04  0.7818609E-02  0.8049294E-01
       -1   -1    0    0    0  501  0.00000000000E+00  0.00000000000E+00  0.15482779749E+04  0.15482779749E+04  0.50400001928E-02 0.  1.
        1   -1    0    0  501    0  0.00000000000E+00  0.00000000000E+00 -0.23137464992E+04  0.23137464992E+04  0.50400001928E-02 0. -1.
    10030    2    1    2    0    0  0.00000000000E+00  0.00000000000E+00 -0.76546852432E+03  0.38620244741E+04  0.37854049951E+04 0.  0.
        5    1    3    3  502    0  0.10393538341E+04  0.45616661322E+02  0.12303962076E+04  0.16112833984E+04  0.46999998093E+01 0.  1.
       -5    1    3    3    0  502 -0.10393538341E+04 -0.45616661322E+02 -0.19958647319E+04  0.22507410758E+04  0.46999998093E+01 0. -1.
</event>
<event>
 5   0  0.3701250E-08  0.3668242E+04  0.7818609E-02  0.8075036E-01
       -1   -1    0    0    0  501  0.00000000000E+00  0.00000000000E+00  0.24670103261E+04  0.24670103261E+04  0.50400001928E-02 0. -1.
        1   -1    0    0  501    0  0.00000000000E+00  0.00000000000E+00 -0.13635936396E+04  0.13635936396E+04  0.50400001928E-02 0.  1.
    10030    2    1    2    0    0  0.00000000000E+00  0.00000000000E+00  0.11034166865E+04  0.38306039657E+04  0.36682418620E+04 0.  0.
        2    1    3    3  502    0  0.13314784859E+04  0.37214622927E+03  0.18103237580E+04  0.22778498377E+04  0.25500000920E-02 0. -1.
       -2    1    3    3    0  502 -0.13314784859E+04 -0.37214622927E+03 -0.70690707147E+03  0.15527541280E+04  0.25500000920E-02 0.  1.
</event>
<event>
 5   0  0.1150235E-07  0.3803292E+04  0.7818609E-02  0.8045449E-01
        2   -1    0    0  501    0  0.00000000000E+00  0.00000000000E+00  0.22899865526E+04  0.22899865526E+04  0.25500000920E-02 0. -1.
       -2   -1    0    0    0  501  0.00000000000E+00  0.00000000000E+00 -0.15791610592E+04  0.15791610592E+04  0.25500000920E-02 0.  1.
    10030    2    1    2    0    0  0.00000000000E+00  0.00000000000E+00  0.71082549332E+03  0.38691476118E+04  0.38032920424E+04 0.  0.
        4    1    3    3  502    0  0.13824348910E+04 -0.11682346572E+04  0.94891628000E+03  0.20436100806E+04  0.12699999809E+01 0.  1.
       -4    1    3    3    0  502 -0.13824348910E+04  0.11682346572E+04 -0.23809078668E+03  0.18255375312E+04  0.12699999809E+01 0. -1.
</event>
<event>
 5   0  0.3701250E-08  0.3815298E+04  0.7818609E-02  0.8042880E-01
        1   -1    0    0  501    0  0.00000000000E+00  0.00000000000E+00  0.23474103944E+04  0.23474103944E+04  0.50400001928E-02 0. -1.
       -1   -1    0    0    0  501  0.00000000000E+00  0.00000000000E+00 -0.15502719324E+04  0.15502719324E+04  0.50400001928E-02 0.  1.
    10030    2    1    2    0    0  0.00000000000E+00  0.00000000000E+00  0.79713846206E+03  0.38976823268E+04  0.38152978642E+04 0.  0.
        2    1    3    3  502    0  0.13748352496E+03 -0.38662395543E+02 -0.15448028431E+04  0.15513904487E+04  0.25500000920E-02 0.  1.
       -2    1    3    3    0  502 -0.13748352496E+03  0.38662395543E+02  0.23419413051E+04  0.23462918781E+04  0.25500000920E-02 0. -1.
</event>
<event>
 5   0  0.1143283E-07  0.3796024E+04  0.7818609E-02  0.8047009E-01
        2   -1    0    0  501    0  0.00000000000E+00  0.00000000000E+00  0.16778818902E+04  0.16778818902E+04  0.25500000920E-02 0. -1.
       -2   -1    0    0    0  501  0.00000000000E+00  0.00000000000E+00 -0.21470224825E+04  0.21470224825E+04  0.25500000920E-02 0.  1.
    10030    2    1    2    0    0  0.00000000000E+00  0.00000000000E+00 -0.46914059236E+03  0.38249043727E+04  0.37960243104E+04 0.  0.
        1    1    3    3  502    0  0.42564237333E+03 -0.10098528896E+04 -0.17960297401E+04  0.21039717479E+04  0.50400001928E-02 0.  1.
       -1    1    3    3    0  502 -0.42564237333E+03  0.10098528896E+04  0.13268891478E+04  0.17209326248E+04  0.50400001928E-02 0. -1.
</event>
<event>
 5   0  0.1143283E-07  0.3800818E+04  0.7818609E-02  0.8045979E-01
        2   -1    0    0  501    0  0.00000000000E+00  0.00000000000E+00  0.23884141245E+04  0.23884141245E+04  0.25500000920E-02 0.  1.
       -2   -1    0    0    0  501  0.00000000000E+00  0.00000000000E+00 -0.15121143628E+04  0.15121143628E+04  0.25500000920E-02 0. -1.
    10030    2    1    2    0    0  0.00000000000E+00  0.00000000000E+00  0.87629976168E+03  0.39005284873E+04  0.38008184918E+04 0.  0.
        1    1    3    3  502    0  0.67440808640E+03  0.51846858102E+03  0.21821192598E+04  0.23420675483E+04  0.50400001928E-02 0.  1.
       -1    1    3    3    0  502 -0.67440808640E+03 -0.51846858102E+03 -0.13058194982E+04  0.15584609390E+04  0.50400001928E-02 0. -1.
</event>
<event>
 5   0  0.1143283E-07  0.3726625E+04  0.7818609E-02  0.8062087E-01
       -2   -1    0    0    0  501  0.00000000000E+00  0.00000000000E+00  0.23389838328E+04  0.23389838328E+04  0.25500000920E-02 0.  1.
        2   -1    0    0  501    0  0.00000000000E+00  0.00000000000E+00 -0.14843768454E+04  0.14843768454E+04  0.25500000920E-02 0. -1.
    10030    2    1    2    0    0  0.00000000000E+00  0.00000000000E+00  0.85460698737E+03  0.38233606782E+04  0.37266249842E+04 0.  0.
        1    1    3    3  502    0  0.15830656361E+03 -0.16553246867E+04 -0.43521704952E+03  0.17188876248E+04  0.50400001928E-02 0.  1.
       -1    1    3    3    0  502 -0.15830656361E+03  0.16553246867E+04  0.12898240369E+04  0.21044730534E+04  0.50400001928E-02 0. -1.
</event>
<event>
 5   0  0.3701250E-08  0.3790853E+04  0.7818609E-02  0.8048121E-01
       -1   -1    0    0    0  501  0.00000000000E+00  0.00000000000E+00  0.26031557668E+04  0.26031557668E+04  0.50400001928E-02 0.  1.
        1   -1    0    0  501    0  0.00000000000E+00  0.00000000000E+00 -0.13801101358E+04  0.13801101358E+04  0.50400001928E-02 0. -1.
    10030    2    1    2    0    0  0.00000000000E+00  0.00000000000E+00  0.12230456310E+04  0.39832659026E+04  0.37908530222E+04 0.  0.
        4    1    3    3  502    0  0.75613609259E+03 -0.13336925330E+04 -0.55957064633E+03  0.16320534563E+04  0.12699999809E+01 0. -1.
       -4    1    3    3    0  502 -0.75613609259E+03  0.13336925330E+04  0.17826162773E+04  0.23512124464E+04  0.12699999809E+01 0.  1.
</event>
<event>
 5   0  0.3701250E-08  0.3797667E+04  0.7818609E-02  0.8046656E-01
        1   -1    0    0  501    0  0.00000000000E+00  0.00000000000E+00  0.23557945276E+04  0.23557945276E+04  0.50400001928E-02 0.  1.
       -1   -1    0    0    0  501  0.00000000000E+00  0.00000000000E+00 -0.15305106501E+04  0.15305106501E+04  0.50400001928E-02 0. -1.
    10030    2    1    2    0    0  0.00000000000E+00  0.00000000000E+00  0.82528387749E+03  0.38863051777E+04  0.37976669753E+04 0.  0.
        3    1    3    3  502    0  0.78897766040E+03  0.13796145662E+04  0.14760034247E+04  0.21689647807E+04  0.10100000352E+00 0. -1.
       -3    1    3    3    0  502 -0.78897766040E+03 -0.13796145662E+04 -0.65071954718E+03  0.17173403970E+04  0.10100000352E+00 0.  1.
</event>
<event>
 5   0  0.1143283E-07  0.3808875E+04  0.7818609E-02  0.8044253E-01
       -2   -1    0    0    0  501  0.00000000000E+00  0.00000000000E+00  0.26100627111E+04  0.26100627111E+04  0.25500000920E-02 0.  1.
        2   -1    0    0  501    0  0.00000000000E+00  0.00000000000E+00 -0.13895763179E+04  0.13895763179E+04  0.25500000920E-02 0. -1.
    10030    2    1    2    0    0  0.00000000000E+00  0.00000000000E+00  0.12204863932E+04  0.39996390290E+04  0.38088745486E+04 0.  0.
        1    1    3    3  502    0  0.15724319039E+04 -0.10710154578E+04  0.69974788368E+03  0.20271317924E+04  0.50400001928E-02 0. -1.
       -1    1    3    3    0  502 -0.15724319039E+04  0.10710154578E+04  0.52073850951E+03  0.19725072366E+04  0.50400001928E-02 0.  1.
</event>
<event>
 5   0  0.3701250E-08  0.3839421E+04  0.7818609E-02  0.8037748E-01
       -1   -1    0    0    0  501  0.00000000000E+00  0.00000000000E+00  0.18420801392E+04  0.18420801392E+04  0.50400001928E-02 0. -1.
        1   -1    0    0  501    0  0.00000000000E+00  0.00000000000E+00 -0.20006123170E+04  0.20006123170E+04  0.50400001928E-02 0.  1.
    10030    2    1    2    0    0  0.00000000000E+00  0.00000000000E+00 -0.15853217774E+03  0.38426924562E+04  0.38394209018E+04 0.  0.
        3    1    3    3  502    0  0.41217877460E+03 -0.14144914904E+04 -0.13110099636E+04  0.19721624308E+04  0.10100000352E+00 0.  1.
       -3    1    3    3    0  502 -0.41217877460E+03  0.14144914904E+04  0.11524777859E+04  0.18705300254E+04  0.10100000352E+00 0. -1.
</event>
<event>
 5   0  0.7858367E-08  0.3786297E+04  0.7818609E-02  0.8049102E-01
       -2   -1    0    0    0  501  0.00000000000E+00  0.00000000000E+00  0.14303860819E+04  0.14303860819E+04  0.25500000920E-02 0.  1.
        2   -1    0    0  501    0  0.00000000000E+00  0.00000000000E+00 -0.25056254023E+04  0.25056254023E+04  0.25500000920E-02 0. -1.
    10030    2    1    2    0    0  0.00000000000E+00  0.00000000000E+00 -0.10752393204E+04  0.39360114841E+04  0.37862972423E+04 0.  0.
        2    1    3    3  502    0  0.73013838515E+03  0.46081284538E+03 -0.22890415765E+04  0.24464590491E+04  0.25500000920E-02 0. -1.
       -2    1    3    3    0  502 -0.73013838515E+03 -0.46081284538E+03  0.12138022561E+04  0.14895524351E+04  0.25500000920E-02 0.  1.
</event>
<event>
 5   0  0.3701250E-08  0.3778788E+04  0.7818609E-02  0.8050722E-01
        1   -1    0    0  501    0  0.00000000000E+00  0.00000000000E+00  0.24122216218E+04  0.24122216218E+04  0.50400001928E-02 0.  1.
       -1   -1    0    0    0  501  0.00000000000E+00  0.00000000000E+00 -0.14798845372E+04  0.14798845372E+04  0.50400001928E-02 0. -1.
    10030    2    1    2    0    0  0.00000000000E+00  0.00000000000E+00  0.93233708462E+03  0.38921061590E+04  0.37787878894E+04 0.  0.
        1    1    3    3  502    0 -0.16721187754E+04  0.47240388403E+03  0.12304882386E+04  0.21291425350E+04  0.50400001928E-02 0.  1.
       -1    1    3    3    0  502  0.16721187754E+04 -0.47240388403E+03 -0.29815115403E+03  0.17629636240E+04  0.50400001928E-02 0. -1.
</event>
<event>
 5   0  0.3701250E-08  0.3577382E+04  0.7818609E-02  0.8095692E-01
        1   -1    0    0  501    0  0.00000000000E+00  0.00000000000E+00  0.27440981230E+04  0.27440981230E+04  0.50400001928E-02 0.  1.
       -1   -1    0    0    0  501  0.00000000000E+00  0.00000000000E+00 -0.11659259445E+04  0.11659259445E+04  0.50400001928E-02 0. -1.
    10030    2    1    2    0    0  0.00000000000E+00  0.00000000000E+00  0.15781721786E+04  0.39100240675E+04  0.35773818336E+04 0.  0.
        1    1    3    3  502    0 -0.31112311953E+03  0.11437671745E+04 -0.67502991593E+03  0.13640624371E+04  0.50400001928E-02 0. -1.
       -1    1    3    3    0  502  0.31112311953E+03 -0.11437671745E+04  0.22532020945E+04  0.25459616304E+04  0.50400001928E-02 0.  1.
</event>
<event>
 5   0  0.3701250E-08  0.3831852E+04  0.7818609E-02  0.8039354E-01
       -1   -1    0    0    0  501  0.00000000000E+00  0.00000000000E+00  0.16092120800E+04  0.16092120800E+04  0.50400001928E-02 0.  1.
        1   -1    0    0  501    0  0.00000000000E+00  0.00000000000E+00 -0.22810988018E+04  0.22810988018E+04  0.50400001928E-02 0. -1.
    10030    2    1    2    0    0  0.00000000000E+00  0.00000000000E+00 -0.67188672181E+03  0.38903108818E+04  0.38318516399E+04 0.  0.
        2    1    3    3  502    0 -0.47820024494E+02  0.17657311116E+04 -0.10893418335E+04  0.20752731732E+04  0.25500000920E-02 0. -1.
       -2    1    3    3    0  502  0.47820024494E+02 -0.17657311116E+04  0.41745511170E+03  0.18150377086E+04  0.25500000920E-02 0.  1.
</event>
<event>
 5   0  0.7858367E-08  0.3786309E+04  0.7818609E-02  0.8049099E-01
       -2   -1    0    0    0  501  0.00000000000E+00  0.00000000000E+00  0.21262660802E+04  0.21262660802E+04  0.25500000920E-02 0. -1.
        2   -1    0    0  501    0  0.00000000000E+00  0.00000000000E+00 -0.16855998487E+04  0.16855998487E+04  0.25500000920E-02 0.  1.
    10030    2    1    2    0    0  0.00000000000E+00  0.00000000000E+00  0.44066623157E+03  0.38118659289E+04  0.37863089061E+04 0.  0.
        2    1    3    3  502    0  0.11494943439E+03 -0.53903608356E+03  0.20437070500E+04  0.21167219416E+04  0.25500000920E-02 0. -1.
       -2    1    3    3    0  502 -0.11494943439E+03  0.53903608356E+03 -0.16030408185E+04  0.16951439873E+04  0.25500000920E-02 0.  1.
</event>
<event>
 5   0  0.3701250E-08  0.3785663E+04  0.7818609E-02  0.8049239E-01
        1   -1    0    0  501    0  0.00000000000E+00  0.00000000000E+00  0.13669522047E+04  0.13669522048E+04  0.50400001928E-02 0. -1.
       -1   -1    0    0    0  501  0.00000000000E+00  0.00000000000E+00 -0.26210215325E+04  0.26210215325E+04  0.50400001928E-02 0.  1.
    10030    2    1    2    0    0  0.00000000000E+00  0.00000000000E+00 -0.12540693278E+04  0.39879737373E+04  0.37856630397E+04 0.  0.
        3    1    3    3  502    0 -0.24124146771E+03 -0.94775189036E+03  0.10801838860E+04  0.14571301689E+04  0.10100000352E+00 0. -1.
       -3    1    3    3    0  502  0.24124146771E+03  0.94775189036E+03 -0.23342532137E+04  0.25308435683E+04  0.10100000352E+00 0.  1.
</event>
<event>
 5   0  0.3889225E-08  0.3557366E+04  0.7818609E-02  0.8100328E-01
        1   -1    0    0  501    0  0.00000000000E+00  0.00000000000E+00  0.24887102538E+04  0.24887102538E+04  0.50400001928E-02 0.  1.
       -1   -1    0    0    0  501  0.00000000000E+00  0.00000000000E+00 -0.12712260217E+04  0.12712260217E+04  0.50400001928E-02 0. -1.
    10030    2    1    2    0    0  0.00000000000E+00  0.00000000000E+00  0.12174842321E+04  0.37599362755E+04  0.35573660116E+04 0.  0.
        5    1    3    3  502    0 -0.14965612116E+04 -0.78629116626E+03  0.24316283896E+02  0.16907284317E+04  0.46999998093E+01 0. -1.
       -5    1    3    3    0  502  0.14965612116E+04  0.78629116626E+03  0.11931679482E+04  0.20692078438E+04  0.46999998093E+01 0.  1.
</event>
<event>
 5   0  0.3701250E-08  0.3815922E+04  0.7818609E-02  0.8042747E-01
        1   -1    0    0  501    0  0.00000000000E+00  0.00000000000E+00  0.20070406418E+04  0.20070406418E+04  0.50400001928E-02 0. -1.
       -1   -1    0    0    0  501  0.00000000000E+00  0.00000000000E+00 -0.18137726831E+04  0.18137726831E+04  0.50400001928E-02 0.  1.
    10030    2    1    2    0    0  0.00000000000E+00  0.00000000000E+00  0.19326795871E+03  0.38208133250E+04  0.38159221638E+04 0.  0.
        2    1    3    3  502    0  0.17609013206E+04 -0.45111813954E+03  0.67706179380E+03  0.19397664059E+04  0.25500000920E-02 0. -1.
       -2    1    3    3    0  502 -0.17609013206E+04  0.45111813954E+03 -0.48379383510E+03  0.18810469191E+04  0.25500000920E-02 0.  1.
</event>
<event>
 5   0  0.7858367E-08  0.3792948E+04  0.7818609E-02  0.8047670E-01
        2   -1    0    0  501    0  0.00000000000E+00  0.00000000000E+00  0.17881506936E+04  0.17881506936E+04  0.25500000920E-02 0.  1.
       -2   -1    0    0    0  501  0.00000000000E+00  0.00000000000E+00 -0.20113589293E+04  0.20113589293E+04  0.25500000920E-02 0. -1.
    10030    2    1    2    0    0  0.00000000000E+00  0.00000000000E+00 -0.22320823572E+03  0.37995096230E+04  0.37929475950E+04 0.  0.
        2    1    3    3  502    0 -0.11034063660E+04  0.12822527570E+04 -0.97037084233E+03  0.19502044285E+04  0.25500000920E-02 0. -1.
       -2    1    3    3    0  502  0.11034063660E+04 -0.12822527570E+04  0.74716260661E+03  0.18493051944E+04  0.25500000920E-02 0.  1.
</event>
<event>
 5   0  0.3701250E-08  0.3786338E+04  0.7818609E-02  0.8049093E-01
       -3   -1    0    0    0  501  0.00000000000E+00  0.00000000000E+00  0.21876022388E+04  0.21876022411E+04  0.10100000352E+00 0.  1.
        3   -1    0    0  501    0  0.00000000000E+00  0.00000000000E+00 -0.16383640537E+04  0.16383640568E+04  0.10100000352E+00 0. -1.
    10030    2    1    2    0    0  0.00000000000E+00  0.00000000000E+00  0.54923818512E+03  0.38259662979E+04  0.37863380104E+04 0.  0.
        1    1    3    3  502    0  0.10675484825E+04  0.74835539248E+03 -0.11124801596E+04  0.17138575382E+04  0.50400001928E-02 0. -1.
       -1    1    3    3    0  502 -0.10675484825E+04 -0.74835539248E+03  0.16617183447E+04  0.21121087597E+04  0.50400001928E-02 0.  1.
</event>
<event>
 5   0  0.7858367E-08  0.3805225E+04  0.7818609E-02  0.8045034E-01
       -2   -1    0    0    0  501  0.00000000000E+00  0.00000000000E+00  0.16037652148E+04  0.16037652148E+04  0.25500000920E-02 0.  1.
        2   -1    0    0  501    0  0.00000000000E+00  0.00000000000E+00 -0.22571476415E+04  0.22571476415E+04  0.25500000920E-02 0. -1.
    10030    2    1    2    0    0  0.00000000000E+00  0.00000000000E+00 -0.65338242677E+03  0.38609128563E+04  0.38052252875E+04 0.  0.
        2    1    3    3  502    0 -0.69553743104E+03  0.73670440709E+03  0.13072891045E+04  0.16539378780E+04  0.25500000920E-02 0.  1.
       -2    1    3    3    0  502  0.69553743104E+03 -0.73670440709E+03 -0.19606715313E+04  0.22069749783E+04  0.25500000920E-02 0. -1.
</event>
<event>
 5   0  0.1150235E-07  0.3758675E+04  0.7818609E-02  0.8055082E-01
       -2   -1    0    0    0  501  0.00000000000E+00  0.00000000000E+00  0.15058103483E+04  0.15058103483E+04  0.25500000920E-02 0. -1.
        2   -1    0    0  501    0  0.00000000000E+00  0.00000000000E+00 -0.23455201463E+04  0.23455201463E+04  0.25500000920E-02 0.  1.
    10030    2    1    2    0    0  0.00000000000E+00  0.00000000000E+00 -0.83970979799E+03  0.38513304946E+04  0.37586745049E+04 0.  0.
        4    1    3    3  502    0 -0.63083996860E+03 -0.53280274749E+02 -0.22329691289E+04  0.23209805249E+04  0.12699999809E+01 0.  1.
       -4    1    3    3    0  502  0.63083996860E+03  0.53280274749E+02  0.13932593309E+04  0.15303499697E+04  0.12699999809E+01 0. -1.
</event>
<event>
 5   0  0.3701250E-08  0.3817046E+04  0.7818609E-02  0.8042507E-01
        1   -1    0    0  501    0  0.00000000000E+00  0.00000000000E+00  0.25433204852E+04  0.25433204852E+04  0.50400001928E-02 0. -1.
       -1   -1    0    0    0  501  0.00000000000E+00  0.00000000000E+00 -0.14321669193E+04  0.14321669193E+04  0.50400001928E-02 0.  1.
    10030    2    1    2    0    0  0.00000000000E+00  0.00000000000E+00  0.11111535659E+04  0.39754874045E+04  0.38170456975E+04 0.  0.
        4    1    3    3  502    0  0.10179083222E+04 -0.13878664400E+04  0.14145200775E+04  0.22278193980E+04  0.12699999809E+01 0.  1.
       -4    1    3    3    0  502 -0.10179083222E+04  0.13878664400E+04 -0.30336651155E+03  0.17476680065E+04  0.12699999809E+01 0. -1.
</event>
<event>
 5   0  0.7858367E-08  0.3791320E+04  0.7818609E-02  0.8048020E-01
       -2   -1    0    0    0  501  0.00000000000E+00  0.00000000000E+00  0.15926342614E+04  0.15926342614E+04  0.25500000920E-02 0.  1.
        2   -1    0    0  501    0  0.00000000000E+00  0.00000000000E+00 -0.22563420393E+04  0.22563420393E+04  0.25500000920E-02 0. -1.
    10030    2    1    2    0    0  0.00000000000E+00  0.00000000000E+00 -0.66370777788E+03  0.38489763007E+04  0.37913204228E+04 0.  0.
        2    1    3    3  502    0  0.18423427165E+04  0.43308248752E+03 -0.44185529790E+03  0.19434565162E+04  0.25500000920E-02 0. -1.
       -2    1    3    3    0  502 -0.18423427165E+04 -0.43308248752E+03 -0.22185247998E+03  0.19055197845E+04  0.25500000920E-02 0.  1.
</event>
<event>
 5   0  0.1150235E-07  0.3797908E+04  0.7818609E-02  0.8046604E-01
       -2   -1    0    0    0  501  0.00000000000E+00  0.00000000000E+00  0.14275061523E+04  0.14275061523E+04  0.25500000920E-02 0. -1.
        2   -1    0    0  501    0  0.00000000000E+00  0.00000000000E+00 -0.25261021815E+04  0.25261021815E+04  0.25500000920E-02 0.  1.
    10030    2    1    2    0    0  0.00000000000E+00  0.00000000000E+00 -0.10985960292E+04  0.39536083338E+04  0.37979080587E+04 0.  0.
        4    1    3    3  502    0 -0.96321445409E+03  0.14818011058E+04  0.17380728031E+03  0.17758736400E+04  0.12699999809E+01 0. -1.
       -4    1    3    3    0  502  0.96321445409E+03 -0.14818011058E+04 -0.12724033095E+04  0.21777346938E+04  0.12699999809E+01 0.  1.
</event>
<event>
 5   0  0.1193861E-07  0.3795596E+04  0.7818609E-02  0.8047101E-01
       -2   -1    0    0    0  501  0.00000000000E+00  0.00000000000E+00  0.25810981760E+04  0.25810981760E+04  0.25500000920E-02 0. -1.
        2   -1    0    0  501    0  0.00000000000E+00  0.00000000000E+00 -0.13953895624E+04  0.13953895624E+04  0.25500000920E-02 0.  1.
    10030    2    1    2    0    0  0.00000000000E+00  0.00000000000E+00  0.11857086135E+04  0.39764877384E+04  0.37955961083E+04 0.  0.
        3    1    3    3  502    0 -0.12283397543E+04 -0.95289944881E+03 -0.54750696225E+03  0.16482110895E+04  0.10100000352E+00 0.  1.
       -3    1    3    3    0  502  0.12283397543E+04  0.95289944881E+03  0.17332155758E+04  0.23282766489E+04  0.10100000352E+00 0. -1.
</event>
<event>
 5   0  0.1174870E-07  0.3807261E+04  0.7818609E-02  0.8044599E-01
        2   -1    0    0  501    0  0.00000000000E+00  0.00000000000E+00  0.27212771460E+04  0.27212771460E+04  0.25500000920E-02 0. -1.
       -2   -1    0    0    0  501  0.00000000000E+00  0.00000000000E+00 -0.13316572111E+04  0.13316572111E+04  0.25500000920E-02 0.  1.
    10030    2    1    2    0    0  0.00000000000E+00  0.00000000000E+00  0.13896199349E+04  0.40529343571E+04  0.38072606082E+04 0.  0.
        5    1    3    3  502    0  0.23141431575E+03 -0.15146167479E+04 -0.50776231591E+03  0.16141440884E+04  0.46999998093E+01 0.  1.
       -5    1    3    3    0  502 -0.23141431575E+03  0.15146167479E+04  0.18973822508E+04  0.24387902687E+04  0.46999998093E+01 0. -1.
</event>
<event>
 5   0  0.1193861E-07  0.3817086E+04  0.7818609E-02  0.8042498E-01
        2   -1    0    0  501    0  0.00000000000E+00  0.00000000000E+00  0.14612531470E+04  0.14612531470E+04  0.25500000920E-02 0.  1.
       -2   -1    0    0    0  501  0.00000000000E+00  0.00000000000E+00 -0.24927484829E+04  0.24927484829E+04  0.25500000920E-02 0. -1.
    10030    2    1    2    0    0  0.00000000000E+00  0.00000000000E+00 -0.10314953358E+04  0.39540016299E+04  0.38170860956E+04 0.  0.
        3    1    3    3  502    0  0.11956917898E+04 -0.14300579551E+04 -0.94006467687E+03  0.20876939953E+04  0.10100000352E+00 0.  1.
       -3    1    3    3    0  502 -0.11956917898E+04  0.14300579551E+04 -0.91430658977E+02  0.18663076346E+04  0.10100000352E+00 0. -1.
</event>
<event>
 5   0  0.3889225E-08  0.3805833E+04  0.7818609E-02  0.8044904E-01
       -1   -1    0    0    0  501  0.00000000000E+00  0.00000000000E+00  0.13944912403E+04  0.13944912403E+04  0.50400001928E-02 0. -1.
        1   -1    0    0  501    0  0.00000000000E+00  0.00000000000E+00 -0.25967115689E+04  0.25967115689E+04  0.50400001928E-02 0.  1.
    10030    2    1    2    0    0  0.00000000000E+00  0.00000000000E+00 -0.12022203286E+04  0.39912028092E+04  0.38058331736E+04 0.  0.
        5    1    3    3  502    0  0.97535574495E+03  0.16280778173E+04 -0.45612579479E+03  0.19519295681E+04  0.46999998093E+01 0. -1.
       -5    1    3    3    0  502 -0.97535574495E+03 -0.16280778173E+04 -0.74609453382E+03  0.20392732411E+04  0.46999998093E+01 0.  1.
</event>
<event>
 5   0  0.1174870E-07  0.3799004E+04  0.7818609E-02  0.8046369E-01
        2   -1    0    0  501    0  0.00000000000E+00  0.00000000000E+00  0.26944424993E+04  0.26944424993E+04  0.25500000920E-02 0. -1.
       -2   -1    0    0    0  501  0.00000000000E+00  0.00000000000E+00 -0.13390921973E+04  0.13390921973E+04  0.25500000920E-02 0.  1.
    10030    2    1    2    0    0  0.00000000000E+00  0.00000000000E+00  0.13553503020E+04  0.40335346966E+04  0.37990035151E+04 0.  0.
        5    1    3    3  502    0 -0.12842022481E+04  0.12596297415E+04  0.13254573135E+04  0.22344354275E+04  0.46999998093E+01 0. -1.
       -5    1    3    3    0  502  0.12842022481E+04 -0.12596297415E+04  0.29892988532E+02  0.17990992692E+04  0.46999998093E+01 0.  1.
</event>
<event>
 5   0  0.1150235E-07  0.3802474E+04  0.7818609E-02  0.8045624E-01
        2   -1    0    0  501    0  0.00000000000E+00  0.00000000000E+00  0.18964658267E+04  0.18964658267E+04  0.25500000920E-02 0.  1.
       -2   -1    0    0    0  501  0.00000000000E+00  0.00000000000E+00 -0.19060200974E+04  0.19060200974E+04  0.25500000920E-02 0. -1.
    10030    2    1    2    0    0  0.00000000000E+00  0.00000000000E+00 -0.95542706264E+01  0.38024859241E+04  0.38024739209E+04 0.  0.
        4    1    3    3  502    0 -0.47139541866E+03 -0.18418670935E+04 -0.12648830330E+01  0.19012341370E+04  0.12699999809E+01 0.  1.
       -4    1    3    3    0  502  0.47139541866E+03  0.18418670935E+04 -0.82893875934E+01  0.19012517871E+04  0.12699999809E+01 0. -1.
</event>
<event>
 5   0  0.3701250E-08  0.3545445E+04  0.7818609E-02  0.8103104E-01
       -1   -1    0    0    0  501  0.00000000000E+00  0.00000000000E+00  0.12004367248E+04  0.12004367248E+04  0.50400001928E-02 0. -1.
        1   -1    0    0  501    0  0.00000000000E+00  0.00000000000E+00 -0.26178345331E+04  0.26178345331E+04  0.50400001928E-02 0.  1.
    10030    2    1    2    0    0  0.00000000000E+00  0.00000000000E+00 -0.14173978082E+04  0.38182712579E+04  0.35454448031E+04 0.  0.
        4    1    3    3  502    0  0.14441203687E+04 -0.78129745954E+03  0.11034756027E+02  0.16419600294E+04  0.12699999809E+01 0. -1.
       -4    1    3    3    0  502 -0.14441203687E+04  0.78129745954E+03 -0.14284325643E+04  0.21763112284E+04  0.12699999809E+01 0.  1.
</event>
<event>
 5   0  0.1193861E-07  0.3830212E+04  0.7818609E-02  0.8039702E-01
       -2   -1    0    0    0  501  0.00000000000E+00  0.00000000000E+00  0.24968364054E+04  0.24968364054E+04  0.25500000920E-02 0. -1.
        2   -1    0    0  501    0  0.00000000000E+00  0.00000000000E+00 -0.14689113751E+04  0.14689113751E+04  0.25500000920E-02 0.  1.
    10030    2    1    2    0    0  0.00000000000E+00  0.00000000000E+00  0.10279250302E+04  0.39657477805E+04  0.38302122122E+04 0.  0.
        3    1    3    3  502    0  0.12952390811E+04 -0.85891396730E+03  0.16726023369E+04  0.22831942686E+04  0.10100000352E+00 0. -1.
       -3    1    3    3    0  502 -0.12952390811E+04  0.85891396730E+03 -0.64467730672E+03  0.16825535119E+04  0.10100000352E+00 0.  1.
</event>
<event>
 5   0  0.3701250E-08  0.3803916E+04  0.7818609E-02  0.8045315E-01
        1   -1    0    0  501    0  0.00000000000E+00  0.00000000000E+00  0.11241001798E+04  0.11241001798E+04  0.50400001928E-02 0. -1.
       -1   -1    0    0    0  501  0.00000000000E+00  0.00000000000E+00 -0.32180797342E+04  0.32180797342E+04  0.50400001928E-02 0.  1.
    10030    2    1    2    0    0  0.00000000000E+00  0.00000000000E+00 -0.20939795544E+04  0.43421799140E+04  0.38039158812E+04 0.  0.
        3    1    3    3  502    0  0.12823211532E+04 -0.13623082031E+04 -0.14377986925E+04  0.23595542525E+04  0.10100000352E+00 0. -1.
       -3    1    3    3    0  502 -0.12823211532E+04  0.13623082031E+04 -0.65618086185E+03  0.19826256615E+04  0.10100000352E+00 0.  1.
</event>
<event>
 5   0  0.3701250E-08  0.3819015E+04  0.7818609E-02  0.8042086E-01
        1   -1    0    0  501    0  0.00000000000E+00  0.00000000000E+00  0.18386805263E+04  0.18386805263E+04  0.50400001928E-02 0.  1.
       -1   -1    0    0    0  501  0.00000000000E+00  0.00000000000E+00 -0.19830632592E+04  0.19830632592E+04  0.50400001928E-02 0. -1.
    10030    2    1    2    0    0  0.00000000000E+00  0.00000000000E+00 -0.14438273288E+03  0.38217437855E+04  0.38190154737E+04 0.  0.
        3    1    3    3  502    0  0.10216043278E+04  0.58194028105E+02 -0.16855335039E+04  0.19718227989E+04  0.10100000352E+00 0. -1.
       -3    1    3    3    0  502 -0.10216043278E+04 -0.58194028105E+02  0.15411507710E+04  0.18499209866E+04  0.10100000352E+00 0.  1.
</event>
<event>
 5   0  0.3889225E-08  0.3715344E+04  0.7818609E-02  0.8064570E-01
       -1   -1    0    0    0  501  0.00000000000E+00  0.00000000000E+00  0.17419202691E+04  0.17419202691E+04  0.50400001928E-02 0. -1.
        1   -1    0    0  501    0  0.00000000000E+00  0.00000000000E+00 -0.19811156280E+04  0.19811156280E+04  0.50400001928E-02 0.  1.
    10030    2    1    2    0    0  0.00000000000E+00  0.00000000000E+00 -0.23919535894E+03  0.37230358971E+04  0.37153441121E+04 0.  0.
        5    1    3    3  502    0  0.14196647974E+01  0.12222998595E+04 -0.15213877724E+04  0.19515793107E+04  0.46999998093E+01 0.  1.
       -5    1    3    3    0  502 -0.14196647974E+01 -0.12222998595E+04  0.12821924135E+04  0.17714565863E+04  0.46999998093E+01 0. -1.
</event>
<event>
 5   0  0.7858367E-08  0.3801545E+04  0.7818609E-02  0.8045823E-01
       -2   -1    0    0    0  501  0.00000000000E+00  0.00000000000E+00  0.16346585304E+04  0.16346585304E+04  0.25500000920E-02 0. -1.
        2   -1    0    0  501    0  0.00000000000E+00  0.00000000000E+00 -0.22102089028E+04  0.22102089028E+04  0.25500000920E-02 0.  1.
    10030    2    1    2    0    0  0.00000000000E+00  0.00000000000E+00 -0.57555037233E+03  0.38448674332E+04  0.38015453894E+04 0.  0.
        2    1    3    3  502    0  0.17217875326E+03 -0.85317049190E+03  0.14212718509E+04  0.16666010577E+04  0.25500000920E-02 0. -1.
       -2    1    3    3    0  502 -0.17217875326E+03  0.85317049190E+03 -0.19968222233E+04  0.21782663755E+04  0.25500000920E-02 0.  1.
</event>
<event>
 5   0  0.1174870E-07  0.3802048E+04  0.7818609E-02  0.8045716E-01
       -2   -1    0    0    0  501  0.00000000000E+00  0.00000000000E+00  0.14149618720E+04  0.14149618720E+04  0.25500000920E-02 0. -1.
        2   -1    0    0  501    0  0.00000000000E+00  0.00000000000E+00 -0.25540557729E+04  0.25540557729E+04  0.25500000920E-02 0.  1.
    10030    2    1    2    0    0  0.00000000000E+00  0.00000000000E+00 -0.11390939009E+04  0.39690176450E+04  0.38020476261E+04 0.  0.
        5    1    3    3  502    0 -0.12080395164E+04  0.10393119285E+04  0.51247604155E+03  0.16739720849E+04  0.46999998093E+01 0.  1.
       -5    1    3    3    0  502  0.12080395164E+04 -0.10393119285E+04 -0.16515699424E+04  0.22950455600E+04  0.46999998093E+01 0. -1.
</event>
<event>
 5   0  0.3701250E-08  0.3782842E+04  0.7818609E-02  0.8049847E-01
       -1   -1    0    0    0  501  0.00000000000E+00  0.00000000000E+00  0.32992321593E+04  0.32992321593E+04  0.50400001928E-02 0.  1.
        1   -1    0    0  501    0  0.00000000000E+00  0.00000000000E+00 -0.10843349814E+04  0.10843349814E+04  0.50400001928E-02 0. -1.
    10030    2    1    2    0    0  0.00000000000E+00  0.00000000000E+00  0.22148971780E+04  0.43835671407E+04  0.37828417054E+04 0.  0.
        4    1    3    3  502    0  0.52559105686E+03 -0.16683859210E+04  0.19412340510E+04  0.26130726730E+04  0.12699999809E+01 0.  1.
       -4    1    3    3    0  502 -0.52559105686E+03  0.16683859210E+04  0.27366312696E+03  0.17704944678E+04  0.12699999809E+01 0. -1.
</event>
<event>
 5   0  0.7858367E-08  0.3791654E+04  0.7818609E-02  0.8047948E-01
       -2   -1    0    0    0  501  0.00000000000E+00  0.00000000000E+00  0.14955304354E+04  0.14955304354E+04  0.25500000920E-02 0.  1.
        2   -1    0    0  501    0  0.00000000000E+00  0.00000000000E+00 -0.24032679856E+04  0.24032679856E+04  0.25500000920E-02 0. -1.
    10030    2    1    2    0    0  0.00000000000E+00  0.00000000000E+00 -0.90773755026E+03  0.38987984210E+04  0.37916542126E+04 0.  0.
        2    1    3    3  502    0 -0.10752379561E+04 -0.15316524096E+04 -0.14187314399E+03  0.18767588431E+04  0.25500000920E-02 0. -1.
       -2    1    3    3    0  502  0.10752379561E+04  0.15316524096E+04 -0.76586440627E+03  0.20220395780E+04  0.25500000920E-02 0.  1.
</event>
<event>
 5   0  0.3889225E-08  0.3804740E+04  0.7818609E-02  0.8045138E-01
       -1   -1    0    0    0  501  0.00000000000E+00  0.00000000000E+00  0.19334988143E+04  0.19334988143E+04  0.50400001928E-02 0.  1.
        1   -1    0    0  501    0  0.00000000000E+00  0.00000000000E+00 -0.18717422861E+04  0.18717422861E+04  0.50400001928E-02 0. -1.
    10030    2    1    2    0    0  0.00000000000E+00  0.00000000000E+00  0.61756528221E+02  0.38052411004E+04  0.38047399337E+04 0.  0.
        5    1    3    3  502    0 -0.39936185596E+03 -0.15117938317E+04  0.11145240626E+04  0.19202073996E+04  0.46999998093E+01 0.  1.
       -5    1    3    3    0  502  0.39936185596E+03  0.15117938317E+04 -0.10527675344E+04  0.18850337008E+04  0.46999998093E+01 0. -1.
</event>
<event>
 5   0  0.7858367E-08  0.3737102E+04  0.7818609E-02  0.8059789E-01
        2   -1    0    0  501    0  0.00000000000E+00  0.00000000000E+00  0.14280838019E+04  0.14280838019E+04  0.25500000920E-02 0. -1.
       -2   -1    0    0    0  501  0.00000000000E+00  0.00000000000E+00 -0.24448721785E+04  0.24448721785E+04  0.25500000920E-02 0.  1.
    10030    2    1    2    0    0  0.00000000000E+00  0.00000000000E+00 -0.10167883767E+04  0.38729559804E+04  0.37371017411E+04 0.  0.
        2    1    3    3  502    0 -0.16449806904E+04  0.68413935671E+03  0.75537272990E+02  0.17831752608E+04  0.25500000920E-02 0.  1.
       -2    1    3    3    0  502  0.16449806904E+04 -0.68413935671E+03 -0.10923256497E+04  0.20897807196E+04  0.25500000920E-02 0. -1.
</event>
<event>
 5   0  0.1193861E-07  0.3804416E+04  0.7818609E-02  0.8045208E-01
       -2   -1    0    0    0  501  0.00000000000E+00  0.00000000000E+00  0.12785706916E+04  0.12785706916E+04  0.25500000920E-02 0.  1.
        2   -1    0    0  501    0  0.00000000000E+00  0.00000000000E+00 -0.28300311199E+04  0.28300311199E+04  0.25500000920E-02 0. -1.
    10030    2    1    2    0    0  0.00000000000E+00  0.00000000000E+00 -0.15514604283E+04  0.41086018114E+04  0.38044157744E+04 0.  0.
        3    1    3    3  502    0  0.53556500778E+03 -0.14451347373E+04 -0.19798451480E+04  0.25089900571E+04  0.10100000352E+00 0. -1.
       -3    1    3    3    0  502 -0.53556500778E+03  0.14451347373E+04  0.42838471966E+03  0.15996117543E+04  0.10100000352E+00 0.  1.
</event>
<event>
 5   0  0.3701250E-08  0.3817634E+04  0.7818609E-02  0.8042381E-01
        1   -1    0    0  501    0  0.00000000000E+00  0.00000000000E+00  0.17465418317E+04  0.17465418317E+04  0.50400001928E-02 0. -1.
       -1   -1    0    0    0  501  0.00000000000E+00  0.00000000000E+00 -0.20861696981E+04  0.20861696981E+04  0.50400001928E-02 0.  1.
    10030    2    1    2    0    0  0.00000000000E+00  0.00000000000E+00 -0.33962786637E+03  0.38327115298E+04  0.38176341605E+04 0.  0.
        2    1    3    3  502    0  0.32054125165E+03 -0.11045649784E+04  0.13596106908E+04  0.17808289407E+04  0.25500000920E-02 0. -1.
       -2    1    3    3    0  502 -0.32054125165E+03  0.11045649784E+04 -0.16992385572E+04  0.20518825891E+04  0.25500000920E-02 0.  1.
</event>
<event>
 5   0  0.3889225E-08  0.3790649E+04  0.7818609E-02  0.8048164E-01
        1   -1    0    0  501    0  0.00000000000E+00  0.00000000000E+00  0.14022903854E+04  0.14022903854E+04  0.50400001928E-02 0. -1.
       -1   -1    0    0    0  501  0.00000000000E+00  0.00000000000E+00 -0.25617059547E+04  0.25617059547E+04  0.50400001928E-02 0.  1.
    10030    2    1    2    0    0  0.00000000000E+00  0.00000000000E+00 -0.11594155693E+04  0.39639963401E+04  0.37906493536E+04 0.  0.
        5    1    3    3  502    0 -0.15736339200E+04 -0.10332431186E+04 -0.80957460238E+03  0.20492311199E+04  0.46999998093E+01 0.  1.
       -5    1    3    3    0  502  0.15736339200E+04  0.10332431186E+04 -0.34984096688E+03  0.19147652201E+04  0.46999998093E+01 0. -1.
</event>
<event>
 5   0  0.1143283E-07  0.3797325E+04  0.7818609E-02  0.8046729E-01
        2   -1    0    0  501    0  0.00000000000E+00  0.00000000000E+00  0.20730268772E+04  0.20730268772E+04  0.25500000920E-02 0.  1.
       -2   -1    0    0    0  501  0.00000000000E+00  0.00000000000E+00 -0.17389643554E+04  0.17389643554E+04  0.25500000920E-02 0. -1.
    10030    2    1    2    0    0  0.00000000000E+00  0.00000000000E+00  0.33406252186E+03  0.38119912326E+04  0.37973252940E+04 0.  0.
        1    1    3    3  502    0 -0.18454535326E+04  0.69007385149E+02  0.60970953912E+03  0.19447895728E+04  0.50400001928E-02 0. -1.
       -1    1    3    3    0  502  0.18454535326E+04 -0.69007385149E+02 -0.27564701726E+03  0.18672016598E+04  0.50400001928E-02 0.  1.
</event>
<event>
 5   0  0.1193861E-07  0.3794800E+04  0.7818609E-02  0.8047272E-01
        2   -1    0    0  501    0  0.00000000000E+00  0.00000000000E+00  0.24302541105E+04  0.24302541105E+04  0.25500000920E-02 0.  1.
       -2   -1    0    0    0  501  0.00000000000E+00  0.00000000000E+00 -0.14813787549E+04  0.14813787550E+04  0.25500000920E-02 0. -1.
    10030    2    1    2    0    0  0.00000000000E+00  0.00000000000E+00  0.94887535551E+03  0.39116328654E+04  0.37948000255E+04 0.  0.
        3    1    3    3  502    0  0.10244180549E+04  0.15753905661E+04  0.74488737769E+03  0.20214215301E+04  0.10100000352E+00 0. -1.
       -3    1    3    3    0  502 -0.10244180549E+04 -0.15753905661E+04  0.20398797782E+03  0.18902113353E+04  0.10100000352E+00 0.  1.
</event>
<event>
 5   0  0.7858367E-08  0.3808669E+04  0.7818609E-02  0.8044297E-01
       -2   -1    0    0    0  501  0.00000000000E+00  0.00000000000E+00  0.15938641602E+04  0.15938641602E+04  0.25500000920E-02 0. -1.
        2   -1    0    0  501    0  0.00000000000E+00  0.00000000000E+00 -0.22752814646E+04  0.22752814646E+04  0.25500000920E-02 0.  1.
    10030    2    1    2    0    0  0.00000000000E+00  0.00000000000E+00 -0.68141730443E+03  0.38691456248E+04  0.38086688387E+04 0.  0.
        2    1    3    3  502    0 -0.71389821509E+03  0.34149867842E+03  0.14189087089E+04  0.16246765626E+04  0.25500000920E-02 0. -1.
       -2    1    3    3    0  502  0.71389821509E+03 -0.34149867842E+03 -0.21003260133E+04  0.22444690622E+04  0.25500000920E-02 0.  1.
</event>
<event>
 5   0  0.3701250E-08  0.3797311E+04  0.7818609E-02  0.8046732E-01
        1   -1    0    0  501    0  0.00000000000E+00  0.00000000000E+00  0.14725573693E+04  0.14725573693E+04  0.50400001928E-02 0. -1.
       -1   -1    0    0    0  501  0.00000000000E+00  0.00000000000E+00 -0.24480493913E+04  0.24480493913E+04  0.50400001928E-02 0.  1.
    10030    2    1    2    0    0  0.00000000000E+00  0.00000000000E+00 -0.97549202201E+03  0.39206067606E+04  0.37973112443E+04 0.  0.
        4    1    3    3  502    0 -0.99514260049E+03 -0.93952202091E+03  0.87099326703E+03  0.16222334318E+04  0.12699999809E+01 0. -1.
       -4    1    3    3    0  502  0.99514260049E+03  0.93952202091E+03 -0.18464852890E+04  0.22983733288E+04  0.12699999809E+01 0.  1.
</event>
<event>
 5   0  0.1150235E-07  0.3772336E+04  0.7818609E-02  0.8052118E-01
        2   -1    0    0  501    0  0.00000000000E+00  0.00000000000E+00  0.25810878036E+04  0.25810878036E+04  0.25500000920E-02 0. -1.
       -2   -1    0    0    0  501  0.00000000000E+00  0.00000000000E+00 -0.13783449430E+04  0.13783449430E+04  0.25500000920E-02 0.  1.
    10030    2    1    2    0    0  0.00000000000E+00  0.00000000000E+00  0.12027428606E+04  0.39594327465E+04  0.37723357864E+04 0.  0.
        4    1    3    3  502    0 -0.11557000105E+04 -0.13029477709E+04  0.13613785315E+04  0.22105810384E+04  0.12699999809E+01 0. -1.
       -4    1    3    3    0  502  0.11557000105E+04  0.13029477709E+04 -0.15863567092E+03  0.17488517082E+04  0.12699999809E+01 0.  1.
</event>
<event>
 5   0  0.1143283E-07  0.3779109E+04  0.7818609E-02  0.8050653E-01
       -2   -1    0    0    0  501  0.00000000000E+00  0.00000000000E+00  0.28709870266E+04  0.28709870266E+04  0.25500000920E-02 0. -1.
        2   -1    0    0  501    0  0.00000000000E+00  0.00000000000E+00 -0.12436195715E+04  0.12436195715E+04  0.25500000920E-02 0.  1.
    10030    2    1    2    0    0  0.00000000000E+00  0.00000000000E+00  0.16273674551E+04  0.41146065981E+04  0.37791087075E+04 0.  0.
        1    1    3    3  502    0 -0.17632515386E+03 -0.90171489519E+03 -0.98403029213E+03  0.13462896895E+04  0.50400001928E-02 0.  1.
       -1    1    3    3    0  502  0.17632515386E+03  0.90171489519E+03  0.26113977473E+04  0.27683169086E+04  0.50400001928E-02 0. -1.
</event>
<event>
 5   0  0.1174870E-07  0.3708966E+04  0.7818609E-02  0.8065978E-01
       -2   -1    0    0    0  501  0.00000000000E+00  0.00000000000E+00  0.20228941208E+04  0.20228941208E+04  0.25500000920E-02 0. -1.
        2   -1    0    0  501    0  0.00000000000E+00  0.00000000000E+00 -0.17000925233E+04  0.17000925233E+04  0.25500000920E-02 0.  1.
    10030    2    1    2    0    0  0.00000000000E+00  0.00000000000E+00  0.32280159756E+03  0.37229866441E+04  0.37089659854E+04 0.  0.
        5    1    3    3  502    0  0.17035064331E+04 -0.30986084252E+01 -0.57426896231E+03  0.17977070674E+04  0.46999998093E+01 0.  1.
       -5    1    3    3    0  502 -0.17035064331E+04  0.30986084252E+01  0.89707055987E+03  0.19252795767E+04  0.46999998093E+01 0. -1.
</event>
<event>
 5   0  0.3701250E-08  0.3744801E+04  0.7818609E-02  0.8058105E-01
        1   -1    0    0  501    0  0.00000000000E+00  0.00000000000E+00  0.23069578058E+04  0.23069578058E+04  0.50400001928E-02 0. -1.
       -1   -1    0    0    0  501  0.00000000000E+00  0.00000000000E+00 -0.15196997196E+04  0.15196997196E+04  0.50400001928E-02 0.  1.
    10030    2    1    2    0    0  0.00000000000E+00  0.00000000000E+00  0.78725808616E+03  0.38266575254E+04  0.37448007321E+04 0.  0.
        4    1    3    3  502    0 -0.82686482088E+03  0.65042233151E+03 -0.11891397938E+04  0.15877057988E+04  0.12699999809E+01 0.  1.
       -4    1    3    3    0  502  0.82686482088E+03 -0.65042233151E+03  0.19763978800E+04  0.22389517267E+04  0.12699999809E+01 0. -1.
</event>
<event>
 5   0  0.1150235E-07  0.3798010E+04  0.7818609E-02  0.8046582E-01
        2   -1    0    0  501    0  0.00000000000E+00  0.00000000000E+00  0.21925110172E+04  0.21925110172E+04  0.25500000920E-02 0.  1.
       -2   -1    0    0    0  501  0.00000000000E+00  0.00000000000E+00 -0.16447896646E+04  0.16447896646E+04  0.25500000920E-02 0. -1.
    10030    2    1    2    0    0  0.00000000000E+00  0.00000000000E+00  0.54772135253E+03  0.38373006818E+04  0.37980097212E+04 0.  0.
        4    1    3    3  502    0  0.73802698602E+03 -0.17487227039E+04  0.33365843376E+03  0.19271856399E+04  0.12699999809E+01 0.  1.
       -4    1    3    3    0  502 -0.73802698602E+03  0.17487227039E+04  0.21406291877E+03  0.19101150419E+04  0.12699999809E+01 0. -1.
</event>
<event>
 5   0  0.3889225E-08  0.3779011E+04  0.7818609E-02  0.8050674E-01
        1   -1    0    0  501    0  0.00000000000E+00  0.00000000000E+00  0.24701137312E+04  0.24701137312E+04  0.50400001928E-02 0.  1.
       -1   -1    0    0    0  501  0.00000000000E+00  0.00000000000E+00 -0.14453714719E+04  0.14453714719E+04  0.50400001928E-02 0. -1.
    10030    2    1    2    0    0  0.00000000000E+00  0.00000000000E+00  0.10247422593E+04  0.39154852031E+04  0.37790114683E+04 0.  0.
        5    1    3    3  502    0  0.18021244781E+04 -0.52654840780E+03  0.29183715537E+03  0.19000254934E+04  0.46999998093E+01 0. -1.
       -5    1    3    3    0  502 -0.18021244781E+04  0.52654840780E+03  0.73290510392E+03  0.20154597097E+04  0.46999998093E+01 0.  1.
</event>
<event>
 5   0  0.3701250E-08  0.3597721E+04  0.7818609E-02  0.8091014E-01
       -1   -1    0    0    0  501  0.00000000000E+00  0.00000000000E+00  0.15423201478E+04  0.15423201478E+04  0.50400001928E-02 0. -1.
        1   -1    0    0  501    0  0.00000000000E+00  0.00000000000E+00 -0.20980718026E+04  0.20980718026E+04  0.50400001928E-02 0.  1.
    10030    2    1    2    0    0  0.00000000000E+00  0.00000000000E+00 -0.55575165478E+03  0.36403919504E+04  0.35977206187E+04 0.  0.
        4    1    3    3  502    0  0.24378824201E+03  0.28619969660E+03  0.15021230599E+04  0.15484567392E+04  0.12699999809E+01 0. -1.
       -4    1    3    3    0  502 -0.24378824201E+03 -0.28619969660E+03 -0.20578747147E+04  0.20919352111E+04  0.12699999809E+01 0.  1.
</event>
<event>
 5   0  0.1143283E-07  0.3809638E+04  0.7818609E-02  0.8044090E-01
        2   -1    0    0  501    0  0.00000000000E+00  0.00000000000E+00  0.17900070618E+04  0.17900070618E+04  0.25500000920E-02 0. -1.
       -2   -1    0    0    0  501  0.00000000000E+00  0.00000000000E+00 -0.20269951683E+04  0.20269951683E+04  0.25500000920E-02 0.  1.
    10030    2    1    2    0    0  0.00000000000E+00  0.00000000000E+00 -0.23698810641E+03  0.38170022301E+04  0.38096381274E+04 0.  0.
        1    1    3    3  502    0  0.13832484758E+04 -0.68116195813E+03 -0.12391272260E+04  0.19780784214E+04  0.50400001928E-02 0.  1.
       -1    1    3    3    0  502 -0.13832484758E+04  0.68116195813E+03  0.10021391196E+04  0.18389238087E+04  0.50400001928E-02 0. -1.
</event>
<event>
 5   0  0.3701250E-08  0.3798355E+04  0.7818609E-02  0.8046508E-01
        1   -1    0    0  501    0  0.00000000000E+00  0.00000000000E+00  0.17176608316E+04  0.17176608316E+04  0.50400001928E-02 0.  1.
       -1   -1    0    0    0  501  0.00000000000E+00  0.00000000000E+00 -0.20998762769E+04  0.20998762769E+04  0.50400001928E-02 0. -1.
    10030    2    1    2    0    0  0.00000000000E+00  0.00000000000E+00 -0.38221544533E+03  0.38175371085E+04  0.37983550293E+04 0.  0.
        4    1    3    3  502    0  0.60677734336E+03  0.43186247521E+03  0.15647667761E+04  0.17329687298E+04  0.12699999809E+01 0.  1.
       -4    1    3    3    0  502 -0.60677734336E+03 -0.43186247521E+03 -0.19469822215E+04  0.20845683787E+04  0.12699999809E+01 0. -1.
</event>
<event>
 5   0  0.3701250E-08  0.3800737E+04  0.7818609E-02  0.8045997E-01
        1   -1    0    0  501    0  0.00000000000E+00  0.00000000000E+00  0.27370055007E+04  0.27370055007E+04  0.50400001928E-02 0.  1.
       -1   -1    0    0    0  501  0.00000000000E+00  0.00000000000E+00 -0.13194716139E+04  0.13194716139E+04  0.50400001928E-02 0. -1.
    10030    2    1    2    0    0  0.00000000000E+00  0.00000000000E+00  0.14175338868E+04  0.40564771146E+04  0.38007373312E+04 0.  0.
        1    1    3    3  502    0 -0.11017076711E+04  0.52365298223E+03  0.22640162918E+04  0.25717196596E+04  0.50400001928E-02 0.  1.
       -1    1    3    3    0  502  0.11017076711E+04 -0.52365298223E+03 -0.84648240493E+03  0.14847574550E+04  0.50400001928E-02 0. -1.
</event>
<event>
 5   0  0.3701250E-08  0.3835544E+04  0.7818609E-02  0.8038570E-01
        1   -1    0    0  501    0  0.00000000000E+00  0.00000000000E+00  0.23818694135E+04  0.23818694135E+04  0.50400001928E-02 0.  1.
       -1   -1    0    0    0  501  0.00000000000E+00  0.00000000000E+00 -0.15441017065E+04  0.15441017065E+04  0.50400001928E-02 0. -1.
    10030    2    1    2    0    0  0.00000000000E+00  0.00000000000E+00  0.83776770698E+03  0.39259711200E+04  0.38355435735E+04 0.  0.
        2    1    3    3  502    0 -0.80866778306E+03  0.10077565374E+04  0.18694512522E+04  0.22725238847E+04  0.25500000920E-02 0.  1.
       -2    1    3    3    0  502  0.80866778306E+03 -0.10077565374E+04 -0.10316835453E+04  0.16534472352E+04  0.25500000920E-02 0. -1.
</event>
<event>
 5   0  0.1143283E-07  0.3847773E+04  0.7818609E-02  0.8035980E-01
       -2   -1    0    0    0  501  0.00000000000E+00  0.00000000000E+00  0.25594561210E+04  0.25594561210E+04  0.25500000920E-02 0.  1.
        2   -1    0    0  501    0  0.00000000000E+00  0.00000000000E+00 -0.14461429665E+04  0.14461429665E+04  0.25500000920E-02 0. -1.
    10030    2    1    2    0    0  0.00000000000E+00  0.00000000000E+00  0.11133131545E+04  0.40055990874E+04  0.38477731052E+04 0.  0.
        1    1    3    3  502    0  0.13164685956E+03 -0.18510123220E+04  0.28129266396E+02  0.18559010662E+04  0.50400001928E-02 0. -1.
       -1    1    3    3    0  502 -0.13164685956E+03  0.18510123220E+04  0.10851838881E+04  0.21496980213E+04  0.50400001928E-02 0.  1.
</event>
<event>
 5   0  0.3889225E-08  0.3787112E+04  0.7818609E-02  0.8048926E-01
       -1   -1    0    0    0  501  0.00000000000E+00  0.00000000000E+00  0.20872844311E+04  0.20872844311E+04  0.50400001928E-02 0. -1.
        1   -1    0    0  501    0  0.00000000000E+00  0.00000000000E+00 -0.17178080611E+04  0.17178080611E+04  0.50400001928E-02 0.  1.
    10030    2    1    2    0    0  0.00000000000E+00  0.00000000000E+00  0.36947637006E+03  0.38050924922E+04  0.37871118396E+04 0.  0.
        5    1    3    3  502    0 -0.18208973081E+04 -0.19281038564E+03  0.66940701277E+03  0.19496078299E+04  0.46999998093E+01 0.  1.
       -5    1    3    3    0  502  0.18208973081E+04  0.19281038564E+03 -0.29993064271E+03  0.18554846623E+04  0.46999998093E+01 0. -1.
</event>
<event>
 5   0  0.1143283E-07  0.3797189E+04  0.7818609E-02  0.8046758E-01
       -2   -1    0    0    0  501  0.00000000000E+00  0.00000000000E+00  0.26903245508E+04  0.26903245508E+04  0.25500000920E-02 0. -1.
        2   -1    0    0  501    0  0.00000000000E+00  0.00000000000E+00 -0.13398612795E+04  0.13398612795E+04  0.25500000920E-02 0.  1.
    10030    2    1    2    0    0  0.00000000000E+00  0.00000000000E+00  0.13504632713E+04  0.40301858303E+04  0.37971893262E+04 0.  0.
        1    1    3    3  502    0  0.34475131026E+03 -0.54924874311E+03 -0.12186746770E+04  0.13804693463E+04  0.50400001928E-02 0.  1.
       -1    1    3    3    0  502 -0.34475131026E+03  0.54924874311E+03  0.25691379483E+04  0.26497164840E+04  0.50400001928E-02 0. -1.
</event>
<event>
 5   0  0.7858367E-08  0.3798565E+04  0.7818609E-02  0.8046463E-01
        2   -1    0    0  501    0  0.00000000000E+00  0.00000000000E+00  0.17087651626E+04  0.17087651626E+04  0.25500000920E-02 0. -1.
       -2   -1    0    0    0  501  0.00000000000E+00  0.00000000000E+00 -0.21110416482E+04  0.21110416482E+04  0.25500000920E-02 0.  1.
    10030    2    1    2    0    0  0.00000000000E+00  0.00000000000E+00 -0.40227648562E+03  0.38198068109E+04  0.37985652162E+04 0.  0.
        2    1    3    3  502    0 -0.11022168493E+04  0.11011159310E+04  0.89118472370E+03  0.17948672620E+04  0.25500000920E-02 0. -1.
       -2    1    3    3    0  502  0.11022168493E+04 -0.11011159310E+04 -0.12934612093E+04  0.20249395488E+04  0.25500000920E-02 0.  1.
</event>
<event>
 5   0  0.1150235E-07  0.3827991E+04  0.7818609E-02  0.8040175E-01
       -2   -1    0    0    0  501  0.00000000000E+00  0.00000000000E+00  0.15720633548E+04  0.15720633548E+04  0.25500000920E-02 0.  1.
        2   -1    0    0  501    0  0.00000000000E+00  0.00000000000E+00 -0.23302997592E+04  0.23302997592E+04  0.25500000920E-02 0. -1.
    10030    2    1    2    0    0  0.00000000000E+00  0.00000000000E+00 -0.75823640436E+03  0.39023631140E+04  0.38279910434E+04 0.  0.
        4    1    3    3  502    0  0.44507467911E+03  0.17673407585E+04 -0.97510683562E+03  0.20669832559E+04  0.12699999809E+01 0. -1.
       -4    1    3    3    0  502 -0.44507467911E+03 -0.17673407585E+04  0.21687043125E+03  0.18353798580E+04  0.12699999809E+01 0.  1.
</event>
<event>
 5   0  0.1143283E-07  0.3530087E+04  0.7818609E-02  0.8106696E-01
       -2   -1    0    0    0  501  0.00000000000E+00  0.00000000000E+00  0.17636299931E+04  0.17636299931E+04  0.25500000920E-02 0.  1.
        2   -1    0    0  501    0  0.00000000000E+00  0.00000000000E+00 -0.17664586239E+04  0.17664586239E+04  0.25500000920E-02 0. -1.
    10030    2    1    2    0    0  0.00000000000E+00  0.00000000000E+00 -0.28286308001E+01  0.35300886171E+04  0.35300874838E+04 0.  0.
        1    1    3    3  502    0 -0.13727976950E+04 -0.69422109577E+03  0.86395465239E+03  0.17643508956E+04  0.50400001928E-02 0.  1.
       -1    1    3    3    0  502  0.13727976950E+04  0.69422109577E+03 -0.86678328319E+03  0.17657377215E+04  0.50400001928E-02 0. -1.
</event>
<event>
 5   0  0.3701250E-08  0.3794101E+04  0.7818609E-02  0.8047422E-01
       -1   -1    0    0    0  501  0.00000000000E+00  0.00000000000E+00  0.23377481141E+04  0.23377481141E+04  0.50400001928E-02 0.  1.
        1   -1    0    0  501    0  0.00000000000E+00  0.00000000000E+00 -0.15394302305E+04  0.15394302305E+04  0.50400001928E-02 0. -1.
    10030    2    1    2    0    0  0.00000000000E+00  0.00000000000E+00  0.79831788362E+03  0.38771783446E+04  0.37941007462E+04 0.  0.
        1    1    3    3  502    0  0.11145589621E+04  0.11761662034E+04  0.14072646486E+04  0.21461599216E+04  0.50400001928E-02 0.  1.
       -1    1    3    3    0  502 -0.11145589621E+04 -0.11761662034E+04 -0.60894676496E+03  0.17310184229E+04  0.50400001928E-02 0. -1.
</event>
<event>
 5   0  0.3889225E-08  0.3802099E+04  0.7818609E-02  0.8045705E-01
       -1   -1    0    0    0  501  0.00000000000E+00  0.00000000000E+00  0.22550376612E+04  0.22550376612E+04  0.50400001928E-02 0. -1.
        1   -1    0    0  501    0  0.00000000000E+00  0.00000000000E+00 -0.16026287829E+04  0.16026287830E+04  0.50400001928E-02 0.  1.
    10030    2    1    2    0    0  0.00000000000E+00  0.00000000000E+00  0.65240887823E+03  0.38576664441E+04  0.38020985061E+04 0.  0.
        5    1    3    3  502    0  0.97745604190E+02  0.16762027641E+04 -0.57831579877E+03  0.17758606823E+04  0.46999998093E+01 0.  1.
       -5    1    3    3    0  502 -0.97745604190E+02 -0.16762027641E+04  0.12307246770E+04  0.20818057619E+04  0.46999998093E+01 0. -1.
</event>
<event>
 5   0  0.3889225E-08  0.3804269E+04  0.7818609E-02  0.8045239E-01
       -1   -1    0    0    0  501  0.00000000000E+00  0.00000000000E+00  0.26072164137E+04  0.26072164137E+04  0.50400001928E-02 0. -1.
        1   -1    0    0  501    0  0.00000000000E+00  0.00000000000E+00 -0.13877314245E+04  0.13877314245E+04  0.50400001928E-02 0.  1.
    10030    2    1    2    0    0  0.00000000000E+00  0.00000000000E+00  0.12194849893E+04  0.39949478382E+04  0.38042692584E+04 0.  0.
        5    1    3    3  502    0 -0.12240949787E+04  0.59478594085E+03 -0.78574127837E+03  0.15714930095E+04  0.46999998093E+01 0.  1.
       -5    1    3    3    0  502  0.12240949787E+04 -0.59478594085E+03  0.20052262676E+04  0.24234548287E+04  0.46999998093E+01 0. -1.
</event>
<event>
 5   0  0.7858367E-08  0.3794481E+04  0.7818609E-02  0.8047340E-01
        2   -1    0    0  501    0  0.00000000000E+00  0.00000000000E+00  0.18299156254E+04  0.18299156254E+04  0.25500000920E-02 0. -1.
       -2   -1    0    0    0  501  0.00000000000E+00  0.00000000000E+00 -0.19670427421E+04  0.19670427421E+04  0.25500000920E-02 0.  1.
    10030    2    1    2    0    0  0.00000000000E+00  0.00000000000E+00 -0.13712711676E+03  0.37969583675E+04  0.37944813873E+04 0.  0.
        2    1    3    3  502    0  0.40100939545E+03  0.39772537160E+03 -0.18809687558E+04  0.19639341809E+04  0.25500000920E-02 0.  1.
       -2    1    3    3    0  502 -0.40100939545E+03 -0.39772537160E+03  0.17438416391E+04  0.18330241866E+04  0.25500000920E-02 0. -1.
</event>
<event>
 5   0  0.7858367E-08  0.3804169E+04  0.7818609E-02  0.8045261E-01
        2   -1    0    0  501    0  0.00000000000E+00  0.00000000000E+00  0.19330143961E+04  0.19330143961E+04  0.25500000920E-02 0.  1.
       -2   -1    0    0    0  501  0.00000000000E+00  0.00000000000E+00 -0.18716493242E+04  0.18716493242E+04  0.25500000920E-02 0. -1.
    10030    2    1    2    0    0  0.00000000000E+00  0.00000000000E+00  0.61365071932E+02  0.38046637203E+04  0.38041688124E+04 0.  0.
        2    1    3    3  502    0  0.90149401603E+03 -0.14518805750E+04  0.86582196203E+03  0.19158017473E+04  0.25500000920E-02 0.  1.
       -2    1    3    3    0  502 -0.90149401603E+03  0.14518805750E+04 -0.80445689010E+03  0.18888619730E+04  0.25500000920E-02 0. -1.
</event>
<event>
 5   0  0.1174870E-07  0.3806639E+04  0.7818609E-02  0.8044732E-01
        2   -1    0    0  501    0  0.00000000000E+00  0.00000000000E+00  0.12454457259E+04  0.12454457259E+04  0.25500000920E-02 0. -1.
       -2   -1    0    0    0  501  0.00000000000E+00  0.00000000000E+00 -0.29086975945E+04  0.29086975945E+04  0.25500000920E-02 0.  1.
    10030    2    1    2    0    0  0.00000000000E+00  0.00000000000E+00 -0.16632518686E+04  0.41541433203E+04  0.38066389305E+04 0.  0.
        5    1    3    3  502    0  0.12756272654E+04 -0.43852360081E+03  0.63374202170E+03  0.14903620060E+04  0.46999998093E+01 0. -1.
       -5    1    3    3    0  502 -0.12756272654E+04  0.43852360081E+03 -0.22969938903E+04  0.26637813144E+04  0.46999998093E+01 0.  1.
</event>
<event>
 5   0  0.1174870E-07  0.3765754E+04  0.7818609E-02  0.8053544E-01
        2   -1    0    0  501    0  0.00000000000E+00  0.00000000000E+00  0.17254648480E+04  0.17254648480E+04  0.25500000920E-02 0.  1.
       -2   -1    0    0    0  501  0.00000000000E+00  0.00000000000E+00 -0.20546500819E+04  0.20546500819E+04  0.25500000920E-02 0. -1.
    10030    2    1    2    0    0  0.00000000000E+00  0.00000000000E+00 -0.32918523388E+03  0.37801149299E+04  0.37657543687E+04 0.  0.
        5    1    3    3  502    0  0.13436130858E+04  0.38825788463E+03 -0.14300204641E+04  0.20002552154E+04  0.46999998093E+01 0. -1.
       -5    1    3    3    0  502 -0.13436130858E+04 -0.38825788463E+03  0.11008352302E+04  0.17798597145E+04  0.46999998093E+01 0.  1.
</event>
<event>
 5   0  0.1150235E-07  0.3765969E+04  0.7818609E-02  0.8053497E-01
        2   -1    0    0  501    0  0.00000000000E+00  0.00000000000E+00  0.14892545059E+04  0.14892545059E+04  0.25500000920E-02 0.  1.
       -2   -1    0    0    0  501  0.00000000000E+00  0.00000000000E+00 -0.23808092632E+04  0.23808092632E+04  0.25500000920E-02 0. -1.
    10030    2    1    2    0    0  0.00000000000E+00  0.00000000000E+00 -0.89155475728E+03  0.38700637690E+04  0.37659691570E+04 0.  0.
        4    1    3    3  502    0 -0.40037796307E+03  0.15950659867E+04  0.49668263099E+03  0.17179153833E+04  0.12699999809E+01 0.  1.
       -4    1    3    3    0  502  0.40037796307E+03 -0.15950659867E+04 -0.13882373883E+04  0.21521483858E+04  0.12699999809E+01 0. -1.
</event>
<event>
 5   0  0.3701250E-08  0.3812672E+04  0.7818609E-02  0.8043441E-01
       -1   -1    0    0    0  501  0.00000000000E+00  0.00000000000E+00  0.14748760894E+04  0.14748760894E+04  0.50400001928E-02 0.  1.
        1   -1    0    0  501    0  0.00000000000E+00  0.00000000000E+00 -0.24640144653E+04  0.24640144653E+04  0.50400001928E-02 0. -1.
    10030    2    1    2    0    0  0.00000000000E+00  0.00000000000E+00 -0.98913837585E+03  0.39388905547E+04  0.38126715142E+04 0.  0.
        4    1    3    3  502    0  0.80851256324E+03  0.13229942408E+04  0.65125018188E+03  0.16817059013E+04  0.12699999809E+01 0.  1.
       -4    1    3    3    0  502 -0.80851256324E+03 -0.13229942408E+04 -0.16403885577E+04  0.22571846534E+04  0.12699999809E+01 0. -1.
</event>
<event>
 5   0  0.3889225E-08  0.3799032E+04  0.7818609E-02  0.8046363E-01
       -1   -1    0    0    0  501  0.00000000000E+00  0.00000000000E+00  0.26357499422E+04  0.26357499422E+04  0.50400001928E-02 0.  1.
        1   -1    0    0  501    0  0.00000000000E+00  0.00000000000E+00 -0.13689311824E+04  0.13689311824E+04  0.50400001928E-02 0. -1.
    10030    2    1    2    0    0  0.00000000000E+00  0.00000000000E+00  0.12668187598E+04  0.40046811246E+04  0.37990316055E+04 0.  0.
        5    1    3    3  502    0 -0.14789040510E+04  0.97939986744E+03  0.13497205644E+04  0.22289344953E+04  0.46999998093E+01 0.  1.
       -5    1    3    3    0  502  0.14789040510E+04 -0.97939986744E+03 -0.82901804568E+02  0.17757466293E+04  0.46999998093E+01 0. -1.
</event>
<event>
 5   0  0.3701250E-08  0.3812905E+04  0.7818609E-02  0.8043391E-01
        1   -1    0    0  501    0  0.00000000000E+00  0.00000000000E+00  0.21263813071E+04  0.21263813071E+04  0.50400001928E-02 0. -1.
       -1   -1    0    0    0  501  0.00000000000E+00  0.00000000000E+00 -0.17092708530E+04  0.17092708530E+04  0.50400001928E-02 0.  1.
    10030    2    1    2    0    0  0.00000000000E+00  0.00000000000E+00  0.41711045409E+03  0.38356521600E+04  0.38129052390E+04 0.  0.
        4    1    3    3  502    0  0.10119112694E+04  0.65771094569E+03  0.16931684530E+04  0.20792712974E+04  0.12699999809E+01 0. -1.
       -4    1    3    3    0  502 -0.10119112694E+04 -0.65771094569E+03 -0.12760579989E+04  0.17563808626E+04  0.12699999809E+01 0.  1.
</event>
<event>
 5   0  0.3701250E-08  0.3795917E+04  0.7818609E-02  0.8047032E-01
        1   -1    0    0  501    0  0.00000000000E+00  0.00000000000E+00  0.21841779359E+04  0.21841779359E+04  0.50400001928E-02 0. -1.
       -1   -1    0    0    0  501  0.00000000000E+00  0.00000000000E+00 -0.16492455893E+04  0.16492455893E+04  0.50400001928E-02 0.  1.
    10030    2    1    2    0    0  0.00000000000E+00  0.00000000000E+00  0.53493234658E+03  0.38334235252E+04  0.37959166624E+04 0.  0.
        3    1    3    3  502    0  0.40597176042E+03 -0.79193746981E+03 -0.14254832645E+04  0.16804703430E+04  0.10100000352E+00 0.  1.
       -3    1    3    3    0  502 -0.40597176042E+03  0.79193746981E+03  0.19604156111E+04  0.21529531822E+04  0.10100000352E+00 0. -1.
</event>
<event>
 5   0  0.1143283E-07  0.3805290E+04  0.7818609E-02  0.8045021E-01
       -2   -1    0    0    0  501  0.00000000000E+00  0.00000000000E+00  0.15648891322E+04  0.15648891322E+04  0.25500000920E-02 0. -1.
        2   -1    0    0  501    0  0.00000000000E+00  0.00000000000E+00 -0.23132994734E+04  0.23132994734E+04  0.25500000920E-02 0.  1.
    10030    2    1    2    0    0  0.00000000000E+00  0.00000000000E+00 -0.74841034117E+03  0.38781886056E+04  0.38052895845E+04 0.  0.
        1    1    3    3  502    0 -0.12408542706E+04 -0.45922313141E+02 -0.18434288415E+04  0.22226241412E+04  0.50400001928E-02 0.  1.
       -1    1    3    3    0  502  0.12408542706E+04  0.45922313141E+02  0.10950185003E+04  0.16555644644E+04  0.50400001928E-02 0. -1.
</event>
<event>
 5   0  0.1150235E-07  0.3796619E+04  0.7818609E-02  0.8046881E-01
        2   -1    0    0  501    0  0.00000000000E+00  0.00000000000E+00  0.19910841943E+04  0.19910841943E+04  0.25500000920E-02 0. -1.
       -2   -1    0    0    0  501  0.00000000000E+00  0.00000000000E+00 -0.18098580780E+04  0.18098580780E+04  0.25500000920E-02 0.  1.
    10030    2    1    2    0    0  0.00000000000E+00  0.00000000000E+00  0.18122611635E+03  0.38009422723E+04  0.37966194505E+04 0.  0.
        4    1    3    3  502    0  0.11220116623E+04  0.39244758611E+03  0.15723837241E+04  0.19711208656E+04  0.12699999809E+01 0. -1.
       -4    1    3    3    0  502 -0.11220116623E+04 -0.39244758611E+03 -0.13911576077E+04  0.18298214067E+04  0.12699999809E+01 0.  1.
</event>
<event>
 5   0  0.3889225E-08  0.3798443E+04  0.7818609E-02  0.8046489E-01
       -1   -1    0    0    0  501  0.00000000000E+00  0.00000000000E+00  0.17351693244E+04  0.17351693244E+04  0.50400001928E-02 0.  1.
        1   -1    0    0  501    0  0.00000000000E+00  0.00000000000E+00 -0.20787841030E+04  0.20787841030E+04  0.50400001928E-02 0. -1.
    10030    2    1    2    0    0  0.00000000000E+00  0.00000000000E+00 -0.34361477860E+03  0.38139534274E+04  0.37984430535E+04 0.  0.
        5    1    3    3  502    0 -0.20521973266E+03 -0.95889618243E+03 -0.18049245865E+04  0.20541109708E+04  0.46999998093E+01 0. -1.
       -5    1    3    3    0  502  0.20521973266E+03  0.95889618243E+03  0.14613098079E+04  0.17598424566E+04  0.46999998093E+01 0.  1.
</event>
<event>
 5   0  0.7858367E-08  0.3790902E+04  0.7818609E-02  0.8048110E-01
       -2   -1    0    0    0  501  0.00000000000E+00  0.00000000000E+00  0.17175532922E+04  0.17175532922E+04  0.25500000920E-02 0.  1.
        2   -1    0    0  501    0  0.00000000000E+00  0.00000000000E+00 -0.20917747329E+04  0.20917747329E+04  0.25500000920E-02 0. -1.
    10030    2    1    2    0    0  0.00000000000E+00  0.00000000000E+00 -0.37422144072E+03  0.38093280251E+04  0.37909020452E+04 0.  0.
        2    1    3    3  502    0 -0.42566083575E+03  0.56205755658E+02 -0.20422663345E+04  0.20869111181E+04  0.25500000920E-02 0. -1.
       -2    1    3    3    0  502  0.42566083575E+03 -0.56205755658E+02  0.16680448937E+04  0.17224169070E+04  0.25500000920E-02 0.  1.
</event>
<event>
 5   0  0.3701250E-08  0.3774782E+04  0.7818609E-02  0.8051588E-01
        1   -1    0    0  501    0  0.00000000000E+00  0.00000000000E+00  0.13782669652E+04  0.13782669652E+04  0.50400001928E-02 0.  1.
       -1   -1    0    0    0  501  0.00000000000E+00  0.00000000000E+00 -0.25845821328E+04  0.25845821328E+04  0.50400001928E-02 0. -1.
    10030    2    1    2    0    0  0.00000000000E+00  0.00000000000E+00 -0.12063151676E+04  0.39628490980E+04  0.37747816745E+04 0.  0.
        2    1    3    3  502    0 -0.66701873115E+03  0.17655625429E+04 -0.59170095339E+03  0.19779370816E+04  0.25500000920E-02 0.  1.
       -2    1    3    3    0  502  0.66701873115E+03 -0.17655625429E+04 -0.61461421425E+03  0.19849120164E+04  0.25500000920E-02 0. -1.
</event>
<event>
 5   0  0.1193861E-07  0.3802240E+04  0.7818609E-02  0.8045674E-01
       -2   -1    0    0    0  501  0.00000000000E+00  0.00000000000E+00  0.12764006958E+04  0.12764006958E+04  0.25500000920E-02 0.  1.
        2   -1    0    0  501    0  0.00000000000E+00  0.00000000000E+00 -0.28316003095E+04  0.28316003095E+04  0.25500000920E-02 0. -1.
    10030    2    1    2    0    0  0.00000000000E+00  0.00000000000E+00 -0.15551996138E+04  0.41080010053E+04  0.38022396585E+04 0.  0.
        3    1    3    3  502    0  0.41070962665E+01  0.11984776700E+04 -0.23720432691E+04  0.26576220337E+04  0.10100000352E+00 0. -1.
       -3    1    3    3    0  502 -0.41070962665E+01 -0.11984776700E+04  0.81684365529E+03  0.14503789716E+04  0.10100000352E+00 0.  1.
</event>
<event>
 5   0  0.1193861E-07  0.3788819E+04  0.7818609E-02  0.8048559E-01
        2   -1    0    0  501    0  0.00000000000E+00  0.00000000000E+00  0.28744379765E+04  0.28744379765E+04  0.25500000920E-02 0.  1.
       -2   -1    0    0    0  501  0.00000000000E+00  0.00000000000E+00 -0.12485179222E+04  0.12485179222E+04  0.25500000920E-02 0. -1.
    10030    2    1    2    0    0  0.00000000000E+00  0.00000000000E+00  0.16259200543E+04  0.41229558987E+04  0.37888189874E+04 0.  0.
        3    1    3    3  502    0 -0.83435170764E+03 -0.62101412441E+03  0.25359422120E+04  0.27409495121E+04  0.10100000352E+00 0.  1.
       -3    1    3    3    0  502  0.83435170764E+03  0.62101412441E+03 -0.91002215778E+03  0.13820063866E+04  0.10100000352E+00 0. -1.
</event>
<event>
 5   0  0.1193861E-07  0.3816853E+04  0.7818609E-02  0.8042548E-01
        2   -1    0    0  501    0  0.00000000000E+00  0.00000000000E+00  0.14495319249E+04  0.14495319249E+04  0.25500000920E-02 0. -1.
       -2   -1    0    0    0  501  0.00000000000E+00  0.00000000000E+00 -0.25125984914E+04  0.25125984914E+04  0.25500000920E-02 0.  1.
    10030    2    1    2    0    0  0.00000000000E+00  0.00000000000E+00 -0.10630665665E+04  0.39621304163E+04  0.38168530114E+04 0.  0.
        3    1    3    3  502    0  0.12327869424E+04 -0.10930949574E+02  0.98069502925E+03  0.15753240560E+04  0.10100000352E+00 0. -1.
       -3    1    3    3    0  502 -0.12327869424E+04  0.10930949574E+02 -0.20437615957E+04  0.23868063602E+04  0.10100000352E+00 0.  1.
</event>
<event>
 5   0  0.1193861E-07  0.3802843E+04  0.7818609E-02  0.8045545E-01
        2   -1    0    0  501    0  0.00000000000E+00  0.00000000000E+00  0.22174565831E+04  0.22174565831E+04  0.25500000920E-02 0.  1.
       -2   -1    0    0    0  501  0.00000000000E+00  0.00000000000E+00 -0.16304284907E+04  0.16304284907E+04  0.25500000920E-02 0. -1.
    10030    2    1    2    0    0  0.00000000000E+00  0.00000000000E+00  0.58702809235E+03  0.38478850738E+04  0.38028433520E+04 0.  0.
        3    1    3    3  502    0  0.16881824468E+04 -0.32271062630E+03 -0.52932266354E+03  0.17984116921E+04  0.10100000352E+00 0. -1.
       -3    1    3    3    0  502 -0.16881824468E+04  0.32271062630E+03  0.11163507559E+04  0.20494733817E+04  0.10100000352E+00 0.  1.
</event>
<event>
 5   0  0.7858367E-08  0.3804756E+04  0.7818609E-02  0.8045135E-01
        2   -1    0    0  501    0  0.00000000000E+00  0.00000000000E+00  0.21242718256E+04  0.21242718256E+04  0.25500000920E-02 0.  1.
       -2   -1    0    0    0  501  0.00000000000E+00  0.00000000000E+00 -0.17036624890E+04  0.17036624890E+04  0.25500000920E-02 0. -1.
    10030    2    1    2    0    0  0.00000000000E+00  0.00000000000E+00  0.42060933666E+03  0.38279343146E+04  0.38047560898E+04 0.  0.
        2    1    3    3  502    0  0.85879192438E+03  0.16402534638E+04 -0.22949357394E+03  0.18656425958E+04  0.25500000920E-02 0. -1.
       -2    1    3    3    0  502 -0.85879192438E+03 -0.16402534638E+04  0.65010291059E+03  0.19622917187E+04  0.25500000920E-02 0.  1.
</event>
<event>
 5   0  0.1174870E-07  0.3822066E+04  0.7818609E-02  0.8041436E-01
       -2   -1    0    0    0  501  0.00000000000E+00  0.00000000000E+00  0.20863722976E+04  0.20863722976E+04  0.25500000920E-02 0.  1.
        2   -1    0    0  501    0  0.00000000000E+00  0.00000000000E+00 -0.17504289732E+04  0.17504289732E+04  0.25500000920E-02 0. -1.
    10030    2    1    2    0    0  0.00000000000E+00  0.00000000000E+00  0.33594332439E+03  0.38368012709E+04  0.38220656817E+04 0.  0.
        5    1    3    3  502    0  0.51319375476E+03  0.14321180014E+04  0.13290182617E+04  0.20200597590E+04  0.46999998093E+01 0.  1.
       -5    1    3    3    0  502 -0.51319375476E+03 -0.14321180014E+04 -0.99307493729E+03  0.18167415119E+04  0.46999998093E+01 0. -1.
</event>
<event>
 5   0  0.7858367E-08  0.3787791E+04  0.7818609E-02  0.8048780E-01
        2   -1    0    0  501    0  0.00000000000E+00  0.00000000000E+00  0.21200967553E+04  0.21200967553E+04  0.25500000920E-02 0.  1.
       -2   -1    0    0    0  501  0.00000000000E+00  0.00000000000E+00 -0.16918284696E+04  0.16918284696E+04  0.25500000920E-02 0. -1.
    10030    2    1    2    0    0  0.00000000000E+00  0.00000000000E+00  0.42826828574E+03  0.38119252249E+04  0.37877909387E+04 0.  0.
        2    1    3    3  502    0 -0.13745481974E+04 -0.96290183891E+03 -0.66911237939E+03  0.18067302163E+04  0.25500000920E-02 0. -1.
       -2    1    3    3    0  502  0.13745481974E+04  0.96290183891E+03  0.10973806651E+04  0.20051950086E+04  0.25500000920E-02 0.  1.
</event>
<event>
 5   0  0.1150235E-07  0.3803244E+04  0.7818609E-02  0.8045459E-01
       -2   -1    0    0    0  501  0.00000000000E+00  0.00000000000E+00  0.16296311735E+04  0.16296311735E+04  0.25500000920E-02 0. -1.
        2   -1    0    0  501    0  0.00000000000E+00  0.00000000000E+00 -0.22190086023E+04  0.22190086023E+04  0.25500000920E-02 0.  1.
    10030    2    1    2    0    0  0.00000000000E+00  0.00000000000E+00 -0.58937742879E+03  0.38486397759E+04  0.38032436644E+04 0.  0.
        4    1    3    3  502    0  0.16479816605E+04  0.82111049735E+03 -0.77586193885E+03  0.19980063471E+04  0.12699999809E+01 0.  1.
       -4    1    3    3    0  502 -0.16479816605E+04 -0.82111049735E+03  0.18648451006E+03  0.18506334287E+04  0.12699999809E+01 0. -1.
</event>
<event>
 5   0  0.1150235E-07  0.3771698E+04  0.7818609E-02  0.8052256E-01
       -2   -1    0    0    0  501  0.00000000000E+00  0.00000000000E+00  0.14132866269E+04  0.14132866269E+04  0.25500000920E-02 0. -1.
        2   -1    0    0  501    0  0.00000000000E+00  0.00000000000E+00 -0.25164224718E+04  0.25164224718E+04  0.25500000920E-02 0.  1.
    10030    2    1    2    0    0  0.00000000000E+00  0.00000000000E+00 -0.11031358449E+04  0.39297090987E+04  0.37716978813E+04 0.  0.
        4    1    3    3  502    0 -0.15681044377E+04  0.39151793833E+03  0.46083284276E+03  0.16806565221E+04  0.12699999809E+01 0. -1.
       -4    1    3    3    0  502  0.15681044377E+04 -0.39151793833E+03 -0.15639686876E+04  0.22490525766E+04  0.12699999809E+01 0.  1.
</event>
<event>
 5   0  0.3701250E-08  0.3802951E+04  0.7818609E-02  0.8045522E-01
        1   -1    0    0  501    0  0.00000000000E+00  0.00000000000E+00  0.29459711546E+04  0.29459711546E+04  0.50400001928E-02 0.  1.
       -1   -1    0    0    0  501  0.00000000000E+00  0.00000000000E+00 -0.12273060860E+04  0.12273060860E+04  0.50400001928E-02 0. -1.
    10030    2    1    2    0    0  0.00000000000E+00  0.00000000000E+00  0.17186650686E+04  0.41732772406E+04  0.38029506056E+04 0.  0.
        1    1    3    3  502    0  0.15082470530E+04 -0.73412393585E+03 -0.12333396907E+03  0.16819507704E+04  0.50400001928E-02 0. -1.
       -1    1    3    3    0  502 -0.15082470530E+04  0.73412393585E+03  0.18419990377E+04  0.24913264702E+04  0.50400001928E-02 0.  1.
</event>
<event>
 5   0  0.3889225E-08  0.3852698E+04  0.7818609E-02  0.8034940E-01
        1   -1    0    0  501    0  0.00000000000E+00  0.00000000000E+00  0.27154288913E+04  0.27154288913E+04  0.50400001928E-02 0. -1.
       -1   -1    0    0    0  501  0.00000000000E+00  0.00000000000E+00 -0.13665686002E+04  0.13665686002E+04  0.50400001928E-02 0.  1.
    10030    2    1    2    0    0  0.00000000000E+00  0.00000000000E+00  0.13488602912E+04  0.40819974915E+04  0.38526976829E+04 0.  0.
        5    1    3    3  502    0  0.13593185711E+04 -0.13491215464E+04  0.45492384588E+03  0.19684648131E+04  0.46999998093E+01 0.  1.
       -5    1    3    3    0  502 -0.13593185711E+04  0.13491215464E+04  0.89393644528E+03  0.21135326784E+04  0.46999998093E+01 0. -1.
</event>
<event>
 5   0  0.1174870E-07  0.3789104E+04  0.7818609E-02  0.8048497E-01
        2   -1    0    0  501    0  0.00000000000E+00  0.00000000000E+00  0.20725692085E+04  0.20725692085E+04  0.25500000920E-02 0.  1.
       -2   -1    0    0    0  501  0.00000000000E+00  0.00000000000E+00 -0.17318254856E+04  0.17318254856E+04  0.25500000920E-02 0. -1.
    10030    2    1    2    0    0  0.00000000000E+00  0.00000000000E+00  0.34074372284E+03  0.38043946941E+04  0.37891044725E+04 0.  0.
        5    1    3    3  502    0 -0.32088625760E+03  0.67103089734E+03 -0.15790874656E+04  0.17455055913E+04  0.46999998093E+01 0. -1.
       -5    1    3    3    0  502  0.32088625760E+03 -0.67103089734E+03  0.19198311884E+04  0.20588891028E+04  0.46999998093E+01 0.  1.
</event>
<event>
 5   0  0.3889225E-08  0.3805917E+04  0.7818609E-02  0.8044886E-01
        1   -1    0    0  501    0  0.00000000000E+00  0.00000000000E+00  0.17161971612E+04  0.17161971612E+04  0.50400001928E-02 0. -1.
       -1   -1    0    0    0  501  0.00000000000E+00  0.00000000000E+00 -0.21100435816E+04  0.21100435816E+04  0.50400001928E-02 0.  1.
    10030    2    1    2    0    0  0.00000000000E+00  0.00000000000E+00 -0.39384642038E+03  0.38262407428E+04  0.38059168697E+04 0.  0.
        5    1    3    3  502    0  0.88969816664E+03  0.18314638996E+03  0.14841675149E+04  0.17400806677E+04  0.46999998093E+01 0. -1.
       -5    1    3    3    0  502 -0.88969816664E+03 -0.18314638996E+03 -0.18780139353E+04  0.20861600751E+04  0.46999998093E+01 0.  1.
</event>
<event>
 5   0  0.1143283E-07  0.3797828E+04  0.7818609E-02  0.8046621E-01
        2   -1    0    0  501    0  0.00000000000E+00  0.00000000000E+00  0.21625371055E+04  0.21625371055E+04  0.25500000920E-02 0. -1.
       -2   -1    0    0    0  501  0.00000000000E+00  0.00000000000E+00 -0.16674280382E+04  0.16674280382E+04  0.25500000920E-02 0.  1.
    10030    2    1    2    0    0  0.00000000000E+00  0.00000000000E+00  0.49510906723E+03  0.38299651437E+04  0.37978283286E+04 0.  0.
        1    1    3    3  502    0  0.81291909183E+03 -0.14726417214E+04 -0.64101652168E+03  0.18001147937E+04  0.50400001928E-02 0.  1.
       -1    1    3    3    0  502 -0.81291909183E+03  0.14726417214E+04  0.11361255889E+04  0.20298503500E+04  0.50400001928E-02 0. -1.
</event>
<event>
 5   0  0.7858367E-08  0.3803459E+04  0.7818609E-02  0.8045413E-01
       -2   -1    0    0    0  501  0.00000000000E+00  0.00000000000E+00  0.14511134754E+04  0.14511134754E+04  0.25500000920E-02 0.  1.
        2   -1    0    0  501    0  0.00000000000E+00  0.00000000000E+00 -0.24922755216E+04  0.24922755216E+04  0.25500000920E-02 0. -1.
    10030    2    1    2    0    0  0.00000000000E+00  0.00000000000E+00 -0.10411620461E+04  0.39433889970E+04  0.38034587385E+04 0.  0.
        2    1    3    3  502    0  0.11527555606E+04 -0.10624905624E+04 -0.16366812978E+04  0.22663753546E+04  0.25500000920E-02 0. -1.
       -2    1    3    3    0  502 -0.11527555606E+04  0.10624905624E+04  0.59551925169E+03  0.16770136424E+04  0.25500000920E-02 0.  1.
</event>
<event>
 5   0  0.3701250E-08  0.3818523E+04  0.7818609E-02  0.8042191E-01
        1   -1    0    0  501    0  0.00000000000E+00  0.00000000000E+00  0.20713938019E+04  0.20713938019E+04  0.50400001928E-02 0. -1.
       -1   -1    0    0    0  501  0.00000000000E+00  0.00000000000E+00 -0.17598199082E+04  0.17598199082E+04  0.50400001928E-02 0.  1.
    10030    2    1    2    0    0  0.00000000000E+00  0.00000000000E+00  0.31157389361E+03  0.38312137101E+04  0.38185233011E+04 0.  0.
        4    1    3    3  502    0  0.93063565573E+03 -0.15090775487E+04 -0.55500281862E+03  0.18578017960E+04  0.12699999809E+01 0.  1.
       -4    1    3    3    0  502 -0.93063565573E+03  0.15090775487E+04  0.86657671223E+03  0.19734119141E+04  0.12699999809E+01 0. -1.
</event>
<event>
 5   0  0.3701250E-08  0.3807348E+04  0.7818609E-02  0.8044580E-01
        1   -1    0    0  501    0  0.00000000000E+00  0.00000000000E+00  0.13110526629E+04  0.13110526629E+04  0.50400001928E-02 0.  1.
       -1   -1    0    0    0  501  0.00000000000E+00  0.00000000000E+00 -0.27641722526E+04  0.27641722526E+04  0.50400001928E-02 0. -1.
    10030    2    1    2    0    0  0.00000000000E+00  0.00000000000E+00 -0.14531195897E+04  0.40752249155E+04  0.38073483647E+04 0.  0.
        2    1    3    3  502    0  0.85934024110E+02 -0.58131057628E+02  0.13080243699E+04  0.13121324737E+04  0.25500000920E-02 0.  1.
       -2    1    3    3    0  502 -0.85934024110E+02  0.58131057628E+02 -0.27611439596E+04  0.27630924418E+04  0.25500000920E-02 0. -1.
</event>
<event>
 5   0  0.3701250E-08  0.3795023E+04  0.7818609E-02  0.8047224E-01
        1   -1    0    0  501    0  0.00000000000E+00  0.00000000000E+00  0.13289569515E+04  0.13289569515E+04  0.50400001928E-02 0. -1.
       -1   -1    0    0    0  501  0.00000000000E+00  0.00000000000E+00 -0.27093054600E+04  0.27093054600E+04  0.50400001928E-02 0.  1.
    10030    2    1    2    0    0  0.00000000000E+00  0.00000000000E+00 -0.13803485086E+04  0.40382624115E+04  0.37950232277E+04 0.  0.
        2    1    3    3  502    0 -0.11019028243E+04 -0.10111835822E+04  0.55252577459E+03  0.15943546666E+04  0.25500000920E-02 0. -1.
       -2    1    3    3    0  502  0.11019028243E+04  0.10111835822E+04 -0.19328742832E+04  0.24439077449E+04  0.25500000920E-02 0.  1.
</event>
<event>
 5   0  0.7858367E-08  0.3797011E+04  0.7818609E-02  0.8046797E-01
       -2   -1    0    0    0  501  0.00000000000E+00  0.00000000000E+00  0.10807976569E+04  0.10807976569E+04  0.25500000920E-02 0.  1.
        2   -1    0    0  501    0  0.00000000000E+00  0.00000000000E+00 -0.33348729892E+04  0.33348729892E+04  0.25500000920E-02 0. -1.
    10030    2    1    2    0    0  0.00000000000E+00  0.00000000000E+00 -0.22540753322E+04  0.44156706461E+04  0.37970108838E+04 0.  0.
        2    1    3    3  502    0 -0.17008040340E+03  0.18907972490E+04 -0.11465435082E+04  0.22177925054E+04  0.25500000920E-02 0. -1.
       -2    1    3    3    0  502  0.17008040340E+03 -0.18907972490E+04 -0.11075318240E+04  0.21978781408E+04  0.25500000920E-02 0.  1.
</event>
<event>
 5   0  0.3701250E-08  0.3809075E+04  0.7818609E-02  0.8044210E-01
        1   -1    0    0  501    0  0.00000000000E+00  0.00000000000E+00  0.13618844107E+04  0.13618844108E+04  0.50400001928E-02 0. -1.
       -1   -1    0    0    0  501  0.00000000000E+00  0.00000000000E+00 -0.26634150306E+04  0.26634150306E+04  0.50400001928E-02 0.  1.
    10030    2    1    2    0    0  0.00000000000E+00  0.00000000000E+00 -0.13015306199E+04  0.40252994414E+04  0.38090751684E+04 0.  0.
        4    1    3    3  502    0  0.15109155564E+03 -0.96178584881E+03  0.10790411599E+04  0.14533382658E+04  0.12699999809E+01 0. -1.
       -4    1    3    3    0  502 -0.15109155564E+03  0.96178584881E+03 -0.23805717798E+04  0.25719611756E+04  0.12699999809E+01 0.  1.
</event>
<event>
 5   0  0.3701250E-08  0.3803195E+04  0.7818609E-02  0.8045470E-01
        1   -1    0    0  501    0  0.00000000000E+00  0.00000000000E+00  0.14722483442E+04  0.14722483442E+04  0.50400001928E-02 0. -1.
       -1   -1    0    0    0  501  0.00000000000E+00  0.00000000000E+00 -0.24561571688E+04  0.24561571688E+04  0.50400001928E-02 0.  1.
    10030    2    1    2    0    0  0.00000000000E+00  0.00000000000E+00 -0.98390882462E+03  0.39284055130E+04  0.38031951435E+04 0.  0.
        2    1    3    3  502    0 -0.12901362345E+04 -0.12927482769E+04  0.55030151441E+02  0.18272049498E+04  0.25500000920E-02 0. -1.
       -2    1    3    3    0  502  0.12901362345E+04  0.12927482769E+04 -0.10389389761E+04  0.21012005632E+04  0.25500000920E-02 0.  1.
</event>
<event>
 5   0  0.3701250E-08  0.4070436E+04  0.7818609E-02  0.7990486E-01
       -1   -1    0    0    0  501  0.00000000000E+00  0.00000000000E+00  0.21593322422E+04  0.21593322422E+04  0.50400001928E-02 0.  1.
        1   -1    0    0  501    0  0.00000000000E+00  0.00000000000E+00 -0.19182371813E+04  0.19182371813E+04  0.50400001928E-02 0. -1.
    10030    2    1    2    0    0  0.00000000000E+00  0.00000000000E+00  0.24109506088E+03  0.40775694235E+04  0.40704355510E+04 0.  0.
        3    1    3    3  502    0 -0.14250873206E+04 -0.12880420528E+04 -0.55307816444E+03  0.19989551439E+04  0.10100000352E+00 0. -1.
       -3    1    3    3    0  502  0.14250873206E+04  0.12880420528E+04  0.79417322531E+03  0.20786142796E+04  0.10100000352E+00 0.  1.
</event>
<event>
 5   0  0.3701250E-08  0.3784594E+04  0.7818609E-02  0.8049469E-01
       -1   -1    0    0    0  501  0.00000000000E+00  0.00000000000E+00  0.21640115729E+04  0.21640115729E+04  0.50400001928E-02 0. -1.
        1   -1    0    0  501    0  0.00000000000E+00  0.00000000000E+00 -0.16546987329E+04  0.16546987329E+04  0.50400001928E-02 0.  1.
    10030    2    1    2    0    0  0.00000000000E+00  0.00000000000E+00  0.50931283996E+03  0.38187103058E+04  0.37845936150E+04 0.  0.
        4    1    3    3  502    0 -0.48457840332E+03  0.86870592250E+03 -0.13696124952E+04  0.16927215390E+04  0.12699999809E+01 0.  1.
       -4    1    3    3    0  502  0.48457840332E+03 -0.86870592250E+03  0.18789253351E+04  0.21259887668E+04  0.12699999809E+01 0. -1.
</event>
<event>
 5   0  0.1150235E-07  0.3808151E+04  0.7818609E-02  0.8044408E-01
        2   -1    0    0  501    0  0.00000000000E+00  0.00000000000E+00  0.22774389427E+04  0.22774389427E+04  0.25500000920E-02 0. -1.
       -2   -1    0    0    0  501  0.00000000000E+00  0.00000000000E+00 -0.15919215916E+04  0.15919215916E+04  0.25500000920E-02 0.  1.
    10030    2    1    2    0    0  0.00000000000E+00  0.00000000000E+00  0.68551735106E+03  0.38693605343E+04  0.38081513764E+04 0.  0.
        4    1    3    3  502    0  0.52542935208E+03 -0.38371042723E+03  0.21609883463E+04  0.22568079098E+04  0.12699999809E+01 0. -1.
       -4    1    3    3    0  502 -0.52542935208E+03  0.38371042723E+03 -0.14754709952E+04  0.16125526245E+04  0.12699999809E+01 0.  1.
</event>
<event>
 5   0  0.7858367E-08  0.3791365E+04  0.7818609E-02  0.8048010E-01
        2   -1    0    0  501    0  0.00000000000E+00  0.00000000000E+00  0.24433018195E+04  0.24433018195E+04  0.25500000920E-02 0. -1.
       -2   -1    0    0    0  501  0.00000000000E+00  0.00000000000E+00 -0.14708018976E+04  0.14708018976E+04  0.25500000920E-02 0.  1.
    10030    2    1    2    0    0  0.00000000000E+00  0.00000000000E+00  0.97249992193E+03  0.39141037171E+04  0.37913654282E+04 0.  0.
        2    1    3    3  502    0 -0.24242918860E+03  0.59951545818E+03 -0.13534094485E+04  0.14999692768E+04  0.25500000920E-02 0.  1.
       -2    1    3    3    0  502  0.24242918860E+03 -0.59951545818E+03  0.23259093705E+04  0.24141344403E+04  0.25500000920E-02 0. -1.
</event>
<event>
 5   0  0.1193861E-07  0.3817559E+04  0.7818609E-02  0.8042397E-01
        2   -1    0    0  501    0  0.00000000000E+00  0.00000000000E+00  0.27411640225E+04  0.27411640225E+04  0.25500000920E-02 0. -1.
       -2   -1    0    0    0  501  0.00000000000E+00  0.00000000000E+00 -0.13291575153E+04  0.13291575153E+04  0.25500000920E-02 0.  1.
    10030    2    1    2    0    0  0.00000000000E+00  0.00000000000E+00  0.14120065072E+04  0.40703215378E+04  0.38175587808E+04 0.  0.
        3    1    3    3  502    0 -0.73652368086E+03  0.15065054840E+04  0.16781937026E+04  0.23724164937E+04  0.10100000352E+00 0. -1.
       -3    1    3    3    0  502  0.73652368086E+03 -0.15065054840E+04 -0.26618719543E+03  0.16979050441E+04  0.10100000352E+00 0.  1.
</event>
<event>
 5   0  0.1193861E-07  0.3803204E+04  0.7818609E-02  0.8045468E-01
       -2   -1    0    0    0  501  0.00000000000E+00  0.00000000000E+00  0.20477512464E+04  0.20477512464E+04  0.25500000920E-02 0. -1.
        2   -1    0    0  501    0  0.00000000000E+00  0.00000000000E+00 -0.17658831071E+04  0.17658831071E+04  0.25500000920E-02 0.  1.
    10030    2    1    2    0    0  0.00000000000E+00  0.00000000000E+00  0.28186813927E+03  0.38136343535E+04  0.38032035620E+04 0.  0.
        3    1    3    3  502    0  0.12419637773E+03 -0.18750713863E+04 -0.15102057265E+03  0.18852386235E+04  0.10100000352E+00 0. -1.
       -3    1    3    3    0  502 -0.12419637773E+03  0.18750713863E+04  0.43288871192E+03  0.19283957299E+04  0.10100000352E+00 0.  1.
</event>
<event>
 5   0  0.1150235E-07  0.3788834E+04  0.7818609E-02  0.8048555E-01
       -2   -1    0    0    0  501  0.00000000000E+00  0.00000000000E+00  0.14484185974E+04  0.14484185974E+04  0.25500000920E-02 0. -1.
        2   -1    0    0  501    0  0.00000000000E+00  0.00000000000E+00 -0.24777472340E+04  0.24777472340E+04  0.25500000920E-02 0.  1.
    10030    2    1    2    0    0  0.00000000000E+00  0.00000000000E+00 -0.10293286366E+04  0.39261658314E+04  0.37888336851E+04 0.  0.
        4    1    3    3  502    0 -0.10073064945E+04  0.42983528243E+03 -0.21164577579E+04  0.23830274438E+04  0.12699999809E+01 0.  1.
       -4    1    3    3    0  502  0.10073064945E+04 -0.42983528243E+03  0.10871291213E+04  0.15431383876E+04  0.12699999809E+01 0. -1.
</event>
<event>
 5   0  0.3701250E-08  0.3798568E+04  0.7818609E-02  0.8046462E-01
       -1   -1    0    0    0  501  0.00000000000E+00  0.00000000000E+00  0.13143671651E+04  0.13143671651E+04  0.50400001928E-02 0.  1.
        1   -1    0    0  501    0  0.00000000000E+00  0.00000000000E+00 -0.27444986833E+04  0.27444986833E+04  0.50400001928E-02 0. -1.
    10030    2    1    2    0    0  0.00000000000E+00  0.00000000000E+00 -0.14301315183E+04  0.40588658484E+04  0.37985676005E+04 0.  0.
        3    1    3    3  502    0  0.14853277102E+04  0.11120209648E+04 -0.28170012343E+03  0.18767375956E+04  0.10100000352E+00 0.  1.
       -3    1    3    3    0  502 -0.14853277102E+04 -0.11120209648E+04 -0.11484313948E+04  0.21821282528E+04  0.10100000352E+00 0. -1.
</event>
<event>
 5   0  0.3701250E-08  0.3809729E+04  0.7818609E-02  0.8044070E-01
       -1   -1    0    0    0  501  0.00000000000E+00  0.00000000000E+00  0.14210556856E+04  0.14210556856E+04  0.50400001928E-02 0. -1.
        1   -1    0    0  501    0  0.00000000000E+00  0.00000000000E+00 -0.25533893719E+04  0.25533893719E+04  0.50400001928E-02 0.  1.
    10030    2    1    2    0    0  0.00000000000E+00  0.00000000000E+00 -0.11323336863E+04  0.39744450574E+04  0.38097288535E+04 0.  0.
        1    1    3    3  502    0  0.37192110598E+03  0.17450256564E+04 -0.12621455052E+04  0.21855093518E+04  0.50400001928E-02 0.  1.
       -1    1    3    3    0  502 -0.37192110598E+03 -0.17450256564E+04  0.12981181888E+03  0.17889357056E+04  0.50400001928E-02 0. -1.
</event>
<event>
 5   0  0.1193861E-07  0.3808740E+04  0.7818609E-02  0.8044282E-01
       -2   -1    0    0    0  501  0.00000000000E+00  0.00000000000E+00  0.16517868422E+04  0.16517868422E+04  0.25500000920E-02 0.  1.
        2   -1    0    0  501    0  0.00000000000E+00  0.00000000000E+00 -0.21955769796E+04  0.21955769796E+04  0.25500000920E-02 0. -1.
    10030    2    1    2    0    0  0.00000000000E+00  0.00000000000E+00 -0.54379013732E+03  0.38473638218E+04  0.38087400363E+04 0.  0.
        3    1    3    3  502    0 -0.82881516503E+03  0.16827220821E+04  0.60281526310E+02  0.18767317485E+04  0.10100000352E+00 0.  1.
       -3    1    3    3    0  502  0.82881516503E+03 -0.16827220821E+04 -0.60407166363E+03  0.19706320733E+04  0.10100000352E+00 0. -1.
</event>
<event>
 5   0  0.3701250E-08  0.3790394E+04  0.7818609E-02  0.8048219E-01
        1   -1    0    0  501    0  0.00000000000E+00  0.00000000000E+00  0.18788899718E+04  0.18788899718E+04  0.50400001928E-02 0. -1.
       -1   -1    0    0    0  501  0.00000000000E+00  0.00000000000E+00 -0.19116459536E+04  0.19116459536E+04  0.50400001928E-02 0.  1.
    10030    2    1    2    0    0  0.00000000000E+00  0.00000000000E+00 -0.32755981831E+02  0.37905359254E+04  0.37903943921E+04 0.  0.
        2    1    3    3  502    0 -0.14531774796E+04  0.51549346697E+03  0.10856223707E+04  0.18857450075E+04  0.25500000920E-02 0. -1.
       -2    1    3    3    0  502  0.14531774796E+04 -0.51549346697E+03 -0.11183783525E+04  0.19047909179E+04  0.25500000920E-02 0.  1.
</event>
<event>
 5   0  0.1143283E-07  0.3798335E+04  0.7818609E-02  0.8046512E-01
        2   -1    0    0  501    0  0.00000000000E+00  0.00000000000E+00  0.11518180335E+04  0.11518180335E+04  0.25500000920E-02 0. -1.
       -2   -1    0    0    0  501  0.00000000000E+00  0.00000000000E+00 -0.31314294016E+04  0.31314294016E+04  0.25500000920E-02 0.  1.
    10030    2    1    2    0    0  0.00000000000E+00  0.00000000000E+00 -0.19796113681E+04  0.42832474350E+04  0.37983348221E+04 0.  0.
        1    1    3    3  502    0 -0.34485758021E+02  0.40519335850E+03  0.11021460284E+04  0.11747752096E+04  0.50400001928E-02 0. -1.
       -1    1    3    3    0  502  0.34485758021E+02 -0.40519335850E+03 -0.30817573965E+04  0.31084722254E+04  0.50400001928E-02 0.  1.
</event>
<event>
 5   0  0.1143283E-07  0.3798221E+04  0.7818609E-02  0.8046537E-01
       -2   -1    0    0    0  501  0.00000000000E+00  0.00000000000E+00  0.16714901360E+04  0.16714901360E+04  0.25500000920E-02 0. -1.
        2   -1    0    0  501    0  0.00000000000E+00  0.00000000000E+00 -0.21577278921E+04  0.21577278921E+04  0.25500000920E-02 0.  1.
    10030    2    1    2    0    0  0.00000000000E+00  0.00000000000E+00 -0.48623775617E+03  0.38292180281E+04  0.37982211035E+04 0.  0.
        1    1    3    3  502    0 -0.17186604057E+03  0.11983382759E+04 -0.17182992190E+04  0.21019288202E+04  0.50400001928E-02 0.  1.
       -1    1    3    3    0  502  0.17186604057E+03 -0.11983382759E+04  0.12320614628E+04  0.17272892079E+04  0.50400001928E-02 0. -1.
</event>
<event>
 5   0  0.3701250E-08  0.3796944E+04  0.7818609E-02  0.8046811E-01
       -1   -1    0    0    0  501  0.00000000000E+00  0.00000000000E+00  0.13032748901E+04  0.13032748901E+04  0.50400001928E-02 0. -1.
        1   -1    0    0  501    0  0.00000000000E+00  0.00000000000E+00 -0.27654914235E+04  0.27654914235E+04  0.50400001928E-02 0.  1.
    10030    2    1    2    0    0  0.00000000000E+00  0.00000000000E+00 -0.14622165334E+04  0.40687663136E+04  0.37969437873E+04 0.  0.
        1    1    3    3  502    0 -0.12128615293E+04  0.67505354033E+03  0.65678265169E+03  0.15356086166E+04  0.50400001928E-02 0. -1.
       -1    1    3    3    0  502  0.12128615293E+04 -0.67505354033E+03 -0.21189991851E+04  0.25331576970E+04  0.50400001928E-02 0.  1.
</event>
<event>
 5   0  0.1193861E-07  0.3816738E+04  0.7818609E-02  0.8042573E-01
       -2   -1    0    0    0  501  0.00000000000E+00  0.00000000000E+00  0.11469748092E+04  0.11469748092E+04  0.25500000920E-02 0. -1.
        2   -1    0    0  501    0  0.00000000000E+00  0.00000000000E+00 -0.31751977844E+04  0.31751977844E+04  0.25500000920E-02 0.  1.
    10030    2    1    2    0    0  0.00000000000E+00  0.00000000000E+00 -0.20282229752E+04  0.43221725936E+04  0.38167378076E+04 0.  0.
        3    1    3    3  502    0  0.99266311924E+03 -0.37545023663E+03  0.78196337681E+03  0.13182600962E+04  0.10100000352E+00 0. -1.
       -3    1    3    3    0  502 -0.99266311924E+03  0.37545023663E+03 -0.28101863520E+04  0.30039124974E+04  0.10100000352E+00 0.  1.
</event>
<event>
 5   0  0.1143283E-07  0.3797397E+04  0.7818609E-02  0.8046714E-01
        2   -1    0    0  501    0  0.00000000000E+00  0.00000000000E+00  0.23573511535E+04  0.23573511535E+04  0.25500000920E-02 0.  1.
       -2   -1    0    0    0  501  0.00000000000E+00  0.00000000000E+00 -0.15292828207E+04  0.15292828207E+04  0.25500000920E-02 0. -1.
    10030    2    1    2    0    0  0.00000000000E+00  0.00000000000E+00  0.82806833281E+03  0.38866339743E+04  0.37973973306E+04 0.  0.
        1    1    3    3  502    0 -0.14174937365E+04 -0.37819394733E+03 -0.81958517683E+03  0.16804877319E+04  0.50400001928E-02 0. -1.
       -1    1    3    3    0  502  0.14174937365E+04  0.37819394733E+03  0.16476535096E+04  0.22061462424E+04  0.50400001928E-02 0.  1.
</event>
<event>
 5   0  0.3701250E-08  0.3813313E+04  0.7818609E-02  0.8043304E-01
       -1   -1    0    0    0  501  0.00000000000E+00  0.00000000000E+00  0.15167247609E+04  0.15167247609E+04  0.50400001928E-02 0.  1.
        1   -1    0    0  501    0  0.00000000000E+00  0.00000000000E+00 -0.23968352594E+04  0.23968352594E+04  0.50400001928E-02 0. -1.
    10030    2    1    2    0    0  0.00000000000E+00  0.00000000000E+00 -0.88011049859E+03  0.39135600203E+04  0.38133131976E+04 0.  0.
        2    1    3    3  502    0  0.18639892768E+04  0.59001392952E+02 -0.32886050196E+02  0.18652127709E+04  0.25500000920E-02 0.  1.
       -2    1    3    3    0  502 -0.18639892768E+04 -0.59001392952E+02 -0.84722444839E+03  0.20483472494E+04  0.25500000920E-02 0. -1.
</event>
<event>
 5   0  0.7858367E-08  0.3800887E+04  0.7818609E-02  0.8045965E-01
        2   -1    0    0  501    0  0.00000000000E+00  0.00000000000E+00  0.23588545208E+04  0.23588545208E+04  0.25500000920E-02 0. -1.
       -2   -1    0    0    0  501  0.00000000000E+00  0.00000000000E+00 -0.15311185215E+04  0.15311185215E+04  0.25500000920E-02 0.  1.
    10030    2    1    2    0    0  0.00000000000E+00  0.00000000000E+00  0.82773599930E+03  0.38899730423E+04  0.38008871840E+04 0.  0.
        2    1    3    3  502    0  0.12026648084E+04  0.14555584292E+04  0.63487582826E+03  0.19920141313E+04  0.25500000920E-02 0.  1.
       -2    1    3    3    0  502 -0.12026648084E+04 -0.14555584292E+04  0.19286017104E+03  0.18979589110E+04  0.25500000920E-02 0. -1.
</event>
<event>
 5   0  0.7858367E-08  0.3779304E+04  0.7818609E-02  0.8050611E-01
        2   -1    0    0  501    0  0.00000000000E+00  0.00000000000E+00  0.23123535544E+04  0.23123535544E+04  0.25500000920E-02 0. -1.
       -2   -1    0    0    0  501  0.00000000000E+00  0.00000000000E+00 -0.15442211853E+04  0.15442211853E+04  0.25500000920E-02 0.  1.
    10030    2    1    2    0    0  0.00000000000E+00  0.00000000000E+00  0.76813236913E+03  0.38565747397E+04  0.37793043522E+04 0.  0.
        2    1    3    3  502    0  0.48307373309E+03 -0.69207980347E+03  0.21093288919E+04  0.22719161649E+04  0.25500000920E-02 0. -1.
       -2    1    3    3    0  502 -0.48307373309E+03  0.69207980347E+03 -0.13411965228E+04  0.15846585748E+04  0.25500000920E-02 0.  1.
</event>
<event>
 5   0  0.3701250E-08  0.3921765E+04  0.7818609E-02  0.8020518E-01
        1   -1    0    0  501    0  0.00000000000E+00  0.00000000000E+00  0.24280403330E+04  0.24280403330E+04  0.50400001928E-02 0. -1.
       -1   -1    0    0    0  501  0.00000000000E+00  0.00000000000E+00 -0.15836060774E+04  0.15836060774E+04  0.50400001928E-02 0.  1.
    10030    2    1    2    0    0  0.00000000000E+00  0.00000000000E+00  0.84443425561E+03  0.40116464104E+04  0.39217646169E+04 0.  0.
        3    1    3    3  502    0  0.15815656222E+04  0.11150490208E+04  0.98135425908E+02  0.19376054057E+04  0.10100000352E+00 0.  1.
       -3    1    3    3    0  502 -0.15815656222E+04 -0.11150490208E+04  0.74629882970E+03  0.20740410048E+04  0.10100000352E+00 0. -1.
</event>
<event>
 5   0  0.3701250E-08  0.3628671E+04  0.7818609E-02  0.8083956E-01
       -1   -1    0    0    0  501  0.00000000000E+00  0.00000000000E+00  0.13653741588E+04  0.13653741588E+04  0.50400001928E-02 0. -1.
        1   -1    0    0  501    0  0.00000000000E+00  0.00000000000E+00 -0.24109235889E+04  0.24109235889E+04  0.50400001928E-02 0.  1.
    10030    2    1    2    0    0  0.00000000000E+00  0.00000000000E+00 -0.10455494302E+04  0.37762977477E+04  0.36286707027E+04 0.  0.
        2    1    3    3  502    0  0.12113294422E+04  0.10263488623E+04  0.39107444949E+03  0.16351300345E+04  0.25500000920E-02 0. -1.
       -2    1    3    3    0  502 -0.12113294422E+04 -0.10263488623E+04 -0.14366238796E+04  0.21411677132E+04  0.25500000920E-02 0.  1.
</event>
<event>
 5   0  0.3889225E-08  0.3743656E+04  0.7818609E-02  0.8058356E-01
        1   -1    0    0  501    0  0.00000000000E+00  0.00000000000E+00  0.13754800359E+04  0.13754800359E+04  0.50400001928E-02 0.  1.
       -1   -1    0    0    0  501  0.00000000000E+00  0.00000000000E+00 -0.25472846213E+04  0.25472846213E+04  0.50400001928E-02 0. -1.
    10030    2    1    2    0    0  0.00000000000E+00  0.00000000000E+00 -0.11718045854E+04  0.39227646572E+04  0.37436555089E+04 0.  0.
        5    1    3    3  502    0  0.12891207537E+04 -0.10377504189E+04  0.33056168417E+03  0.16876170675E+04  0.46999998093E+01 0. -1.
       -5    1    3    3    0  502 -0.12891207537E+04  0.10377504189E+04 -0.15023662696E+04  0.22351475896E+04  0.46999998093E+01 0.  1.
</event>
<event>
 5   0  0.3701250E-08  0.3787656E+04  0.7818609E-02  0.8048809E-01
        1   -1    0    0  501    0  0.00000000000E+00  0.00000000000E+00  0.21284041215E+04  0.21284041215E+04  0.50400001928E-02 0. -1.
       -1   -1    0    0    0  501  0.00000000000E+00  0.00000000000E+00 -0.16851049017E+04  0.16851049018E+04  0.50400001928E-02 0.  1.
    10030    2    1    2    0    0  0.00000000000E+00  0.00000000000E+00  0.44329921979E+03  0.38135090233E+04  0.37876558545E+04 0.  0.
        2    1    3    3  502    0 -0.66436196781E+03  0.10003395153E+04 -0.12527667859E+04  0.17353618038E+04  0.25500000920E-02 0.  1.
       -2    1    3    3    0  502  0.66436196781E+03 -0.10003395153E+04  0.16960660057E+04  0.20781472195E+04  0.25500000920E-02 0. -1.
</event>
<event>
 5   0  0.3701250E-08  0.3789789E+04  0.7818609E-02  0.8048350E-01
        1   -1    0    0  501    0  0.00000000000E+00  0.00000000000E+00  0.17405715424E+04  0.17405715424E+04  0.50400001928E-02 0.  1.
       -1   -1    0    0    0  501  0.00000000000E+00  0.00000000000E+00 -0.20628995868E+04  0.20628995868E+04  0.50400001928E-02 0. -1.
    10030    2    1    2    0    0  0.00000000000E+00  0.00000000000E+00 -0.32232804437E+03  0.38034711291E+04  0.37897885511E+04 0.  0.
        1    1    3    3  502    0 -0.18679606948E+04 -0.53092931299E+01 -0.48061963749E+03  0.19288080729E+04  0.50400001928E-02 0.  1.
       -1    1    3    3    0  502  0.18679606948E+04  0.53092931299E+01  0.15829159312E+03  0.18746630563E+04  0.50400001928E-02 0. -1.
</event>
<event>
 5   0  0.1193861E-07  0.3826134E+04  0.7818609E-02  0.8040570E-01
        2   -1    0    0  501    0  0.00000000000E+00  0.00000000000E+00  0.21274727765E+04  0.21274727765E+04  0.25500000920E-02 0.  1.
       -2   -1    0    0    0  501  0.00000000000E+00  0.00000000000E+00 -0.17202689111E+04  0.17202689111E+04  0.25500000920E-02 0. -1.
    10030    2    1    2    0    0  0.00000000000E+00  0.00000000000E+00  0.40720386542E+03  0.38477416876E+04  0.38261339635E+04 0.  0.
        3    1    3    3  502    0 -0.11135750838E+03  0.67628452585E+03 -0.15925597843E+04  0.17337842805E+04  0.10100000352E+00 0. -1.
       -3    1    3    3    0  502  0.11135750838E+03 -0.67628452585E+03  0.19997636497E+04  0.21139574072E+04  0.10100000352E+00 0.  1.
</event>
<event>
 5   0  0.3701250E-08  0.3800081E+04  0.7818609E-02  0.8046138E-01
        1   -1    0    0  501    0  0.00000000000E+00  0.00000000000E+00  0.18573009406E+04  0.18573009406E+04  0.50400001928E-02 0.  1.
       -1   -1    0    0    0  501  0.00000000000E+00  0.00000000000E+00 -0.19437631523E+04  0.19437631523E+04  0.50400001928E-02 0. -1.
    10030    2    1    2    0    0  0.00000000000E+00  0.00000000000E+00 -0.86462211769E+02  0.38010640929E+04  0.38000805944E+04 0.  0.
        4    1    3    3  502    0  0.11083215828E+04 -0.13121226887E+04  0.76944999186E+03  0.18820461163E+04  0.12699999809E+01 0. -1.
       -4    1    3    3    0  502 -0.11083215828E+04  0.13121226887E+04 -0.85591220363E+03  0.19190179766E+04  0.12699999809E+01 0.  1.
</event>
<event>
 5   0  0.1174870E-07  0.3790858E+04  0.7818609E-02  0.8048120E-01
       -2   -1    0    0    0  501  0.00000000000E+00  0.00000000000E+00  0.25891771677E+04  0.25891771677E+04  0.25500000920E-02 0. -1.
        2   -1    0    0  501    0  0.00000000000E+00  0.00000000000E+00 -0.13875650170E+04  0.13875650170E+04  0.25500000920E-02 0.  1.
    10030    2    1    2    0    0  0.00000000000E+00  0.00000000000E+00  0.12016121507E+04  0.39767421847E+04  0.37908582990E+04 0.  0.
        5    1    3    3  502    0  0.10920045146E+04  0.13970672921E+04  0.13032354778E+04  0.22006171133E+04  0.46999998093E+01 0. -1.
       -5    1    3    3    0  502 -0.10920045146E+04 -0.13970672921E+04 -0.10162332712E+03  0.17761250714E+04  0.46999998093E+01 0.  1.
</event>
<event>
 5   0  0.1193861E-07  0.3801249E+04  0.7818609E-02  0.8045887E-01
       -2   -1    0    0    0  501  0.00000000000E+00  0.00000000000E+00  0.28060034251E+04  0.28060034251E+04  0.25500000920E-02 0.  1.
        2   -1    0    0  501    0  0.00000000000E+00  0.00000000000E+00 -0.12873729518E+04  0.12873729518E+04  0.25500000920E-02 0. -1.
    10030    2    1    2    0    0  0.00000000000E+00  0.00000000000E+00  0.15186304733E+04  0.40933763768E+04  0.38012486959E+04 0.  0.
        3    1    3    3  502    0  0.11185167963E+04  0.29854441715E+03  0.23825272999E+04  0.26488950409E+04  0.10100000352E+00 0.  1.
       -3    1    3    3    0  502 -0.11185167963E+04 -0.29854441715E+03 -0.86389682660E+03  0.14444813360E+04  0.10100000352E+00 0. -1.
</event>
<event>
 5   0  0.1143283E-07  0.3805602E+04  0.7818609E-02  0.8044954E-01
       -2   -1    0    0    0  501  0.00000000000E+00  0.00000000000E+00  0.14611327391E+04  0.14611327391E+04  0.25500000920E-02 0. -1.
        2   -1    0    0  501    0  0.00000000000E+00  0.00000000000E+00 -0.24779758699E+04  0.24779758699E+04  0.25500000920E-02 0.  1.
    10030    2    1    2    0    0  0.00000000000E+00  0.00000000000E+00 -0.10168431308E+04  0.39391086091E+04  0.38056020130E+04 0.  0.
        1    1    3    3  502    0 -0.43913748108E+01 -0.13477734633E+04 -0.18987249946E+04  0.23284478086E+04  0.50400001928E-02 0.  1.
       -1    1    3    3    0  502  0.43913748108E+01  0.13477734633E+04  0.88188186377E+03  0.16106608004E+04  0.50400001928E-02 0. -1.
</event>
<event>
 5   0  0.3889225E-08  0.3737526E+04  0.7818609E-02  0.8059696E-01
       -1   -1    0    0    0  501  0.00000000000E+00  0.00000000000E+00  0.15871538912E+04  0.15871538912E+04  0.50400001928E-02 0.  1.
        1   -1    0    0  501    0  0.00000000000E+00  0.00000000000E+00 -0.22003379037E+04  0.22003379037E+04  0.50400001928E-02 0. -1.
    10030    2    1    2    0    0  0.00000000000E+00  0.00000000000E+00 -0.61318401247E+03  0.37874917950E+04  0.37375258479E+04 0.  0.
        5    1    3    3  502    0 -0.15552274480E+04 -0.13184014188E+03 -0.13480168670E+04  0.20623495828E+04  0.46999998093E+01 0. -1.
       -5    1    3    3    0  502  0.15552274480E+04  0.13184014188E+03  0.73483285450E+03  0.17251422121E+04  0.46999998093E+01 0.  1.
</event>
<event>
 5   0  0.1174870E-07  0.3790357E+04  0.7818609E-02  0.8048228E-01
        2   -1    0    0  501    0  0.00000000000E+00  0.00000000000E+00  0.21605815669E+04  0.21605815669E+04  0.25500000920E-02 0. -1.
       -2   -1    0    0    0  501  0.00000000000E+00  0.00000000000E+00 -0.16623768084E+04  0.16623768084E+04  0.25500000920E-02 0.  1.
    10030    2    1    2    0    0  0.00000000000E+00  0.00000000000E+00  0.49820475852E+03  0.38229583753E+04  0.37903565475E+04 0.  0.
        5    1    3    3  502    0 -0.94175576384E+03  0.24165524308E+03 -0.13916588916E+04  0.16976565423E+04  0.46999998093E+01 0.  1.
       -5    1    3    3    0  502  0.94175576384E+03 -0.24165524308E+03  0.18898636501E+04  0.21253018329E+04  0.46999998093E+01 0. -1.
</event>
<event>
 5   0  0.1193861E-07  0.3757860E+04  0.7818609E-02  0.8055259E-01
       -2   -1    0    0    0  501  0.00000000000E+00  0.00000000000E+00  0.14910517778E+04  0.14910517778E+04  0.25500000920E-02 0.  1.
        2   -1    0    0  501    0  0.00000000000E+00  0.00000000000E+00 -0.23677100527E+04  0.23677100527E+04  0.25500000920E-02 0. -1.
    10030    2    1    2    0    0  0.00000000000E+00  0.00000000000E+00 -0.87665827486E+03  0.38587618305E+04  0.37578601802E+04 0.  0.
        3    1    3    3  502    0 -0.19931391477E+02  0.15422408845E+04  0.66355121064E+03  0.16790486669E+04  0.10100000352E+00 0.  1.
       -3    1    3    3    0  502  0.19931391477E+02 -0.15422408845E+04 -0.15402094855E+04  0.21797131636E+04  0.10100000352E+00 0. -1.
</event>
<event>
 5   0  0.3701250E-08  0.3795804E+04  0.7818609E-02  0.8047056E-01
       -1   -1    0    0    0  501  0.00000000000E+00  0.00000000000E+00  0.30085856391E+04  0.30085856391E+04  0.50400001928E-02 0.  1.
        1   -1    0    0  501    0  0.00000000000E+00  0.00000000000E+00 -0.11972507076E+04  0.11972507076E+04  0.50400001928E-02 0. -1.
    10030    2    1    2    0    0  0.00000000000E+00  0.00000000000E+00  0.18113349315E+04  0.42058363466E+04  0.37958036225E+04 0.  0.
        1    1    3    3  502    0  0.15751240317E+04  0.43797235079E+03 -0.16240876573E+03  0.16429279055E+04  0.50400001928E-02 0. -1.
       -1    1    3    3    0  502 -0.15751240317E+04 -0.43797235079E+03  0.19737436973E+04  0.25629084412E+04  0.50400001928E-02 0.  1.
</event>
<event>
 5   0  0.3701250E-08  0.3800848E+04  0.7818609E-02  0.8045973E-01
       -1   -1    0    0    0  501  0.00000000000E+00  0.00000000000E+00  0.15080132836E+04  0.15080132836E+04  0.50400001928E-02 0. -1.
        1   -1    0    0  501    0  0.00000000000E+00  0.00000000000E+00 -0.23949465804E+04  0.23949465804E+04  0.50400001928E-02 0.  1.
    10030    2    1    2    0    0  0.00000000000E+00  0.00000000000E+00 -0.88693329680E+03  0.39029598640E+04  0.38008479352E+04 0.  0.
        3    1    3    3  502    0 -0.13194111933E+04 -0.44017709257E+03 -0.17732514010E+04  0.22536686338E+04  0.10100000352E+00 0. -1.
       -3    1    3    3    0  502  0.13194111933E+04  0.44017709257E+03  0.88631810416E+03  0.16492912302E+04  0.10100000352E+00 0.  1.
</event>
<event>
 5   0  0.3701250E-08  0.3803624E+04  0.7818609E-02  0.8045378E-01
        1   -1    0    0  501    0  0.00000000000E+00  0.00000000000E+00  0.20329258343E+04  0.20329258343E+04  0.50400001928E-02 0. -1.
       -1   -1    0    0    0  501  0.00000000000E+00  0.00000000000E+00 -0.17791540233E+04  0.17791540233E+04  0.50400001928E-02 0.  1.
    10030    2    1    2    0    0  0.00000000000E+00  0.00000000000E+00  0.25377181097E+03  0.38120798576E+04  0.38036236287E+04 0.  0.
        2    1    3    3  502    0 -0.13187381419E+04  0.23548315264E+03 -0.12260655205E+04  0.18159733650E+04  0.25500000920E-02 0.  1.
       -2    1    3    3    0  502  0.13187381419E+04 -0.23548315264E+03  0.14798373314E+04  0.19961064925E+04  0.25500000920E-02 0. -1.
</event>
<event>
 5   0  0.1143283E-07  0.3803003E+04  0.7818609E-02  0.8045511E-01
       -2   -1    0    0    0  501  0.00000000000E+00  0.00000000000E+00  0.23335549009E+04  0.23335549009E+04  0.25500000920E-02 0. -1.
        2   -1    0    0  501    0  0.00000000000E+00  0.00000000000E+00 -0.15494419292E+04  0.15494419292E+04  0.25500000920E-02 0.  1.
    10030    2    1    2    0    0  0.00000000000E+00  0.00000000000E+00  0.78411297173E+03  0.38829968301E+04  0.38030029227E+04 0.  0.
        1    1    3    3  502    0  0.45846514336E+03 -0.89908896245E+03 -0.12534115176E+04  0.16092208309E+04  0.50400001928E-02 0.  1.
       -1    1    3    3    0  502 -0.45846514336E+03  0.89908896245E+03  0.20375244893E+04  0.22737759992E+04  0.50400001928E-02 0. -1.
</event>
<event>
 5   0  0.1174870E-07  0.3796391E+04  0.7818609E-02  0.8046930E-01
       -2   -1    0    0    0  501  0.00000000000E+00  0.00000000000E+00  0.18664547168E+04  0.18664547168E+04  0.25500000920E-02 0.  1.
        2   -1    0    0  501    0  0.00000000000E+00  0.00000000000E+00 -0.19304762271E+04  0.19304762271E+04  0.25500000920E-02 0. -1.
    10030    2    1    2    0    0  0.00000000000E+00  0.00000000000E+00 -0.64021510264E+02  0.37969309439E+04  0.37963911599E+04 0.  0.
        5    1    3    3  502    0 -0.10711207209E+04 -0.10314817271E+04 -0.12119539943E+04  0.19183609479E+04  0.46999998093E+01 0.  1.
       -5    1    3    3    0  502  0.10711207209E+04  0.10314817271E+04  0.11479324840E+04  0.18785699960E+04  0.46999998093E+01 0. -1.
</event>
<event>
 5   0  0.7858367E-08  0.3978642E+04  0.7818609E-02  0.8008869E-01
        2   -1    0    0  501    0  0.00000000000E+00  0.00000000000E+00  0.33482767858E+04  0.33482767858E+04  0.25500000920E-02 0. -1.
       -2   -1    0    0    0  501  0.00000000000E+00  0.00000000000E+00 -0.11819210471E+04  0.11819210471E+04  0.25500000920E-02 0.  1.
    10030    2    1    2    0    0  0.00000000000E+00  0.00000000000E+00  0.21663557387E+04  0.45301978329E+04  0.39786423839E+04 0.  0.
        2    1    3    3  502    0 -0.14903483967E+03 -0.17582960571E+04  0.21289715604E+04  0.27652009534E+04  0.25500000920E-02 0. -1.
       -2    1    3    3    0  502  0.14903483967E+03  0.17582960571E+04  0.37384178323E+02  0.17649968795E+04  0.25500000920E-02 0.  1.
</event>
<event>
 5   0  0.1193861E-07  0.3810999E+04  0.7818609E-02  0.8043799E-01
        2   -1    0    0  501    0  0.00000000000E+00  0.00000000000E+00  0.18351362302E+04  0.18351362302E+04  0.25500000920E-02 0. -1.
       -2   -1    0    0    0  501  0.00000000000E+00  0.00000000000E+00 -0.19785601638E+04  0.19785601638E+04  0.25500000920E-02 0.  1.
    10030    2    1    2    0    0  0.00000000000E+00  0.00000000000E+00 -0.14342393363E+03  0.38136963940E+04  0.38109985254E+04 0.  0.
        3    1    3    3  502    0 -0.16305978183E+04  0.46425120663E+03 -0.94212596498E+03  0.19395823705E+04  0.10100000352E+00 0.  1.
       -3    1    3    3    0  502  0.16305978183E+04 -0.46425120663E+03  0.79870203135E+03  0.18741140235E+04  0.10100000352E+00 0. -1.
</event>
<event>
 5   0  0.3701250E-08  0.3796413E+04  0.7818609E-02  0.8046925E-01
        1   -1    0    0  501    0  0.00000000000E+00  0.00000000000E+00  0.16535710142E+04  0.16535710142E+04  0.50400001928E-02 0. -1.
       -1   -1    0    0    0  501  0.00000000000E+00  0.00000000000E+00 -0.21790344523E+04  0.21790344523E+04  0.50400001928E-02 0.  1.
    10030    2    1    2    0    0  0.00000000000E+00  0.00000000000E+00 -0.52546343805E+03  0.38326054665E+04  0.37964131541E+04 0.  0.
        2    1    3    3  502    0 -0.72938470646E+02  0.58097683600E+03  0.15601214964E+04  0.16663832656E+04  0.25500000920E-02 0. -1.
       -2    1    3    3    0  502  0.72938470646E+02 -0.58097683600E+03 -0.20855849345E+04  0.21662222008E+04  0.25500000920E-02 0.  1.
</event>
<event>
 5   0  0.3701250E-08  0.3815182E+04  0.7818609E-02  0.8042905E-01
        1   -1    0    0  501    0  0.00000000000E+00  0.00000000000E+00  0.22679158479E+04  0.22679158479E+04  0.50400001928E-02 0.  1.
       -1   -1    0    0    0  501  0.00000000000E+00  0.00000000000E+00 -0.16045145468E+04  0.16045145468E+04  0.50400001928E-02 0. -1.
    10030    2    1    2    0    0  0.00000000000E+00  0.00000000000E+00  0.66340130108E+03  0.38724303947E+04  0.38151822860E+04 0.  0.
        1    1    3    3  502    0 -0.17345447984E+04  0.75153412341E+03  0.72020361302E+02  0.18917283443E+04  0.50400001928E-02 0. -1.
       -1    1    3    3    0  502  0.17345447984E+04 -0.75153412341E+03  0.59138093978E+03  0.19807020503E+04  0.50400001928E-02 0.  1.
</event>
<event>
 5   0  0.1193861E-07  0.3807560E+04  0.7818609E-02  0.8044534E-01
       -2   -1    0    0    0  501  0.00000000000E+00  0.00000000000E+00  0.13252820040E+04  0.13252820040E+04  0.25500000920E-02 0. -1.
        2   -1    0    0  501    0  0.00000000000E+00  0.00000000000E+00 -0.27347981418E+04  0.27347981418E+04  0.25500000920E-02 0.  1.
    10030    2    1    2    0    0  0.00000000000E+00  0.00000000000E+00 -0.14095161379E+04  0.40600801458E+04  0.38075602487E+04 0.  0.
        3    1    3    3  502    0 -0.86008972723E+03 -0.16334908435E+03 -0.25074208377E+04  0.26558607889E+04  0.10100000352E+00 0.  1.
       -3    1    3    3    0  502  0.86008972723E+03  0.16334908435E+03  0.10979046998E+04  0.14042193569E+04  0.10100000352E+00 0. -1.
</event>
<event>
 5   0  0.1193861E-07  0.3787693E+04  0.7818609E-02  0.8048801E-01
        2   -1    0    0  501    0  0.00000000000E+00  0.00000000000E+00  0.25083645156E+04  0.25083645156E+04  0.25500000920E-02 0.  1.
       -2   -1    0    0    0  501  0.00000000000E+00  0.00000000000E+00 -0.14298779613E+04  0.14298779613E+04  0.25500000920E-02 0. -1.
    10030    2    1    2    0    0  0.00000000000E+00  0.00000000000E+00  0.10784865543E+04  0.39382424769E+04  0.37876933032E+04 0.  0.
        3    1    3    3  502    0  0.10788870979E+04  0.11581228097E+04  0.16204847601E+04  0.22652189034E+04  0.10100000352E+00 0.  1.
       -3    1    3    3    0  502 -0.10788870979E+04 -0.11581228097E+04 -0.54199820582E+03  0.16730235736E+04  0.10100000352E+00 0. -1.
</event>
<event>
 5   0  0.3701250E-08  0.3819345E+04  0.7818609E-02  0.8042016E-01
        1   -1    0    0  501    0  0.00000000000E+00  0.00000000000E+00  0.16965650956E+04  0.16965650956E+04  0.50400001928E-02 0. -1.
       -1   -1    0    0    0  501  0.00000000000E+00  0.00000000000E+00 -0.21495490665E+04  0.21495490665E+04  0.50400001928E-02 0.  1.
    10030    2    1    2    0    0  0.00000000000E+00  0.00000000000E+00 -0.45298397091E+03  0.38461141621E+04  0.38193454504E+04 0.  0.
        3    1    3    3  502    0 -0.99012056703E+03  0.34156802187E+03 -0.18345062760E+04  0.21124442567E+04  0.10100000352E+00 0.  1.
       -3    1    3    3    0  502  0.99012056703E+03 -0.34156802187E+03  0.13815223051E+04  0.17336699053E+04  0.10100000352E+00 0. -1.
</event>
<event>
 5   0  0.3701250E-08  0.3819315E+04  0.7818609E-02  0.8042023E-01
        1   -1    0    0  501    0  0.00000000000E+00  0.00000000000E+00  0.21179524530E+04  0.21179524531E+04  0.50400001928E-02 0.  1.
       -1   -1    0    0    0  501  0.00000000000E+00  0.00000000000E+00 -0.17218476292E+04  0.17218476292E+04  0.50400001928E-02 0. -1.
    10030    2    1    2    0    0  0.00000000000E+00  0.00000000000E+00  0.39610482389E+03  0.38398000822E+04  0.38193148129E+04 0.  0.
        2    1    3    3  502    0  0.34140835551E+03 -0.17974663235E+04  0.74811270092E+03  0.19766429780E+04  0.25500000920E-02 0.  1.
       -2    1    3    3    0  502 -0.34140835551E+03  0.17974663235E+04 -0.35200787702E+03  0.18631571042E+04  0.25500000920E-02 0. -1.
</event>
<event>
 5   0  0.3701250E-08  0.3803988E+04  0.7818609E-02  0.8045300E-01
        1   -1    0    0  501    0  0.00000000000E+00  0.00000000000E+00  0.15393543212E+04  0.15393543212E+04  0.50400001928E-02 0. -1.
       -1   -1    0    0    0  501  0.00000000000E+00  0.00000000000E+00 -0.23500638206E+04  0.23500638206E+04  0.50400001928E-02 0.  1.
    10030    2    1    2    0    0  0.00000000000E+00  0.00000000000E+00 -0.81070949944E+03  0.38894181418E+04  0.38039878535E+04 0.  0.
        2    1    3    3  502    0 -0.66915314363E+02  0.18553493522E+04  0.17184042142E+02  0.18566351740E+04  0.25500000920E-02 0. -1.
       -2    1    3    3    0  502  0.66915314363E+02 -0.18553493522E+04 -0.82789354158E+03  0.20327829678E+04  0.25500000920E-02 0.  1.
</event>
<event>
 5   0  0.7858367E-08  0.3788988E+04  0.7818609E-02  0.8048522E-01
        2   -1    0    0  501    0  0.00000000000E+00  0.00000000000E+00  0.19965771152E+04  0.19965771152E+04  0.25500000920E-02 0. -1.
       -2   -1    0    0    0  501  0.00000000000E+00  0.00000000000E+00 -0.17976301488E+04  0.17976301488E+04  0.25500000920E-02 0.  1.
    10030    2    1    2    0    0  0.00000000000E+00  0.00000000000E+00  0.19894696637E+03  0.37942072640E+04  0.37889878420E+04 0.  0.
        2    1    3    3  502    0  0.17564084942E+04  0.35225100088E+03 -0.51786227896E+03  0.18647340041E+04  0.25500000920E-02 0. -1.
       -2    1    3    3    0  502 -0.17564084942E+04 -0.35225100088E+03  0.71680924533E+03  0.19294732598E+04  0.25500000920E-02 0.  1.
</event>
<event>
 5   0  0.3889225E-08  0.3788372E+04  0.7818609E-02  0.8048655E-01
        1   -1    0    0  501    0  0.00000000000E+00  0.00000000000E+00  0.10874361189E+04  0.10874361189E+04  0.50400001928E-02 0. -1.
       -1   -1    0    0    0  501  0.00000000000E+00  0.00000000000E+00 -0.32994498691E+04  0.32994498692E+04  0.50400001928E-02 0.  1.
    10030    2    1    2    0    0  0.00000000000E+00  0.00000000000E+00 -0.22120137502E+04  0.43868859881E+04  0.37883721889E+04 0.  0.
        5    1    3    3  502    0 -0.15923740909E+04  0.56504967542E+03 -0.20974105119E+04  0.26933416653E+04  0.46999998093E+01 0.  1.
       -5    1    3    3    0  502  0.15923740909E+04 -0.56504967542E+03 -0.11460323834E+03  0.16935443228E+04  0.46999998093E+01 0. -1.
</event>
<event>
 5   0  0.1193861E-07  0.3793375E+04  0.7818609E-02  0.8047578E-01
        2   -1    0    0  501    0  0.00000000000E+00  0.00000000000E+00  0.27893044180E+04  0.27893044180E+04  0.25500000920E-02 0.  1.
       -2   -1    0    0    0  501  0.00000000000E+00  0.00000000000E+00 -0.12897207012E+04  0.12897207012E+04  0.25500000920E-02 0. -1.
    10030    2    1    2    0    0  0.00000000000E+00  0.00000000000E+00  0.14995837167E+04  0.40790251192E+04  0.37933750935E+04 0.  0.
        3    1    3    3  502    0  0.16178172983E+02  0.10189191099E+04 -0.97034431278E+03  0.14071339600E+04  0.10100000352E+00 0. -1.
       -3    1    3    3    0  502 -0.16178172983E+02 -0.10189191099E+04  0.24699280295E+04  0.26718911593E+04  0.10100000352E+00 0.  1.
</event>
<event>
 5   0  0.1174870E-07  0.3798492E+04  0.7818609E-02  0.8046479E-01
        2   -1    0    0  501    0  0.00000000000E+00  0.00000000000E+00  0.10359084827E+04  0.10359084827E+04  0.25500000920E-02 0. -1.
       -2   -1    0    0    0  501  0.00000000000E+00  0.00000000000E+00 -0.34820985197E+04  0.34820985197E+04  0.25500000920E-02 0.  1.
    10030    2    1    2    0    0  0.00000000000E+00  0.00000000000E+00 -0.24461900370E+04  0.45180070024E+04  0.37984920135E+04 0.  0.
        5    1    3    3  502    0  0.32170026634E+03  0.55954665593E+03  0.90145560359E+03  0.11087054689E+04  0.46999998093E+01 0. -1.
       -5    1    3    3    0  502 -0.32170026634E+03 -0.55954665593E+03 -0.33476456406E+04  0.34093015335E+04  0.46999998093E+01 0.  1.
</event>
<event>
 5   0  0.1150235E-07  0.3804698E+04  0.7818609E-02  0.8045148E-01
        2   -1    0    0  501    0  0.00000000000E+00  0.00000000000E+00  0.17404902993E+04  0.17404902993E+04  0.25500000920E-02 0. -1.
       -2   -1    0    0    0  501  0.00000000000E+00  0.00000000000E+00 -0.20792596645E+04  0.20792596645E+04  0.25500000920E-02 0.  1.
    10030    2    1    2    0    0  0.00000000000E+00  0.00000000000E+00 -0.33876936520E+03  0.38197499638E+04  0.38046977677E+04 0.  0.
        4    1    3    3  502    0  0.12306511263E+02  0.10956429395E+04 -0.17306398150E+04  0.20483409588E+04  0.12699999809E+01 0.  1.
       -4    1    3    3    0  502 -0.12306511263E+02 -0.10956429395E+04  0.13918704498E+04  0.17714090050E+04  0.12699999809E+01 0. -1.
</event>
<event>
 5   0  0.3701250E-08  0.3798778E+04  0.7818609E-02  0.8046417E-01
       -1   -1    0    0    0  501  0.00000000000E+00  0.00000000000E+00  0.18879241360E+04  0.18879241360E+04  0.50400001928E-02 0. -1.
        1   -1    0    0  501    0  0.00000000000E+00  0.00000000000E+00 -0.19109239865E+04  0.19109239865E+04  0.50400001928E-02 0.  1.
    10030    2    1    2    0    0  0.00000000000E+00  0.00000000000E+00 -0.22999850434E+02  0.37988481225E+04  0.37987784964E+04 0.  0.
        3    1    3    3  502    0  0.38539457532E+03  0.18598729283E+04 -0.66813587941E+01  0.18993948876E+04  0.10100000352E+00 0. -1.
       -3    1    3    3    0  502 -0.38539457532E+03 -0.18598729283E+04 -0.16318491640E+02  0.18994532349E+04  0.10100000352E+00 0.  1.
</event>
<event>
 5   0  0.1174870E-07  0.3791312E+04  0.7818609E-02  0.8048022E-01
        2   -1    0    0  501    0  0.00000000000E+00  0.00000000000E+00  0.19142927630E+04  0.19142927630E+04  0.25500000920E-02 0. -1.
       -2   -1    0    0    0  501  0.00000000000E+00  0.00000000000E+00 -0.18772006941E+04  0.18772006941E+04  0.25500000920E-02 0.  1.
    10030    2    1    2    0    0  0.00000000000E+00  0.00000000000E+00  0.37092068879E+02  0.37914934571E+04  0.37913120175E+04 0.  0.
        5    1    3    3  502    0  0.15150509294E+04  0.10307071421E+04  0.50411338024E+03  0.19004970196E+04  0.46999998093E+01 0. -1.
       -5    1    3    3    0  502 -0.15150509294E+04 -0.10307071421E+04 -0.46702131136E+03  0.18909964375E+04  0.46999998093E+01 0.  1.
</event>
<event>
 5   0  0.7858367E-08  0.3805959E+04  0.7818609E-02  0.8044877E-01
       -2   -1    0    0    0  501  0.00000000000E+00  0.00000000000E+00  0.23317177852E+04  0.23317177852E+04  0.25500000920E-02 0. -1.
        2   -1    0    0  501    0  0.00000000000E+00  0.00000000000E+00 -0.15530746709E+04  0.15530746709E+04  0.25500000920E-02 0.  1.
    10030    2    1    2    0    0  0.00000000000E+00  0.00000000000E+00  0.77864311434E+03  0.38847924561E+04  0.38059594490E+04 0.  0.
        2    1    3    3  502    0 -0.15229352700E+04  0.37887238483E+03  0.14879311389E+04  0.21625945516E+04  0.25500000920E-02 0. -1.
       -2    1    3    3    0  502  0.15229352700E+04 -0.37887238483E+03 -0.70928802453E+03  0.17221979045E+04  0.25500000920E-02 0.  1.
</event>
<event>
 5   0  0.7858367E-08  0.3762544E+04  0.7818609E-02  0.8054241E-01
        2   -1    0    0  501    0  0.00000000000E+00  0.00000000000E+00  0.16028758098E+04  0.16028758098E+04  0.25500000920E-02 0.  1.
       -2   -1    0    0    0  501  0.00000000000E+00  0.00000000000E+00 -0.22080219995E+04  0.22080219995E+04  0.25500000920E-02 0. -1.
    10030    2    1    2    0    0  0.00000000000E+00  0.00000000000E+00 -0.60514618975E+03  0.38108978093E+04  0.37625443787E+04 0.  0.
        2    1    3    3  502    0 -0.75473582522E+03  0.83872233669E+03  0.12221309925E+04  0.16633356507E+04  0.25500000920E-02 0.  1.
       -2    1    3    3    0  502  0.75473582522E+03 -0.83872233669E+03 -0.18272771823E+04  0.21475621586E+04  0.25500000920E-02 0. -1.
</event>
<event>
 5   0  0.7858367E-08  0.3887326E+04  0.7818609E-02  0.8027670E-01
        2   -1    0    0  501    0  0.00000000000E+00  0.00000000000E+00  0.13735651423E+04  0.13735651423E+04  0.25500000920E-02 0.  1.
       -2   -1    0    0    0  501  0.00000000000E+00  0.00000000000E+00 -0.27503796579E+04  0.27503796579E+04  0.25500000920E-02 0. -1.
    10030    2    1    2    0    0  0.00000000000E+00  0.00000000000E+00 -0.13768145156E+04  0.41239448002E+04  0.38873258809E+04 0.  0.
        2    1    3    3  502    0 -0.48956036454E+03  0.11178968133E+04  0.91644050225E+03  0.15261801433E+04  0.25500000920E-02 0.  1.
       -2    1    3    3    0  502  0.48956036454E+03 -0.11178968133E+04 -0.22932550178E+04  0.25977646569E+04  0.25500000920E-02 0. -1.
</event>
<event>
 5   0  0.7858367E-08  0.3738581E+04  0.7818609E-02  0.8059465E-01
       -2   -1    0    0    0  501  0.00000000000E+00  0.00000000000E+00  0.21007062321E+04  0.21007062321E+04  0.25500000920E-02 0. -1.
        2   -1    0    0  501    0  0.00000000000E+00  0.00000000000E+00 -0.16633674511E+04  0.16633674511E+04  0.25500000920E-02 0.  1.
    10030    2    1    2    0    0  0.00000000000E+00  0.00000000000E+00  0.43733878100E+03  0.37640736833E+04  0.37385806777E+04 0.  0.
        2    1    3    3  502    0  0.18052337301E+04  0.48369250478E+03  0.25659736348E+03  0.18864436027E+04  0.25500000920E-02 0. -1.
       -2    1    3    3    0  502 -0.18052337301E+04 -0.48369250478E+03  0.18074141752E+03  0.18776300805E+04  0.25500000920E-02 0.  1.
</event>
<event>
 5   0  0.7858367E-08  0.3789758E+04  0.7818609E-02  0.8048356E-01
        2   -1    0    0  501    0  0.00000000000E+00  0.00000000000E+00  0.18115990774E+04  0.18115990774E+04  0.25500000920E-02 0. -1.
       -2   -1    0    0    0  501  0.00000000000E+00  0.00000000000E+00 -0.19819869335E+04  0.19819869335E+04  0.25500000920E-02 0.  1.
    10030    2    1    2    0    0  0.00000000000E+00  0.00000000000E+00 -0.17038785614E+03  0.37935860109E+04  0.37897576177E+04 0.  0.
        2    1    3    3  502    0  0.59931635303E+02  0.76760049024E+02 -0.19794802392E+04  0.19818743461E+04  0.25500000920E-02 0.  1.
       -2    1    3    3    0  502 -0.59931635303E+02 -0.76760049024E+02  0.18090923831E+04  0.18117116649E+04  0.25500000920E-02 0. -1.
</event>
<event>
 5   0  0.1143283E-07  0.3813965E+04  0.7818609E-02  0.8043165E-01
       -2   -1    0    0    0  501  0.00000000000E+00  0.00000000000E+00  0.14981489238E+04  0.14981489238E+04  0.25500000920E-02 0. -1.
        2   -1    0    0  501    0  0.00000000000E+00  0.00000000000E+00 -0.24273830543E+04  0.24273830543E+04  0.25500000920E-02 0.  1.
    10030    2    1    2    0    0  0.00000000000E+00  0.00000000000E+00 -0.92923413051E+03  0.39255319781E+04  0.38139645045E+04 0.  0.
        1    1    3    3  502    0 -0.41335348409E+03  0.16702497482E+04  0.38161741923E+03  0.17624491989E+04  0.50400001928E-02 0. -1.
       -1    1    3    3    0  502  0.41335348409E+03 -0.16702497482E+04 -0.13108515497E+04  0.21630827792E+04  0.50400001928E-02 0.  1.
</event>
<event>
 5   0  0.3701250E-08  0.3795845E+04  0.7818609E-02  0.8047047E-01
        1   -1    0    0  501    0  0.00000000000E+00  0.00000000000E+00  0.23140966691E+04  0.23140966691E+04  0.50400001928E-02 0. -1.
       -1   -1    0    0    0  501  0.00000000000E+00  0.00000000000E+00 -0.15565940854E+04  0.15565940854E+04  0.50400001928E-02 0.  1.
    10030    2    1    2    0    0  0.00000000000E+00  0.00000000000E+00  0.75750258372E+03  0.38706907545E+04  0.37958446692E+04 0.  0.
        2    1    3    3  502    0  0.18015963658E+04  0.57225392673E+03  0.20544374388E+03  0.19014287139E+04  0.25500000920E-02 0.  1.
       -2    1    3    3    0  502 -0.18015963658E+04 -0.57225392673E+03  0.55205883984E+03  0.19692620406E+04  0.25500000920E-02 0. -1.
</event>
<event>
 5   0  0.3701250E-08  0.3789447E+04  0.7818609E-02  0.8048423E-01
       -1   -1    0    0    0  501  0.00000000000E+00  0.00000000000E+00  0.12458894938E+04  0.12458894938E+04  0.50400001928E-02 0. -1.
        1   -1    0    0  501    0  0.00000000000E+00  0.00000000000E+00 -0.28814566578E+04  0.28814566578E+04  0.50400001928E-02 0.  1.
    10030    2    1    2    0    0  0.00000000000E+00  0.00000000000E+00 -0.16355671640E+04  0.41273461516E+04  0.37894467020E+04 0.  0.
        4    1    3    3  502    0 -0.12418249719E+04  0.13079175815E+04 -0.14502495137E+04  0.23143039830E+04  0.12699999809E+01 0.  1.
       -4    1    3    3    0  502  0.12418249719E+04 -0.13079175815E+04 -0.18531765030E+03  0.18130421686E+04  0.12699999809E+01 0. -1.
</event>
<event>
 5   0  0.3701250E-08  0.3819214E+04  0.7818609E-02  0.8042044E-01
       -1   -1    0    0    0  501  0.00000000000E+00  0.00000000000E+00  0.14448546069E+04  0.14448546069E+04  0.50400001928E-02 0. -1.
        1   -1    0    0  501    0  0.00000000000E+00  0.00000000000E+00 -0.25238513246E+04  0.25238513246E+04  0.50400001928E-02 0.  1.
    10030    2    1    2    0    0  0.00000000000E+00  0.00000000000E+00 -0.10789967178E+04  0.39687059315E+04  0.38192136434E+04 0.  0.
        3    1    3    3  502    0  0.12768514700E+04  0.34525587173E+03 -0.19707434240E+04  0.23734744462E+04  0.10100000352E+00 0.  1.
       -3    1    3    3    0  502 -0.12768514700E+04 -0.34525587173E+03  0.89174670623E+03  0.15952314853E+04  0.10100000352E+00 0. -1.
</event>
<event>
 5   0  0.3701250E-08  0.3796454E+04  0.7818609E-02  0.8046916E-01
       -1   -1    0    0    0  501  0.00000000000E+00  0.00000000000E+00  0.19737265084E+04  0.19737265084E+04  0.50400001928E-02 0.  1.
        1   -1    0    0  501    0  0.00000000000E+00  0.00000000000E+00 -0.18256153255E+04  0.18256153255E+04  0.50400001928E-02 0. -1.
    10030    2    1    2    0    0  0.00000000000E+00  0.00000000000E+00  0.14811118289E+03  0.37993418340E+04  0.37964537991E+04 0.  0.
        2    1    3    3  502    0  0.63350056487E+03 -0.13137478622E+04 -0.11417797024E+04  0.18522735488E+04  0.25500000920E-02 0. -1.
       -2    1    3    3    0  502 -0.63350056487E+03  0.13137478622E+04  0.12898908853E+04  0.19470682851E+04  0.25500000920E-02 0.  1.
</event>
<event>
 5   0  0.3701250E-08  0.3802156E+04  0.7818609E-02  0.8045692E-01
        1   -1    0    0  501    0  0.00000000000E+00  0.00000000000E+00  0.28739512201E+04  0.28739512201E+04  0.50400001928E-02 0.  1.
       -1   -1    0    0    0  501  0.00000000000E+00  0.00000000000E+00 -0.12575358868E+04  0.12575358869E+04  0.50400001928E-02 0. -1.
    10030    2    1    2    0    0  0.00000000000E+00  0.00000000000E+00  0.16164153332E+04  0.41314871070E+04  0.38021555972E+04 0.  0.
        1    1    3    3  502    0 -0.13083865282E+04  0.79921282423E+03  0.20296156723E+04  0.25436108631E+04  0.50400001928E-02 0.  1.
       -1    1    3    3    0  502  0.13083865282E+04 -0.79921282423E+03 -0.41320033908E+03  0.15878762438E+04  0.50400001928E-02 0. -1.
</event>
<event>
 5   0  0.7858367E-08  0.3787958E+04  0.7818609E-02  0.8048744E-01
        2   -1    0    0  501    0  0.00000000000E+00  0.00000000000E+00  0.14493506073E+04  0.14493506073E+04  0.25500000920E-02 0. -1.
       -2   -1    0    0    0  501  0.00000000000E+00  0.00000000000E+00 -0.24750094748E+04  0.24750094748E+04  0.25500000920E-02 0.  1.
    10030    2    1    2    0    0  0.00000000000E+00  0.00000000000E+00 -0.10256588675E+04  0.39243600820E+04  0.37879580173E+04 0.  0.
        2    1    3    3  502    0 -0.11033649758E+04  0.72943378363E+02 -0.21058674520E+04  0.23785316335E+04  0.25500000920E-02 0.  1.
       -2    1    3    3    0  502  0.11033649758E+04 -0.72943378363E+02  0.10802085845E+04  0.15458284485E+04  0.25500000920E-02 0. -1.
</event>
<event>
 5   0  0.7858367E-08  0.3806495E+04  0.7818609E-02  0.8044763E-01
        2   -1    0    0  501    0  0.00000000000E+00  0.00000000000E+00  0.26344300182E+04  0.26344300182E+04  0.25500000920E-02 0. -1.
       -2   -1    0    0    0  501  0.00000000000E+00  0.00000000000E+00 -0.13750033603E+04  0.13750033603E+04  0.25500000920E-02 0.  1.
    10030    2    1    2    0    0  0.00000000000E+00  0.00000000000E+00  0.12594266579E+04  0.40094333785E+04  0.38064945173E+04 0.  0.
        2    1    3    3  502    0 -0.13666215119E+04  0.18449146380E+03  0.20113859653E+04  0.24387219929E+04  0.25500000920E-02 0. -1.
       -2    1    3    3    0  502  0.13666215119E+04 -0.18449146380E+03 -0.75195930745E+03  0.15707113856E+04  0.25500000920E-02 0.  1.
</event>
<event>
 5   0  0.7858367E-08  0.3803254E+04  0.7818609E-02  0.8045457E-01
       -2   -1    0    0    0  501  0.00000000000E+00  0.00000000000E+00  0.11775622013E+04  0.11775622013E+04  0.25500000920E-02 0. -1.
        2   -1    0    0  501    0  0.00000000000E+00  0.00000000000E+00 -0.30709074421E+04  0.30709074421E+04  0.25500000920E-02 0.  1.
    10030    2    1    2    0    0  0.00000000000E+00  0.00000000000E+00 -0.18933452408E+04  0.42484696434E+04  0.38032536216E+04 0.  0.
        2    1    3    3  502    0  0.13382470094E+04 -0.10080891796E+04  0.58084443968E+02  0.16764613490E+04  0.25500000920E-02 0. -1.
       -2    1    3    3    0  502 -0.13382470094E+04  0.10080891796E+04 -0.19514296847E+04  0.25720082944E+04  0.25500000920E-02 0.  1.
</event>
<event>
 5   0  0.3889225E-08  0.3804318E+04  0.7818609E-02  0.8045229E-01
       -1   -1    0    0    0  501  0.00000000000E+00  0.00000000000E+00  0.15744091703E+04  0.15744091703E+04  0.50400001928E-02 0.  1.
        1   -1    0    0  501    0  0.00000000000E+00  0.00000000000E+00 -0.22981377794E+04  0.22981377794E+04  0.50400001928E-02 0. -1.
    10030    2    1    2    0    0  0.00000000000E+00  0.00000000000E+00 -0.72372860915E+03  0.38725469497E+04  0.38043181752E+04 0.  0.
        5    1    3    3  502    0 -0.11314937644E+04  0.13805363585E+03 -0.19119517636E+04  0.22259646407E+04  0.46999998093E+01 0. -1.
       -5    1    3    3    0  502  0.11314937644E+04 -0.13805363585E+03  0.11882231545E+04  0.16465823090E+04  0.46999998093E+01 0.  1.
</event>
<event>
 5   0  0.3701250E-08  0.3805268E+04  0.7818609E-02  0.8045025E-01
       -1   -1    0    0    0  501  0.00000000000E+00  0.00000000000E+00  0.15134844800E+04  0.15134844800E+04  0.50400001928E-02 0. -1.
        1   -1    0    0  501    0  0.00000000000E+00  0.00000000000E+00 -0.23918425672E+04  0.23918425672E+04  0.50400001928E-02 0.  1.
    10030    2    1    2    0    0  0.00000000000E+00  0.00000000000E+00 -0.87835808724E+03  0.39053270472E+04  0.38052682450E+04 0.  0.
        4    1    3    3  502    0  0.80994499042E+03  0.78926220001E+02 -0.22042195691E+04  0.23496437511E+04  0.12699999809E+01 0.  1.
       -4    1    3    3    0  502 -0.80994499042E+03 -0.78926220001E+02  0.13258614818E+04  0.15556832960E+04  0.12699999809E+01 0. -1.
</event>
<event>
 5   0  0.3701250E-08  0.3797053E+04  0.7818609E-02  0.8046788E-01
       -1   -1    0    0    0  501  0.00000000000E+00  0.00000000000E+00  0.22456355429E+04  0.22456355430E+04  0.50400001928E-02 0. -1.
        1   -1    0    0  501    0  0.00000000000E+00  0.00000000000E+00 -0.16050705913E+04  0.16050705913E+04  0.50400001928E-02 0.  1.
    10030    2    1    2    0    0  0.00000000000E+00  0.00000000000E+00  0.64056495161E+03  0.38507061343E+04  0.37970533675E+04 0.  0.
        3    1    3    3  502    0 -0.26039498395E+03  0.18152839905E+04  0.81848987109E+03  0.20082298656E+04  0.10100000352E+00 0.  1.
       -3    1    3    3    0  502  0.26039498395E+03 -0.18152839905E+04 -0.17792491947E+03  0.18424762687E+04  0.10100000352E+00 0. -1.
</event>
<event>
 5   0  0.3701250E-08  0.3833872E+04  0.7818609E-02  0.8038925E-01
       -3   -1    0    0    0  501  0.00000000000E+00  0.00000000000E+00  0.13752371676E+04  0.13752371713E+04  0.10100000352E+00 0.  1.
        3   -1    0    0  501    0  0.00000000000E+00  0.00000000000E+00 -0.26720074119E+04  0.26720074138E+04  0.10100000352E+00 0. -1.
    10030    2    1    2    0    0  0.00000000000E+00  0.00000000000E+00 -0.12967702443E+04  0.40472445851E+04  0.38338721503E+04 0.  0.
        3    1    3    3  502    0 -0.22242034059E+03 -0.12108874405E+04  0.90271764448E+03  0.15266362885E+04  0.10100000352E+00 0.  1.
       -3    1    3    3    0  502  0.22242034059E+03  0.12108874405E+04 -0.21994878888E+04  0.25206082965E+04  0.10100000352E+00 0. -1.
</event>
<event>
 5   0  0.3701250E-08  0.3680140E+04  0.7818609E-02  0.8072377E-01
       -1   -1    0    0    0  501  0.00000000000E+00  0.00000000000E+00  0.18088659018E+04  0.18088659018E+04  0.50400001928E-02 0.  1.
        1   -1    0    0  501    0  0.00000000000E+00  0.00000000000E+00 -0.18718127947E+04  0.18718127947E+04  0.50400001928E-02 0. -1.
    10030    2    1    2    0    0  0.00000000000E+00  0.00000000000E+00 -0.62946892827E+02  0.36806786965E+04  0.36801403989E+04 0.  0.
        4    1    3    3  502    0  0.86727516549E+03  0.11858071128E+03  0.15872901359E+04  0.18126552861E+04  0.12699999809E+01 0.  1.
       -4    1    3    3    0  502 -0.86727516549E+03 -0.11858071128E+03 -0.16502370288E+04  0.18680234104E+04  0.12699999809E+01 0. -1.
</event>
<event>
 5   0  0.3701250E-08  0.3804293E+04  0.7818609E-02  0.8045234E-01
       -1   -1    0    0    0  501  0.00000000000E+00  0.00000000000E+00  0.12416386693E+04  0.12416386693E+04  0.50400001928E-02 0.  1.
        1   -1    0    0  501    0  0.00000000000E+00  0.00000000000E+00 -0.29140215642E+04  0.29140215642E+04  0.50400001928E-02 0. -1.
    10030    2    1    2    0    0  0.00000000000E+00  0.00000000000E+00 -0.16723828949E+04  0.41556602335E+04  0.38042932890E+04 0.  0.
        2    1    3    3  502    0  0.14433143881E+04  0.55050745132E+03  0.37625356131E+03  0.15898998771E+04  0.25500000920E-02 0.  1.
       -2    1    3    3    0  502 -0.14433143881E+04 -0.55050745132E+03 -0.20486364562E+04  0.25657603564E+04  0.25500000920E-02 0. -1.
</event>
<event>
 5   0  0.1143283E-07  0.3795808E+04  0.7818609E-02  0.8047055E-01
       -2   -1    0    0    0  501  0.00000000000E+00  0.00000000000E+00  0.14309864186E+04  0.14309864186E+04  0.25500000920E-02 0.  1.
        2   -1    0    0  501    0  0.00000000000E+00  0.00000000000E+00 -0.25171725986E+04  0.25171725986E+04  0.25500000920E-02 0. -1.
    10030    2    1    2    0    0  0.00000000000E+00  0.00000000000E+00 -0.10861861799E+04  0.39481590172E+04  0.37958081100E+04 0.  0.
        1    1    3    3  502    0  0.11196240091E+04 -0.13563184815E+04 -0.12850846338E+04  0.21782103344E+04  0.50400001928E-02 0. -1.
       -1    1    3    3    0  502 -0.11196240091E+04  0.13563184815E+04  0.19889845382E+03  0.17699486828E+04  0.50400001928E-02 0.  1.
</event>
<event>
 5   0  0.7858367E-08  0.3795899E+04  0.7818609E-02  0.8047036E-01
        2   -1    0    0  501    0  0.00000000000E+00  0.00000000000E+00  0.18332536193E+04  0.18332536193E+04  0.25500000920E-02 0.  1.
       -2   -1    0    0    0  501  0.00000000000E+00  0.00000000000E+00 -0.19649280618E+04  0.19649280618E+04  0.25500000920E-02 0. -1.
    10030    2    1    2    0    0  0.00000000000E+00  0.00000000000E+00 -0.13167444253E+03  0.37981816812E+04  0.37958985661E+04 0.  0.
        2    1    3    3  502    0  0.16143364375E+04  0.62839892865E+03  0.71002849572E+03  0.18721933158E+04  0.25500000920E-02 0.  1.
       -2    1    3    3    0  502 -0.16143364375E+04 -0.62839892865E+03 -0.84170293825E+03  0.19259883653E+04  0.25500000920E-02 0. -1.
</event>
<event>
 5   0  0.1193861E-07  0.3834934E+04  0.7818609E-02  0.8038699E-01
        2   -1    0    0  501    0  0.00000000000E+00  0.00000000000E+00  0.19365013828E+04  0.19365013828E+04  0.25500000920E-02 0. -1.
       -2   -1    0    0    0  501  0.00000000000E+00  0.00000000000E+00 -0.18986197446E+04  0.18986197446E+04  0.25500000920E-02 0.  1.
    10030    2    1    2    0    0  0.00000000000E+00  0.00000000000E+00  0.37881638189E+02  0.38351211274E+04  0.38349340338E+04 0.  0.
        3    1    3    3  502    0  0.99480898435E+03 -0.15334492953E+04  0.59825147608E+03  0.19232827394E+04  0.10100000352E+00 0. -1.
       -3    1    3    3    0  502 -0.99480898435E+03  0.15334492953E+04 -0.56036983789E+03  0.19118383881E+04  0.10100000352E+00 0.  1.
</event>
<event>
 5   0  0.1193861E-07  0.3796964E+04  0.7818609E-02  0.8046807E-01
        2   -1    0    0  501    0  0.00000000000E+00  0.00000000000E+00  0.20999741632E+04  0.20999741632E+04  0.25500000920E-02 0. -1.
       -2   -1    0    0    0  501  0.00000000000E+00  0.00000000000E+00 -0.17163225679E+04  0.17163225679E+04  0.25500000920E-02 0.  1.
    10030    2    1    2    0    0  0.00000000000E+00  0.00000000000E+00  0.38365159529E+03  0.38162967310E+04  0.37969635490E+04 0.  0.
        3    1    3    3  502    0 -0.11768070145E+04 -0.81114127713E+03  0.14477514291E+04  0.20344063339E+04  0.10100000352E+00 0. -1.
       -3    1    3    3    0  502  0.11768070145E+04  0.81114127713E+03 -0.10640998338E+04  0.17818903971E+04  0.10100000352E+00 0.  1.
</event>
<event>
 5   0  0.3701250E-08  0.3800996E+04  0.7818609E-02  0.8045941E-01
        1   -1    0    0  501    0  0.00000000000E+00  0.00000000000E+00  0.24994326970E+04  0.24994326970E+04  0.50400001928E-02 0.  1.
       -1   -1    0    0    0  501  0.00000000000E+00  0.00000000000E+00 -0.14450850857E+04  0.14450850857E+04  0.50400001928E-02 0. -1.
    10030    2    1    2    0    0  0.00000000000E+00  0.00000000000E+00  0.10543476113E+04  0.39445177827E+04  0.38009961395E+04 0.  0.
        3    1    3    3  502    0 -0.42171650327E+03  0.13503266009E+04  0.18442146923E+04  0.23242965774E+04  0.10100000352E+00 0.  1.
       -3    1    3    3    0  502  0.42171650327E+03 -0.13503266009E+04 -0.78986708102E+03  0.16202212053E+04  0.10100000352E+00 0. -1.
</event>
<event>
 5   0  0.3701250E-08  0.3806617E+04  0.7818609E-02  0.8044736E-01
        1   -1    0    0  501    0  0.00000000000E+00  0.00000000000E+00  0.29634179850E+04  0.29634179850E+04  0.50400001928E-02 0.  1.
       -1   -1    0    0    0  501  0.00000000000E+00  0.00000000000E+00 -0.12224343482E+04  0.12224343482E+04  0.50400001928E-02 0. -1.
    10030    2    1    2    0    0  0.00000000000E+00  0.00000000000E+00  0.17409836368E+04  0.41858523331E+04  0.38066173607E+04 0.  0.
        2    1    3    3  502    0 -0.15517900890E+03 -0.16082722218E+04 -0.23569169844E+03  0.16328412785E+04  0.25500000920E-02 0. -1.
       -2    1    3    3    0  502  0.15517900890E+03  0.16082722218E+04  0.19766753352E+04  0.25530110546E+04  0.25500000920E-02 0.  1.
</event>
<event>
 5   0  0.3701250E-08  0.3790301E+04  0.7818609E-02  0.8048239E-01
        1   -1    0    0  501    0  0.00000000000E+00  0.00000000000E+00  0.15012468845E+04  0.15012468845E+04  0.50400001928E-02 0. -1.
       -1   -1    0    0    0  501  0.00000000000E+00  0.00000000000E+00 -0.23924080526E+04  0.23924080526E+04  0.50400001928E-02 0.  1.
    10030    2    1    2    0    0  0.00000000000E+00  0.00000000000E+00 -0.89116116814E+03  0.38936549371E+04  0.37903008511E+04 0.  0.
        3    1    3    3  502    0  0.17257490256E+04  0.65280704183E+03 -0.89007840010E+03  0.20485620083E+04  0.10100000352E+00 0.  1.
       -3    1    3    3    0  502 -0.17257490256E+04 -0.65280704183E+03 -0.10827680421E+01  0.18450929288E+04  0.10100000352E+00 0. -1.
</event>
<event>
 5   0  0.7858367E-08  0.3798353E+04  0.7818609E-02  0.8046508E-01
        2   -1    0    0  501    0  0.00000000000E+00  0.00000000000E+00  0.15412176427E+04  0.15412176427E+04  0.25500000920E-02 0.  1.
       -2   -1    0    0    0  501  0.00000000000E+00  0.00000000000E+00 -0.23402738670E+04  0.23402738670E+04  0.25500000920E-02 0. -1.
    10030    2    1    2    0    0  0.00000000000E+00  0.00000000000E+00 -0.79905622429E+03  0.38814915098E+04  0.37983529971E+04 0.  0.
        2    1    3    3  502    0 -0.80426322540E+03 -0.15052040033E+04 -0.12510699047E+04  0.21160468648E+04  0.25500000920E-02 0. -1.
       -2    1    3    3    0  502  0.80426322540E+03  0.15052040033E+04  0.45201368045E+03  0.17654446450E+04  0.25500000920E-02 0.  1.
</event>
<event>
 5   0  0.1150235E-07  0.3922535E+04  0.7818609E-02  0.8020359E-01
        2   -1    0    0  501    0  0.00000000000E+00  0.00000000000E+00  0.20727785315E+04  0.20727785315E+04  0.25500000920E-02 0.  1.
       -2   -1    0    0    0  501  0.00000000000E+00  0.00000000000E+00 -0.18557552041E+04  0.18557552041E+04  0.25500000920E-02 0. -1.
    10030    2    1    2    0    0  0.00000000000E+00  0.00000000000E+00  0.21702332740E+03  0.39285337356E+04  0.39225346636E+04 0.  0.
        4    1    3    3  502    0  0.17664259401E+04  0.12976111167E+03 -0.73507659579E+03  0.19176646637E+04  0.12699999809E+01 0. -1.
       -4    1    3    3    0  502 -0.17664259401E+04 -0.12976111167E+03  0.95209992319E+03  0.20108690719E+04  0.12699999809E+01 0.  1.
</event>
<event>
 5   0  0.1150235E-07  0.3852574E+04  0.7818609E-02  0.8034966E-01
        2   -1    0    0  501    0  0.00000000000E+00  0.00000000000E+00  0.13452543167E+04  0.13452543167E+04  0.25500000920E-02 0.  1.
       -2   -1    0    0    0  501  0.00000000000E+00  0.00000000000E+00 -0.27582755989E+04  0.27582755989E+04  0.25500000920E-02 0. -1.
    10030    2    1    2    0    0  0.00000000000E+00  0.00000000000E+00 -0.14130212822E+04  0.41035299156E+04  0.38525742853E+04 0.  0.
        4    1    3    3  502    0 -0.78867732075E+03  0.67331666504E+03  0.10225668961E+04  0.14563694303E+04  0.12699999809E+01 0.  1.
       -4    1    3    3    0  502  0.78867732075E+03 -0.67331666504E+03 -0.24355881783E+04  0.26471604853E+04  0.12699999809E+01 0. -1.
</event>
<event>
 5   0  0.1193861E-07  0.3797434E+04  0.7818609E-02  0.8046706E-01
        2   -1    0    0  501    0  0.00000000000E+00  0.00000000000E+00  0.20619394551E+04  0.20619394551E+04  0.25500000920E-02 0. -1.
       -2   -1    0    0    0  501  0.00000000000E+00  0.00000000000E+00 -0.17484153538E+04  0.17484153538E+04  0.25500000920E-02 0.  1.
    10030    2    1    2    0    0  0.00000000000E+00  0.00000000000E+00  0.31352410135E+03  0.38103548089E+04  0.37974341874E+04 0.  0.
        3    1    3    3  502    0 -0.20148856006E+03 -0.17552342368E+04 -0.54107657090E+03  0.18477577578E+04  0.10100000352E+00 0. -1.
       -3    1    3    3    0  502  0.20148856006E+03  0.17552342368E+04  0.85460067225E+03  0.19625970511E+04  0.10100000352E+00 0.  1.
</event>
<event>
 5   0  0.3701250E-08  0.3793089E+04  0.7818609E-02  0.8047640E-01
       -1   -1    0    0    0  501  0.00000000000E+00  0.00000000000E+00  0.24974851870E+04  0.24974851870E+04  0.50400001928E-02 0.  1.
        1   -1    0    0  501    0  0.00000000000E+00  0.00000000000E+00 -0.14402010249E+04  0.14402010249E+04  0.50400001928E-02 0. -1.
    10030    2    1    2    0    0  0.00000000000E+00  0.00000000000E+00  0.10572841621E+04  0.39376862119E+04  0.37930888342E+04 0.  0.
        2    1    3    3  502    0 -0.13402984417E+04  0.75894550857E+03  0.16773890732E+04  0.22772861702E+04  0.25500000920E-02 0.  1.
       -2    1    3    3    0  502  0.13402984417E+04 -0.75894550857E+03 -0.62010491114E+03  0.16604000418E+04  0.25500000920E-02 0. -1.
</event>
<event>
 5   0  0.1143283E-07  0.3808838E+04  0.7818609E-02  0.8044261E-01
       -2   -1    0    0    0  501  0.00000000000E+00  0.00000000000E+00  0.27821902588E+04  0.27821902588E+04  0.25500000920E-02 0. -1.
        2   -1    0    0  501    0  0.00000000000E+00  0.00000000000E+00 -0.13035812172E+04  0.13035812172E+04  0.25500000920E-02 0.  1.
    10030    2    1    2    0    0  0.00000000000E+00  0.00000000000E+00  0.14786090416E+04  0.40857714760E+04  0.38088375991E+04 0.  0.
        1    1    3    3  502    0 -0.10136565876E+04  0.34153012277E+03  0.24295157401E+04  0.26545600829E+04  0.50400001928E-02 0. -1.
       -1    1    3    3    0  502  0.10136565876E+04 -0.34153012277E+03 -0.95090669850E+03  0.14312113931E+04  0.50400001928E-02 0.  1.
</event>
<event>
 5   0  0.3701250E-08  0.3808034E+04  0.7818609E-02  0.8044433E-01
        1   -1    0    0  501    0  0.00000000000E+00  0.00000000000E+00  0.16969332869E+04  0.16969332869E+04  0.50400001928E-02 0. -1.
       -1   -1    0    0    0  501  0.00000000000E+00  0.00000000000E+00 -0.21363721785E+04  0.21363721785E+04  0.50400001928E-02 0.  1.
    10030    2    1    2    0    0  0.00000000000E+00  0.00000000000E+00 -0.43943889160E+03  0.38333054654E+04  0.38080341715E+04 0.  0.
        2    1    3    3  502    0 -0.70781552824E+03  0.16000155991E+04  0.53641675895E+03  0.18299714967E+04  0.25500000920E-02 0. -1.
       -2    1    3    3    0  502  0.70781552824E+03 -0.16000155991E+04 -0.97585565055E+03  0.20033339687E+04  0.25500000920E-02 0.  1.
</event>
<event>
 5   0  0.1174870E-07  0.3775854E+04  0.7818609E-02  0.8051356E-01
       -2   -1    0    0    0  501  0.00000000000E+00  0.00000000000E+00  0.17112119413E+04  0.17112119413E+04  0.25500000920E-02 0.  1.
        2   -1    0    0  501    0  0.00000000000E+00  0.00000000000E+00 -0.20828913933E+04  0.20828913933E+04  0.25500000920E-02 0. -1.
    10030    2    1    2    0    0  0.00000000000E+00  0.00000000000E+00 -0.37167945202E+03  0.37941033346E+04  0.37758541416E+04 0.  0.
        5    1    3    3  502    0  0.11080756756E+03  0.18682754837E+04 -0.43506049339E+03  0.19214659307E+04  0.46999998093E+01 0. -1.
       -5    1    3    3    0  502 -0.11080756756E+03 -0.18682754837E+04  0.63381041374E+02  0.18726374039E+04  0.46999998093E+01 0.  1.
</event>
<event>
 5   0  0.1143283E-07  0.3774757E+04  0.7818609E-02  0.8051594E-01
        2   -1    0    0  501    0  0.00000000000E+00  0.00000000000E+00  0.17405085017E+04  0.17405085017E+04  0.25500000920E-02 0.  1.
       -2   -1    0    0    0  501  0.00000000000E+00  0.00000000000E+00 -0.20466416555E+04  0.20466416555E+04  0.25500000920E-02 0. -1.
    10030    2    1    2    0    0  0.00000000000E+00  0.00000000000E+00 -0.30613315381E+03  0.37871501572E+04  0.37747567876E+04 0.  0.
        1    1    3    3  502    0  0.15519468988E+04 -0.30209647926E+03  0.88104335877E+03  0.18099831103E+04  0.50400001928E-02 0. -1.
       -1    1    3    3    0  502 -0.15519468988E+04  0.30209647926E+03 -0.11871765126E+04  0.19771670469E+04  0.50400001928E-02 0.  1.
</event>
<event>
 5   0  0.3701250E-08  0.3782801E+04  0.7818609E-02  0.8049856E-01
       -1   -1    0    0    0  501  0.00000000000E+00  0.00000000000E+00  0.15134078948E+04  0.15134078948E+04  0.50400001928E-02 0.  1.
        1   -1    0    0  501    0  0.00000000000E+00  0.00000000000E+00 -0.23638013827E+04  0.23638013827E+04  0.50400001928E-02 0. -1.
    10030    2    1    2    0    0  0.00000000000E+00  0.00000000000E+00 -0.85039348794E+03  0.38772092775E+04  0.37828009064E+04 0.  0.
        2    1    3    3  502    0 -0.97530734993E+03  0.72409889780E+03  0.10607622621E+04  0.16126872658E+04  0.25500000920E-02 0.  1.
       -2    1    3    3    0  502  0.97530734993E+03 -0.72409889780E+03 -0.19111557500E+04  0.22645220117E+04  0.25500000920E-02 0. -1.
</event>
<event>
 5   0  0.1174870E-07  0.3825920E+04  0.7818609E-02  0.8040615E-01
        2   -1    0    0  501    0  0.00000000000E+00  0.00000000000E+00  0.28430219268E+04  0.28430219268E+04  0.25500000920E-02 0. -1.
       -2   -1    0    0    0  501  0.00000000000E+00  0.00000000000E+00 -0.12871571402E+04  0.12871571402E+04  0.25500000920E-02 0.  1.
    10030    2    1    2    0    0  0.00000000000E+00  0.00000000000E+00  0.15558647867E+04  0.41301790670E+04  0.38259200059E+04 0.  0.
        5    1    3    3  502    0  0.64015530157E+03  0.16333149988E+04  0.16014040608E+04  0.23752965607E+04  0.46999998093E+01 0.  1.
       -5    1    3    3    0  502 -0.64015530157E+03 -0.16333149988E+04 -0.45539274106E+02  0.17548825063E+04  0.46999998093E+01 0. -1.
</event>
<event>
 5   0  0.3889225E-08  0.3802414E+04  0.7818609E-02  0.8045637E-01
       -1   -1    0    0    0  501  0.00000000000E+00  0.00000000000E+00  0.13660378215E+04  0.13660378215E+04  0.50400001928E-02 0. -1.
        1   -1    0    0  501    0  0.00000000000E+00  0.00000000000E+00 -0.26460378145E+04  0.26460378145E+04  0.50400001928E-02 0.  1.
    10030    2    1    2    0    0  0.00000000000E+00  0.00000000000E+00 -0.12799999931E+04  0.40120756360E+04  0.38024138290E+04 0.  0.
        5    1    3    3  502    0 -0.12066136092E+04 -0.12411617114E+04  0.18958824050E+03  0.17413685959E+04  0.46999998093E+01 0. -1.
       -5    1    3    3    0  502  0.12066136092E+04  0.12411617114E+04 -0.14695882336E+04  0.22707070401E+04  0.46999998093E+01 0.  1.
</event>
<event>
 5   0  0.7858367E-08  0.3760633E+04  0.7818609E-02  0.8054656E-01
       -2   -1    0    0    0  501  0.00000000000E+00  0.00000000000E+00  0.11670595831E+04  0.11670595831E+04  0.25500000920E-02 0.  1.
        2   -1    0    0  501    0  0.00000000000E+00  0.00000000000E+00 -0.30294855310E+04  0.30294855310E+04  0.25500000920E-02 0. -1.
    10030    2    1    2    0    0  0.00000000000E+00  0.00000000000E+00 -0.18624259479E+04  0.41965451141E+04  0.37606329897E+04 0.  0.
        2    1    3    3  502    0  0.13244966342E+03  0.96398498176E+03 -0.27266845355E+04  0.28951025050E+04  0.25500000920E-02 0. -1.
       -2    1    3    3    0  502 -0.13244966342E+03 -0.96398498176E+03  0.86425858761E+03  0.13014426090E+04  0.25500000920E-02 0.  1.
</event>
<event>
 5   0  0.7858367E-08  0.3801302E+04  0.7818609E-02  0.8045876E-01
        2   -1    0    0  501    0  0.00000000000E+00  0.00000000000E+00  0.10723254721E+04  0.10723254722E+04  0.25500000920E-02 0.  1.
       -2   -1    0    0    0  501  0.00000000000E+00  0.00000000000E+00 -0.33688226902E+04  0.33688226902E+04  0.25500000920E-02 0. -1.
    10030    2    1    2    0    0  0.00000000000E+00  0.00000000000E+00 -0.22964972181E+04  0.44411481624E+04  0.38013020832E+04 0.  0.
        2    1    3    3  502    0 -0.12928968220E+04 -0.12810798553E+04 -0.17878737381E+04  0.25513212834E+04  0.25500000920E-02 0.  1.
       -2    1    3    3    0  502  0.12928968220E+04  0.12810798553E+04 -0.50862347998E+03  0.18898268789E+04  0.25500000920E-02 0. -1.
</event>
<event>
 5   0  0.3701250E-08  0.3803033E+04  0.7818609E-02  0.8045504E-01
       -1   -1    0    0    0  501  0.00000000000E+00  0.00000000000E+00  0.29743226209E+04  0.29743226209E+04  0.50400001928E-02 0.  1.
        1   -1    0    0  501    0  0.00000000000E+00  0.00000000000E+00 -0.12156596896E+04  0.12156596896E+04  0.50400001928E-02 0. -1.
    10030    2    1    2    0    0  0.00000000000E+00  0.00000000000E+00  0.17586629313E+04  0.41899823105E+04  0.38030325343E+04 0.  0.
        3    1    3    3  502    0 -0.87029381211E+03  0.14531203275E+04  0.18314315142E+04  0.24946164850E+04  0.10100000352E+00 0.  1.
       -3    1    3    3    0  502  0.87029381211E+03 -0.14531203275E+04 -0.72768582873E+02  0.16953658256E+04  0.10100000352E+00 0. -1.
</event>
<event>
 5   0  0.1150235E-07  0.3842233E+04  0.7818609E-02  0.8037152E-01
       -2   -1    0    0    0  501  0.00000000000E+00  0.00000000000E+00  0.14174106955E+04  0.14174106955E+04  0.25500000920E-02 0. -1.
        2   -1    0    0  501    0  0.00000000000E+00  0.00000000000E+00 -0.26038245450E+04  0.26038245450E+04  0.25500000920E-02 0.  1.
    10030    2    1    2    0    0  0.00000000000E+00  0.00000000000E+00 -0.11864138494E+04  0.40212352405E+04  0.38422330795E+04 0.  0.
        4    1    3    3  502    0  0.24682968641E+03  0.10535374384E+04  0.10681411360E+04  0.15204581966E+04  0.12699999809E+01 0. -1.
       -4    1    3    3    0  502 -0.24682968641E+03 -0.10535374384E+04 -0.22545549855E+04  0.25007770439E+04  0.12699999809E+01 0.  1.
</event>
<event>
 5   0  0.3701250E-08  0.3688041E+04  0.7818609E-02  0.8070617E-01
        1   -1    0    0  501    0  0.00000000000E+00  0.00000000000E+00  0.16703727189E+04  0.16703727189E+04  0.50400001928E-02 0.  1.
       -1   -1    0    0    0  501  0.00000000000E+00  0.00000000000E+00 -0.20357201401E+04  0.20357201401E+04  0.50400001928E-02 0. -1.
    10030    2    1    2    0    0  0.00000000000E+00  0.00000000000E+00 -0.36534742112E+03  0.37060928590E+04  0.36880408812E+04 0.  0.
        4    1    3    3  502    0  0.17462905184E+04 -0.13533449282E+03 -0.76217984762E+03  0.19101742676E+04  0.12699999809E+01 0.  1.
       -4    1    3    3    0  502 -0.17462905184E+04  0.13533449282E+03  0.39683242650E+03  0.17959185914E+04  0.12699999809E+01 0. -1.
</event>
<event>
 5   0  0.7858367E-08  0.3937667E+04  0.7818609E-02  0.8017240E-01
        2   -1    0    0  501    0  0.00000000000E+00  0.00000000000E+00  0.18493715737E+04  0.18493715737E+04  0.25500000920E-02 0.  1.
       -2   -1    0    0    0  501  0.00000000000E+00  0.00000000000E+00 -0.20960125750E+04  0.20960125750E+04  0.25500000920E-02 0. -1.
    10030    2    1    2    0    0  0.00000000000E+00  0.00000000000E+00 -0.24664100134E+03  0.39453841487E+04  0.39376673675E+04 0.  0.
        2    1    3    3  502    0  0.12273604670E+04 -0.11253830870E+04  0.92916905524E+03  0.19068969405E+04  0.25500000920E-02 0. -1.
       -2    1    3    3    0  502 -0.12273604670E+04  0.11253830870E+04 -0.11758100566E+04  0.20384872081E+04  0.25500000920E-02 0.  1.
</event>
<event>
 5   0  0.3701250E-08  0.3815331E+04  0.7818609E-02  0.8042873E-01
       -1   -1    0    0    0  501  0.00000000000E+00  0.00000000000E+00  0.15105679187E+04  0.15105679187E+04  0.50400001928E-02 0. -1.
        1   -1    0    0  501    0  0.00000000000E+00  0.00000000000E+00 -0.24091523601E+04  0.24091523601E+04  0.50400001928E-02 0.  1.
    10030    2    1    2    0    0  0.00000000000E+00  0.00000000000E+00 -0.89858444138E+03  0.39197202787E+04  0.38153313179E+04 0.  0.
        3    1    3    3  502    0  0.16359437153E+04 -0.88246329766E+03 -0.84421383781E+01  0.18587965438E+04  0.10100000352E+00 0. -1.
       -3    1    3    3    0  502 -0.16359437153E+04  0.88246329766E+03 -0.89014230300E+03  0.20609237349E+04  0.10100000352E+00 0.  1.
</event>
<event>
 5   0  0.1143283E-07  0.3810235E+04  0.7818609E-02  0.8043962E-01
        2   -1    0    0  501    0  0.00000000000E+00  0.00000000000E+00  0.10758951672E+04  0.10758951672E+04  0.25500000920E-02 0. -1.
       -2   -1    0    0    0  501  0.00000000000E+00  0.00000000000E+00 -0.33734454304E+04  0.33734454304E+04  0.25500000920E-02 0.  1.
    10030    2    1    2    0    0  0.00000000000E+00  0.00000000000E+00 -0.22975502632E+04  0.44493405976E+04  0.38102354968E+04 0.  0.
        1    1    3    3  502    0  0.17300395583E+04 -0.70317717696E+03 -0.70877246461E+03  0.19974617448E+04  0.50400001928E-02 0. -1.
       -1    1    3    3    0  502 -0.17300395583E+04  0.70317717696E+03 -0.15887777986E+04  0.24518788528E+04  0.50400001928E-02 0.  1.
</event>
<event>
 5   0  0.1174870E-07  0.3790370E+04  0.7818609E-02  0.8048225E-01
       -2   -1    0    0    0  501  0.00000000000E+00  0.00000000000E+00  0.12975850951E+04  0.12975850951E+04  0.25500000920E-02 0.  1.
        2   -1    0    0  501    0  0.00000000000E+00  0.00000000000E+00 -0.27680084540E+04  0.27680084540E+04  0.25500000920E-02 0. -1.
    10030    2    1    2    0    0  0.00000000000E+00  0.00000000000E+00 -0.14704233589E+04  0.40655935490E+04  0.37903701734E+04 0.  0.
        5    1    3    3  502    0 -0.61861003720E+01  0.99120317084E+03 -0.24677967001E+04  0.26594293817E+04  0.46999998093E+01 0. -1.
       -5    1    3    3    0  502  0.61861003720E+01 -0.99120317084E+03  0.99737334115E+03  0.14061641673E+04  0.46999998093E+01 0.  1.
</event>
<event>
 5   0  0.3701250E-08  0.3610596E+04  0.7818609E-02  0.8088069E-01
        1   -1    0    0  501    0  0.00000000000E+00  0.00000000000E+00  0.18242118135E+04  0.18242118135E+04  0.50400001928E-02 0.  1.
       -1   -1    0    0    0  501  0.00000000000E+00  0.00000000000E+00 -0.17865803376E+04  0.17865803376E+04  0.50400001928E-02 0. -1.
    10030    2    1    2    0    0  0.00000000000E+00  0.00000000000E+00  0.37631475880E+02  0.36107921511E+04  0.36105960492E+04 0.  0.
        1    1    3    3  502    0  0.85668907684E+03  0.66521002346E+03  0.14620435948E+04  0.18204373164E+04  0.50400001928E-02 0.  1.
       -1    1    3    3    0  502 -0.85668907684E+03 -0.66521002346E+03 -0.14244121190E+04  0.17903548348E+04  0.50400001928E-02 0. -1.
</event>
<event>
 5   0  0.3701250E-08  0.3807709E+04  0.7818609E-02  0.8044503E-01
       -1   -1    0    0    0  501  0.00000000000E+00  0.00000000000E+00  0.17927654640E+04  0.17927654640E+04  0.50400001928E-02 0.  1.
        1   -1    0    0  501    0  0.00000000000E+00  0.00000000000E+00 -0.20218274830E+04  0.20218274830E+04  0.50400001928E-02 0. -1.
    10030    2    1    2    0    0  0.00000000000E+00  0.00000000000E+00 -0.22906201902E+03  0.38145929470E+04  0.38077092776E+04 0.  0.
        2    1    3    3  502    0  0.40554379238E+02  0.35326122418E+03 -0.19882663479E+04  0.20198121746E+04  0.25500000920E-02 0. -1.
       -2    1    3    3    0  502 -0.40554379238E+02 -0.35326122418E+03  0.17592043289E+04  0.17947807724E+04  0.25500000920E-02 0.  1.
</event>
<event>
 5   0  0.3701250E-08  0.3778083E+04  0.7818609E-02  0.8050875E-01
       -1   -1    0    0    0  501  0.00000000000E+00  0.00000000000E+00  0.15285343892E+04  0.15285343892E+04  0.50400001928E-02 0. -1.
        1   -1    0    0  501    0  0.00000000000E+00  0.00000000000E+00 -0.23345743976E+04  0.23345743976E+04  0.50400001928E-02 0.  1.
    10030    2    1    2    0    0  0.00000000000E+00  0.00000000000E+00 -0.80604000835E+03  0.38631087868E+04  0.37780827153E+04 0.  0.
        4    1    3    3  502    0  0.76912777332E+03 -0.53846663047E+03 -0.20791088276E+04  0.22812713503E+04  0.12699999809E+01 0.  1.
       -4    1    3    3    0  502 -0.76912777332E+03  0.53846663047E+03  0.12730688193E+04  0.15818374364E+04  0.12699999809E+01 0. -1.
</event>
<event>
 5   0  0.7858367E-08  0.3816739E+04  0.7818609E-02  0.8042572E-01
       -2   -1    0    0    0  501  0.00000000000E+00  0.00000000000E+00  0.13566217417E+04  0.13566217417E+04  0.25500000920E-02 0. -1.
        2   -1    0    0  501    0  0.00000000000E+00  0.00000000000E+00 -0.26845174162E+04  0.26845174162E+04  0.25500000920E-02 0.  1.
    10030    2    1    2    0    0  0.00000000000E+00  0.00000000000E+00 -0.13278956745E+04  0.40411391579E+04  0.38167392852E+04 0.  0.
        2    1    3    3  502    0 -0.62487943261E+03 -0.10223327328E+04  0.90872110758E+03  0.15037993793E+04  0.25500000920E-02 0. -1.
       -2    1    3    3    0  502  0.62487943261E+03  0.10223327328E+04 -0.22366167821E+04  0.25373397785E+04  0.25500000920E-02 0.  1.
</event>
<event>
 5   0  0.7858367E-08  0.3796897E+04  0.7818609E-02  0.8046821E-01
       -2   -1    0    0    0  501  0.00000000000E+00  0.00000000000E+00  0.20340154613E+04  0.20340154613E+04  0.25500000920E-02 0. -1.
        2   -1    0    0  501    0  0.00000000000E+00  0.00000000000E+00 -0.17719170232E+04  0.17719170232E+04  0.25500000920E-02 0.  1.
    10030    2    1    2    0    0  0.00000000000E+00  0.00000000000E+00  0.26209843806E+03  0.38059324845E+04  0.37968969548E+04 0.  0.
        2    1    3    3  502    0  0.25588645147E+01  0.18334088902E+04 -0.36278117637E+03  0.18689582361E+04  0.25500000920E-02 0.  1.
       -2    1    3    3    0  502 -0.25588645147E+01 -0.18334088902E+04  0.62487961443E+03  0.19369742484E+04  0.25500000920E-02 0. -1.
</event>
<event>
 5   0  0.1150235E-07  0.3800315E+04  0.7818609E-02  0.8046087E-01
        2   -1    0    0  501    0  0.00000000000E+00  0.00000000000E+00  0.26169717366E+04  0.26169717366E+04  0.25500000920E-02 0.  1.
       -2   -1    0    0    0  501  0.00000000000E+00  0.00000000000E+00 -0.13796860368E+04  0.13796860368E+04  0.25500000920E-02 0. -1.
    10030    2    1    2    0    0  0.00000000000E+00  0.00000000000E+00  0.12372856997E+04  0.39966577734E+04  0.38003154415E+04 0.  0.
        4    1    3    3  502    0 -0.79970864983E+03 -0.10747720553E+03 -0.11905605836E+04  0.14382355129E+04  0.12699999809E+01 0. -1.
       -4    1    3    3    0  502  0.79970864983E+03  0.10747720553E+03  0.24278462834E+04  0.25584222605E+04  0.12699999809E+01 0.  1.
</event>
<event>
 5   0  0.1193861E-07  0.3802587E+04  0.7818609E-02  0.8045600E-01
       -2   -1    0    0    0  501  0.00000000000E+00  0.00000000000E+00  0.22505811430E+04  0.22505811430E+04  0.25500000920E-02 0.  1.
        2   -1    0    0  501    0  0.00000000000E+00  0.00000000000E+00 -0.16062149364E+04  0.16062149364E+04  0.25500000920E-02 0. -1.
    10030    2    1    2    0    0  0.00000000000E+00  0.00000000000E+00  0.64436620656E+03  0.38567960794E+04  0.38025870391E+04 0.  0.
        3    1    3    3  502    0 -0.49940204866E+03 -0.14934038487E+03  0.21766943741E+04  0.22382366643E+04  0.10100000352E+00 0.  1.
       -3    1    3    3    0  502  0.49940204866E+03  0.14934038487E+03 -0.15323281676E+04  0.16185594151E+04  0.10100000352E+00 0. -1.
</event>
<event>
 5   0  0.7858367E-08  0.3766120E+04  0.7818609E-02  0.8053465E-01
        2   -1    0    0  501    0  0.00000000000E+00  0.00000000000E+00  0.20835973861E+04  0.20835973861E+04  0.25500000920E-02 0. -1.
       -2   -1    0    0    0  501  0.00000000000E+00  0.00000000000E+00 -0.17018231355E+04  0.17018231355E+04  0.25500000920E-02 0.  1.
    10030    2    1    2    0    0  0.00000000000E+00  0.00000000000E+00  0.38177425063E+03  0.37854205216E+04  0.37661196140E+04 0.  0.
        2    1    3    3  502    0  0.10527583669E+03  0.71643990365E+03  0.19380547088E+04  0.20689188461E+04  0.25500000920E-02 0. -1.
       -2    1    3    3    0  502 -0.10527583669E+03 -0.71643990365E+03 -0.15562804582E+04  0.17165016755E+04  0.25500000920E-02 0.  1.
</event>
<event>
 5   0  0.1150235E-07  0.3795228E+04  0.7818609E-02  0.8047180E-01
       -2   -1    0    0    0  501  0.00000000000E+00  0.00000000000E+00  0.14593422480E+04  0.14593422480E+04  0.25500000920E-02 0.  1.
        2   -1    0    0  501    0  0.00000000000E+00  0.00000000000E+00 -0.24675075437E+04  0.24675075437E+04  0.25500000920E-02 0. -1.
    10030    2    1    2    0    0  0.00000000000E+00  0.00000000000E+00 -0.10081652957E+04  0.39268497918E+04  0.37952275325E+04 0.  0.
        4    1    3    3  502    0 -0.15572523308E+04  0.10225118746E+04 -0.13049110854E+03  0.18675103474E+04  0.12699999809E+01 0. -1.
       -4    1    3    3    0  502  0.15572523308E+04 -0.10225118746E+04 -0.87767418718E+03  0.20593394444E+04  0.12699999809E+01 0.  1.
</event>
<event>
 5   0  0.7858367E-08  0.3850190E+04  0.7818609E-02  0.8035469E-01
       -2   -1    0    0    0  501  0.00000000000E+00  0.00000000000E+00  0.16392758197E+04  0.16392758197E+04  0.25500000920E-02 0. -1.
        2   -1    0    0  501    0  0.00000000000E+00  0.00000000000E+00 -0.22607493344E+04  0.22607493344E+04  0.25500000920E-02 0.  1.
    10030    2    1    2    0    0  0.00000000000E+00  0.00000000000E+00 -0.62147351465E+03  0.39000251541E+04  0.38501904983E+04 0.  0.
        2    1    3    3  502    0  0.18655672812E+04  0.44476950298E+03 -0.14175263284E+03  0.19230847616E+04  0.25500000920E-02 0.  1.
       -2    1    3    3    0  502 -0.18655672812E+04 -0.44476950298E+03 -0.47972088181E+03  0.19769403926E+04  0.25500000920E-02 0. -1.
</event>
<event>
 5   0  0.1150235E-07  0.3796450E+04  0.7818609E-02  0.8046917E-01
        2   -1    0    0  501    0  0.00000000000E+00  0.00000000000E+00  0.11377370532E+04  0.11377370532E+04  0.25500000920E-02 0.  1.
       -2   -1    0    0    0  501  0.00000000000E+00  0.00000000000E+00 -0.31670392284E+04  0.31670392284E+04  0.25500000920E-02 0. -1.
    10030    2    1    2    0    0  0.00000000000E+00  0.00000000000E+00 -0.20293021751E+04  0.43047762816E+04  0.37964498570E+04 0.  0.
        4    1    3    3  502    0  0.74999147259E+03 -0.10727728254E+04  0.54416720234E+03  0.14175501052E+04  0.12699999809E+01 0.  1.
       -4    1    3    3    0  502 -0.74999147259E+03  0.10727728254E+04 -0.25734693775E+04  0.28872261764E+04  0.12699999809E+01 0. -1.
</event>
<event>
 5   0  0.1193861E-07  0.3801461E+04  0.7818609E-02  0.8045841E-01
        2   -1    0    0  501    0  0.00000000000E+00  0.00000000000E+00  0.22582393076E+04  0.22582393076E+04  0.25500000920E-02 0.  1.
       -2   -1    0    0    0  501  0.00000000000E+00  0.00000000000E+00 -0.15998203624E+04  0.15998203624E+04  0.25500000920E-02 0. -1.
    10030    2    1    2    0    0  0.00000000000E+00  0.00000000000E+00  0.65841894524E+03  0.38580596700E+04  0.38014614176E+04 0.  0.
        3    1    3    3  502    0  0.29906452443E+03  0.56488254663E+02 -0.15749299077E+04  0.16040681834E+04  0.10100000352E+00 0. -1.
       -3    1    3    3    0  502 -0.29906452443E+03 -0.56488254663E+02  0.22333488529E+04  0.22539914866E+04  0.10100000352E+00 0.  1.
</event>
<event>
 5   0  0.3701250E-08  0.3802139E+04  0.7818609E-02  0.8045696E-01
        1   -1    0    0  501    0  0.00000000000E+00  0.00000000000E+00  0.11928063021E+04  0.11928063022E+04  0.50400001928E-02 0. -1.
       -1   -1    0    0    0  501  0.00000000000E+00  0.00000000000E+00 -0.30298848303E+04  0.30298848303E+04  0.50400001928E-02 0.  1.
    10030    2    1    2    0    0  0.00000000000E+00  0.00000000000E+00 -0.18370785281E+04  0.42226911325E+04  0.38021392507E+04 0.  0.
        2    1    3    3  502    0 -0.24188074806E+03  0.35608923155E+03 -0.29750445679E+04  0.30060266163E+04  0.25500000920E-02 0.  1.
       -2    1    3    3    0  502  0.24188074806E+03 -0.35608923155E+03  0.11379660398E+04  0.12166645161E+04  0.25500000920E-02 0. -1.
</event>
<event>
 5   0  0.1193861E-07  0.3801197E+04  0.7818609E-02  0.8045898E-01
        2   -1    0    0  501    0  0.00000000000E+00  0.00000000000E+00  0.27408257324E+04  0.27408257324E+04  0.25500000920E-02 0.  1.
       -2   -1    0    0    0  501  0.00000000000E+00  0.00000000000E+00 -0.13179508993E+04  0.13179508993E+04  0.25500000920E-02 0. -1.
    10030    2    1    2    0    0  0.00000000000E+00  0.00000000000E+00  0.14228748331E+04  0.40587766317E+04  0.38011965163E+04 0.  0.
        3    1    3    3  502    0  0.84720122493E+03 -0.11071842285E+04 -0.66786549829E+03  0.15458496581E+04  0.10100000352E+00 0. -1.
       -3    1    3    3    0  502 -0.84720122493E+03  0.11071842285E+04  0.20907403314E+04  0.25129269737E+04  0.10100000352E+00 0.  1.
</event>
<event>
 5   0  0.1193861E-07  0.3794445E+04  0.7818609E-02  0.8047348E-01
       -2   -1    0    0    0  501  0.00000000000E+00  0.00000000000E+00  0.11169636399E+04  0.11169636399E+04  0.25500000920E-02 0.  1.
        2   -1    0    0  501    0  0.00000000000E+00  0.00000000000E+00 -0.32225342676E+04  0.32225342676E+04  0.25500000920E-02 0. -1.
    10030    2    1    2    0    0  0.00000000000E+00  0.00000000000E+00 -0.21055706277E+04  0.43394979075E+04  0.37944452059E+04 0.  0.
        3    1    3    3  502    0  0.25258403157E+03 -0.85431153110E+03 -0.29684525534E+04  0.30992511123E+04  0.10100000352E+00 0. -1.
       -3    1    3    3    0  502 -0.25258403157E+03  0.85431153110E+03  0.86288192568E+03  0.12402467952E+04  0.10100000352E+00 0.  1.
</event>
<event>
 5   0  0.1174870E-07  0.3785989E+04  0.7818609E-02  0.8049168E-01
        2   -1    0    0  501    0  0.00000000000E+00  0.00000000000E+00  0.21344243733E+04  0.21344243733E+04  0.25500000920E-02 0.  1.
       -2   -1    0    0    0  501  0.00000000000E+00  0.00000000000E+00 -0.16788734361E+04  0.16788734361E+04  0.25500000920E-02 0. -1.
    10030    2    1    2    0    0  0.00000000000E+00  0.00000000000E+00  0.45555093712E+03  0.38132978094E+04  0.37859891081E+04 0.  0.
        5    1    3    3  502    0  0.40631522573E+03  0.12415835840E+04 -0.11520639898E+04  0.17418080793E+04  0.46999998093E+01 0. -1.
       -5    1    3    3    0  502 -0.40631522573E+03 -0.12415835840E+04  0.16076149269E+04  0.20714897301E+04  0.46999998093E+01 0.  1.
</event>
<event>
 5   0  0.3701250E-08  0.3774523E+04  0.7818609E-02  0.8051644E-01
       -1   -1    0    0    0  501  0.00000000000E+00  0.00000000000E+00  0.20960995994E+04  0.20960995994E+04  0.50400001928E-02 0. -1.
        1   -1    0    0  501    0  0.00000000000E+00  0.00000000000E+00 -0.16992307044E+04  0.16992307044E+04  0.50400001928E-02 0.  1.
    10030    2    1    2    0    0  0.00000000000E+00  0.00000000000E+00  0.39686889498E+03  0.37953303038E+04  0.37745234395E+04 0.  0.
        4    1    3    3  502    0  0.44049939369E+02  0.18361403997E+04  0.63488154876E+03  0.19433034139E+04  0.12699999809E+01 0. -1.
       -4    1    3    3    0  502 -0.44049939369E+02 -0.18361403997E+04 -0.23801265378E+03  0.18520268899E+04  0.12699999809E+01 0.  1.
</event>
<event>
 5   0  0.3889225E-08  0.3978064E+04  0.7818609E-02  0.8008986E-01
       -1   -1    0    0    0  501  0.00000000000E+00  0.00000000000E+00  0.19043218338E+04  0.19043218338E+04  0.50400001928E-02 0. -1.
        1   -1    0    0  501    0  0.00000000000E+00  0.00000000000E+00 -0.20775104595E+04  0.20775104595E+04  0.50400001928E-02 0.  1.
    10030    2    1    2    0    0  0.00000000000E+00  0.00000000000E+00 -0.17318862566E+03  0.39818322933E+04  0.39780641161E+04 0.  0.
        5    1    3    3  502    0  0.72350746852E+02 -0.19595274166E+04 -0.42044302136E+03  0.20054367981E+04  0.46999998093E+01 0.  1.
       -5    1    3    3    0  502 -0.72350746852E+02  0.19595274166E+04  0.24725439571E+03  0.19763954952E+04  0.46999998093E+01 0. -1.
</event>
<event>
 5   0  0.3701250E-08  0.3810448E+04  0.7818609E-02  0.8043917E-01
        1   -1    0    0  501    0  0.00000000000E+00  0.00000000000E+00  0.17970162155E+04  0.17970162155E+04  0.50400001928E-02 0. -1.
       -1   -1    0    0    0  501  0.00000000000E+00  0.00000000000E+00 -0.20199472314E+04  0.20199472314E+04  0.50400001928E-02 0.  1.
    10030    2    1    2    0    0  0.00000000000E+00  0.00000000000E+00 -0.22293101585E+03  0.38169634469E+04  0.38104477056E+04 0.  0.
        3    1    3    3  502    0 -0.11651332507E+04  0.14834153126E+04  0.15698797444E+03  0.18928026088E+04  0.10100000352E+00 0. -1.
       -3    1    3    3    0  502  0.11651332507E+04 -0.14834153126E+04 -0.37991899029E+03  0.19241608381E+04  0.10100000352E+00 0.  1.
</event>
<event>
 5   0  0.3701250E-08  0.3817036E+04  0.7818609E-02  0.8042509E-01
       -3   -1    0    0    0  501  0.00000000000E+00  0.00000000000E+00  0.19176666977E+04  0.19176667003E+04  0.10100000352E+00 0.  1.
        3   -1    0    0  501    0  0.00000000000E+00  0.00000000000E+00 -0.18994126946E+04  0.18994126973E+04  0.10100000352E+00 0. -1.
    10030    2    1    2    0    0  0.00000000000E+00  0.00000000000E+00  0.18254003095E+02  0.38170793976E+04  0.38170357503E+04 0.  0.
        5    1    3    3  502    0  0.18435315610E+04  0.60388685286E+02 -0.48094286341E+03  0.19061960910E+04  0.46999998093E+01 0. -1.
       -5    1    3    3    0  502 -0.18435315610E+04 -0.60388685286E+02  0.49919686651E+03  0.19108833065E+04  0.46999998093E+01 0.  1.
</event>
<event>
 5   0  0.1143283E-07  0.3803994E+04  0.7818609E-02  0.8045298E-01
        2   -1    0    0  501    0  0.00000000000E+00  0.00000000000E+00  0.26391750199E+04  0.26391750199E+04  0.25500000920E-02 0.  1.
       -2   -1    0    0    0  501  0.00000000000E+00  0.00000000000E+00 -0.13707284713E+04  0.13707284713E+04  0.25500000920E-02 0. -1.
    10030    2    1    2    0    0  0.00000000000E+00  0.00000000000E+00  0.12684465486E+04  0.40099034912E+04  0.38039938699E+04 0.  0.
        1    1    3    3  502    0 -0.51649441413E+03  0.77812890604E+03 -0.11123720009E+04  0.14524539726E+04  0.50400001928E-02 0. -1.
       -1    1    3    3    0  502  0.51649441413E+03 -0.77812890604E+03  0.23808185495E+04  0.25574495186E+04  0.50400001928E-02 0.  1.
</event>
<event>
 5   0  0.1143283E-07  0.3803964E+04  0.7818609E-02  0.8045305E-01
       -2   -1    0    0    0  501  0.00000000000E+00  0.00000000000E+00  0.31690666376E+04  0.31690666376E+04  0.25500000920E-02 0. -1.
        2   -1    0    0  501    0  0.00000000000E+00  0.00000000000E+00 -0.11415146833E+04  0.11415146833E+04  0.25500000920E-02 0.  1.
    10030    2    1    2    0    0  0.00000000000E+00  0.00000000000E+00  0.20275519543E+04  0.43105813209E+04  0.38039643001E+04 0.  0.
        1    1    3    3  502    0 -0.28234778790E+03 -0.11251265092E+04  0.27218024797E+04  0.29586886746E+04  0.50400001928E-02 0. -1.
       -1    1    3    3    0  502  0.28234778790E+03  0.11251265092E+04 -0.69425052533E+03  0.13518926463E+04  0.50400001928E-02 0.  1.
</event>
<event>
 5   0  0.3701250E-08  0.3823597E+04  0.7818609E-02  0.8041110E-01
        1   -1    0    0  501    0  0.00000000000E+00  0.00000000000E+00  0.22581432809E+04  0.22581432809E+04  0.50400001928E-02 0.  1.
       -1   -1    0    0    0  501  0.00000000000E+00  0.00000000000E+00 -0.16185745384E+04  0.16185745384E+04  0.50400001928E-02 0. -1.
    10030    2    1    2    0    0  0.00000000000E+00  0.00000000000E+00  0.63956874247E+03  0.38767178193E+04  0.38235968504E+04 0.  0.
        4    1    3    3  502    0  0.41486210829E+03 -0.15931999440E+04  0.13051792776E+04  0.21009262696E+04  0.12699999809E+01 0.  1.
       -4    1    3    3    0  502 -0.41486210829E+03  0.15931999440E+04 -0.66561053515E+03  0.17757915497E+04  0.12699999809E+01 0. -1.
</event>
<event>
 5   0  0.7858367E-08  0.3669265E+04  0.7818609E-02  0.8074807E-01
        2   -1    0    0  501    0  0.00000000000E+00  0.00000000000E+00  0.17011205504E+04  0.17011205504E+04  0.25500000920E-02 0. -1.
       -2   -1    0    0    0  501  0.00000000000E+00  0.00000000000E+00 -0.19786234167E+04  0.19786234167E+04  0.25500000920E-02 0.  1.
    10030    2    1    2    0    0  0.00000000000E+00  0.00000000000E+00 -0.27750286635E+03  0.36797439671E+04  0.36692652974E+04 0.  0.
        2    1    3    3  502    0 -0.32888113841E+03 -0.13049028318E+04 -0.13892859706E+04  0.19341793380E+04  0.25500000920E-02 0.  1.
       -2    1    3    3    0  502  0.32888113841E+03  0.13049028318E+04  0.11117831042E+04  0.17455646291E+04  0.25500000920E-02 0. -1.
</event>
<event>
 5   0  0.3889225E-08  0.3800806E+04  0.7818609E-02  0.8045982E-01
        1   -1    0    0  501    0  0.00000000000E+00  0.00000000000E+00  0.17543450075E+04  0.17543450075E+04  0.50400001928E-02 0.  1.
       -1   -1    0    0    0  501  0.00000000000E+00  0.00000000000E+00 -0.20586213525E+04  0.20586213525E+04  0.50400001928E-02 0. -1.
    10030    2    1    2    0    0  0.00000000000E+00  0.00000000000E+00 -0.30427634502E+03  0.38129663600E+04  0.38008062788E+04 0.  0.
        5    1    3    3  502    0  0.44153162049E+03 -0.46924693262E+02  0.17015716897E+04  0.17585563408E+04  0.46999998093E+01 0.  1.
       -5    1    3    3    0  502 -0.44153162049E+03  0.46924693262E+02 -0.20058480347E+04  0.20544100192E+04  0.46999998093E+01 0. -1.
</event>
<event>
 5   0  0.1174870E-07  0.3797953E+04  0.7818609E-02  0.8046594E-01
       -2   -1    0    0    0  501  0.00000000000E+00  0.00000000000E+00  0.15754165729E+04  0.15754165729E+04  0.25500000920E-02 0.  1.
        2   -1    0    0  501    0  0.00000000000E+00  0.00000000000E+00 -0.22889890705E+04  0.22889890705E+04  0.25500000920E-02 0. -1.
    10030    2    1    2    0    0  0.00000000000E+00  0.00000000000E+00 -0.71357249765E+03  0.38644056434E+04  0.37979527732E+04 0.  0.
        5    1    3    3  502    0 -0.57209017557E+03  0.41258624754E+03  0.14371780576E+04  0.16009426723E+04  0.46999998093E+01 0.  1.
       -5    1    3    3    0  502  0.57209017557E+03 -0.41258624754E+03 -0.21507505553E+04  0.22634629711E+04  0.46999998093E+01 0. -1.
</event>
<event>
 5   0  0.1174870E-07  0.3691638E+04  0.7818609E-02  0.8069817E-01
       -2   -1    0    0    0  501  0.00000000000E+00  0.00000000000E+00  0.17856356368E+04  0.17856356368E+04  0.25500000920E-02 0. -1.
        2   -1    0    0  501    0  0.00000000000E+00  0.00000000000E+00 -0.19080307117E+04  0.19080307117E+04  0.25500000920E-02 0.  1.
    10030    2    1    2    0    0  0.00000000000E+00  0.00000000000E+00 -0.12239507495E+03  0.36936663485E+04  0.36916379210E+04 0.  0.
        5    1    3    3  502    0 -0.15879265131E+04  0.16812341582E+03  0.86518886563E+03  0.18161359963E+04  0.46999998093E+01 0.  1.
       -5    1    3    3    0  502  0.15879265131E+04 -0.16812341582E+03 -0.98758394058E+03  0.18775303522E+04  0.46999998093E+01 0. -1.
</event>
<event>
 5   0  0.3701250E-08  0.3710957E+04  0.7818609E-02  0.8065538E-01
        1   -1    0    0  501    0  0.00000000000E+00  0.00000000000E+00  0.25063858125E+04  0.25063858125E+04  0.50400001928E-02 0. -1.
       -1   -1    0    0    0  501  0.00000000000E+00  0.00000000000E+00 -0.13736117791E+04  0.13736117791E+04  0.50400001928E-02 0.  1.
    10030    2    1    2    0    0  0.00000000000E+00  0.00000000000E+00  0.11327740334E+04  0.38799975916E+04  0.37109573293E+04 0.  0.
        1    1    3    3  502    0 -0.24860275832E+03 -0.71070834824E+03 -0.12067068825E+04  0.14223400395E+04  0.50400001928E-02 0.  1.
       -1    1    3    3    0  502  0.24860275832E+03  0.71070834824E+03  0.23394809158E+04  0.24576575521E+04  0.50400001928E-02 0. -1.
</event>
<event>
 5   0  0.3701250E-08  0.3773659E+04  0.7818609E-02  0.8051831E-01
        1   -1    0    0  501    0  0.00000000000E+00  0.00000000000E+00  0.24240859652E+04  0.24240859652E+04  0.50400001928E-02 0. -1.
       -1   -1    0    0    0  501  0.00000000000E+00  0.00000000000E+00 -0.14686469668E+04  0.14686469668E+04  0.50400001928E-02 0.  1.
    10030    2    1    2    0    0  0.00000000000E+00  0.00000000000E+00  0.95543899847E+03  0.38927329320E+04  0.37736594971E+04 0.  0.
        2    1    3    3  502    0 -0.23271636317E+03  0.15894742184E+04  0.14986666824E+04  0.21969494809E+04  0.25500000920E-02 0. -1.
       -2    1    3    3    0  502  0.23271636317E+03 -0.15894742184E+04 -0.54322768394E+03  0.16957834511E+04  0.25500000920E-02 0.  1.
</event>
<event>
 5   0  0.1193861E-07  0.3800685E+04  0.7818609E-02  0.8046008E-01
        2   -1    0    0  501    0  0.00000000000E+00  0.00000000000E+00  0.23400118739E+04  0.23400118739E+04  0.25500000920E-02 0. -1.
       -2   -1    0    0    0  501  0.00000000000E+00  0.00000000000E+00 -0.15432832150E+04  0.15432832150E+04  0.25500000920E-02 0.  1.
    10030    2    1    2    0    0  0.00000000000E+00  0.00000000000E+00  0.79672865893E+03  0.38832950889E+04  0.38006847004E+04 0.  0.
        3    1    3    3  502    0 -0.71508251940E+03 -0.87499879652E+03  0.19594263373E+04  0.22619278249E+04  0.10100000352E+00 0. -1.
       -3    1    3    3    0  502  0.71508251940E+03  0.87499879652E+03 -0.11626976784E+04  0.16213672641E+04  0.10100000352E+00 0.  1.
</event>
<event>
 5   0  0.1150235E-07  0.3757032E+04  0.7818609E-02  0.8055439E-01
        2   -1    0    0  501    0  0.00000000000E+00  0.00000000000E+00  0.12405496273E+04  0.12405496273E+04  0.25500000920E-02 0.  1.
       -2   -1    0    0    0  501  0.00000000000E+00  0.00000000000E+00 -0.28445633858E+04  0.28445633858E+04  0.25500000920E-02 0. -1.
    10030    2    1    2    0    0  0.00000000000E+00  0.00000000000E+00 -0.16040137586E+04  0.40851130131E+04  0.37570318327E+04 0.  0.
        4    1    3    3  502    0  0.14483819114E+04 -0.94327340940E+03 -0.20688019638E+01  0.17284619692E+04  0.12699999809E+01 0.  1.
       -4    1    3    3    0  502 -0.14483819114E+04  0.94327340940E+03 -0.16019449566E+04  0.23566510439E+04  0.12699999809E+01 0. -1.
</event>
<event>
 5   0  0.1174870E-07  0.3800737E+04  0.7818609E-02  0.8045997E-01
       -2   -1    0    0    0  501  0.00000000000E+00  0.00000000000E+00  0.19615184402E+04  0.19615184402E+04  0.25500000920E-02 0. -1.
        2   -1    0    0  501    0  0.00000000000E+00  0.00000000000E+00 -0.18411249028E+04  0.18411249028E+04  0.25500000920E-02 0.  1.
    10030    2    1    2    0    0  0.00000000000E+00  0.00000000000E+00  0.12039353743E+03  0.38026433430E+04  0.38007370062E+04 0.  0.
        5    1    3    3  502    0  0.37948801612E+03  0.58778418880E+03  0.18279663853E+04  0.19572901172E+04  0.46999998093E+01 0. -1.
       -5    1    3    3    0  502 -0.37948801612E+03 -0.58778418880E+03 -0.17075728479E+04  0.18453532258E+04  0.46999998093E+01 0.  1.
</event>
<event>
 5   0  0.1174870E-07  0.3811665E+04  0.7818609E-02  0.8043656E-01
        2   -1    0    0  501    0  0.00000000000E+00  0.00000000000E+00  0.21748227878E+04  0.21748227878E+04  0.25500000920E-02 0. -1.
       -2   -1    0    0    0  501  0.00000000000E+00  0.00000000000E+00 -0.16701119615E+04  0.16701119615E+04  0.25500000920E-02 0.  1.
    10030    2    1    2    0    0  0.00000000000E+00  0.00000000000E+00  0.50471082631E+03  0.38449347494E+04  0.38116650179E+04 0.  0.
        5    1    3    3  502    0 -0.18201846545E+03 -0.12054777963E+03  0.21621617319E+04  0.21731608163E+04  0.46999998093E+01 0. -1.
       -5    1    3    3    0  502  0.18201846545E+03  0.12054777963E+03 -0.16574509055E+04  0.16717739330E+04  0.46999998093E+01 0.  1.
</event>
<event>
 5   0  0.1143283E-07  0.3803326E+04  0.7818609E-02  0.8045442E-01
        2   -1    0    0  501    0  0.00000000000E+00  0.00000000000E+00  0.16826122145E+04  0.16826122145E+04  0.25500000920E-02 0.  1.
       -2   -1    0    0    0  501  0.00000000000E+00  0.00000000000E+00 -0.21492308583E+04  0.21492308583E+04  0.25500000920E-02 0. -1.
    10030    2    1    2    0    0  0.00000000000E+00  0.00000000000E+00 -0.46661864385E+03  0.38318430728E+04  0.38033259623E+04 0.  0.
        1    1    3    3  502    0 -0.14332217999E+04 -0.11624413097E+04  0.22940275981E+03  0.18595752613E+04  0.50400001928E-02 0.  1.
       -1    1    3    3    0  502  0.14332217999E+04  0.11624413097E+04 -0.69602140366E+03  0.19722678115E+04  0.50400001928E-02 0. -1.
</event>
<event>
 5   0  0.7858367E-08  0.3805034E+04  0.7818609E-02  0.8045075E-01
        2   -1    0    0  501    0  0.00000000000E+00  0.00000000000E+00  0.20935286215E+04  0.20935286215E+04  0.25500000920E-02 0.  1.
       -2   -1    0    0    0  501  0.00000000000E+00  0.00000000000E+00 -0.17289332057E+04  0.17289332057E+04  0.25500000920E-02 0. -1.
    10030    2    1    2    0    0  0.00000000000E+00  0.00000000000E+00  0.36459541580E+03  0.38224618272E+04  0.38050341133E+04 0.  0.
        2    1    3    3  502    0  0.10527879472E+04  0.13520597897E+04  0.10126079940E+04  0.19904278651E+04  0.25500000920E-02 0.  1.
       -2    1    3    3    0  502 -0.10527879472E+04 -0.13520597897E+04 -0.64801257823E+03  0.18320339621E+04  0.25500000920E-02 0. -1.
</event>
<event>
 5   0  0.3889225E-08  0.3767681E+04  0.7818609E-02  0.8053126E-01
        1   -1    0    0  501    0  0.00000000000E+00  0.00000000000E+00  0.21945448448E+04  0.21945448448E+04  0.50400001928E-02 0. -1.
       -1   -1    0    0    0  501  0.00000000000E+00  0.00000000000E+00 -0.16171260878E+04  0.16171260878E+04  0.50400001928E-02 0.  1.
    10030    2    1    2    0    0  0.00000000000E+00  0.00000000000E+00  0.57741875696E+03  0.38116709326E+04  0.37676813663E+04 0.  0.
        5    1    3    3  502    0 -0.67638482452E+03 -0.16258555945E+04 -0.38838107161E+03  0.18032650365E+04  0.46999998093E+01 0. -1.
       -5    1    3    3    0  502  0.67638482452E+03  0.16258555945E+04  0.96579982857E+03  0.20084058962E+04  0.46999998093E+01 0.  1.
</event>
<event>
 5   0  0.1193861E-07  0.3792716E+04  0.7818609E-02  0.8047720E-01
        2   -1    0    0  501    0  0.00000000000E+00  0.00000000000E+00  0.17548775926E+04  0.17548775926E+04  0.25500000920E-02 0. -1.
       -2   -1    0    0    0  501  0.00000000000E+00  0.00000000000E+00 -0.20492448195E+04  0.20492448195E+04  0.25500000920E-02 0.  1.
    10030    2    1    2    0    0  0.00000000000E+00  0.00000000000E+00 -0.29436722691E+03  0.38041224121E+04  0.37927160798E+04 0.  0.
        3    1    3    3  502    0  0.10959330734E+04 -0.17118482009E+03 -0.16899252061E+04  0.20214402678E+04  0.10100000352E+00 0.  1.
       -3    1    3    3    0  502 -0.10959330734E+04  0.17118482009E+03  0.13955579792E+04  0.17826821443E+04  0.10100000352E+00 0. -1.
</event>
<event>
 5   0  0.7858367E-08  0.3802522E+04  0.7818609E-02  0.8045614E-01
        2   -1    0    0  501    0  0.00000000000E+00  0.00000000000E+00  0.27994817213E+04  0.27994817213E+04  0.25500000920E-02 0.  1.
       -2   -1    0    0    0  501  0.00000000000E+00  0.00000000000E+00 -0.12912364561E+04  0.12912364561E+04  0.25500000920E-02 0. -1.
    10030    2    1    2    0    0  0.00000000000E+00  0.00000000000E+00  0.15082452652E+04  0.40907181774E+04  0.38025217195E+04 0.  0.
        2    1    3    3  502    0 -0.16159257440E+04  0.30673794063E+03  0.17800733673E+04  0.24236264908E+04  0.25500000920E-02 0.  1.
       -2    1    3    3    0  502  0.16159257440E+04 -0.30673794063E+03 -0.27182810205E+03  0.16670916866E+04  0.25500000920E-02 0. -1.
</event>
<event>
 5   0  0.1150235E-07  0.3814075E+04  0.7818609E-02  0.8043141E-01
        2   -1    0    0  501    0  0.00000000000E+00  0.00000000000E+00  0.27713477007E+04  0.27713477007E+04  0.25500000920E-02 0. -1.
       -2   -1    0    0    0  501  0.00000000000E+00  0.00000000000E+00 -0.13122826163E+04  0.13122826163E+04  0.25500000920E-02 0.  1.
    10030    2    1    2    0    0  0.00000000000E+00  0.00000000000E+00  0.14590650844E+04  0.40836303171E+04  0.38140746775E+04 0.  0.
        4    1    3    3  502    0  0.12137048389E+04 -0.90309771906E+03  0.19726789747E+04  0.24859864996E+04  0.12699999809E+01 0. -1.
       -4    1    3    3    0  502 -0.12137048389E+04  0.90309771906E+03 -0.51361389032E+03  0.15976438174E+04  0.12699999809E+01 0.  1.
</event>
<event>
 5   0  0.3701250E-08  0.3793543E+04  0.7818609E-02  0.8047542E-01
       -1   -1    0    0    0  501  0.00000000000E+00  0.00000000000E+00  0.30321858056E+04  0.30321858056E+04  0.50400001928E-02 0.  1.
        1   -1    0    0  501    0  0.00000000000E+00  0.00000000000E+00 -0.11865177484E+04  0.11865177484E+04  0.50400001928E-02 0. -1.
    10030    2    1    2    0    0  0.00000000000E+00  0.00000000000E+00  0.18456680572E+04  0.42187035540E+04  0.37935430800E+04 0.  0.
        4    1    3    3  502    0 -0.68905266091E+03  0.17560777913E+04  0.11428390818E+04  0.22056032187E+04  0.12699999809E+01 0. -1.
       -4    1    3    3    0  502  0.68905266091E+03 -0.17560777913E+04  0.70282897541E+03  0.20131003353E+04  0.12699999809E+01 0.  1.
</event>
<event>
 5   0  0.1143283E-07  0.3861148E+04  0.7818609E-02  0.8033159E-01
       -2   -1    0    0    0  501  0.00000000000E+00  0.00000000000E+00  0.13746313984E+04  0.13746313984E+04  0.25500000920E-02 0.  1.
        2   -1    0    0  501    0  0.00000000000E+00  0.00000000000E+00 -0.27113565644E+04  0.27113565644E+04  0.25500000920E-02 0. -1.
    10030    2    1    2    0    0  0.00000000000E+00  0.00000000000E+00 -0.13367251660E+04  0.40859879629E+04  0.38611479463E+04 0.  0.
        1    1    3    3  502    0  0.16062280321E+04 -0.34923822955E+03 -0.17398342955E+04  0.23935244323E+04  0.50400001928E-02 0. -1.
       -1    1    3    3    0  502 -0.16062280321E+04  0.34923822955E+03  0.40310912944E+03  0.16924635306E+04  0.50400001928E-02 0.  1.
</event>
<event>
 5   0  0.1193861E-07  0.3790063E+04  0.7818609E-02  0.8048291E-01
       -2   -1    0    0    0  501  0.00000000000E+00  0.00000000000E+00  0.16582962305E+04  0.16582962305E+04  0.25500000920E-02 0. -1.
        2   -1    0    0  501    0  0.00000000000E+00  0.00000000000E+00 -0.21655625301E+04  0.21655625301E+04  0.25500000920E-02 0.  1.
    10030    2    1    2    0    0  0.00000000000E+00  0.00000000000E+00 -0.50726629958E+03  0.38238587606E+04  0.37900628916E+04 0.  0.
        3    1    3    3  502    0  0.11875348320E+04 -0.14665935733E+04 -0.42840740291E+03  0.19351146218E+04  0.10100000352E+00 0.  1.
       -3    1    3    3    0  502 -0.11875348320E+04  0.14665935733E+04 -0.78858896668E+02  0.18887441389E+04  0.10100000352E+00 0. -1.
</event>
<event>
 5   0  0.3701250E-08  0.3807416E+04  0.7818609E-02  0.8044565E-01
        1   -1    0    0  501    0  0.00000000000E+00  0.00000000000E+00  0.19825405680E+04  0.19825405680E+04  0.50400001928E-02 0. -1.
       -1   -1    0    0    0  501  0.00000000000E+00  0.00000000000E+00 -0.18280104465E+04  0.18280104465E+04  0.50400001928E-02 0.  1.
    10030    2    1    2    0    0  0.00000000000E+00  0.00000000000E+00  0.15453012149E+03  0.38105510144E+04  0.38074163780E+04 0.  0.
        1    1    3    3  502    0  0.10039539686E+04  0.12097748483E+04  0.11517532197E+04  0.19488494641E+04  0.50400001928E-02 0. -1.
       -1    1    3    3    0  502 -0.10039539686E+04 -0.12097748483E+04 -0.99722309824E+03  0.18617015503E+04  0.50400001928E-02 0.  1.
</event>
<event>
 5   0  0.3701250E-08  0.3794446E+04  0.7818609E-02  0.8047348E-01
       -3   -1    0    0    0  501  0.00000000000E+00  0.00000000000E+00  0.12199402236E+04  0.12199402278E+04  0.10100000352E+00 0. -1.
        3   -1    0    0  501    0  0.00000000000E+00  0.00000000000E+00 -0.29505174329E+04  0.29505174347E+04  0.10100000352E+00 0.  1.
    10030    2    1    2    0    0  0.00000000000E+00  0.00000000000E+00 -0.17305772093E+04  0.41704576625E+04  0.37944458933E+04 0.  0.
        4    1    3    3  502    0 -0.54870820366E+03  0.11865634260E+04 -0.23764706426E+04  0.27123104145E+04  0.12699999809E+01 0.  1.
       -4    1    3    3    0  502  0.54870820366E+03 -0.11865634260E+04  0.64589343327E+03  0.14581472479E+04  0.12699999809E+01 0. -1.
</event>
<event>
 5   0  0.3701250E-08  0.3835477E+04  0.7818609E-02  0.8038584E-01
       -1   -1    0    0    0  501  0.00000000000E+00  0.00000000000E+00  0.27689273027E+04  0.27689273027E+04  0.50400001928E-02 0.  1.
        1   -1    0    0  501    0  0.00000000000E+00  0.00000000000E+00 -0.13282114918E+04  0.13282114918E+04  0.50400001928E-02 0. -1.
    10030    2    1    2    0    0  0.00000000000E+00  0.00000000000E+00  0.14407158109E+04  0.40971387945E+04  0.38354770568E+04 0.  0.
        2    1    3    3  502    0 -0.17268733694E+04 -0.65384882266E+03  0.16723872089E+03  0.18540708473E+04  0.25500000920E-02 0. -1.
       -2    1    3    3    0  502  0.17268733694E+04  0.65384882266E+03  0.12734770900E+04  0.22430679472E+04  0.25500000920E-02 0.  1.
</event>
<event>
 5   0  0.1150235E-07  0.3805401E+04  0.7818609E-02  0.8044997E-01
       -2   -1    0    0    0  501  0.00000000000E+00  0.00000000000E+00  0.15560496860E+04  0.15560496860E+04  0.25500000920E-02 0.  1.
        2   -1    0    0  501    0  0.00000000000E+00  0.00000000000E+00 -0.23265765408E+04  0.23265765408E+04  0.25500000920E-02 0. -1.
    10030    2    1    2    0    0  0.00000000000E+00  0.00000000000E+00 -0.77052685483E+03  0.38826262267E+04  0.38054007388E+04 0.  0.
        4    1    3    3  502    0 -0.11983098056E+04 -0.11408589586E+04  0.57335745380E+03  0.17510699405E+04  0.12699999809E+01 0.  1.
       -4    1    3    3    0  502  0.11983098056E+04  0.11408589586E+04 -0.13438843086E+04  0.21315562863E+04  0.12699999809E+01 0. -1.
</event>
<event>
 5   0  0.3701250E-08  0.3855008E+04  0.7818609E-02  0.8034452E-01
        1   -1    0    0  501    0  0.00000000000E+00  0.00000000000E+00  0.14586869902E+04  0.14586869902E+04  0.50400001928E-02 0. -1.
       -1   -1    0    0    0  501  0.00000000000E+00  0.00000000000E+00 -0.25469973417E+04  0.25469973417E+04  0.50400001928E-02 0.  1.
    10030    2    1    2    0    0  0.00000000000E+00  0.00000000000E+00 -0.10883103515E+04  0.40056843319E+04  0.38550081123E+04 0.  0.
        3    1    3    3  502    0  0.14225002748E+04 -0.10712886882E+04  0.22231090422E+03  0.17945998533E+04  0.10100000352E+00 0. -1.
       -3    1    3    3    0  502 -0.14225002748E+04  0.10712886882E+04 -0.13106212557E+04  0.22110844786E+04  0.10100000352E+00 0.  1.
</event>
<event>
 5   0  0.1174870E-07  0.3761033E+04  0.7818609E-02  0.8054569E-01
        2   -1    0    0  501    0  0.00000000000E+00  0.00000000000E+00  0.27857654258E+04  0.27857654258E+04  0.25500000920E-02 0. -1.
       -2   -1    0    0    0  501  0.00000000000E+00  0.00000000000E+00 -0.12694331723E+04  0.12694331723E+04  0.25500000920E-02 0.  1.
    10030    2    1    2    0    0  0.00000000000E+00  0.00000000000E+00  0.15163322534E+04  0.40551985981E+04  0.37610333908E+04 0.  0.
        5    1    3    3  502    0  0.37586296542E+03  0.13529818037E+04  0.21067907596E+04  0.25318811435E+04  0.46999998093E+01 0. -1.
       -5    1    3    3    0  502 -0.37586296542E+03 -0.13529818037E+04 -0.59045850619E+03  0.15233174546E+04  0.46999998093E+01 0.  1.
</event>
<event>
 5   0  0.7858367E-08  0.3761968E+04  0.7818609E-02  0.8054366E-01
       -2   -1    0    0    0  501  0.00000000000E+00  0.00000000000E+00  0.20211794172E+04  0.20211794172E+04  0.25500000920E-02 0.  1.
        2   -1    0    0  501    0  0.00000000000E+00  0.00000000000E+00 -0.17505127648E+04  0.17505127648E+04  0.25500000920E-02 0. -1.
    10030    2    1    2    0    0  0.00000000000E+00  0.00000000000E+00  0.27066665235E+03  0.37716921820E+04  0.37619677668E+04 0.  0.
        2    1    3    3  502    0  0.71589859513E+03 -0.12475665471E+04  0.13505586062E+04  0.19730538859E+04  0.25500000920E-02 0.  1.
       -2    1    3    3    0  502 -0.71589859513E+03  0.12475665471E+04 -0.10798919538E+04  0.17986382960E+04  0.25500000920E-02 0. -1.
</event>
<event>
 5   0  0.1193861E-07  0.3804984E+04  0.7818609E-02  0.8045086E-01
        2   -1    0    0  501    0  0.00000000000E+00  0.00000000000E+00  0.17142929948E+04  0.17142929949E+04  0.25500000920E-02 0. -1.
       -2   -1    0    0    0  501  0.00000000000E+00  0.00000000000E+00 -0.21113513750E+04  0.21113513750E+04  0.25500000920E-02 0.  1.
    10030    2    1    2    0    0  0.00000000000E+00  0.00000000000E+00 -0.39705838019E+03  0.38256443699E+04  0.38049835069E+04 0.  0.
        3    1    3    3  502    0 -0.73435524285E+03 -0.34274440952E+03  0.15320735178E+04  0.17332053044E+04  0.10100000352E+00 0. -1.
       -3    1    3    3    0  502  0.73435524285E+03  0.34274440952E+03 -0.19291318980E+04  0.20924390655E+04  0.10100000352E+00 0.  1.
</event>
<event>
 5   0  0.3701250E-08  0.3797236E+04  0.7818609E-02  0.8046748E-01
       -1   -1    0    0    0  501  0.00000000000E+00  0.00000000000E+00  0.22717172794E+04  0.22717172794E+04  0.50400001928E-02 0.  1.
        1   -1    0    0  501    0  0.00000000000E+00  0.00000000000E+00 -0.15867948859E+04  0.15867948859E+04  0.50400001928E-02 0. -1.
    10030    2    1    2    0    0  0.00000000000E+00  0.00000000000E+00  0.68492239345E+03  0.38585121653E+04  0.37972355003E+04 0.  0.
        3    1    3    3  502    0 -0.76784445746E+03 -0.12754388578E+04 -0.85486577473E+03  0.17167192239E+04  0.10100000352E+00 0. -1.
       -3    1    3    3    0  502  0.76784445746E+03  0.12754388578E+04  0.15397881682E+04  0.21417929414E+04  0.10100000352E+00 0.  1.
</event>
<event>
 5   0  0.3701250E-08  0.3843693E+04  0.7818609E-02  0.8036843E-01
       -1   -1    0    0    0  501  0.00000000000E+00  0.00000000000E+00  0.27254304718E+04  0.27254304718E+04  0.50400001928E-02 0. -1.
        1   -1    0    0  501    0  0.00000000000E+00  0.00000000000E+00 -0.13551965116E+04  0.13551965116E+04  0.50400001928E-02 0.  1.
    10030    2    1    2    0    0  0.00000000000E+00  0.00000000000E+00  0.13702339602E+04  0.40806269835E+04  0.38436929472E+04 0.  0.
        2    1    3    3  502    0 -0.15035069951E+04  0.10164279945E+04  0.13564197818E+04  0.22657302966E+04  0.25500000920E-02 0. -1.
       -2    1    3    3    0  502  0.15035069951E+04 -0.10164279945E+04  0.13814178451E+02  0.18148966869E+04  0.25500000920E-02 0.  1.
</event>
<event>
 5   0  0.1193861E-07  0.3803529E+04  0.7818609E-02  0.8045398E-01
        2   -1    0    0  501    0  0.00000000000E+00  0.00000000000E+00  0.29458612058E+04  0.29458612058E+04  0.25500000920E-02 0.  1.
       -2   -1    0    0    0  501  0.00000000000E+00  0.00000000000E+00 -0.12277252506E+04  0.12277252506E+04  0.25500000920E-02 0. -1.
    10030    2    1    2    0    0  0.00000000000E+00  0.00000000000E+00  0.17181359552E+04  0.41735864565E+04  0.38035289862E+04 0.  0.
        3    1    3    3  502    0  0.66766732864E+03 -0.88552526314E+03  0.25542966525E+04  0.27846662372E+04  0.10100000352E+00 0.  1.
       -3    1    3    3    0  502 -0.66766732864E+03  0.88552526314E+03 -0.83616069733E+03  0.13889202192E+04  0.10100000352E+00 0. -1.
</event>
<event>
 5   0  0.1174870E-07  0.3806265E+04  0.7818609E-02  0.8044812E-01
        2   -1    0    0  501    0  0.00000000000E+00  0.00000000000E+00  0.25388178128E+04  0.25388178128E+04  0.25500000920E-02 0.  1.
       -2   -1    0    0    0  501  0.00000000000E+00  0.00000000000E+00 -0.14266142805E+04  0.14266142805E+04  0.25500000920E-02 0. -1.
    10030    2    1    2    0    0  0.00000000000E+00  0.00000000000E+00  0.11122035323E+04  0.39654320933E+04  0.38062652284E+04 0.  0.
        5    1    3    3  502    0  0.54606355762E+03 -0.14191863354E+04 -0.63613777430E+03  0.16483229724E+04  0.46999998093E+01 0. -1.
       -5    1    3    3    0  502 -0.54606355762E+03  0.14191863354E+04  0.17483413066E+04  0.23171091208E+04  0.46999998093E+01 0.  1.
</event>
<event>
 5   0  0.1150235E-07  0.3755114E+04  0.7818609E-02  0.8055856E-01
       -2   -1    0    0    0  501  0.00000000000E+00  0.00000000000E+00  0.15558518461E+04  0.15558518461E+04  0.25500000920E-02 0. -1.
        2   -1    0    0  501    0  0.00000000000E+00  0.00000000000E+00 -0.22657820468E+04  0.22657820468E+04  0.25500000920E-02 0.  1.
    10030    2    1    2    0    0  0.00000000000E+00  0.00000000000E+00 -0.70993020071E+03  0.38216338928E+04  0.37551144751E+04 0.  0.
        4    1    3    3  502    0 -0.13351823720E+04 -0.92097214913E+03 -0.13174011035E+04  0.20896049737E+04  0.12699999809E+01 0.  1.
       -4    1    3    3    0  502  0.13351823720E+04  0.92097214913E+03  0.60747090280E+03  0.17320289191E+04  0.12699999809E+01 0. -1.
</event>
<event>
 5   0  0.3701250E-08  0.3805720E+04  0.7818609E-02  0.8044928E-01
       -1   -1    0    0    0  501  0.00000000000E+00  0.00000000000E+00  0.27623473276E+04  0.27623473276E+04  0.50400001928E-02 0.  1.
        1   -1    0    0  501    0  0.00000000000E+00  0.00000000000E+00 -0.13107971936E+04  0.13107971936E+04  0.50400001928E-02 0. -1.
    10030    2    1    2    0    0  0.00000000000E+00  0.00000000000E+00  0.14515501340E+04  0.40731445212E+04  0.38057204967E+04 0.  0.
        4    1    3    3  502    0  0.95590348736E+03  0.78108953729E+03  0.22756424726E+04  0.25888998858E+04  0.12699999809E+01 0.  1.
       -4    1    3    3    0  502 -0.95590348736E+03 -0.78108953729E+03 -0.82409233860E+03  0.14842446354E+04  0.12699999809E+01 0. -1.
</event>
<event>
 5   0  0.3701250E-08  0.3825741E+04  0.7818609E-02  0.8040653E-01
        1   -1    0    0  501    0  0.00000000000E+00  0.00000000000E+00  0.23363673628E+04  0.23363673628E+04  0.50400001928E-02 0. -1.
       -1   -1    0    0    0  501  0.00000000000E+00  0.00000000000E+00 -0.15661380309E+04  0.15661380310E+04  0.50400001928E-02 0.  1.
    10030    2    1    2    0    0  0.00000000000E+00  0.00000000000E+00  0.77022933188E+03  0.39025053938E+04  0.38257411210E+04 0.  0.
        4    1    3    3  502    0  0.16319259265E+04 -0.27859635594E+03 -0.59237928627E+03  0.17583267589E+04  0.12699999809E+01 0.  1.
       -4    1    3    3    0  502 -0.16319259265E+04  0.27859635594E+03  0.13626086181E+04  0.21441786349E+04  0.12699999809E+01 0. -1.
</event>
<event>
 5   0  0.3701250E-08  0.3776592E+04  0.7818609E-02  0.8051197E-01
        1   -1    0    0  501    0  0.00000000000E+00  0.00000000000E+00  0.28314039724E+04  0.28314039725E+04  0.50400001928E-02 0. -1.
       -1   -1    0    0    0  501  0.00000000000E+00  0.00000000000E+00 -0.12593267362E+04  0.12593267362E+04  0.50400001928E-02 0.  1.
    10030    2    1    2    0    0  0.00000000000E+00  0.00000000000E+00  0.15720772362E+04  0.40907307087E+04  0.37765924978E+04 0.  0.
        3    1    3    3  502    0 -0.10129527343E+04 -0.67667083104E+03  0.23488640429E+04  0.26459627658E+04  0.10100000352E+00 0. -1.
       -3    1    3    3    0  502  0.10129527343E+04  0.67667083104E+03 -0.77678680671E+03  0.14447679429E+04  0.10100000352E+00 0.  1.
</event>
<event>
 5   0  0.3701250E-08  0.3804319E+04  0.7818609E-02  0.8045229E-01
        1   -1    0    0  501    0  0.00000000000E+00  0.00000000000E+00  0.18274960977E+04  0.18274960977E+04  0.50400001928E-02 0.  1.
       -1   -1    0    0    0  501  0.00000000000E+00  0.00000000000E+00 -0.19798731896E+04  0.19798731896E+04  0.50400001928E-02 0. -1.
    10030    2    1    2    0    0  0.00000000000E+00  0.00000000000E+00 -0.15237709191E+03  0.38073692872E+04  0.38043188761E+04 0.  0.
        1    1    3    3  502    0 -0.47463671616E+03  0.18413482968E+04 -0.27498066712E+02  0.19017359717E+04  0.50400001928E-02 0.  1.
       -1    1    3    3    0  502  0.47463671616E+03 -0.18413482968E+04 -0.12487902520E+03  0.19056333155E+04  0.50400001928E-02 0. -1.
</event>
<event>
 5   0  0.7858367E-08  0.3832732E+04  0.7818609E-02  0.8039167E-01
       -2   -1    0    0    0  501  0.00000000000E+00  0.00000000000E+00  0.17502385224E+04  0.17502385224E+04  0.25500000920E-02 0. -1.
        2   -1    0    0  501    0  0.00000000000E+00  0.00000000000E+00 -0.20982621336E+04  0.20982621336E+04  0.25500000920E-02 0.  1.
    10030    2    1    2    0    0  0.00000000000E+00  0.00000000000E+00 -0.34802361118E+03  0.38485006560E+04  0.38327322977E+04 0.  0.
        2    1    3    3  502    0 -0.18283378905E+04  0.54842142327E+03 -0.34463356954E+03  0.19396798180E+04  0.25500000920E-02 0.  1.
       -2    1    3    3    0  502  0.18283378905E+04 -0.54842142327E+03 -0.33900416348E+01  0.19088208380E+04  0.25500000920E-02 0. -1.
</event>
<event>
 5   0  0.3701250E-08  0.3803696E+04  0.7818609E-02  0.8045362E-01
        1   -1    0    0  501    0  0.00000000000E+00  0.00000000000E+00  0.18387936874E+04  0.18387936874E+04  0.50400001928E-02 0.  1.
       -1   -1    0    0    0  501  0.00000000000E+00  0.00000000000E+00 -0.19670641530E+04  0.19670641530E+04  0.50400001928E-02 0. -1.
    10030    2    1    2    0    0  0.00000000000E+00  0.00000000000E+00 -0.12827046557E+03  0.38058578404E+04  0.38036956489E+04 0.  0.
        2    1    3    3  502    0 -0.55353167694E+03  0.11670377049E+04  0.13325991214E+04  0.18558541808E+04  0.25500000920E-02 0.  1.
       -2    1    3    3    0  502  0.55353167694E+03 -0.11670377049E+04 -0.14608695870E+04  0.19500036596E+04  0.25500000920E-02 0. -1.
</event>
<event>
 5   0  0.1193861E-07  0.3799462E+04  0.7818609E-02  0.8046270E-01
       -2   -1    0    0    0  501  0.00000000000E+00  0.00000000000E+00  0.17441525371E+04  0.17441525371E+04  0.25500000920E-02 0. -1.
        2   -1    0    0  501    0  0.00000000000E+00  0.00000000000E+00 -0.20691870081E+04  0.20691870081E+04  0.25500000920E-02 0.  1.
    10030    2    1    2    0    0  0.00000000000E+00  0.00000000000E+00 -0.32503447096E+03  0.38133395452E+04  0.37994619461E+04 0.  0.
        3    1    3    3  502    0  0.16688874098E+04 -0.31422941424E+03  0.69209299969E+03  0.18338260664E+04  0.10100000352E+00 0. -1.
       -3    1    3    3    0  502 -0.16688874098E+04  0.31422941424E+03 -0.10171274707E+04  0.19795134789E+04  0.10100000352E+00 0.  1.
</event>
<event>
 5   0  0.3701250E-08  0.3803768E+04  0.7818609E-02  0.8045347E-01
       -3   -1    0    0    0  501  0.00000000000E+00  0.00000000000E+00  0.21611503077E+04  0.21611503100E+04  0.10100000352E+00 0.  1.
        3   -1    0    0  501    0  0.00000000000E+00  0.00000000000E+00 -0.16737212161E+04  0.16737212192E+04  0.10100000352E+00 0. -1.
    10030    2    1    2    0    0  0.00000000000E+00  0.00000000000E+00  0.48742909157E+03  0.38348715292E+04  0.38037682009E+04 0.  0.
        4    1    3    3  502    0  0.16598809792E+04 -0.56046354741E+03  0.98992711740E+03  0.20122826749E+04  0.12699999809E+01 0.  1.
       -4    1    3    3    0  502 -0.16598809792E+04  0.56046354741E+03 -0.50249802583E+03  0.18225888543E+04  0.12699999809E+01 0. -1.
</event>
<event>
 5   0  0.7858367E-08  0.3785653E+04  0.7818609E-02  0.8049241E-01
       -2   -1    0    0    0  501  0.00000000000E+00  0.00000000000E+00  0.25552051757E+04  0.25552051757E+04  0.25500000920E-02 0. -1.
        2   -1    0    0  501    0  0.00000000000E+00  0.00000000000E+00 -0.14021547021E+04  0.14021547021E+04  0.25500000920E-02 0.  1.
    10030    2    1    2    0    0  0.00000000000E+00  0.00000000000E+00  0.11530504735E+04  0.39573598778E+04  0.37856534189E+04 0.  0.
        2    1    3    3  502    0  0.71910590146E+03 -0.74904082174E+03  0.22309057295E+04  0.24607144946E+04  0.25500000920E-02 0. -1.
       -2    1    3    3    0  502 -0.71910590146E+03  0.74904082174E+03 -0.10778552560E+04  0.14966453832E+04  0.25500000920E-02 0.  1.
</event>
<event>
 5   0  0.3701250E-08  0.3753004E+04  0.7818609E-02  0.8056316E-01
        1   -1    0    0  501    0  0.00000000000E+00  0.00000000000E+00  0.13852702601E+04  0.13852702601E+04  0.50400001928E-02 0. -1.
       -1   -1    0    0    0  501  0.00000000000E+00  0.00000000000E+00 -0.25419303890E+04  0.25419303890E+04  0.50400001928E-02 0.  1.
    10030    2    1    2    0    0  0.00000000000E+00  0.00000000000E+00 -0.11566601289E+04  0.39272006491E+04  0.37530044344E+04 0.  0.
        1    1    3    3  502    0 -0.54464405731E+03  0.21863563922E+03 -0.24434228659E+04  0.25129174267E+04  0.50400001928E-02 0.  1.
       -1    1    3    3    0  502  0.54464405731E+03 -0.21863563922E+03  0.12867627370E+04  0.14142832224E+04  0.50400001928E-02 0. -1.
</event>
<event>
 5   0  0.1193861E-07  0.3826881E+04  0.7818609E-02  0.8040411E-01
        2   -1    0    0  501    0  0.00000000000E+00  0.00000000000E+00  0.20296907175E+04  0.20296907175E+04  0.25500000920E-02 0.  1.
       -2   -1    0    0    0  501  0.00000000000E+00  0.00000000000E+00 -0.18038485899E+04  0.18038485899E+04  0.25500000920E-02 0. -1.
    10030    2    1    2    0    0  0.00000000000E+00  0.00000000000E+00  0.22584212752E+03  0.38335393074E+04  0.38268811002E+04 0.  0.
        3    1    3    3  502    0 -0.14119378723E+04 -0.48751682757E+03  0.13108333598E+04  0.19873412691E+04  0.10100000352E+00 0.  1.
       -3    1    3    3    0  502  0.14119378723E+04  0.48751682757E+03 -0.10849912323E+04  0.18461980383E+04  0.10100000352E+00 0. -1.
</event>
<event>
 5   0  0.3701250E-08  0.3792693E+04  0.7818609E-02  0.8047725E-01
       -3   -1    0    0    0  501  0.00000000000E+00  0.00000000000E+00  0.14349193136E+04  0.14349193171E+04  0.10100000352E+00 0. -1.
        3   -1    0    0  501    0  0.00000000000E+00  0.00000000000E+00 -0.25061548782E+04  0.25061548802E+04  0.10100000352E+00 0.  1.
    10030    2    1    2    0    0  0.00000000000E+00  0.00000000000E+00 -0.10712355646E+04  0.39410741974E+04  0.37926930003E+04 0.  0.
        2    1    3    3  502    0 -0.40373694820E+03  0.96171847373E+03 -0.21813155860E+04  0.24178593077E+04  0.25500000920E-02 0.  1.
       -2    1    3    3    0  502  0.40373694820E+03 -0.96171847373E+03  0.11100800214E+04  0.15232148896E+04  0.25500000920E-02 0. -1.
</event>
<event>
 5   0  0.1143283E-07  0.3772483E+04  0.7818609E-02  0.8052086E-01
       -2   -1    0    0    0  501  0.00000000000E+00  0.00000000000E+00  0.13536399095E+04  0.13536399095E+04  0.25500000920E-02 0. -1.
        2   -1    0    0  501    0  0.00000000000E+00  0.00000000000E+00 -0.26283996919E+04  0.26283996919E+04  0.25500000920E-02 0.  1.
    10030    2    1    2    0    0  0.00000000000E+00  0.00000000000E+00 -0.12747597824E+04  0.39820396014E+04  0.37724828541E+04 0.  0.
        1    1    3    3  502    0 -0.12057670932E+04  0.61394871703E+03 -0.20245731454E+04  0.24350983001E+04  0.50400001928E-02 0.  1.
       -1    1    3    3    0  502  0.12057670932E+04 -0.61394871703E+03  0.74981336304E+03  0.15469413013E+04  0.50400001928E-02 0. -1.
</event>
<event>
 5   0  0.1193861E-07  0.3816568E+04  0.7818609E-02  0.8042609E-01
       -2   -1    0    0    0  501  0.00000000000E+00  0.00000000000E+00  0.16965487903E+04  0.16965487903E+04  0.25500000920E-02 0. -1.
        2   -1    0    0  501    0  0.00000000000E+00  0.00000000000E+00 -0.21464442026E+04  0.21464442026E+04  0.25500000920E-02 0.  1.
    10030    2    1    2    0    0  0.00000000000E+00  0.00000000000E+00 -0.44989541228E+03  0.38429929930E+04  0.38165677332E+04 0.  0.
        3    1    3    3  502    0 -0.15265875154E+03  0.73367552851E+03  0.15421857775E+04  0.17146199165E+04  0.10100000352E+00 0. -1.
       -3    1    3    3    0  502  0.15265875154E+03 -0.73367552851E+03 -0.19920811898E+04  0.21283730764E+04  0.10100000352E+00 0.  1.
</event>
<event>
 5   0  0.3701250E-08  0.3813387E+04  0.7818609E-02  0.8043288E-01
        1   -1    0    0  501    0  0.00000000000E+00  0.00000000000E+00  0.24364410832E+04  0.24364410832E+04  0.50400001928E-02 0. -1.
       -1   -1    0    0    0  501  0.00000000000E+00  0.00000000000E+00 -0.14921270204E+04  0.14921270204E+04  0.50400001928E-02 0.  1.
    10030    2    1    2    0    0  0.00000000000E+00  0.00000000000E+00  0.94431406280E+03  0.39285681036E+04  0.38133867225E+04 0.  0.
        4    1    3    3  502    0 -0.39168038022E+03 -0.74003064165E+03 -0.12925983131E+04  0.15400879464E+04  0.12699999809E+01 0.  1.
       -4    1    3    3    0  502  0.39168038022E+03  0.74003064165E+03  0.22369123759E+04  0.23884801572E+04  0.12699999809E+01 0. -1.
</event>
<event>
 5   0  0.1174870E-07  0.3786455E+04  0.7818609E-02  0.8049068E-01
       -2   -1    0    0    0  501  0.00000000000E+00  0.00000000000E+00  0.18576711430E+04  0.18576711430E+04  0.25500000920E-02 0. -1.
        2   -1    0    0  501    0  0.00000000000E+00  0.00000000000E+00 -0.19294646010E+04  0.19294646010E+04  0.25500000920E-02 0.  1.
    10030    2    1    2    0    0  0.00000000000E+00  0.00000000000E+00 -0.71793457959E+02  0.37871357440E+04  0.37864551817E+04 0.  0.
        5    1    3    3  502    0  0.17603195236E+03  0.15558269175E+04  0.10285802257E+04  0.18733883784E+04  0.46999998093E+01 0. -1.
       -5    1    3    3    0  502 -0.17603195236E+03 -0.15558269175E+04 -0.11003736837E+04  0.19137473656E+04  0.46999998093E+01 0.  1.
</event>
<event>
 5   0  0.1143283E-07  0.3787331E+04  0.7818609E-02  0.8048879E-01
        2   -1    0    0  501    0  0.00000000000E+00  0.00000000000E+00  0.27980624981E+04  0.27980624981E+04  0.25500000920E-02 0. -1.
       -2   -1    0    0    0  501  0.00000000000E+00  0.00000000000E+00 -0.12815903298E+04  0.12815903298E+04  0.25500000920E-02 0.  1.
    10030    2    1    2    0    0  0.00000000000E+00  0.00000000000E+00  0.15164721683E+04  0.40796528279E+04  0.37873314298E+04 0.  0.
        1    1    3    3  502    0 -0.33286067143E+00 -0.11352181461E+04  0.23908894079E+04  0.26467097519E+04  0.50400001928E-02 0. -1.
       -1    1    3    3    0  502  0.33286067143E+00  0.11352181461E+04 -0.87441723963E+03  0.14329430760E+04  0.50400001928E-02 0.  1.
</event>
<event>
 5   0  0.1143283E-07  0.3800319E+04  0.7818609E-02  0.8046086E-01
        2   -1    0    0  501    0  0.00000000000E+00  0.00000000000E+00  0.18047760464E+04  0.18047760464E+04  0.25500000920E-02 0. -1.
       -2   -1    0    0    0  501  0.00000000000E+00  0.00000000000E+00 -0.20005843837E+04  0.20005843837E+04  0.25500000920E-02 0.  1.
    10030    2    1    2    0    0  0.00000000000E+00  0.00000000000E+00 -0.19580833727E+03  0.38053604301E+04  0.38003193416E+04 0.  0.
        1    1    3    3  502    0  0.14531219090E+04  0.22960099269E+03 -0.13021327597E+04  0.19646449100E+04  0.50400001928E-02 0.  1.
       -1    1    3    3    0  502 -0.14531219090E+04 -0.22960099269E+03  0.11063244225E+04  0.18407155202E+04  0.50400001928E-02 0. -1.
</event>
<event>
 5   0  0.3889225E-08  0.3844066E+04  0.7818609E-02  0.8036764E-01
       -1   -1    0    0    0  501  0.00000000000E+00  0.00000000000E+00  0.19623183998E+04  0.19623183998E+04  0.50400001928E-02 0. -1.
        1   -1    0    0  501    0  0.00000000000E+00  0.00000000000E+00 -0.18825746432E+04  0.18825746432E+04  0.50400001928E-02 0.  1.
    10030    2    1    2    0    0  0.00000000000E+00  0.00000000000E+00  0.79743756631E+02  0.38448930430E+04  0.38440660043E+04 0.  0.
        5    1    3    3  502    0 -0.12039723715E+04 -0.64014547533E+03 -0.13149870373E+04  0.18943465098E+04  0.46999998093E+01 0.  1.
       -5    1    3    3    0  502  0.12039723715E+04  0.64014547533E+03  0.13947307939E+04  0.19505465333E+04  0.46999998093E+01 0. -1.
</event>
<event>
 5   0  0.1193861E-07  0.3788579E+04  0.7818609E-02  0.8048610E-01
        2   -1    0    0  501    0  0.00000000000E+00  0.00000000000E+00  0.15921169956E+04  0.15921169956E+04  0.25500000920E-02 0.  1.
       -2   -1    0    0    0  501  0.00000000000E+00  0.00000000000E+00 -0.22538120053E+04  0.22538120054E+04  0.25500000920E-02 0. -1.
    10030    2    1    2    0    0  0.00000000000E+00  0.00000000000E+00 -0.66169500971E+03  0.38459290010E+04  0.37885788358E+04 0.  0.
        3    1    3    3  502    0  0.30275361713E+03 -0.66358878786E+03  0.14438507696E+04  0.16176263126E+04  0.10100000352E+00 0.  1.
       -3    1    3    3    0  502 -0.30275361713E+03  0.66358878786E+03 -0.21055457793E+04  0.22283026884E+04  0.10100000352E+00 0. -1.
</event>
<event>
 5   0  0.3701250E-08  0.3770029E+04  0.7818609E-02  0.8052617E-01
       -1   -1    0    0    0  501  0.00000000000E+00  0.00000000000E+00  0.23165996276E+04  0.23165996276E+04  0.50400001928E-02 0. -1.
        1   -1    0    0  501    0  0.00000000000E+00  0.00000000000E+00 -0.15338341004E+04  0.15338341004E+04  0.50400001928E-02 0.  1.
    10030    2    1    2    0    0  0.00000000000E+00  0.00000000000E+00  0.78276552716E+03  0.38504337280E+04  0.37700289155E+04 0.  0.
        2    1    3    3  502    0  0.44932526776E+03  0.17732280533E+04  0.85611318270E+03  0.20196932210E+04  0.25500000920E-02 0. -1.
       -2    1    3    3    0  502 -0.44932526776E+03 -0.17732280533E+04 -0.73347655537E+02  0.18307405070E+04  0.25500000920E-02 0.  1.
</event>
<event>
 5   0  0.3701250E-08  0.3803321E+04  0.7818609E-02  0.8045443E-01
       -1   -1    0    0    0  501  0.00000000000E+00  0.00000000000E+00  0.18077352203E+04  0.18077352203E+04  0.50400001928E-02 0.  1.
        1   -1    0    0  501    0  0.00000000000E+00  0.00000000000E+00 -0.20004658661E+04  0.20004658661E+04  0.50400001928E-02 0. -1.
    10030    2    1    2    0    0  0.00000000000E+00  0.00000000000E+00 -0.19273064581E+03  0.38082010864E+04  0.38033209716E+04 0.  0.
        4    1    3    3  502    0  0.13172565067E+04 -0.10707549668E+04  0.76184009109E+03  0.18606673106E+04  0.12699999809E+01 0.  1.
       -4    1    3    3    0  502 -0.13172565067E+04  0.10707549668E+04 -0.95457073690E+03  0.19475337758E+04  0.12699999809E+01 0. -1.
</event>
<event>
 5   0  0.1143283E-07  0.3872862E+04  0.7818609E-02  0.8030697E-01
        2   -1    0    0  501    0  0.00000000000E+00  0.00000000000E+00  0.20127168133E+04  0.20127168133E+04  0.25500000920E-02 0.  1.
       -2   -1    0    0    0  501  0.00000000000E+00  0.00000000000E+00 -0.18630362356E+04  0.18630362356E+04  0.25500000920E-02 0. -1.
    10030    2    1    2    0    0  0.00000000000E+00  0.00000000000E+00  0.14968057768E+03  0.38757530489E+04  0.38728616578E+04 0.  0.
        1    1    3    3  502    0  0.17176010510E+04  0.25154908234E+03  0.93358001372E+03  0.19710408299E+04  0.50400001928E-02 0.  1.
       -1    1    3    3    0  502 -0.17176010510E+04 -0.25154908234E+03 -0.78389943605E+03  0.19047122190E+04  0.50400001928E-02 0. -1.
</event>
<event>
 5   0  0.3701250E-08  0.3791139E+04  0.7818609E-02  0.8048059E-01
       -1   -1    0    0    0  501  0.00000000000E+00  0.00000000000E+00  0.19038763777E+04  0.19038763777E+04  0.50400001928E-02 0.  1.
        1   -1    0    0  501    0  0.00000000000E+00  0.00000000000E+00 -0.18872991612E+04  0.18872991612E+04  0.50400001928E-02 0. -1.
    10030    2    1    2    0    0  0.00000000000E+00  0.00000000000E+00  0.16577216536E+02  0.37911755389E+04  0.37911392961E+04 0.  0.
        3    1    3    3  502    0  0.98677321003E+02 -0.20367697520E+03  0.18903168966E+04  0.19038170878E+04  0.10100000352E+00 0.  1.
       -3    1    3    3    0  502 -0.98677321003E+02  0.20367697520E+03 -0.18737396801E+04  0.18873584511E+04  0.10100000352E+00 0. -1.
</event>
<event>
 5   0  0.3701250E-08  0.3804635E+04  0.7818609E-02  0.8045161E-01
        1   -1    0    0  501    0  0.00000000000E+00  0.00000000000E+00  0.27154026174E+04  0.27154026174E+04  0.50400001928E-02 0.  1.
       -1   -1    0    0    0  501  0.00000000000E+00  0.00000000000E+00 -0.13326977564E+04  0.13326977564E+04  0.50400001928E-02 0. -1.
    10030    2    1    2    0    0  0.00000000000E+00  0.00000000000E+00  0.13827048609E+04  0.40481003738E+04  0.38046345296E+04 0.  0.
        4    1    3    3  502    0  0.10680108749E+04  0.28843804026E+02  0.23660264124E+04  0.25960665999E+04  0.12699999809E+01 0.  1.
       -4    1    3    3    0  502 -0.10680108749E+04 -0.28843804026E+02 -0.98332155149E+03  0.14520337739E+04  0.12699999809E+01 0. -1.
</event>
<event>
 5   0  0.3701250E-08  0.3794881E+04  0.7818609E-02  0.8047254E-01
       -1   -1    0    0    0  501  0.00000000000E+00  0.00000000000E+00  0.17120944266E+04  0.17120944267E+04  0.50400001928E-02 0.  1.
        1   -1    0    0  501    0  0.00000000000E+00  0.00000000000E+00 -0.21028513599E+04  0.21028513599E+04  0.50400001928E-02 0. -1.
    10030    2    1    2    0    0  0.00000000000E+00  0.00000000000E+00 -0.39075693328E+03  0.38149457866E+04  0.37948808115E+04 0.  0.
        2    1    3    3  502    0  0.14514397700E+04  0.41375259184E+03 -0.13514202621E+04  0.20258838412E+04  0.25500000920E-02 0.  1.
       -2    1    3    3    0  502 -0.14514397700E+04 -0.41375259184E+03  0.96066332885E+03  0.17890619454E+04  0.25500000920E-02 0. -1.
</event>
<event>
 5   0  0.7858367E-08  0.3802436E+04  0.7818609E-02  0.8045632E-01
       -2   -1    0    0    0  501  0.00000000000E+00  0.00000000000E+00  0.13404044374E+04  0.13404044374E+04  0.25500000920E-02 0.  1.
        2   -1    0    0  501    0  0.00000000000E+00  0.00000000000E+00 -0.26966712520E+04  0.26966712520E+04  0.25500000920E-02 0. -1.
    10030    2    1    2    0    0  0.00000000000E+00  0.00000000000E+00 -0.13562668147E+04  0.40370756894E+04  0.38024361204E+04 0.  0.
        2    1    3    3  502    0 -0.16428627418E+04 -0.37527314350E+03  0.25641195234E+03  0.17045747299E+04  0.25500000920E-02 0.  1.
       -2    1    3    3    0  502  0.16428627418E+04  0.37527314350E+03 -0.16126787670E+04  0.23325009595E+04  0.25500000920E-02 0. -1.
</event>
<event>
 5   0  0.7858367E-08  0.3803872E+04  0.7818609E-02  0.8045325E-01
       -2   -1    0    0    0  501  0.00000000000E+00  0.00000000000E+00  0.13667671368E+04  0.13667671368E+04  0.25500000920E-02 0. -1.
        2   -1    0    0  501    0  0.00000000000E+00  0.00000000000E+00 -0.26466541430E+04  0.26466541430E+04  0.25500000920E-02 0.  1.
    10030    2    1    2    0    0  0.00000000000E+00  0.00000000000E+00 -0.12798870061E+04  0.40134212798E+04  0.38038716620E+04 0.  0.
        2    1    3    3  502    0  0.33106274482E+03 -0.18398898229E+04 -0.27056787493E+03  0.18889161115E+04  0.25500000920E-02 0. -1.
       -2    1    3    3    0  502 -0.33106274482E+03  0.18398898229E+04 -0.10093191312E+04  0.21245051683E+04  0.25500000920E-02 0.  1.
</event>
<event>
 5   0  0.7858367E-08  0.3815911E+04  0.7818609E-02  0.8042749E-01
       -2   -1    0    0    0  501  0.00000000000E+00  0.00000000000E+00  0.15346548754E+04  0.15346548754E+04  0.25500000920E-02 0.  1.
        2   -1    0    0  501    0  0.00000000000E+00  0.00000000000E+00 -0.23720601288E+04  0.23720601288E+04  0.25500000920E-02 0. -1.
    10030    2    1    2    0    0  0.00000000000E+00  0.00000000000E+00 -0.83740525345E+03  0.39067150042E+04  0.38159107125E+04 0.  0.
        2    1    3    3  502    0  0.11869781010E+04 -0.14835568677E+04 -0.59731223248E+03  0.19916425119E+04  0.25500000920E-02 0.  1.
       -2    1    3    3    0  502 -0.11869781010E+04  0.14835568677E+04 -0.24009302097E+03  0.19150724923E+04  0.25500000920E-02 0. -1.
</event>
<event>
 5   0  0.1174870E-07  0.3778312E+04  0.7818609E-02  0.8050825E-01
       -2   -1    0    0    0  501  0.00000000000E+00  0.00000000000E+00  0.10891099214E+04  0.10891099214E+04  0.25500000920E-02 0. -1.
        2   -1    0    0  501    0  0.00000000000E+00  0.00000000000E+00 -0.32769050648E+04  0.32769050648E+04  0.25500000920E-02 0.  1.
    10030    2    1    2    0    0  0.00000000000E+00  0.00000000000E+00 -0.21877951433E+04  0.43660149862E+04  0.37783116958E+04 0.  0.
        5    1    3    3  502    0  0.39717529072E+02  0.52621866436E+03  0.10022027393E+04  0.11326588125E+04  0.46999998093E+01 0. -1.
       -5    1    3    3    0  502 -0.39717529072E+02 -0.52621866436E+03 -0.31899978826E+04  0.32333561737E+04  0.46999998093E+01 0.  1.
</event>
<event>
 5   0  0.3701250E-08  0.3771277E+04  0.7818609E-02  0.8052347E-01
       -1   -1    0    0    0  501  0.00000000000E+00  0.00000000000E+00  0.14093897762E+04  0.14093897762E+04  0.50400001928E-02 0. -1.
        1   -1    0    0  501    0  0.00000000000E+00  0.00000000000E+00 -0.25228175437E+04  0.25228175437E+04  0.50400001928E-02 0.  1.
    10030    2    1    2    0    0  0.00000000000E+00  0.00000000000E+00 -0.11134277675E+04  0.39322073199E+04  0.37712773715E+04 0.  0.
        4    1    3    3  502    0  0.17793368369E+04 -0.25891422685E+03  0.35461223522E+02  0.17984257747E+04  0.12699999809E+01 0. -1.
       -4    1    3    3    0  502 -0.17793368369E+04  0.25891422685E+03 -0.11488889910E+04  0.21337815452E+04  0.12699999809E+01 0.  1.
</event>
<event>
 5   0  0.3701250E-08  0.3805806E+04  0.7818609E-02  0.8044910E-01
        1   -1    0    0  501    0  0.00000000000E+00  0.00000000000E+00  0.25715770408E+04  0.25715770408E+04  0.50400001928E-02 0. -1.
       -1   -1    0    0    0  501  0.00000000000E+00  0.00000000000E+00 -0.14081008841E+04  0.14081008841E+04  0.50400001928E-02 0.  1.
    10030    2    1    2    0    0  0.00000000000E+00  0.00000000000E+00  0.11634761567E+04  0.39796779249E+04  0.38058060406E+04 0.  0.
        3    1    3    3  502    0 -0.20581686765E+03 -0.12594440037E+04  0.20577785740E+04  0.24213658235E+04  0.10100000352E+00 0. -1.
       -3    1    3    3    0  502  0.20581686765E+03  0.12594440037E+04 -0.89430241729E+03  0.15583121014E+04  0.10100000352E+00 0.  1.
</event>
<event>
 5   0  0.1193861E-07  0.3847108E+04  0.7818609E-02  0.8036121E-01
       -2   -1    0    0    0  501  0.00000000000E+00  0.00000000000E+00  0.17472754984E+04  0.17472754984E+04  0.25500000920E-02 0.  1.
        2   -1    0    0  501    0  0.00000000000E+00  0.00000000000E+00 -0.21176165269E+04  0.21176165269E+04  0.25500000920E-02 0. -1.
    10030    2    1    2    0    0  0.00000000000E+00  0.00000000000E+00 -0.37034102850E+03  0.38648920253E+04  0.38471077304E+04 0.  0.
        3    1    3    3  502    0 -0.11985528341E+03  0.34107311340E+03  0.17128390416E+04  0.17505752627E+04  0.10100000352E+00 0.  1.
       -3    1    3    3    0  502  0.11985528341E+03 -0.34107311340E+03 -0.20831800701E+04  0.21143167626E+04  0.10100000352E+00 0. -1.
</event>
<event>
 5   0  0.3701250E-08  0.3798182E+04  0.7818609E-02  0.8046545E-01
       -1   -1    0    0    0  501  0.00000000000E+00  0.00000000000E+00  0.18046530185E+04  0.18046530185E+04  0.50400001928E-02 0. -1.
        1   -1    0    0  501    0  0.00000000000E+00  0.00000000000E+00 -0.19984707942E+04  0.19984707942E+04  0.50400001928E-02 0.  1.
    10030    2    1    2    0    0  0.00000000000E+00  0.00000000000E+00 -0.19381777570E+03  0.38031238128E+04  0.37981818552E+04 0.  0.
        2    1    3    3  502    0  0.18237548374E+04  0.42780546067E+03 -0.40948028998E+03  0.19174914151E+04  0.25500000920E-02 0. -1.
       -2    1    3    3    0  502 -0.18237548374E+04 -0.42780546067E+03  0.21566251428E+03  0.18856323977E+04  0.25500000920E-02 0.  1.
</event>
<event>
 5   0  0.1193861E-07  0.3793807E+04  0.7818609E-02  0.8047485E-01
        2   -1    0    0  501    0  0.00000000000E+00  0.00000000000E+00  0.16271450262E+04  0.16271450262E+04  0.25500000920E-02 0. -1.
       -2   -1    0    0    0  501  0.00000000000E+00  0.00000000000E+00 -0.22113847407E+04  0.22113847407E+04  0.25500000920E-02 0.  1.
    10030    2    1    2    0    0  0.00000000000E+00  0.00000000000E+00 -0.58423971451E+03  0.38385297669E+04  0.37938074184E+04 0.  0.
        3    1    3    3  502    0  0.87460842048E+03 -0.15664032107E+04  0.33132955016E+03  0.18243733688E+04  0.10100000352E+00 0. -1.
       -3    1    3    3    0  502 -0.87460842048E+03  0.15664032107E+04 -0.91556926467E+03  0.20141563982E+04  0.10100000352E+00 0.  1.
</event>
<event>
 5   0  0.3701250E-08  0.3799346E+04  0.7818609E-02  0.8046295E-01
        1   -1    0    0  501    0  0.00000000000E+00  0.00000000000E+00  0.20446953549E+04  0.20446953549E+04  0.50400001928E-02 0.  1.
       -1   -1    0    0    0  501  0.00000000000E+00  0.00000000000E+00 -0.17649363113E+04  0.17649363113E+04  0.50400001928E-02 0. -1.
    10030    2    1    2    0    0  0.00000000000E+00  0.00000000000E+00  0.27975904360E+03  0.38096316662E+04  0.37993457739E+04 0.  0.
        4    1    3    3  502    0 -0.16471054273E+04 -0.61710143081E+03  0.85944688591E+03  0.19576570249E+04  0.12699999809E+01 0.  1.
       -4    1    3    3    0  502  0.16471054273E+04  0.61710143081E+03 -0.57968784231E+03  0.18519746413E+04  0.12699999809E+01 0. -1.
</event>
<event>
 5   0  0.3889225E-08  0.3801543E+04  0.7818609E-02  0.8045824E-01
       -1   -1    0    0    0  501  0.00000000000E+00  0.00000000000E+00  0.26375823445E+04  0.26375823445E+04  0.50400001928E-02 0.  1.
        1   -1    0    0  501    0  0.00000000000E+00  0.00000000000E+00 -0.13697893330E+04  0.13697893330E+04  0.50400001928E-02 0. -1.
    10030    2    1    2    0    0  0.00000000000E+00  0.00000000000E+00  0.12677930115E+04  0.40073716775E+04  0.38015429290E+04 0.  0.
        5    1    3    3  502    0  0.90961273494E+03 -0.15732147508E+04  0.46491579771E+02  0.18178513517E+04  0.46999998093E+01 0. -1.
       -5    1    3    3    0  502 -0.90961273494E+03  0.15732147508E+04  0.12213014318E+04  0.21895203258E+04  0.46999998093E+01 0.  1.
</event>
<event>
 5   0  0.3701250E-08  0.3799579E+04  0.7818609E-02  0.8046245E-01
       -1   -1    0    0    0  501  0.00000000000E+00  0.00000000000E+00  0.20042407426E+04  0.20042407426E+04  0.50400001928E-02 0.  1.
        1   -1    0    0  501    0  0.00000000000E+00  0.00000000000E+00 -0.18007820321E+04  0.18007820321E+04  0.50400001928E-02 0. -1.
    10030    2    1    2    0    0  0.00000000000E+00  0.00000000000E+00  0.20345871050E+03  0.38050227748E+04  0.37995793017E+04 0.  0.
        3    1    3    3  502    0  0.12430646998E+04  0.14075609892E+04 -0.18636825298E+03  0.18871064946E+04  0.10100000352E+00 0.  1.
       -3    1    3    3    0  502 -0.12430646998E+04 -0.14075609892E+04  0.38982696347E+03  0.19179162802E+04  0.10100000352E+00 0. -1.
</event>
<event>
 5   0  0.3701250E-08  0.3749003E+04  0.7818609E-02  0.8057188E-01
       -1   -1    0    0    0  501  0.00000000000E+00  0.00000000000E+00  0.17579202397E+04  0.17579202397E+04  0.50400001928E-02 0.  1.
        1   -1    0    0  501    0  0.00000000000E+00  0.00000000000E+00 -0.19988137688E+04  0.19988137688E+04  0.50400001928E-02 0. -1.
    10030    2    1    2    0    0  0.00000000000E+00  0.00000000000E+00 -0.24089352910E+03  0.37567340084E+04  0.37490026297E+04 0.  0.
        1    1    3    3  502    0 -0.97888358776E+03 -0.41410852354E+03 -0.16676698927E+04  0.19775797882E+04  0.50400001928E-02 0. -1.
       -1    1    3    3    0  502  0.97888358776E+03  0.41410852354E+03  0.14267763636E+04  0.17791542202E+04  0.50400001928E-02 0.  1.
</event>
<event>
 5   0  0.7858367E-08  0.3785061E+04  0.7818609E-02  0.8049368E-01
       -2   -1    0    0    0  501  0.00000000000E+00  0.00000000000E+00  0.26725447679E+04  0.26725447679E+04  0.25500000920E-02 0. -1.
        2   -1    0    0  501    0  0.00000000000E+00  0.00000000000E+00 -0.13401725206E+04  0.13401725206E+04  0.25500000920E-02 0.  1.
    10030    2    1    2    0    0  0.00000000000E+00  0.00000000000E+00  0.13323722473E+04  0.40127172885E+04  0.37850606643E+04 0.  0.
        2    1    3    3  502    0 -0.96115221842E+03  0.43833671727E+03 -0.99851953604E+03  0.14536140920E+04  0.25500000920E-02 0.  1.
       -2    1    3    3    0  502  0.96115221842E+03 -0.43833671727E+03  0.23308917833E+04  0.25591031965E+04  0.25500000920E-02 0. -1.
</event>
<event>
 5   0  0.7858367E-08  0.3792587E+04  0.7818609E-02  0.8047748E-01
        2   -1    0    0  501    0  0.00000000000E+00  0.00000000000E+00  0.15645753323E+04  0.15645753323E+04  0.25500000920E-02 0.  1.
       -2   -1    0    0    0  501  0.00000000000E+00  0.00000000000E+00 -0.22983419483E+04  0.22983419483E+04  0.25500000920E-02 0. -1.
    10030    2    1    2    0    0  0.00000000000E+00  0.00000000000E+00 -0.73376661603E+03  0.38629172807E+04  0.37925870419E+04 0.  0.
        2    1    3    3  502    0  0.32904910134E+03  0.78113684640E+03 -0.20946539346E+04  0.22596511213E+04  0.25500000920E-02 0. -1.
       -2    1    3    3    0  502 -0.32904910134E+03 -0.78113684640E+03  0.13608873186E+04  0.16032661594E+04  0.25500000920E-02 0.  1.
</event>
<event>
 5   0  0.3701250E-08  0.3805149E+04  0.7818609E-02  0.8045051E-01
       -1   -1    0    0    0  501  0.00000000000E+00  0.00000000000E+00  0.17396185064E+04  0.17396185064E+04  0.50400001928E-02 0. -1.
        1   -1    0    0  501    0  0.00000000000E+00  0.00000000000E+00 -0.20807955123E+04  0.20807955123E+04  0.50400001928E-02 0.  1.
    10030    2    1    2    0    0  0.00000000000E+00  0.00000000000E+00 -0.34117700597E+03  0.38204140187E+04  0.38051493433E+04 0.  0.
        3    1    3    3  502    0  0.11635910099E+04 -0.14709336234E+04 -0.49155925776E+03  0.19388708768E+04  0.10100000352E+00 0.  1.
       -3    1    3    3    0  502 -0.11635910099E+04  0.14709336234E+04  0.15038225180E+03  0.18815431419E+04  0.10100000352E+00 0. -1.
</event>
<event>
 5   0  0.1143283E-07  0.3798659E+04  0.7818609E-02  0.8046443E-01
        2   -1    0    0  501    0  0.00000000000E+00  0.00000000000E+00  0.25726706639E+04  0.25726706639E+04  0.25500000920E-02 0.  1.
       -2   -1    0    0    0  501  0.00000000000E+00  0.00000000000E+00 -0.14022212016E+04  0.14022212016E+04  0.25500000920E-02 0. -1.
    10030    2    1    2    0    0  0.00000000000E+00  0.00000000000E+00  0.11704494623E+04  0.39748918654E+04  0.37986594212E+04 0.  0.
        1    1    3    3  502    0  0.16296153919E+04 -0.97552038916E+03  0.57170258523E+03  0.19834641921E+04  0.50400001928E-02 0.  1.
       -1    1    3    3    0  502 -0.16296153919E+04  0.97552038916E+03  0.59874687706E+03  0.19914276733E+04  0.50400001928E-02 0. -1.
</event>
<event>
 5   0  0.3701250E-08  0.3793119E+04  0.7818609E-02  0.8047633E-01
        1   -1    0    0  501    0  0.00000000000E+00  0.00000000000E+00  0.18681936227E+04  0.18681936227E+04  0.50400001928E-02 0.  1.
       -1   -1    0    0    0  501  0.00000000000E+00  0.00000000000E+00 -0.19253564224E+04  0.19253564224E+04  0.50400001928E-02 0. -1.
    10030    2    1    2    0    0  0.00000000000E+00  0.00000000000E+00 -0.57162799653E+02  0.37935500451E+04  0.37931193442E+04 0.  0.
        4    1    3    3  502    0 -0.13367609852E+04 -0.11306308338E+04 -0.75782876023E+03  0.19077636270E+04  0.12699999809E+01 0.  1.
       -4    1    3    3    0  502  0.13367609852E+04  0.11306308338E+04  0.70066596058E+03  0.18857864182E+04  0.12699999809E+01 0. -1.
</event>
<event>
 5   0  0.3701250E-08  0.3800414E+04  0.7818609E-02  0.8046066E-01
        1   -1    0    0  501    0  0.00000000000E+00  0.00000000000E+00  0.20309992900E+04  0.20309992900E+04  0.50400001928E-02 0. -1.
       -1   -1    0    0    0  501  0.00000000000E+00  0.00000000000E+00 -0.17778373924E+04  0.17778373924E+04  0.50400001928E-02 0.  1.
    10030    2    1    2    0    0  0.00000000000E+00  0.00000000000E+00  0.25316189760E+03  0.38088366824E+04  0.38004139152E+04 0.  0.
        4    1    3    3  502    0  0.41055273624E+03 -0.17280826687E+04 -0.55016488457E+03  0.18594370848E+04  0.12699999809E+01 0.  1.
       -4    1    3    3    0  502 -0.41055273624E+03  0.17280826687E+04  0.80332678217E+03  0.19493995976E+04  0.12699999809E+01 0. -1.
</event>
<event>
 5   0  0.3889225E-08  0.3811222E+04  0.7818609E-02  0.8043751E-01
        1   -1    0    0  501    0  0.00000000000E+00  0.00000000000E+00  0.15410057747E+04  0.15410057747E+04  0.50400001928E-02 0.  1.
       -1   -1    0    0    0  501  0.00000000000E+00  0.00000000000E+00 -0.23564827002E+04  0.23564827002E+04  0.50400001928E-02 0. -1.
    10030    2    1    2    0    0  0.00000000000E+00  0.00000000000E+00 -0.81547692554E+03  0.38974884749E+04  0.38112220869E+04 0.  0.
        5    1    3    3  502    0  0.11973982077E+04  0.78886295456E+03 -0.16912426060E+04  0.22172935916E+04  0.46999998093E+01 0. -1.
       -5    1    3    3    0  502 -0.11973982077E+04 -0.78886295456E+03  0.87576568045E+03  0.16801948833E+04  0.46999998093E+01 0.  1.
</event>
<event>
 5   0  0.1193861E-07  0.3789963E+04  0.7818609E-02  0.8048312E-01
       -2   -1    0    0    0  501  0.00000000000E+00  0.00000000000E+00  0.21634534365E+04  0.21634534365E+04  0.25500000920E-02 0.  1.
        2   -1    0    0  501    0  0.00000000000E+00  0.00000000000E+00 -0.16598257856E+04  0.16598257856E+04  0.25500000920E-02 0. -1.
    10030    2    1    2    0    0  0.00000000000E+00  0.00000000000E+00  0.50362765090E+03  0.38232792222E+04  0.37899634827E+04 0.  0.
        3    1    3    3  502    0 -0.24535294547E+01 -0.73382624204E+03  0.20142978388E+04  0.21438056737E+04  0.10100000352E+00 0.  1.
       -3    1    3    3    0  502  0.24535294547E+01  0.73382624204E+03 -0.15106701879E+04  0.16794735485E+04  0.10100000352E+00 0. -1.
</event>
<event>
 5   0  0.3701250E-08  0.3827822E+04  0.7818609E-02  0.8040211E-01
       -1   -1    0    0    0  501  0.00000000000E+00  0.00000000000E+00  0.26419016279E+04  0.26419016279E+04  0.50400001928E-02 0. -1.
        1   -1    0    0  501    0  0.00000000000E+00  0.00000000000E+00 -0.13865221585E+04  0.13865221585E+04  0.50400001928E-02 0.  1.
    10030    2    1    2    0    0  0.00000000000E+00  0.00000000000E+00  0.12553794694E+04  0.40284237864E+04  0.38278219121E+04 0.  0.
        4    1    3    3  502    0 -0.36521540908E+03  0.17719111749E+04 -0.29539480157E+02  0.18093992651E+04  0.12699999809E+01 0.  1.
       -4    1    3    3    0  502  0.36521540908E+03 -0.17719111749E+04  0.12849189495E+04  0.22190245214E+04  0.12699999809E+01 0. -1.
</event>
<event>
 5   0  0.1143283E-07  0.3804894E+04  0.7818609E-02  0.8045106E-01
       -2   -1    0    0    0  501  0.00000000000E+00  0.00000000000E+00  0.16140140419E+04  0.16140140419E+04  0.25500000920E-02 0.  1.
        2   -1    0    0  501    0  0.00000000000E+00  0.00000000000E+00 -0.22424239690E+04  0.22424239690E+04  0.25500000920E-02 0. -1.
    10030    2    1    2    0    0  0.00000000000E+00  0.00000000000E+00 -0.62840992715E+03  0.38564380109E+04  0.38048935721E+04 0.  0.
        1    1    3    3  502    0 -0.18188528031E+04  0.43231652071E+03 -0.67137157908E+03  0.19864196160E+04  0.50400001928E-02 0.  1.
       -1    1    3    3    0  502  0.18188528031E+04 -0.43231652071E+03  0.42961651929E+02  0.18700183949E+04  0.50400001928E-02 0. -1.
</event>
<event>
 5   0  0.3701250E-08  0.3807237E+04  0.7818609E-02  0.8044604E-01
        1   -1    0    0  501    0  0.00000000000E+00  0.00000000000E+00  0.11728845642E+04  0.11728845642E+04  0.50400001928E-02 0. -1.
       -1   -1    0    0    0  501  0.00000000000E+00  0.00000000000E+00 -0.30896163622E+04  0.30896163622E+04  0.50400001928E-02 0.  1.
    10030    2    1    2    0    0  0.00000000000E+00  0.00000000000E+00 -0.19167317980E+04  0.42625009264E+04  0.38072369721E+04 0.  0.
        4    1    3    3  502    0  0.14748199600E+04 -0.94593042581E+03 -0.17915937319E+04  0.25059305653E+04  0.12699999809E+01 0.  1.
       -4    1    3    3    0  502 -0.14748199600E+04  0.94593042581E+03 -0.12513806614E+03  0.17565703611E+04  0.12699999809E+01 0. -1.
</event>
<event>
 5   0  0.3889225E-08  0.3800259E+04  0.7818609E-02  0.8046099E-01
        1   -1    0    0  501    0  0.00000000000E+00  0.00000000000E+00  0.20649743762E+04  0.20649743762E+04  0.50400001928E-02 0. -1.
       -1   -1    0    0    0  501  0.00000000000E+00  0.00000000000E+00 -0.17484439775E+04  0.17484439775E+04  0.50400001928E-02 0.  1.
    10030    2    1    2    0    0  0.00000000000E+00  0.00000000000E+00  0.31653039869E+03  0.38134183537E+04  0.38002589447E+04 0.  0.
        5    1    3    3  502    0 -0.16537491677E+04  0.81056772369E+02 -0.77717171062E+03  0.18290638228E+04  0.46999998093E+01 0. -1.
       -5    1    3    3    0  502  0.16537491677E+04 -0.81056772369E+02  0.10937021093E+04  0.19843545308E+04  0.46999998093E+01 0.  1.
</event>
<event>
 5   0  0.1174870E-07  0.3830111E+04  0.7818609E-02  0.8039724E-01
       -2   -1    0    0    0  501  0.00000000000E+00  0.00000000000E+00  0.20683200869E+04  0.20683200869E+04  0.25500000920E-02 0. -1.
        2   -1    0    0  501    0  0.00000000000E+00  0.00000000000E+00 -0.17731483744E+04  0.17731483744E+04  0.25500000920E-02 0.  1.
    10030    2    1    2    0    0  0.00000000000E+00  0.00000000000E+00  0.29517171255E+03  0.38414684613E+04  0.38301114344E+04 0.  0.
        5    1    3    3  502    0 -0.55662596533E+03 -0.67557427375E+03  0.18559224453E+04  0.20519998239E+04  0.46999998093E+01 0. -1.
       -5    1    3    3    0  502  0.55662596533E+03  0.67557427375E+03 -0.15607507327E+04  0.17894686374E+04  0.46999998093E+01 0.  1.
</event>
<event>
 5   0  0.3701250E-08  0.3728477E+04  0.7818609E-02  0.8061680E-01
        1   -1    0    0  501    0  0.00000000000E+00  0.00000000000E+00  0.18810930300E+04  0.18810930300E+04  0.50400001928E-02 0. -1.
       -1   -1    0    0    0  501  0.00000000000E+00  0.00000000000E+00 -0.18475347501E+04  0.18475347501E+04  0.50400001928E-02 0.  1.
    10030    2    1    2    0    0  0.00000000000E+00  0.00000000000E+00  0.33558279937E+02  0.37286277801E+04  0.37284767619E+04 0.  0.
        2    1    3    3  502    0  0.15612899194E+03  0.11958677751E+04  0.14384234191E+04  0.18771089287E+04  0.25500000920E-02 0. -1.
       -2    1    3    3    0  502 -0.15612899194E+03 -0.11958677751E+04 -0.14048651392E+04  0.18515188514E+04  0.25500000920E-02 0.  1.
</event>
<event>
 5   0  0.3889225E-08  0.3812451E+04  0.7818609E-02  0.8043488E-01
       -1   -1    0    0    0  501  0.00000000000E+00  0.00000000000E+00  0.27245594082E+04  0.27245594082E+04  0.50400001928E-02 0.  1.
        1   -1    0    0  501    0  0.00000000000E+00  0.00000000000E+00 -0.13336816504E+04  0.13336816504E+04  0.50400001928E-02 0. -1.
    10030    2    1    2    0    0  0.00000000000E+00  0.00000000000E+00  0.13908777578E+04  0.40582410586E+04  0.38124505967E+04 0.  0.
        5    1    3    3  502    0 -0.22867345846E+03 -0.15050427461E+04  0.19166735041E+04  0.24476733094E+04  0.46999998093E+01 0.  1.
       -5    1    3    3    0  502  0.22867345846E+03  0.15050427461E+04 -0.52579574628E+03  0.16105677492E+04  0.46999998093E+01 0. -1.
</event>
<event>
 5   0  0.7858367E-08  0.3788537E+04  0.7818609E-02  0.8048619E-01
        2   -1    0    0  501    0  0.00000000000E+00  0.00000000000E+00  0.20008294105E+04  0.20008294105E+04  0.25500000920E-02 0.  1.
       -2   -1    0    0    0  501  0.00000000000E+00  0.00000000000E+00 -0.17933826826E+04  0.17933826826E+04  0.25500000920E-02 0. -1.
    10030    2    1    2    0    0  0.00000000000E+00  0.00000000000E+00  0.20744672788E+03  0.37942120931E+04  0.37885368234E+04 0.  0.
        2    1    3    3  502    0  0.64595862012E+03 -0.13749561305E+04  0.12370040675E+04  0.19590676259E+04  0.25500000920E-02 0.  1.
       -2    1    3    3    0  502 -0.64595862012E+03  0.13749561305E+04 -0.10295573397E+04  0.18351444672E+04  0.25500000920E-02 0. -1.
</event>
<event>
 5   0  0.3701250E-08  0.3808293E+04  0.7818609E-02  0.8044378E-01
        1   -1    0    0  501    0  0.00000000000E+00  0.00000000000E+00  0.12807557822E+04  0.12807557822E+04  0.50400001928E-02 0.  1.
       -1   -1    0    0    0  501  0.00000000000E+00  0.00000000000E+00 -0.28309642414E+04  0.28309642414E+04  0.50400001928E-02 0. -1.
    10030    2    1    2    0    0  0.00000000000E+00  0.00000000000E+00 -0.15502084592E+04  0.41117200236E+04  0.38082929621E+04 0.  0.
        4    1    3    3  502    0  0.48795035128E+03 -0.11199836703E+04 -0.23520635825E+04  0.26504082093E+04  0.12699999809E+01 0. -1.
       -4    1    3    3    0  502 -0.48795035128E+03  0.11199836703E+04  0.80185512326E+03  0.14613118143E+04  0.12699999809E+01 0.  1.
</event>
<event>
 5   0  0.3701250E-08  0.3819075E+04  0.7818609E-02  0.8042074E-01
        1   -1    0    0  501    0  0.00000000000E+00  0.00000000000E+00  0.21966815621E+04  0.21966815621E+04  0.50400001928E-02 0.  1.
       -1   -1    0    0    0  501  0.00000000000E+00  0.00000000000E+00 -0.16599280293E+04  0.16599280293E+04  0.50400001928E-02 0. -1.
    10030    2    1    2    0    0  0.00000000000E+00  0.00000000000E+00  0.53675353283E+03  0.38566095915E+04  0.38190749123E+04 0.  0.
        4    1    3    3  502    0 -0.17343222464E+04  0.60242553627E+03  0.79845626878E+03  0.20020799702E+04  0.12699999809E+01 0.  1.
       -4    1    3    3    0  502  0.17343222464E+04 -0.60242553627E+03 -0.26170273595E+03  0.18545296212E+04  0.12699999809E+01 0. -1.
</event>
<event>
 5   0  0.3701250E-08  0.3802969E+04  0.7818609E-02  0.8045518E-01
        1   -1    0    0  501    0  0.00000000000E+00  0.00000000000E+00  0.20900601155E+04  0.20900601155E+04  0.50400001928E-02 0.  1.
       -1   -1    0    0    0  501  0.00000000000E+00  0.00000000000E+00 -0.17299232497E+04  0.17299232497E+04  0.50400001928E-02 0. -1.
    10030    2    1    2    0    0  0.00000000000E+00  0.00000000000E+00  0.36013686575E+03  0.38199833652E+04  0.38029691491E+04 0.  0.
        1    1    3    3  502    0 -0.17828201950E+04  0.63138199319E+03  0.37729483155E+03  0.19285856110E+04  0.50400001928E-02 0.  1.
       -1    1    3    3    0  502  0.17828201950E+04 -0.63138199319E+03 -0.17157965807E+02  0.18913977543E+04  0.50400001928E-02 0. -1.
</event>
<event>
 5   0  0.3701250E-08  0.3795337E+04  0.7818609E-02  0.8047156E-01
        3   -1    0    0  501    0  0.00000000000E+00  0.00000000000E+00  0.14366774449E+04  0.14366774484E+04  0.10100000352E+00 0.  1.
       -3   -1    0    0    0  501  0.00000000000E+00  0.00000000000E+00 -0.25065794542E+04  0.25065794562E+04  0.10100000352E+00 0. -1.
    10030    2    1    2    0    0  0.00000000000E+00  0.00000000000E+00 -0.10699020093E+04  0.39432569047E+04  0.37953372323E+04 0.  0.
        3    1    3    3  502    0 -0.54930242918E+03 -0.17971183187E+04 -0.26049905873E+03  0.18971629292E+04  0.10100000352E+00 0.  1.
       -3    1    3    3    0  502  0.54930242918E+03  0.17971183187E+04 -0.80940295056E+03  0.20460939755E+04  0.10100000352E+00 0. -1.
</event>
<event>
 5   0  0.7858367E-08  0.3812824E+04  0.7818609E-02  0.8043409E-01
       -2   -1    0    0    0  501  0.00000000000E+00  0.00000000000E+00  0.31084966913E+04  0.31084966913E+04  0.25500000920E-02 0. -1.
        2   -1    0    0  501    0  0.00000000000E+00  0.00000000000E+00 -0.11691845853E+04  0.11691845853E+04  0.25500000920E-02 0.  1.
    10030    2    1    2    0    0  0.00000000000E+00  0.00000000000E+00  0.19393121060E+04  0.42776812767E+04  0.38128238434E+04 0.  0.
        2    1    3    3  502    0  0.94179771933E+03 -0.12129388956E+04 -0.29776673864E+03  0.15642470199E+04  0.25500000920E-02 0.  1.
       -2    1    3    3    0  502 -0.94179771933E+03  0.12129388956E+04  0.22370788446E+04  0.27134342568E+04  0.25500000920E-02 0. -1.
</event>
<event>
 5   0  0.3701250E-08  0.3798024E+04  0.7818609E-02  0.8046579E-01
       -1   -1    0    0    0  501  0.00000000000E+00  0.00000000000E+00  0.18649650046E+04  0.18649650046E+04  0.50400001928E-02 0.  1.
        1   -1    0    0  501    0  0.00000000000E+00  0.00000000000E+00 -0.19336806162E+04  0.19336806162E+04  0.50400001928E-02 0. -1.
    10030    2    1    2    0    0  0.00000000000E+00  0.00000000000E+00 -0.68715611586E+02  0.37986456208E+04  0.37980240543E+04 0.  0.
        1    1    3    3  502    0 -0.89168125478E+03 -0.10854424959E+04 -0.13124424421E+04  0.19224427263E+04  0.50400001928E-02 0. -1.
       -1    1    3    3    0  502  0.89168125478E+03  0.10854424959E+04  0.12437268306E+04  0.18762028944E+04  0.50400001928E-02 0.  1.
</event>
<event>
 5   0  0.1150235E-07  0.3798172E+04  0.7818609E-02  0.8046547E-01
        2   -1    0    0  501    0  0.00000000000E+00  0.00000000000E+00  0.19420847560E+04  0.19420847560E+04  0.25500000920E-02 0.  1.
       -2   -1    0    0    0  501  0.00000000000E+00  0.00000000000E+00 -0.18570390263E+04  0.18570390263E+04  0.25500000920E-02 0. -1.
    10030    2    1    2    0    0  0.00000000000E+00  0.00000000000E+00  0.85045729641E+02  0.37991237823E+04  0.37981717625E+04 0.  0.
        4    1    3    3  502    0  0.69473059310E+03 -0.17183836144E+04 -0.37114182846E+03  0.18903017518E+04  0.12699999809E+01 0. -1.
       -4    1    3    3    0  502 -0.69473059310E+03  0.17183836144E+04  0.45618755810E+03  0.19088220305E+04  0.12699999809E+01 0.  1.
</event>
<event>
 5   0  0.1143283E-07  0.3791277E+04  0.7818609E-02  0.8048029E-01
       -2   -1    0    0    0  501  0.00000000000E+00  0.00000000000E+00  0.27545337952E+04  0.27545337952E+04  0.25500000920E-02 0.  1.
        2   -1    0    0  501    0  0.00000000000E+00  0.00000000000E+00 -0.13045567382E+04  0.13045567382E+04  0.25500000920E-02 0. -1.
    10030    2    1    2    0    0  0.00000000000E+00  0.00000000000E+00  0.14499770569E+04  0.40590905334E+04  0.37912771585E+04 0.  0.
        1    1    3    3  502    0  0.10487699664E+04 -0.86810959819E+03  0.21372234886E+04  0.25340199204E+04  0.50400001928E-02 0.  1.
       -1    1    3    3    0  502 -0.10487699664E+04  0.86810959819E+03 -0.68724643163E+03  0.15250706130E+04  0.50400001928E-02 0. -1.
</event>
<event>
 5   0  0.1150235E-07  0.3819682E+04  0.7818609E-02  0.8041944E-01
       -2   -1    0    0    0  501  0.00000000000E+00  0.00000000000E+00  0.22838283290E+04  0.22838283290E+04  0.25500000920E-02 0.  1.
        2   -1    0    0  501    0  0.00000000000E+00  0.00000000000E+00 -0.15970959801E+04  0.15970959801E+04  0.25500000920E-02 0. -1.
    10030    2    1    2    0    0  0.00000000000E+00  0.00000000000E+00  0.68673234894E+03  0.38809243091E+04  0.38196822084E+04 0.  0.
        4    1    3    3  502    0 -0.84881301900E+03  0.10825310418E+04  0.16894221925E+04  0.21786477354E+04  0.12699999809E+01 0.  1.
       -4    1    3    3    0  502  0.84881301900E+03 -0.10825310418E+04 -0.10026898436E+04  0.17022765736E+04  0.12699999809E+01 0. -1.
</event>
<event>
 5   0  0.1150235E-07  0.3798622E+04  0.7818609E-02  0.8046451E-01
       -2   -1    0    0    0  501  0.00000000000E+00  0.00000000000E+00  0.14947624887E+04  0.14947624887E+04  0.25500000920E-02 0. -1.
        2   -1    0    0  501    0  0.00000000000E+00  0.00000000000E+00 -0.24133485449E+04  0.24133485449E+04  0.25500000920E-02 0.  1.
    10030    2    1    2    0    0  0.00000000000E+00  0.00000000000E+00 -0.91858605621E+03  0.39081110336E+04  0.37986223171E+04 0.  0.
        4    1    3    3  502    0  0.72196303462E+03  0.44044533357E+03  0.12903595752E+04  0.15428065859E+04  0.12699999809E+01 0. -1.
       -4    1    3    3    0  502 -0.72196303462E+03 -0.44044533357E+03 -0.22089456314E+04  0.23653044477E+04  0.12699999809E+01 0.  1.
</event>
<event>
 5   0  0.3701250E-08  0.3792175E+04  0.7818609E-02  0.8047836E-01
       -1   -1    0    0    0  501  0.00000000000E+00  0.00000000000E+00  0.25428157328E+04  0.25428157328E+04  0.50400001928E-02 0. -1.
        1   -1    0    0  501    0  0.00000000000E+00  0.00000000000E+00 -0.14138454328E+04  0.14138454328E+04  0.50400001928E-02 0.  1.
    10030    2    1    2    0    0  0.00000000000E+00  0.00000000000E+00  0.11289703000E+04  0.39566611656E+04  0.37921753178E+04 0.  0.
        1    1    3    3  502    0 -0.11666442812E+04  0.14334726029E+04  0.10062233747E+04  0.21043735557E+04  0.50400001928E-02 0. -1.
       -1    1    3    3    0  502  0.11666442812E+04 -0.14334726029E+04  0.12274692529E+03  0.18522876099E+04  0.50400001928E-02 0.  1.
</event>
<event>
 5   0  0.1143283E-07  0.3799685E+04  0.7818609E-02  0.8046223E-01
       -2   -1    0    0    0  501  0.00000000000E+00  0.00000000000E+00  0.18479231728E+04  0.18479231728E+04  0.25500000920E-02 0.  1.
        2   -1    0    0  501    0  0.00000000000E+00  0.00000000000E+00 -0.19532200991E+04  0.19532200991E+04  0.25500000920E-02 0. -1.
    10030    2    1    2    0    0  0.00000000000E+00  0.00000000000E+00 -0.10529692631E+03  0.38011432718E+04  0.37996845567E+04 0.  0.
        1    1    3    3  502    0  0.17355484777E+04 -0.57315588507E+03  0.46597557689E+03  0.18862050327E+04  0.50400001928E-02 0.  1.
       -1    1    3    3    0  502 -0.17355484777E+04  0.57315588507E+03 -0.57127250321E+03  0.19149382392E+04  0.50400001928E-02 0. -1.
</event>
<event>
 5   0  0.3701250E-08  0.3797975E+04  0.7818609E-02  0.8046589E-01
        1   -1    0    0  501    0  0.00000000000E+00  0.00000000000E+00  0.14232503617E+04  0.14232503617E+04  0.50400001928E-02 0.  1.
       -1   -1    0    0    0  501  0.00000000000E+00  0.00000000000E+00 -0.25337456320E+04  0.25337456320E+04  0.50400001928E-02 0. -1.
    10030    2    1    2    0    0  0.00000000000E+00  0.00000000000E+00 -0.11104952703E+04  0.39569959937E+04  0.37979754540E+04 0.  0.
        1    1    3    3  502    0 -0.54481583248E+03  0.61688121925E+01 -0.24505609099E+04  0.25104005893E+04  0.50400001928E-02 0. -1.
       -1    1    3    3    0  502  0.54481583248E+03 -0.61688121925E+01  0.13400656396E+04  0.14465954044E+04  0.50400001928E-02 0.  1.
</event>
<event>
 5   0  0.7858367E-08  0.3805085E+04  0.7818609E-02  0.8045065E-01
        2   -1    0    0  501    0  0.00000000000E+00  0.00000000000E+00  0.19236898012E+04  0.19236898012E+04  0.25500000920E-02 0.  1.
       -2   -1    0    0    0  501  0.00000000000E+00  0.00000000000E+00 -0.18816274788E+04  0.18816274788E+04  0.25500000920E-02 0. -1.
    10030    2    1    2    0    0  0.00000000000E+00  0.00000000000E+00  0.42062322438E+02  0.38053172800E+04  0.38050848036E+04 0.  0.
        2    1    3    3  502    0  0.25622071335E+03  0.13818585862E+04 -0.12614220872E+04  0.18884829595E+04  0.25500000920E-02 0.  1.
       -2    1    3    3    0  502 -0.25622071335E+03 -0.13818585862E+04  0.13034844096E+04  0.19168343205E+04  0.25500000920E-02 0. -1.
</event>
<event>
 5   0  0.7858367E-08  0.3783107E+04  0.7818609E-02  0.8049790E-01
        2   -1    0    0  501    0  0.00000000000E+00  0.00000000000E+00  0.28424220053E+04  0.28424220053E+04  0.25500000920E-02 0.  1.
       -2   -1    0    0    0  501  0.00000000000E+00  0.00000000000E+00 -0.12587765687E+04  0.12587765687E+04  0.25500000920E-02 0. -1.
    10030    2    1    2    0    0  0.00000000000E+00  0.00000000000E+00  0.15836454366E+04  0.41011985740E+04  0.37831067755E+04 0.  0.
        2    1    3    3  502    0  0.63333306494E+03 -0.32129774224E+02 -0.11401051130E+04  0.13046006140E+04  0.25500000920E-02 0. -1.
       -2    1    3    3    0  502 -0.63333306494E+03  0.32129774224E+02  0.27237505496E+04  0.27965979600E+04  0.25500000920E-02 0.  1.
</event>
<event>
 5   0  0.1150235E-07  0.3781827E+04  0.7818609E-02  0.8050066E-01
        2   -1    0    0  501    0  0.00000000000E+00  0.00000000000E+00  0.12162742117E+04  0.12162742117E+04  0.25500000920E-02 0. -1.
       -2   -1    0    0    0  501  0.00000000000E+00  0.00000000000E+00 -0.29397596840E+04  0.29397596840E+04  0.25500000920E-02 0.  1.
    10030    2    1    2    0    0  0.00000000000E+00  0.00000000000E+00 -0.17234854724E+04  0.41560338957E+04  0.37818270146E+04 0.  0.
        4    1    3    3  502    0  0.47698462367E+03 -0.78032865092E+03  0.95705061716E+03  0.13237728776E+04  0.12699999809E+01 0. -1.
       -4    1    3    3    0  502 -0.47698462367E+03  0.78032865092E+03 -0.26805360895E+04  0.28322610181E+04  0.12699999809E+01 0.  1.
</event>
<event>
 5   0  0.1143283E-07  0.3802135E+04  0.7818609E-02  0.8045697E-01
       -2   -1    0    0    0  501  0.00000000000E+00  0.00000000000E+00  0.20789606314E+04  0.20789606314E+04  0.25500000920E-02 0. -1.
        2   -1    0    0  501    0  0.00000000000E+00  0.00000000000E+00 -0.17383965834E+04  0.17383965834E+04  0.25500000920E-02 0.  1.
    10030    2    1    2    0    0  0.00000000000E+00  0.00000000000E+00  0.34056404799E+03  0.38173572147E+04  0.38021352204E+04 0.  0.
        1    1    3    3  502    0  0.15730326182E+04  0.85442492147E+03  0.81283212596E+03  0.19660034663E+04  0.50400001928E-02 0.  1.
       -1    1    3    3    0  502 -0.15730326182E+04 -0.85442492147E+03 -0.47226807797E+03  0.18513537485E+04  0.50400001928E-02 0. -1.
</event>
<event>
 5   0  0.3701250E-08  0.3855599E+04  0.7818609E-02  0.8034328E-01
       -3   -1    0    0    0  501  0.00000000000E+00  0.00000000000E+00  0.17148166240E+04  0.17148166269E+04  0.10100000352E+00 0.  1.
        3   -1    0    0  501    0  0.00000000000E+00  0.00000000000E+00 -0.21672351392E+04  0.21672351416E+04  0.10100000352E+00 0. -1.
    10030    2    1    2    0    0  0.00000000000E+00  0.00000000000E+00 -0.45241851525E+03  0.38820517685E+04  0.38555989704E+04 0.  0.
        3    1    3    3  502    0 -0.86804945790E+03 -0.13238967823E+04  0.88142845730E+03  0.18119405860E+04  0.10100000352E+00 0.  1.
       -3    1    3    3    0  502  0.86804945790E+03  0.13238967823E+04 -0.13338469725E+04  0.20701111825E+04  0.10100000352E+00 0. -1.
</event>
<event>
 5   0  0.7858367E-08  0.3789130E+04  0.7818609E-02  0.8048491E-01
       -2   -1    0    0    0  501  0.00000000000E+00  0.00000000000E+00  0.18387979204E+04  0.18387979204E+04  0.25500000920E-02 0.  1.
        2   -1    0    0  501    0  0.00000000000E+00  0.00000000000E+00 -0.19520237853E+04  0.19520237853E+04  0.25500000920E-02 0. -1.
    10030    2    1    2    0    0  0.00000000000E+00  0.00000000000E+00 -0.11322586495E+03  0.37908217057E+04  0.37891303894E+04 0.  0.
        2    1    3    3  502    0 -0.70544970541E+03 -0.88593971303E+03 -0.15761156889E+04  0.19407960034E+04  0.25500000920E-02 0. -1.
       -2    1    3    3    0  502  0.70544970541E+03  0.88593971303E+03  0.14628898240E+04  0.18500257023E+04  0.25500000920E-02 0.  1.
</event>
<event>
 5   0  0.3701250E-08  0.3785581E+04  0.7818609E-02  0.8049256E-01
       -1   -1    0    0    0  501  0.00000000000E+00  0.00000000000E+00  0.27922665049E+04  0.27922665049E+04  0.50400001928E-02 0. -1.
        1   -1    0    0  501    0  0.00000000000E+00  0.00000000000E+00 -0.12830640115E+04  0.12830640115E+04  0.50400001928E-02 0.  1.
    10030    2    1    2    0    0  0.00000000000E+00  0.00000000000E+00  0.15092024933E+04  0.40753305164E+04  0.37855814154E+04 0.  0.
        2    1    3    3  502    0 -0.71161311072E+03 -0.17538970722E+04  0.74338743804E+03  0.20335124888E+04  0.25500000920E-02 0.  1.
       -2    1    3    3    0  502  0.71161311072E+03  0.17538970722E+04  0.76581505530E+03  0.20418180276E+04  0.25500000920E-02 0. -1.
</event>
<event>
 5   0  0.3701250E-08  0.3608251E+04  0.7818609E-02  0.8088604E-01
        1   -1    0    0  501    0  0.00000000000E+00  0.00000000000E+00  0.17672300410E+04  0.17672300410E+04  0.50400001928E-02 0. -1.
       -1   -1    0    0    0  501  0.00000000000E+00  0.00000000000E+00 -0.18417913081E+04  0.18417913081E+04  0.50400001928E-02 0.  1.
    10030    2    1    2    0    0  0.00000000000E+00  0.00000000000E+00 -0.74561267124E+02  0.36090213491E+04  0.36082510605E+04 0.  0.
        2    1    3    3  502    0  0.14464990445E+04  0.76148280359E+03  0.72619967334E+03  0.17887374071E+04  0.25500000920E-02 0. -1.
       -2    1    3    3    0  502 -0.14464990445E+04 -0.76148280359E+03 -0.80076094047E+03  0.18202839420E+04  0.25500000920E-02 0.  1.
</event>
<event>
 5   0  0.3701250E-08  0.3808866E+04  0.7818609E-02  0.8044255E-01
       -1   -1    0    0    0  501  0.00000000000E+00  0.00000000000E+00  0.18437202007E+04  0.18437202007E+04  0.50400001928E-02 0.  1.
        1   -1    0    0  501    0  0.00000000000E+00  0.00000000000E+00 -0.19671448977E+04  0.19671448977E+04  0.50400001928E-02 0. -1.
    10030    2    1    2    0    0  0.00000000000E+00  0.00000000000E+00 -0.12342469696E+03  0.38108650984E+04  0.38088658604E+04 0.  0.
        4    1    3    3  502    0  0.18305030351E+04 -0.49083206723E+03 -0.24944263638E+03  0.19115126789E+04  0.12699999809E+01 0.  1.
       -4    1    3    3    0  502 -0.18305030351E+04  0.49083206723E+03  0.12601793942E+03  0.18993524195E+04  0.12699999809E+01 0. -1.
</event>
<event>
 5   0  0.3889225E-08  0.3801471E+04  0.7818609E-02  0.8045839E-01
        1   -1    0    0  501    0  0.00000000000E+00  0.00000000000E+00  0.21255852707E+04  0.21255852708E+04  0.50400001928E-02 0. -1.
       -1   -1    0    0    0  501  0.00000000000E+00  0.00000000000E+00 -0.16996710675E+04  0.16996710675E+04  0.50400001928E-02 0.  1.
    10030    2    1    2    0    0  0.00000000000E+00  0.00000000000E+00  0.42591420328E+03  0.38252563382E+04  0.38014711816E+04 0.  0.
        5    1    3    3  502    0 -0.39534893477E+03 -0.18520658235E+04  0.49691810935E+02  0.18944497779E+04  0.46999998093E+01 0.  1.
       -5    1    3    3    0  502  0.39534893477E+03  0.18520658235E+04  0.37622239234E+03  0.19308065603E+04  0.46999998093E+01 0. -1.
</event>
<event>
 5   0  0.3889225E-08  0.3754313E+04  0.7818609E-02  0.8056031E-01
        1   -1    0    0  501    0  0.00000000000E+00  0.00000000000E+00  0.19109910966E+04  0.19109910966E+04  0.50400001928E-02 0.  1.
       -1   -1    0    0    0  501  0.00000000000E+00  0.00000000000E+00 -0.18439206319E+04  0.18439206320E+04  0.50400001928E-02 0. -1.
    10030    2    1    2    0    0  0.00000000000E+00  0.00000000000E+00  0.67070464613E+02  0.37549117285E+04  0.37543126723E+04 0.  0.
        5    1    3    3  502    0  0.17438186041E+04  0.61595289792E+03 -0.28806315436E+03  0.18717114541E+04  0.46999998093E+01 0. -1.
       -5    1    3    3    0  502 -0.17438186041E+04 -0.61595289792E+03  0.35513361898E+03  0.18832002745E+04  0.46999998093E+01 0.  1.
</event>
<event>
 5   0  0.1193861E-07  0.3803164E+04  0.7818609E-02  0.8045476E-01
        2   -1    0    0  501    0  0.00000000000E+00  0.00000000000E+00  0.23704584243E+04  0.23704584243E+04  0.25500000920E-02 0. -1.
       -2   -1    0    0    0  501  0.00000000000E+00  0.00000000000E+00 -0.15254490278E+04  0.15254490278E+04  0.25500000920E-02 0.  1.
    10030    2    1    2    0    0  0.00000000000E+00  0.00000000000E+00  0.84500939641E+03  0.38959074521E+04  0.38031636824E+04 0.  0.
        3    1    3    3  502    0  0.13996852047E+04  0.71733692595E+03 -0.67235378976E+03  0.17104825537E+04  0.10100000352E+00 0.  1.
       -3    1    3    3    0  502 -0.13996852047E+04 -0.71733692595E+03  0.15173631862E+04  0.21854248984E+04  0.10100000352E+00 0. -1.
</event>
<event>
 5   0  0.1143283E-07  0.3838118E+04  0.7818609E-02  0.8038024E-01
       -2   -1    0    0    0  501  0.00000000000E+00  0.00000000000E+00  0.15605328046E+04  0.15605328046E+04  0.25500000920E-02 0. -1.
        2   -1    0    0  501    0  0.00000000000E+00  0.00000000000E+00 -0.23599557054E+04  0.23599557054E+04  0.25500000920E-02 0.  1.
    10030    2    1    2    0    0  0.00000000000E+00  0.00000000000E+00 -0.79942290084E+03  0.39204885101E+04  0.38381184431E+04 0.  0.
        1    1    3    3  502    0 -0.35757997972E+03  0.29966981903E+03  0.15017220051E+04  0.15725248561E+04  0.50400001928E-02 0. -1.
       -1    1    3    3    0  502  0.35757997972E+03 -0.29966981903E+03 -0.23011449059E+04  0.23479636540E+04  0.50400001928E-02 0.  1.
</event>
<event>
 5   0  0.3889225E-08  0.3787133E+04  0.7818609E-02  0.8048922E-01
        1   -1    0    0  501    0  0.00000000000E+00  0.00000000000E+00  0.22087046466E+04  0.22087046466E+04  0.50400001928E-02 0.  1.
       -1   -1    0    0    0  501  0.00000000000E+00  0.00000000000E+00 -0.16233927088E+04  0.16233927088E+04  0.50400001928E-02 0. -1.
    10030    2    1    2    0    0  0.00000000000E+00  0.00000000000E+00  0.58531193776E+03  0.38320973554E+04  0.37871334908E+04 0.  0.
        5    1    3    3  502    0 -0.16739510627E+03 -0.92541645219E+03 -0.13703766575E+04  0.16620382080E+04  0.46999998093E+01 0. -1.
       -5    1    3    3    0  502  0.16739510627E+03  0.92541645219E+03  0.19556885953E+04  0.21700591474E+04  0.46999998093E+01 0.  1.
</event>
<event>
 5   0  0.1143283E-07  0.3797693E+04  0.7818609E-02  0.8046650E-01
        2   -1    0    0  501    0  0.00000000000E+00  0.00000000000E+00  0.21626451937E+04  0.21626451937E+04  0.25500000920E-02 0. -1.
       -2   -1    0    0    0  501  0.00000000000E+00  0.00000000000E+00 -0.16672260677E+04  0.16672260677E+04  0.25500000920E-02 0.  1.
    10030    2    1    2    0    0  0.00000000000E+00  0.00000000000E+00  0.49541912600E+03  0.38298712615E+04  0.37976932168E+04 0.  0.
        1    1    3    3  502    0  0.99879090428E+02  0.59295956954E+02 -0.16636399665E+04  0.16676899536E+04  0.50400001928E-02 0.  1.
       -1    1    3    3    0  502 -0.99879090428E+02 -0.59295956954E+02  0.21590590925E+04  0.21621813079E+04  0.50400001928E-02 0. -1.
</event>
<event>
 5   0  0.3701250E-08  0.3791810E+04  0.7818609E-02  0.8047915E-01
       -1   -1    0    0    0  501  0.00000000000E+00  0.00000000000E+00  0.24288517710E+04  0.24288517710E+04  0.50400001928E-02 0.  1.
        1   -1    0    0  501    0  0.00000000000E+00  0.00000000000E+00 -0.14798988807E+04  0.14798988807E+04  0.50400001928E-02 0. -1.
    10030    2    1    2    0    0  0.00000000000E+00  0.00000000000E+00  0.94895289033E+03  0.39087506517E+04  0.37918096035E+04 0.  0.
        2    1    3    3  502    0 -0.12828885039E+04 -0.92491842012E+03  0.15522732455E+04  0.22160390849E+04  0.25500000920E-02 0.  1.
       -2    1    3    3    0  502  0.12828885039E+04  0.92491842012E+03 -0.60332035514E+03  0.16927115668E+04  0.25500000920E-02 0. -1.
</event>
<event>
 5   0  0.1143283E-07  0.3759583E+04  0.7818609E-02  0.8054884E-01
        2   -1    0    0  501    0  0.00000000000E+00  0.00000000000E+00  0.28149567831E+04  0.28149567831E+04  0.25500000920E-02 0. -1.
       -2   -1    0    0    0  501  0.00000000000E+00  0.00000000000E+00 -0.12553005308E+04  0.12553005308E+04  0.25500000920E-02 0.  1.
    10030    2    1    2    0    0  0.00000000000E+00  0.00000000000E+00  0.15596562523E+04  0.40702573139E+04  0.37595833514E+04 0.  0.
        1    1    3    3  502    0 -0.31296695598E+03 -0.95266378882E+03  0.25012181568E+04  0.26947372558E+04  0.50400001928E-02 0. -1.
       -1    1    3    3    0  502  0.31296695598E+03  0.95266378882E+03 -0.94156190453E+03  0.13755200581E+04  0.50400001928E-02 0.  1.
</event>
<event>
 5   0  0.7858367E-08  0.3811107E+04  0.7818609E-02  0.8043776E-01
       -2   -1    0    0    0  501  0.00000000000E+00  0.00000000000E+00  0.21210656181E+04  0.21210656181E+04  0.25500000920E-02 0.  1.
        2   -1    0    0  501    0  0.00000000000E+00  0.00000000000E+00 -0.17119385906E+04  0.17119385906E+04  0.25500000920E-02 0. -1.
    10030    2    1    2    0    0  0.00000000000E+00  0.00000000000E+00  0.40912702747E+03  0.38330042087E+04  0.38111069704E+04 0.  0.
        2    1    3    3  502    0 -0.12172640835E+04 -0.81402033768E+02 -0.12676694535E+04  0.17593589694E+04  0.25500000920E-02 0. -1.
       -2    1    3    3    0  502  0.12172640835E+04  0.81402033768E+02  0.16767964809E+04  0.20736452393E+04  0.25500000920E-02 0.  1.
</event>
<event>
 5   0  0.1193861E-07  0.3784426E+04  0.7818609E-02  0.8049505E-01
        2   -1    0    0  501    0  0.00000000000E+00  0.00000000000E+00  0.22457718892E+04  0.22457718892E+04  0.25500000920E-02 0.  1.
       -2   -1    0    0    0  501  0.00000000000E+00  0.00000000000E+00 -0.15943159363E+04  0.15943159363E+04  0.25500000920E-02 0. -1.
    10030    2    1    2    0    0  0.00000000000E+00  0.00000000000E+00  0.65145595290E+03  0.38400878255E+04  0.37844259339E+04 0.  0.
        3    1    3    3  502    0 -0.67107292906E+03  0.16971810834E+04 -0.18132910254E+03  0.18340236529E+04  0.10100000352E+00 0. -1.
       -3    1    3    3    0  502  0.67107292906E+03 -0.16971810834E+04  0.83278505544E+03  0.20060641726E+04  0.10100000352E+00 0.  1.
</event>
<event>
 5   0  0.3701250E-08  0.3831144E+04  0.7818609E-02  0.8039504E-01
        1   -1    0    0  501    0  0.00000000000E+00  0.00000000000E+00  0.21314756157E+04  0.21314756157E+04  0.50400001928E-02 0. -1.
       -1   -1    0    0    0  501  0.00000000000E+00  0.00000000000E+00 -0.17215382891E+04  0.17215382891E+04  0.50400001928E-02 0.  1.
    10030    2    1    2    0    0  0.00000000000E+00  0.00000000000E+00  0.40993732661E+03  0.38530139049E+04  0.38311444164E+04 0.  0.
        1    1    3    3  502    0  0.14836925550E+04  0.92383056275E+03  0.99341474251E+03  0.20103928365E+04  0.50400001928E-02 0. -1.
       -1    1    3    3    0  502 -0.14836925550E+04 -0.92383056275E+03 -0.58347741590E+03  0.18426210683E+04  0.50400001928E-02 0.  1.
</event>
<event>
 5   0  0.3701250E-08  0.3841126E+04  0.7818609E-02  0.8037387E-01
       -1   -1    0    0    0  501  0.00000000000E+00  0.00000000000E+00  0.18156977887E+04  0.18156977887E+04  0.50400001928E-02 0. -1.
        1   -1    0    0  501    0  0.00000000000E+00  0.00000000000E+00 -0.20314842583E+04  0.20314842583E+04  0.50400001928E-02 0.  1.
    10030    2    1    2    0    0  0.00000000000E+00  0.00000000000E+00 -0.21578646952E+03  0.38471820470E+04  0.38411256036E+04 0.  0.
        1    1    3    3  502    0 -0.16677030833E+04  0.78102310236E+03 -0.65403349050E+03  0.19542237506E+04  0.50400001928E-02 0. -1.
       -1    1    3    3    0  502  0.16677030833E+04 -0.78102310236E+03  0.43824702097E+03  0.18929582964E+04  0.50400001928E-02 0.  1.
</event>
<event>
 5   0  0.3701250E-08  0.3802208E+04  0.7818609E-02  0.8045681E-01
        1   -1    0    0  501    0  0.00000000000E+00  0.00000000000E+00  0.12627378070E+04  0.12627378070E+04  0.50400001928E-02 0. -1.
       -1   -1    0    0    0  501  0.00000000000E+00  0.00000000000E+00 -0.28621907003E+04  0.28621907003E+04  0.50400001928E-02 0.  1.
    10030    2    1    2    0    0  0.00000000000E+00  0.00000000000E+00 -0.15994528933E+04  0.41249285074E+04  0.38022079944E+04 0.  0.
        4    1    3    3  502    0  0.53593182764E+03  0.68097650551E+03 -0.26354600135E+04  0.27742752244E+04  0.12699999809E+01 0.  1.
       -4    1    3    3    0  502 -0.53593182764E+03 -0.68097650551E+03  0.10360071202E+04  0.13506532830E+04  0.12699999809E+01 0. -1.
</event>
<event>
 5   0  0.3701250E-08  0.3803700E+04  0.7818609E-02  0.8045361E-01
       -1   -1    0    0    0  501  0.00000000000E+00  0.00000000000E+00  0.18165738420E+04  0.18165738421E+04  0.50400001928E-02 0. -1.
        1   -1    0    0  501    0  0.00000000000E+00  0.00000000000E+00 -0.19911296220E+04  0.19911296220E+04  0.50400001928E-02 0.  1.
    10030    2    1    2    0    0  0.00000000000E+00  0.00000000000E+00 -0.17455577994E+03  0.38077034640E+04  0.38037002971E+04 0.  0.
        3    1    3    3  502    0  0.15055120930E+04  0.21066138796E+03  0.10567674337E+04  0.18514054936E+04  0.10100000352E+00 0.  1.
       -3    1    3    3    0  502 -0.15055120930E+04 -0.21066138796E+03 -0.12313232137E+04  0.19562979705E+04  0.10100000352E+00 0. -1.
</event>
<event>
 5   0  0.1143283E-07  0.3829870E+04  0.7818609E-02  0.8039775E-01
        2   -1    0    0  501    0  0.00000000000E+00  0.00000000000E+00  0.22679621890E+04  0.22679621890E+04  0.25500000920E-02 0.  1.
       -2   -1    0    0    0  501  0.00000000000E+00  0.00000000000E+00 -0.16168592427E+04  0.16168592427E+04  0.25500000920E-02 0. -1.
    10030    2    1    2    0    0  0.00000000000E+00  0.00000000000E+00  0.65110294632E+03  0.38848214316E+04  0.38298697770E+04 0.  0.
        1    1    3    3  502    0  0.16445673420E+04  0.14087053048E+03 -0.65921782806E+03  0.17773616383E+04  0.50400001928E-02 0. -1.
       -1    1    3    3    0  502 -0.16445673420E+04 -0.14087053048E+03  0.13103207744E+04  0.21074597933E+04  0.50400001928E-02 0.  1.
</event>
<event>
 5   0  0.3701250E-08  0.3801438E+04  0.7818609E-02  0.8045846E-01
       -1   -1    0    0    0  501  0.00000000000E+00  0.00000000000E+00  0.17984441341E+04  0.17984441341E+04  0.50400001928E-02 0. -1.
        1   -1    0    0  501    0  0.00000000000E+00  0.00000000000E+00 -0.20088095585E+04  0.20088095585E+04  0.50400001928E-02 0.  1.
    10030    2    1    2    0    0  0.00000000000E+00  0.00000000000E+00 -0.21036542436E+03  0.38072536926E+04  0.38014375002E+04 0.  0.
        2    1    3    3  502    0 -0.12209745814E+04 -0.31738822170E+03 -0.15290532137E+04  0.19823011734E+04  0.25500000920E-02 0.  1.
       -2    1    3    3    0  502  0.12209745814E+04  0.31738822170E+03  0.13186877893E+04  0.18249525192E+04  0.25500000920E-02 0. -1.
</event>
<event>
 5   0  0.3701250E-08  0.3550497E+04  0.7818609E-02  0.8101926E-01
       -1   -1    0    0    0  501  0.00000000000E+00  0.00000000000E+00  0.29072497430E+04  0.29072497430E+04  0.50400001928E-02 0. -1.
        1   -1    0    0  501    0  0.00000000000E+00  0.00000000000E+00 -0.10840168191E+04  0.10840168192E+04  0.50400001928E-02 0.  1.
    10030    2    1    2    0    0  0.00000000000E+00  0.00000000000E+00  0.18232329238E+04  0.39912665621E+04  0.35504972152E+04 0.  0.
        2    1    3    3  502    0 -0.85780514105E+03 -0.55798361208E+03 -0.71910096581E+03  0.12507124251E+04  0.25500000920E-02 0.  1.
       -2    1    3    3    0  502  0.85780514105E+03  0.55798361208E+03  0.25423338896E+04  0.27405541370E+04  0.25500000920E-02 0. -1.
</event>
<event>
 5   0  0.3701250E-08  0.3804142E+04  0.7818609E-02  0.8045267E-01
       -1   -1    0    0    0  501  0.00000000000E+00  0.00000000000E+00  0.12464939324E+04  0.12464939324E+04  0.50400001928E-02 0. -1.
        1   -1    0    0  501    0  0.00000000000E+00  0.00000000000E+00 -0.29024400128E+04  0.29024400129E+04  0.50400001928E-02 0.  1.
    10030    2    1    2    0    0  0.00000000000E+00  0.00000000000E+00 -0.16559460804E+04  0.41489339453E+04  0.38041418823E+04 0.  0.
        3    1    3    3  502    0  0.10681243541E+03 -0.45391649202E+03  0.11831859290E+04  0.12717617823E+04  0.10100000352E+00 0. -1.
       -3    1    3    3    0  502 -0.10681243541E+03  0.45391649202E+03 -0.28391320095E+04  0.28771721630E+04  0.10100000352E+00 0.  1.
</event>
<event>
 5   0  0.3701250E-08  0.3796511E+04  0.7818609E-02  0.8046904E-01
        1   -1    0    0  501    0  0.00000000000E+00  0.00000000000E+00  0.15092659547E+04  0.15092659547E+04  0.50400001928E-02 0. -1.
       -1   -1    0    0    0  501  0.00000000000E+00  0.00000000000E+00 -0.23875006946E+04  0.23875006946E+04  0.50400001928E-02 0.  1.
    10030    2    1    2    0    0  0.00000000000E+00  0.00000000000E+00 -0.87823473986E+03  0.38967666493E+04  0.37965107745E+04 0.  0.
        4    1    3    3  502    0 -0.17787655284E+04  0.61330088392E+03 -0.69720754570E+03  0.20065504614E+04  0.12699999809E+01 0.  1.
       -4    1    3    3    0  502  0.17787655284E+04 -0.61330088392E+03 -0.18102719417E+03  0.18902161880E+04  0.12699999809E+01 0. -1.
</event>
<event>
 5   0  0.7858367E-08  0.3811972E+04  0.7818609E-02  0.8043591E-01
       -2   -1    0    0    0  501  0.00000000000E+00  0.00000000000E+00  0.14483730917E+04  0.14483730917E+04  0.25500000920E-02 0. -1.
        2   -1    0    0  501    0  0.00000000000E+00  0.00000000000E+00 -0.25081809711E+04  0.25081809711E+04  0.25500000920E-02 0.  1.
    10030    2    1    2    0    0  0.00000000000E+00  0.00000000000E+00 -0.10598078794E+04  0.39565540628E+04  0.38119715779E+04 0.  0.
        2    1    3    3  502    0 -0.60187130404E+03  0.11669322078E+04  0.90409189311E+03  0.15941649838E+04  0.25500000920E-02 0. -1.
       -2    1    3    3    0  502  0.60187130404E+03 -0.11669322078E+04 -0.19638997725E+04  0.23623890790E+04  0.25500000920E-02 0.  1.
</event>
<event>
 5   0  0.1193861E-07  0.3923943E+04  0.7818609E-02  0.8020068E-01
        2   -1    0    0  501    0  0.00000000000E+00  0.00000000000E+00  0.19802983131E+04  0.19802983131E+04  0.25500000920E-02 0.  1.
       -2   -1    0    0    0  501  0.00000000000E+00  0.00000000000E+00 -0.19438143485E+04  0.19438143485E+04  0.25500000920E-02 0. -1.
    10030    2    1    2    0    0  0.00000000000E+00  0.00000000000E+00  0.36483964630E+02  0.39241126616E+04  0.39239430553E+04 0.  0.
        3    1    3    3  502    0 -0.89794271076E+03 -0.17504414097E+03  0.17539410114E+04  0.19781937834E+04  0.10100000352E+00 0.  1.
       -3    1    3    3    0  502  0.89794271076E+03  0.17504414097E+03 -0.17174570467E+04  0.19459188782E+04  0.10100000352E+00 0. -1.
</event>
<event>
 5   0  0.1143283E-07  0.3808241E+04  0.7818609E-02  0.8044389E-01
       -2   -1    0    0    0  501  0.00000000000E+00  0.00000000000E+00  0.20921466800E+04  0.20921466800E+04  0.25500000920E-02 0. -1.
        2   -1    0    0  501    0  0.00000000000E+00  0.00000000000E+00 -0.17329931297E+04  0.17329931297E+04  0.25500000920E-02 0.  1.
    10030    2    1    2    0    0  0.00000000000E+00  0.00000000000E+00  0.35915355033E+03  0.38251398097E+04  0.38082414959E+04 0.  0.
        1    1    3    3  502    0 -0.88216993503E+03  0.12950816351E+04  0.12661419254E+04  0.20145906808E+04  0.50400001928E-02 0. -1.
       -1    1    3    3    0  502  0.88216993503E+03 -0.12950816351E+04 -0.90698837504E+03  0.18105491289E+04  0.50400001928E-02 0.  1.
</event>
<event>
 5   0  0.1174870E-07  0.3796495E+04  0.7818609E-02  0.8046908E-01
        2   -1    0    0  501    0  0.00000000000E+00  0.00000000000E+00  0.22994489837E+04  0.22994489837E+04  0.25500000920E-02 0.  1.
       -2   -1    0    0    0  501  0.00000000000E+00  0.00000000000E+00 -0.15670461388E+04  0.15670461388E+04  0.25500000920E-02 0. -1.
    10030    2    1    2    0    0  0.00000000000E+00  0.00000000000E+00  0.73240284493E+03  0.38664951225E+04  0.37964945153E+04 0.  0.
        5    1    3    3  502    0 -0.15320208746E+04 -0.73068390787E+03  0.12317742347E+04  0.20972069017E+04  0.46999998093E+01 0.  1.
       -5    1    3    3    0  502  0.15320208746E+04  0.73068390787E+03 -0.49937138975E+03  0.17692882208E+04  0.46999998093E+01 0. -1.
</event>
<event>
 5   0  0.3701250E-08  0.3795587E+04  0.7818609E-02  0.8047103E-01
        1   -1    0    0  501    0  0.00000000000E+00  0.00000000000E+00  0.17373539890E+04  0.17373539890E+04  0.50400001928E-02 0.  1.
       -1   -1    0    0    0  501  0.00000000000E+00  0.00000000000E+00 -0.20730487900E+04  0.20730487901E+04  0.50400001928E-02 0. -1.
    10030    2    1    2    0    0  0.00000000000E+00  0.00000000000E+00 -0.33569480108E+03  0.38104027790E+04  0.37955866923E+04 0.  0.
        4    1    3    3  502    0  0.60766564923E+03  0.23277732395E+03  0.16218552596E+04  0.17475293760E+04  0.12699999809E+01 0.  1.
       -4    1    3    3    0  502 -0.60766564923E+03 -0.23277732395E+03 -0.19575500607E+04  0.20628734030E+04  0.12699999809E+01 0. -1.
</event>
<event>
 5   0  0.3701250E-08  0.3801157E+04  0.7818609E-02  0.8045907E-01
       -1   -1    0    0    0  501  0.00000000000E+00  0.00000000000E+00  0.31299548772E+04  0.31299548772E+04  0.50400001928E-02 0.  1.
        1   -1    0    0  501    0  0.00000000000E+00  0.00000000000E+00 -0.11540736671E+04  0.11540736671E+04  0.50400001928E-02 0. -1.
    10030    2    1    2    0    0  0.00000000000E+00  0.00000000000E+00  0.19758812101E+04  0.42840285444E+04  0.38011569308E+04 0.  0.
        3    1    3    3  502    0  0.79914315175E+03  0.10537497950E+04 -0.55044062662E+03  0.14324815186E+04  0.10100000352E+00 0. -1.
       -3    1    3    3    0  502 -0.79914315175E+03 -0.10537497950E+04  0.25263218367E+04  0.28515470258E+04  0.10100000352E+00 0.  1.
</event>
<event>
 5   0  0.3701250E-08  0.3808691E+04  0.7818609E-02  0.8044292E-01
       -1   -1    0    0    0  501  0.00000000000E+00  0.00000000000E+00  0.13509222833E+04  0.13509222833E+04  0.50400001928E-02 0. -1.
        1   -1    0    0  501    0  0.00000000000E+00  0.00000000000E+00 -0.26844857018E+04  0.26844857018E+04  0.50400001928E-02 0.  1.
    10030    2    1    2    0    0  0.00000000000E+00  0.00000000000E+00 -0.13335634185E+04  0.40354079851E+04  0.38086908794E+04 0.  0.
        3    1    3    3  502    0  0.12930680105E+04 -0.46375215581E+03 -0.20641681494E+04  0.24794921054E+04  0.10100000352E+00 0.  1.
       -3    1    3    3    0  502 -0.12930680105E+04  0.46375215581E+03  0.73060473084E+03  0.15559158797E+04  0.10100000352E+00 0. -1.
</event>
<event>
 5   0  0.3701250E-08  0.3801255E+04  0.7818609E-02  0.8045886E-01
       -1   -1    0    0    0  501  0.00000000000E+00  0.00000000000E+00  0.18402046613E+04  0.18402046613E+04  0.50400001928E-02 0. -1.
        1   -1    0    0  501    0  0.00000000000E+00  0.00000000000E+00 -0.19630343350E+04  0.19630343350E+04  0.50400001928E-02 0.  1.
    10030    2    1    2    0    0  0.00000000000E+00  0.00000000000E+00 -0.12282967364E+03  0.38032389963E+04  0.38012550209E+04 0.  0.
        3    1    3    3  502    0  0.72214180425E+03 -0.85101560484E+03  0.14777861496E+04  0.18519093550E+04  0.10100000352E+00 0. -1.
       -3    1    3    3    0  502 -0.72214180425E+03  0.85101560484E+03 -0.16006158232E+04  0.19513296413E+04  0.10100000352E+00 0.  1.
</event>
<event>
 5   0  0.7858367E-08  0.3800666E+04  0.7818609E-02  0.8046012E-01
        2   -1    0    0  501    0  0.00000000000E+00  0.00000000000E+00  0.24215805996E+04  0.24215805996E+04  0.25500000920E-02 0. -1.
       -2   -1    0    0    0  501  0.00000000000E+00  0.00000000000E+00 -0.14912840711E+04  0.14912840711E+04  0.25500000920E-02 0.  1.
    10030    2    1    2    0    0  0.00000000000E+00  0.00000000000E+00  0.93029652853E+03  0.39128646707E+04  0.38006655075E+04 0.  0.
        2    1    3    3  502    0 -0.86846087893E+03  0.15520855548E+04  0.11542898448E+04  0.21202780275E+04  0.25500000920E-02 0.  1.
       -2    1    3    3    0  502  0.86846087893E+03 -0.15520855548E+04 -0.22399331632E+03  0.17925866432E+04  0.25500000920E-02 0. -1.
</event>
<event>
 5   0  0.1193861E-07  0.3796794E+04  0.7818609E-02  0.8046843E-01
        2   -1    0    0  501    0  0.00000000000E+00  0.00000000000E+00  0.29683868592E+04  0.29683868592E+04  0.25500000920E-02 0. -1.
       -2   -1    0    0    0  501  0.00000000000E+00  0.00000000000E+00 -0.12140976941E+04  0.12140976941E+04  0.25500000920E-02 0.  1.
    10030    2    1    2    0    0  0.00000000000E+00  0.00000000000E+00  0.17542891651E+04  0.41824845533E+04  0.37967942482E+04 0.  0.
        3    1    3    3  502    0  0.62386241320E+03 -0.16441374817E+04  0.16650031802E+04  0.24216993970E+04  0.10100000352E+00 0. -1.
       -3    1    3    3    0  502 -0.62386241320E+03  0.16441374817E+04  0.89285984944E+02  0.17607851563E+04  0.10100000352E+00 0.  1.
</event>
<event>
 5   0  0.1193861E-07  0.3792166E+04  0.7818609E-02  0.8047838E-01
       -2   -1    0    0    0  501  0.00000000000E+00  0.00000000000E+00  0.19400643215E+04  0.19400643215E+04  0.25500000920E-02 0. -1.
        2   -1    0    0  501    0  0.00000000000E+00  0.00000000000E+00 -0.18530987659E+04  0.18530987659E+04  0.25500000920E-02 0.  1.
    10030    2    1    2    0    0  0.00000000000E+00  0.00000000000E+00  0.86965555578E+02  0.37931630873E+04  0.37921660300E+04 0.  0.
        3    1    3    3  502    0 -0.16069600947E+04  0.16985695164E+03 -0.94872493409E+03  0.18738332745E+04  0.10100000352E+00 0.  1.
       -3    1    3    3    0  502  0.16069600947E+04 -0.16985695164E+03  0.10356904897E+04  0.19193298128E+04  0.10100000352E+00 0. -1.
</event>
<event>
 5   0  0.3701250E-08  0.3796560E+04  0.7818609E-02  0.8046894E-01
       -1   -1    0    0    0  501  0.00000000000E+00  0.00000000000E+00  0.13253255828E+04  0.13253255828E+04  0.50400001928E-02 0. -1.
        1   -1    0    0  501    0  0.00000000000E+00  0.00000000000E+00 -0.27189292950E+04  0.27189292950E+04  0.50400001928E-02 0.  1.
    10030    2    1    2    0    0  0.00000000000E+00  0.00000000000E+00 -0.13936037123E+04  0.40442548778E+04  0.37965597862E+04 0.  0.
        2    1    3    3  502    0 -0.15213293321E+04  0.39515630170E+03  0.43700555866E+03  0.16314304453E+04  0.25500000920E-02 0.  1.
       -2    1    3    3    0  502  0.15213293321E+04 -0.39515630170E+03 -0.18306092709E+04  0.24128244325E+04  0.25500000920E-02 0. -1.
</event>
<event>
 5   0  0.1150235E-07  0.3797378E+04  0.7818609E-02  0.8046718E-01
       -2   -1    0    0    0  501  0.00000000000E+00  0.00000000000E+00  0.14472531832E+04  0.14472531832E+04  0.25500000920E-02 0.  1.
        2   -1    0    0  501    0  0.00000000000E+00  0.00000000000E+00 -0.24909388174E+04  0.24909388174E+04  0.25500000920E-02 0. -1.
    10030    2    1    2    0    0  0.00000000000E+00  0.00000000000E+00 -0.10436856342E+04  0.39381920006E+04  0.37973775860E+04 0.  0.
        4    1    3    3  502    0  0.18196160365E+04 -0.26641274209E+03 -0.32059767263E+02  0.18392954388E+04  0.12699999809E+01 0.  1.
       -4    1    3    3    0  502 -0.18196160365E+04  0.26641274209E+03 -0.10116258670E+04  0.20988965618E+04  0.12699999809E+01 0. -1.
</event>
<event>
 5   0  0.1143283E-07  0.3828309E+04  0.7818609E-02  0.8040107E-01
        2   -1    0    0  501    0  0.00000000000E+00  0.00000000000E+00  0.21464692813E+04  0.21464692813E+04  0.25500000920E-02 0. -1.
       -2   -1    0    0    0  501  0.00000000000E+00  0.00000000000E+00 -0.17069830459E+04  0.17069830459E+04  0.25500000920E-02 0.  1.
    10030    2    1    2    0    0  0.00000000000E+00  0.00000000000E+00  0.43948623543E+03  0.38534523272E+04  0.38283085935E+04 0.  0.
        1    1    3    3  502    0 -0.37926525739E+03  0.16598923495E+03  0.21008652214E+04  0.21412681383E+04  0.50400001928E-02 0. -1.
       -1    1    3    3    0  502  0.37926525739E+03 -0.16598923495E+03 -0.16613789860E+04  0.17121841889E+04  0.50400001928E-02 0.  1.
</event>
<event>
 5   0  0.1193861E-07  0.3824723E+04  0.7818609E-02  0.8040870E-01
       -2   -1    0    0    0  501  0.00000000000E+00  0.00000000000E+00  0.17508575284E+04  0.17508575284E+04  0.25500000920E-02 0.  1.
        2   -1    0    0  501    0  0.00000000000E+00  0.00000000000E+00 -0.20887626554E+04  0.20887626554E+04  0.25500000920E-02 0. -1.
    10030    2    1    2    0    0  0.00000000000E+00  0.00000000000E+00 -0.33790512706E+03  0.38396201838E+04  0.38247226410E+04 0.  0.
        3    1    3    3  502    0 -0.51672084257E+03 -0.83535253800E+03 -0.18161701632E+04  0.20647731991E+04  0.10100000352E+00 0. -1.
       -3    1    3    3    0  502  0.51672084257E+03  0.83535253800E+03  0.14782650361E+04  0.17748469847E+04  0.10100000352E+00 0.  1.
</event>
<event>
 5   0  0.3701250E-08  0.3736749E+04  0.7818609E-02  0.8059866E-01
       -3   -1    0    0    0  501  0.00000000000E+00  0.00000000000E+00  0.16048755784E+04  0.16048755816E+04  0.10100000352E+00 0. -1.
        3   -1    0    0  501    0  0.00000000000E+00  0.00000000000E+00 -0.21751361519E+04  0.21751361542E+04  0.10100000352E+00 0.  1.
    10030    2    1    2    0    0  0.00000000000E+00  0.00000000000E+00 -0.57026057344E+03  0.37800117359E+04  0.37367488010E+04 0.  0.
        5    1    3    3  502    0  0.47933380928E+03  0.16747664341E+04 -0.96837393040E+03  0.19930814506E+04  0.46999998093E+01 0.  1.
       -5    1    3    3    0  502 -0.47933380928E+03 -0.16747664341E+04  0.39811335696E+03  0.17869302853E+04  0.46999998093E+01 0. -1.
</event>
<event>
 5   0  0.1143283E-07  0.3800981E+04  0.7818609E-02  0.8045944E-01
        2   -1    0    0  501    0  0.00000000000E+00  0.00000000000E+00  0.16906041418E+04  0.16906041418E+04  0.25500000920E-02 0.  1.
       -2   -1    0    0    0  501  0.00000000000E+00  0.00000000000E+00 -0.21364337433E+04  0.21364337433E+04  0.25500000920E-02 0. -1.
    10030    2    1    2    0    0  0.00000000000E+00  0.00000000000E+00 -0.44582960148E+03  0.38270378850E+04  0.38009807866E+04 0.  0.
        1    1    3    3  502    0  0.18098239894E+04 -0.57003363145E+03 -0.11511767937E+03  0.19009611500E+04  0.50400001928E-02 0. -1.
       -1    1    3    3    0  502 -0.18098239894E+04  0.57003363145E+03 -0.33071192211E+03  0.19260767350E+04  0.50400001928E-02 0.  1.
</event>
<event>
 5   0  0.1174870E-07  0.3811104E+04  0.7818609E-02  0.8043776E-01
        2   -1    0    0  501    0  0.00000000000E+00  0.00000000000E+00  0.18410329789E+04  0.18410329789E+04  0.25500000920E-02 0.  1.
       -2   -1    0    0    0  501  0.00000000000E+00  0.00000000000E+00 -0.19723321420E+04  0.19723321420E+04  0.25500000920E-02 0. -1.
    10030    2    1    2    0    0  0.00000000000E+00  0.00000000000E+00 -0.13129916319E+03  0.38133651209E+04  0.38111040494E+04 0.  0.
        5    1    3    3  502    0  0.76365097967E+03  0.93887927377E+03 -0.15384091432E+04  0.19573916040E+04  0.46999998093E+01 0. -1.
       -5    1    3    3    0  502 -0.76365097967E+03 -0.93887927377E+03  0.14071099800E+04  0.18559735169E+04  0.46999998093E+01 0.  1.
</event>
<event>
 5   0  0.3701250E-08  0.3797806E+04  0.7818609E-02  0.8046626E-01
       -1   -1    0    0    0  501  0.00000000000E+00  0.00000000000E+00  0.15814161706E+04  0.15814161706E+04  0.50400001928E-02 0. -1.
        1   -1    0    0  501    0  0.00000000000E+00  0.00000000000E+00 -0.22801285823E+04  0.22801285823E+04  0.50400001928E-02 0.  1.
    10030    2    1    2    0    0  0.00000000000E+00  0.00000000000E+00 -0.69871241168E+03  0.38615447530E+04  0.37978057935E+04 0.  0.
        3    1    3    3  502    0 -0.63345219573E+02  0.45676590285E+03  0.15236191222E+04  0.15918740360E+04  0.10100000352E+00 0. -1.
       -3    1    3    3    0  502  0.63345219573E+02 -0.45676590285E+03 -0.22223315339E+04  0.22696707170E+04  0.10100000352E+00 0.  1.
</event>
<event>
 5   0  0.3701250E-08  0.3792389E+04  0.7818609E-02  0.8047790E-01
       -3   -1    0    0    0  501  0.00000000000E+00  0.00000000000E+00  0.16876682223E+04  0.16876682253E+04  0.10100000352E+00 0. -1.
        3   -1    0    0  501    0  0.00000000000E+00  0.00000000000E+00 -0.21304856695E+04  0.21304856719E+04  0.10100000352E+00 0.  1.
    10030    2    1    2    0    0  0.00000000000E+00  0.00000000000E+00 -0.44281744724E+03  0.38181538973E+04  0.37923886789E+04 0.  0.
        3    1    3    3  502    0  0.13869689561E+04 -0.10651187125E+04  0.51664210072E+03  0.18234801417E+04  0.10100000352E+00 0. -1.
       -3    1    3    3    0  502 -0.13869689561E+04  0.10651187125E+04 -0.95945954796E+03  0.19946737556E+04  0.10100000352E+00 0.  1.
</event>
<event>
 5   0  0.3701250E-08  0.3812767E+04  0.7818609E-02  0.8043421E-01
       -1   -1    0    0    0  501  0.00000000000E+00  0.00000000000E+00  0.15654899437E+04  0.15654899438E+04  0.50400001928E-02 0. -1.
        1   -1    0    0  501    0  0.00000000000E+00  0.00000000000E+00 -0.23215082532E+04  0.23215082532E+04  0.50400001928E-02 0.  1.
    10030    2    1    2    0    0  0.00000000000E+00  0.00000000000E+00 -0.75601830949E+03  0.38869981970E+04  0.38127668823E+04 0.  0.
        2    1    3    3  502    0  0.16254354044E+04 -0.92063283604E+03 -0.76579993102E+03  0.20189241212E+04  0.25500000920E-02 0.  1.
       -2    1    3    3    0  502 -0.16254354044E+04  0.92063283604E+03  0.97816215305E+01  0.18680740758E+04  0.25500000920E-02 0. -1.
</event>
<event>
 5   0  0.3701250E-08  0.3789613E+04  0.7818609E-02  0.8048388E-01
       -1   -1    0    0    0  501  0.00000000000E+00  0.00000000000E+00  0.16800673333E+04  0.16800673333E+04  0.50400001928E-02 0.  1.
        1   -1    0    0  501    0  0.00000000000E+00  0.00000000000E+00 -0.21369929908E+04  0.21369929908E+04  0.50400001928E-02 0. -1.
    10030    2    1    2    0    0  0.00000000000E+00  0.00000000000E+00 -0.45692565750E+03  0.38170603242E+04  0.37896132338E+04 0.  0.
        4    1    3    3  502    0  0.22377721989E+03 -0.10149219767E+04  0.13673566737E+04  0.17175007275E+04  0.12699999809E+01 0.  1.
       -4    1    3    3    0  502 -0.22377721989E+03  0.10149219767E+04 -0.18242823312E+04  0.20995595966E+04  0.12699999809E+01 0. -1.
</event>
<event>
 5   0  0.1143283E-07  0.3778821E+04  0.7818609E-02  0.8050715E-01
       -2   -1    0    0    0  501  0.00000000000E+00  0.00000000000E+00  0.19860086838E+04  0.19860086838E+04  0.25500000920E-02 0.  1.
        2   -1    0    0  501    0  0.00000000000E+00  0.00000000000E+00 -0.17975106641E+04  0.17975106641E+04  0.25500000920E-02 0. -1.
    10030    2    1    2    0    0  0.00000000000E+00  0.00000000000E+00  0.18849801971E+03  0.37835193479E+04  0.37788208680E+04 0.  0.
        1    1    3    3  502    0 -0.55262303404E+03  0.13019686341E+04 -0.11600485074E+04  0.18292695486E+04  0.50400001928E-02 0. -1.
       -1    1    3    3    0  502  0.55262303404E+03 -0.13019686341E+04  0.13485465272E+04  0.19542497992E+04  0.50400001928E-02 0.  1.
</event>
<event>
 5   0  0.1143283E-07  0.3801792E+04  0.7818609E-02  0.8045770E-01
       -2   -1    0    0    0  501  0.00000000000E+00  0.00000000000E+00  0.10920781657E+04  0.10920781657E+04  0.25500000920E-02 0. -1.
        2   -1    0    0  501    0  0.00000000000E+00  0.00000000000E+00 -0.33087434202E+04  0.33087434202E+04  0.25500000920E-02 0.  1.
    10030    2    1    2    0    0  0.00000000000E+00  0.00000000000E+00 -0.22166652545E+04  0.44008215858E+04  0.38017924430E+04 0.  0.
        1    1    3    3  502    0  0.14029160829E+04 -0.26509387070E+03 -0.25610457779E+04  0.29321329732E+04  0.50400001928E-02 0.  1.
       -1    1    3    3    0  502 -0.14029160829E+04  0.26509387070E+03  0.34438052340E+03  0.14686886126E+04  0.50400001928E-02 0. -1.
</event>
<event>
 5   0  0.1150235E-07  0.3869661E+04  0.7818609E-02  0.8031369E-01
        2   -1    0    0  501    0  0.00000000000E+00  0.00000000000E+00  0.23411421070E+04  0.23411421070E+04  0.25500000920E-02 0.  1.
       -2   -1    0    0    0  501  0.00000000000E+00  0.00000000000E+00 -0.15990354196E+04  0.15990354196E+04  0.25500000920E-02 0. -1.
    10030    2    1    2    0    0  0.00000000000E+00  0.00000000000E+00  0.74210668747E+03  0.39401775266E+04  0.38696610453E+04 0.  0.
        4    1    3    3  502    0  0.17783105647E+03  0.18551859618E+04  0.90036151770E+03  0.20697804988E+04  0.12699999809E+01 0.  1.
       -4    1    3    3    0  502 -0.17783105647E+03 -0.18551859618E+04 -0.15825483022E+03  0.18703970278E+04  0.12699999809E+01 0. -1.
</event>
<event>
 5   0  0.3701250E-08  0.3807985E+04  0.7818609E-02  0.8044444E-01
       -1   -1    0    0    0  501  0.00000000000E+00  0.00000000000E+00  0.22973997053E+04  0.22973997053E+04  0.50400001928E-02 0. -1.
        1   -1    0    0  501    0  0.00000000000E+00  0.00000000000E+00 -0.15779523749E+04  0.15779523749E+04  0.50400001928E-02 0.  1.
    10030    2    1    2    0    0  0.00000000000E+00  0.00000000000E+00  0.71944733047E+03  0.38753520802E+04  0.38079849375E+04 0.  0.
        1    1    3    3  502    0 -0.10765753064E+04 -0.10524285561E+03  0.19543181564E+04  0.22337076589E+04  0.50400001928E-02 0. -1.
       -1    1    3    3    0  502  0.10765753064E+04  0.10524285561E+03 -0.12348708260E+04  0.16416444213E+04  0.50400001928E-02 0.  1.
</event>
<event>
 5   0  0.7858367E-08  0.3830422E+04  0.7818609E-02  0.8039658E-01
        2   -1    0    0  501    0  0.00000000000E+00  0.00000000000E+00  0.26521778747E+04  0.26521778747E+04  0.25500000920E-02 0.  1.
       -2   -1    0    0    0  501  0.00000000000E+00  0.00000000000E+00 -0.13830271174E+04  0.13830271174E+04  0.25500000920E-02 0. -1.
    10030    2    1    2    0    0  0.00000000000E+00  0.00000000000E+00  0.12691507573E+04  0.40352049921E+04  0.38304223897E+04 0.  0.
        2    1    3    3  502    0 -0.18733033513E+04  0.11549347985E+03  0.10363158043E+04  0.21439577039E+04  0.25500000920E-02 0.  1.
       -2    1    3    3    0  502  0.18733033513E+04 -0.11549347985E+03  0.23283495305E+03  0.18912472882E+04  0.25500000920E-02 0. -1.
</event>
<event>
 5   0  0.1193861E-07  0.3797615E+04  0.7818609E-02  0.8046667E-01
        2   -1    0    0  501    0  0.00000000000E+00  0.00000000000E+00  0.22351820981E+04  0.22351820981E+04  0.25500000920E-02 0.  1.
       -2   -1    0    0    0  501  0.00000000000E+00  0.00000000000E+00 -0.16130540233E+04  0.16130540233E+04  0.25500000920E-02 0. -1.
    10030    2    1    2    0    0  0.00000000000E+00  0.00000000000E+00  0.62212807479E+03  0.38482361214E+04  0.37976147652E+04 0.  0.
        3    1    3    3  502    0  0.82993084270E+03 -0.13152757188E+04  0.14149583745E+04  0.21025799942E+04  0.10100000352E+00 0.  1.
       -3    1    3    3    0  502 -0.82993084270E+03  0.13152757188E+04 -0.79283029971E+03  0.17456561272E+04  0.10100000352E+00 0. -1.
</event>
<event>
 5   0  0.3701250E-08  0.3800003E+04  0.7818609E-02  0.8046154E-01
       -1   -1    0    0    0  501  0.00000000000E+00  0.00000000000E+00  0.33576242806E+04  0.33576242806E+04  0.50400001928E-02 0. -1.
        1   -1    0    0  501    0  0.00000000000E+00  0.00000000000E+00 -0.10751663875E+04  0.10751663875E+04  0.50400001928E-02 0.  1.
    10030    2    1    2    0    0  0.00000000000E+00  0.00000000000E+00  0.22824578931E+04  0.44327906681E+04  0.38000025097E+04 0.  0.
        1    1    3    3  502    0  0.86534479200E+03 -0.10098125025E+04 -0.44174841736E+03  0.14013152977E+04  0.50400001928E-02 0.  1.
       -1    1    3    3    0  502 -0.86534479200E+03  0.10098125025E+04  0.27242063105E+04  0.30314753704E+04  0.50400001928E-02 0. -1.
</event>
<event>
 5   0  0.1150235E-07  0.3812395E+04  0.7818609E-02  0.8043500E-01
        2   -1    0    0  501    0  0.00000000000E+00  0.00000000000E+00  0.17895326593E+04  0.17895326593E+04  0.25500000920E-02 0.  1.
       -2   -1    0    0    0  501  0.00000000000E+00  0.00000000000E+00 -0.20304683528E+04  0.20304683528E+04  0.25500000920E-02 0. -1.
    10030    2    1    2    0    0  0.00000000000E+00  0.00000000000E+00 -0.24093569352E+03  0.38200010121E+04  0.38123952738E+04 0.  0.
        4    1    3    3  502    0 -0.69181241035E+03  0.11517229942E+04 -0.14753924290E+04  0.19954585185E+04  0.12699999809E+01 0. -1.
       -4    1    3    3    0  502  0.69181241035E+03 -0.11517229942E+04  0.12344567355E+04  0.18245424936E+04  0.12699999809E+01 0.  1.
</event>
<event>
 5   0  0.3889225E-08  0.3784515E+04  0.7818609E-02  0.8049486E-01
        1   -1    0    0  501    0  0.00000000000E+00  0.00000000000E+00  0.22765471708E+04  0.22765471708E+04  0.50400001928E-02 0.  1.
       -1   -1    0    0    0  501  0.00000000000E+00  0.00000000000E+00 -0.15728372390E+04  0.15728372390E+04  0.50400001928E-02 0. -1.
    10030    2    1    2    0    0  0.00000000000E+00  0.00000000000E+00  0.70370993176E+03  0.38493844098E+04  0.37845148522E+04 0.  0.
        5    1    3    3  502    0  0.17181259025E+04  0.60491273463E+03  0.87322276263E+03  0.20200039893E+04  0.46999998093E+01 0.  1.
       -5    1    3    3    0  502 -0.17181259025E+04 -0.60491273463E+03 -0.16951283087E+03  0.18293804206E+04  0.46999998093E+01 0. -1.
</event>
<event>
 5   0  0.1193861E-07  0.3778515E+04  0.7818609E-02  0.8050781E-01
       -2   -1    0    0    0  501  0.00000000000E+00  0.00000000000E+00  0.15176032272E+04  0.15176032272E+04  0.25500000920E-02 0.  1.
        2   -1    0    0  501    0  0.00000000000E+00  0.00000000000E+00 -0.23519279995E+04  0.23519279995E+04  0.25500000920E-02 0. -1.
    10030    2    1    2    0    0  0.00000000000E+00  0.00000000000E+00 -0.83432477232E+03  0.38695312267E+04  0.37785147993E+04 0.  0.
        3    1    3    3  502    0  0.97460907182E+03  0.13853566982E+04  0.43978410464E+03  0.17499960265E+04  0.10100000352E+00 0.  1.
       -3    1    3    3    0  502 -0.97460907182E+03 -0.13853566982E+04 -0.12741088770E+04  0.21195352001E+04  0.10100000352E+00 0. -1.
</event>
<event>
 5   0  0.7858367E-08  0.3753930E+04  0.7818609E-02  0.8056114E-01
        2   -1    0    0  501    0  0.00000000000E+00  0.00000000000E+00  0.16005114362E+04  0.16005114362E+04  0.25500000920E-02 0. -1.
       -2   -1    0    0    0  501  0.00000000000E+00  0.00000000000E+00 -0.22011698375E+04  0.22011698375E+04  0.25500000920E-02 0.  1.
    10030    2    1    2    0    0  0.00000000000E+00  0.00000000000E+00 -0.60065840127E+03  0.38016812737E+04  0.37539299397E+04 0.  0.
        2    1    3    3  502    0 -0.10113513593E+04 -0.86862856503E+03  0.10377079428E+04  0.16894333164E+04  0.25500000920E-02 0. -1.
       -2    1    3    3    0  502  0.10113513593E+04  0.86862856503E+03 -0.16383663440E+04  0.21122479573E+04  0.25500000920E-02 0.  1.
</event>
<event>
 5   0  0.1143283E-07  0.3812034E+04  0.7818609E-02  0.8043577E-01
       -2   -1    0    0    0  501  0.00000000000E+00  0.00000000000E+00  0.13672410539E+04  0.13672410539E+04  0.25500000920E-02 0. -1.
        2   -1    0    0  501    0  0.00000000000E+00  0.00000000000E+00 -0.26571032045E+04  0.26571032045E+04  0.25500000920E-02 0.  1.
    10030    2    1    2    0    0  0.00000000000E+00  0.00000000000E+00 -0.12898621506E+04  0.40243442584E+04  0.38120338853E+04 0.  0.
        1    1    3    3  502    0 -0.69981115425E+02  0.89269594049E+03 -0.24212288085E+04  0.25815019547E+04  0.50400001928E-02 0.  1.
       -1    1    3    3    0  502  0.69981115425E+02 -0.89269594049E+03  0.11313666580E+04  0.14428423037E+04  0.50400001928E-02 0. -1.
</event>
<event>
 5   0  0.1193861E-07  0.3796455E+04  0.7818609E-02  0.8046916E-01
       -2   -1    0    0    0  501  0.00000000000E+00  0.00000000000E+00  0.11719002482E+04  0.11719002482E+04  0.25500000920E-02 0.  1.
        2   -1    0    0  501    0  0.00000000000E+00  0.00000000000E+00 -0.30747220920E+04  0.30747220920E+04  0.25500000920E-02 0. -1.
    10030    2    1    2    0    0  0.00000000000E+00  0.00000000000E+00 -0.19028218439E+04  0.42466223402E+04  0.37964549689E+04 0.  0.
        3    1    3    3  502    0 -0.31111516903E+03 -0.15429257289E+04  0.23546861081E+03  0.15914955011E+04  0.10100000352E+00 0.  1.
       -3    1    3    3    0  502  0.31111516903E+03  0.15429257289E+04 -0.21382904547E+04  0.26551268391E+04  0.10100000352E+00 0. -1.
</event>
<event>
 5   0  0.7858367E-08  0.3815273E+04  0.7818609E-02  0.8042885E-01
       -2   -1    0    0    0  501  0.00000000000E+00  0.00000000000E+00  0.23557897672E+04  0.23557897672E+04  0.25500000920E-02 0. -1.
        2   -1    0    0  501    0  0.00000000000E+00  0.00000000000E+00 -0.15447373237E+04  0.15447373237E+04  0.25500000920E-02 0.  1.
    10030    2    1    2    0    0  0.00000000000E+00  0.00000000000E+00  0.81105244353E+03  0.39005270909E+04  0.38152726666E+04 0.  0.
        2    1    3    3  502    0 -0.79367709621E+03  0.80956639841E+03  0.19740040079E+04  0.22764035033E+04  0.25500000920E-02 0. -1.
       -2    1    3    3    0  502  0.79367709621E+03 -0.80956639841E+03 -0.11629515644E+04  0.16241235875E+04  0.25500000920E-02 0.  1.
</event>
<event>
 5   0  0.1143283E-07  0.3780356E+04  0.7818609E-02  0.8050384E-01
       -2   -1    0    0    0  501  0.00000000000E+00  0.00000000000E+00  0.12580841810E+04  0.12580841810E+04  0.25500000920E-02 0. -1.
        2   -1    0    0  501    0  0.00000000000E+00  0.00000000000E+00 -0.28398516798E+04  0.28398516798E+04  0.25500000920E-02 0.  1.
    10030    2    1    2    0    0  0.00000000000E+00  0.00000000000E+00 -0.15817674987E+04  0.40979358608E+04  0.37803557900E+04 0.  0.
        1    1    3    3  502    0 -0.16356002819E+04  0.57727718826E+03  0.23447435961E+02  0.17346431957E+04  0.50400001928E-02 0. -1.
       -1    1    3    3    0  502  0.16356002819E+04 -0.57727718826E+03 -0.16052149347E+04  0.23632926651E+04  0.50400001928E-02 0.  1.
</event>
<event>
 5   0  0.3701250E-08  0.3789497E+04  0.7818609E-02  0.8048413E-01
       -3   -1    0    0    0  501  0.00000000000E+00  0.00000000000E+00  0.16751172056E+04  0.16751172087E+04  0.10100000352E+00 0.  1.
        3   -1    0    0  501    0  0.00000000000E+00  0.00000000000E+00 -0.21431765001E+04  0.21431765025E+04  0.10100000352E+00 0. -1.
    10030    2    1    2    0    0  0.00000000000E+00  0.00000000000E+00 -0.46805929452E+03  0.38182937112E+04  0.37894969800E+04 0.  0.
        3    1    3    3  502    0  0.50379128859E+03  0.16251781691E+04 -0.10740688745E+04  0.20121216914E+04  0.10100000352E+00 0. -1.
       -3    1    3    3    0  502 -0.50379128859E+03 -0.16251781691E+04  0.60600957998E+03  0.18061720198E+04  0.10100000352E+00 0.  1.
</event>
<event>
 5   0  0.3701250E-08  0.3805856E+04  0.7818609E-02  0.8044899E-01
        1   -1    0    0  501    0  0.00000000000E+00  0.00000000000E+00  0.15827958293E+04  0.15827958293E+04  0.50400001928E-02 0.  1.
       -1   -1    0    0    0  501  0.00000000000E+00  0.00000000000E+00 -0.22878098627E+04  0.22878098627E+04  0.50400001928E-02 0. -1.
    10030    2    1    2    0    0  0.00000000000E+00  0.00000000000E+00 -0.70501403342E+03  0.38706056921E+04  0.38058564918E+04 0.  0.
        3    1    3    3  502    0  0.20859747732E+03  0.90784972141E+01  0.15711108694E+04  0.15849241941E+04  0.10100000352E+00 0.  1.
       -3    1    3    3    0  502 -0.20859747732E+03 -0.90784972141E+01 -0.22761249029E+04  0.22856814980E+04  0.10100000352E+00 0. -1.
</event>
<event>
 5   0  0.1143283E-07  0.3807069E+04  0.7818609E-02  0.8044639E-01
        2   -1    0    0  501    0  0.00000000000E+00  0.00000000000E+00  0.21746237642E+04  0.21746237642E+04  0.25500000920E-02 0.  1.
       -2   -1    0    0    0  501  0.00000000000E+00  0.00000000000E+00 -0.16662397243E+04  0.16662397243E+04  0.25500000920E-02 0. -1.
    10030    2    1    2    0    0  0.00000000000E+00  0.00000000000E+00  0.50838403990E+03  0.38408634885E+04  0.38070694773E+04 0.  0.
        1    1    3    3  502    0 -0.38364425947E+03 -0.10460405749E+04  0.18112847649E+04  0.21265315191E+04  0.50400001928E-02 0.  1.
       -1    1    3    3    0  502  0.38364425947E+03  0.10460405749E+04 -0.13029007250E+04  0.17143319694E+04  0.50400001928E-02 0. -1.
</event>
<event>
 5   0  0.3701250E-08  0.3783065E+04  0.7818609E-02  0.8049799E-01
       -1   -1    0    0    0  501  0.00000000000E+00  0.00000000000E+00  0.18950664702E+04  0.18950664702E+04  0.50400001928E-02 0. -1.
        1   -1    0    0  501    0  0.00000000000E+00  0.00000000000E+00 -0.18880052847E+04  0.18880052847E+04  0.50400001928E-02 0.  1.
    10030    2    1    2    0    0  0.00000000000E+00  0.00000000000E+00  0.70611855339E+01  0.37830717549E+04  0.37830651650E+04 0.  0.
        1    1    3    3  502    0  0.67158326768E+03 -0.78191312945E+03  0.15895608721E+04  0.18944962374E+04  0.50400001928E-02 0. -1.
       -1    1    3    3    0  502 -0.67158326768E+03  0.78191312945E+03 -0.15824996865E+04  0.18885755175E+04  0.50400001928E-02 0.  1.
</event>
<event>
 5   0  0.1150235E-07  0.3826573E+04  0.7818609E-02  0.8040476E-01
       -2   -1    0    0    0  501  0.00000000000E+00  0.00000000000E+00  0.18357392389E+04  0.18357392389E+04  0.25500000920E-02 0.  1.
        2   -1    0    0  501    0  0.00000000000E+00  0.00000000000E+00 -0.19941097971E+04  0.19941097971E+04  0.25500000920E-02 0. -1.
    10030    2    1    2    0    0  0.00000000000E+00  0.00000000000E+00 -0.15837055822E+03  0.38298490360E+04  0.38265731935E+04 0.  0.
        4    1    3    3  502    0  0.18831116737E+04 -0.33668037563E+03 -0.11386660085E+03  0.19163586477E+04  0.12699999809E+01 0.  1.
       -4    1    3    3    0  502 -0.18831116737E+04  0.33668037563E+03 -0.44503957368E+02  0.19134903883E+04  0.12699999809E+01 0. -1.
</event>
<event>
 5   0  0.1150235E-07  0.3776613E+04  0.7818609E-02  0.8051192E-01
       -2   -1    0    0    0  501  0.00000000000E+00  0.00000000000E+00  0.14876047496E+04  0.14876047496E+04  0.25500000920E-02 0.  1.
        2   -1    0    0  501    0  0.00000000000E+00  0.00000000000E+00 -0.23969408643E+04  0.23969408643E+04  0.25500000920E-02 0. -1.
    10030    2    1    2    0    0  0.00000000000E+00  0.00000000000E+00 -0.90933611469E+03  0.38845456139E+04  0.37766125638E+04 0.  0.
        4    1    3    3  502    0  0.43743224024E+03 -0.46025681484E+02  0.14341782534E+04  0.15001113971E+04  0.12699999809E+01 0.  1.
       -4    1    3    3    0  502 -0.43743224024E+03  0.46025681484E+02 -0.23435143681E+04  0.23844342169E+04  0.12699999809E+01 0. -1.
</event>
<event>
 5   0  0.3889225E-08  0.3747613E+04  0.7818609E-02  0.8057491E-01
        1   -1    0    0  501    0  0.00000000000E+00  0.00000000000E+00  0.17618526471E+04  0.17618526471E+04  0.50400001928E-02 0.  1.
       -1   -1    0    0    0  501  0.00000000000E+00  0.00000000000E+00 -0.19928741419E+04  0.19928741419E+04  0.50400001928E-02 0. -1.
    10030    2    1    2    0    0  0.00000000000E+00  0.00000000000E+00 -0.23102149481E+03  0.37547267890E+04  0.37476128841E+04 0.  0.
        5    1    3    3  502    0 -0.22662385733E+03 -0.16865753577E+04 -0.90136800776E+03  0.19257157592E+04  0.46999998093E+01 0. -1.
       -5    1    3    3    0  502  0.22662385733E+03  0.16865753577E+04  0.67034651295E+03  0.18290110298E+04  0.46999998093E+01 0.  1.
</event>
<event>
 5   0  0.7858367E-08  0.3791870E+04  0.7818609E-02  0.8047902E-01
       -2   -1    0    0    0  501  0.00000000000E+00  0.00000000000E+00  0.28542588177E+04  0.28542588177E+04  0.25500000920E-02 0.  1.
        2   -1    0    0  501    0  0.00000000000E+00  0.00000000000E+00 -0.12593705156E+04  0.12593705156E+04  0.25500000920E-02 0. -1.
    10030    2    1    2    0    0  0.00000000000E+00  0.00000000000E+00  0.15948883021E+04  0.41136293332E+04  0.37918699338E+04 0.  0.
        2    1    3    3  502    0  0.17913581597E+04  0.50720051297E+03  0.40877980239E+03  0.19061262664E+04  0.25500000920E-02 0. -1.
       -2    1    3    3    0  502 -0.17913581597E+04 -0.50720051297E+03  0.11861084997E+04  0.22075030668E+04  0.25500000920E-02 0.  1.
</event>
<event>
 5   0  0.1143283E-07  0.3837442E+04  0.7818609E-02  0.8038167E-01
       -2   -1    0    0    0  501  0.00000000000E+00  0.00000000000E+00  0.22736835849E+04  0.22736835849E+04  0.25500000920E-02 0. -1.
        2   -1    0    0  501    0  0.00000000000E+00  0.00000000000E+00 -0.16191743045E+04  0.16191743045E+04  0.25500000920E-02 0.  1.
    10030    2    1    2    0    0  0.00000000000E+00  0.00000000000E+00  0.65450928036E+03  0.38928578894E+04  0.38374418756E+04 0.  0.
        1    1    3    3  502    0 -0.17549689103E+04  0.67340401042E+03  0.71765124140E+03  0.20120666345E+04  0.50400001928E-02 0. -1.
       -1    1    3    3    0  502  0.17549689103E+04 -0.67340401042E+03 -0.63141961046E+02  0.18807912549E+04  0.50400001928E-02 0.  1.
</event>
<event>
 5   0  0.3701250E-08  0.3805514E+04  0.7818609E-02  0.8044973E-01
        1   -1    0    0  501    0  0.00000000000E+00  0.00000000000E+00  0.22031600160E+04  0.22031600160E+04  0.50400001928E-02 0. -1.
       -1   -1    0    0    0  501  0.00000000000E+00  0.00000000000E+00 -0.16433146253E+04  0.16433146253E+04  0.50400001928E-02 0.  1.
    10030    2    1    2    0    0  0.00000000000E+00  0.00000000000E+00  0.55984539067E+03  0.38464746413E+04  0.38055144599E+04 0.  0.
        4    1    3    3  502    0  0.30432710469E+03 -0.17469739639E+04 -0.41739448632E+03  0.18217444352E+04  0.12699999809E+01 0.  1.
       -4    1    3    3    0  502 -0.30432710469E+03  0.17469739639E+04  0.97723987699E+03  0.20247302060E+04  0.12699999809E+01 0. -1.
</event>
<event>
 5   0  0.3889225E-08  0.3794075E+04  0.7818609E-02  0.8047427E-01
        1   -1    0    0  501    0  0.00000000000E+00  0.00000000000E+00  0.18814407493E+04  0.18814407493E+04  0.50400001928E-02 0.  1.
       -1   -1    0    0    0  501  0.00000000000E+00  0.00000000000E+00 -0.19127639743E+04  0.19127639743E+04  0.50400001928E-02 0. -1.
    10030    2    1    2    0    0  0.00000000000E+00  0.00000000000E+00 -0.31323225021E+02  0.37942047236E+04  0.37940754262E+04 0.  0.
        5    1    3    3  502    0 -0.43331216347E+03  0.52201475294E+03 -0.17872950610E+04  0.19117281601E+04  0.46999998093E+01 0. -1.
       -5    1    3    3    0  502  0.43331216347E+03 -0.52201475294E+03  0.17559718359E+04  0.18824765634E+04  0.46999998093E+01 0.  1.
</event>
<event>
 5   0  0.3701250E-08  0.3814717E+04  0.7818609E-02  0.8043004E-01
        1   -1    0    0  501    0  0.00000000000E+00  0.00000000000E+00  0.23182321717E+04  0.23182321717E+04  0.50400001928E-02 0. -1.
       -1   -1    0    0    0  501  0.00000000000E+00  0.00000000000E+00 -0.15693063874E+04  0.15693063874E+04  0.50400001928E-02 0.  1.
    10030    2    1    2    0    0  0.00000000000E+00  0.00000000000E+00  0.74892578430E+03  0.38875385591E+04  0.38147170561E+04 0.  0.
        3    1    3    3  502    0  0.73593741676E+03 -0.14797041918E+04  0.13449488286E+04  0.21307312685E+04  0.10100000352E+00 0.  1.
       -3    1    3    3    0  502 -0.73593741676E+03  0.14797041918E+04 -0.59602304433E+03  0.17568072906E+04  0.10100000352E+00 0. -1.
</event>
<event>
 5   0  0.1150235E-07  0.3805159E+04  0.7818609E-02  0.8045049E-01
       -2   -1    0    0    0  501  0.00000000000E+00  0.00000000000E+00  0.22007076714E+04  0.22007076714E+04  0.25500000920E-02 0. -1.
        2   -1    0    0  501    0  0.00000000000E+00  0.00000000000E+00 -0.16448381025E+04  0.16448381025E+04  0.25500000920E-02 0.  1.
    10030    2    1    2    0    0  0.00000000000E+00  0.00000000000E+00  0.55586956888E+03  0.38455457739E+04  0.38051585146E+04 0.  0.
        4    1    3    3  502    0  0.20709327215E+03  0.17638839745E+04  0.96754963223E+03  0.20224559828E+04  0.12699999809E+01 0.  1.
       -4    1    3    3    0  502 -0.20709327215E+03 -0.17638839745E+04 -0.41168006335E+03  0.18230897910E+04  0.12699999809E+01 0. -1.
</event>
<event>
 5   0  0.1143283E-07  0.3798257E+04  0.7818609E-02  0.8046529E-01
       -2   -1    0    0    0  501  0.00000000000E+00  0.00000000000E+00  0.12291700165E+04  0.12291700165E+04  0.25500000920E-02 0. -1.
        2   -1    0    0  501    0  0.00000000000E+00  0.00000000000E+00 -0.29342476126E+04  0.29342476126E+04  0.25500000920E-02 0.  1.
    10030    2    1    2    0    0  0.00000000000E+00  0.00000000000E+00 -0.17050775961E+04  0.41634176291E+04  0.37982570668E+04 0.  0.
        1    1    3    3  502    0 -0.14294192643E+04 -0.12300022303E+04 -0.10989733344E+04  0.21826331138E+04  0.50400001928E-02 0.  1.
       -1    1    3    3    0  502  0.14294192643E+04  0.12300022303E+04 -0.60610426173E+03  0.19807845153E+04  0.50400001928E-02 0. -1.
</event>
<event>
 5   0  0.7858367E-08  0.3816797E+04  0.7818609E-02  0.8042560E-01
       -2   -1    0    0    0  501  0.00000000000E+00  0.00000000000E+00  0.17742357247E+04  0.17742357247E+04  0.25500000920E-02 0.  1.
        2   -1    0    0  501    0  0.00000000000E+00  0.00000000000E+00 -0.20527067052E+04  0.20527067052E+04  0.25500000920E-02 0. -1.
    10030    2    1    2    0    0  0.00000000000E+00  0.00000000000E+00 -0.27847098051E+03  0.38269424299E+04  0.38167973846E+04 0.  0.
        2    1    3    3  502    0  0.15648465922E+03 -0.13569008631E+04 -0.14755639016E+04  0.20107103791E+04  0.25500000920E-02 0. -1.
       -2    1    3    3    0  502 -0.15648465922E+03  0.13569008631E+04  0.11970929211E+04  0.18162320509E+04  0.25500000920E-02 0.  1.
</event>
<event>
 5   0  0.1193861E-07  0.3809949E+04  0.7818609E-02  0.8044023E-01
       -2   -1    0    0    0  501  0.00000000000E+00  0.00000000000E+00  0.13169839103E+04  0.13169839103E+04  0.25500000920E-02 0. -1.
        2   -1    0    0  501    0  0.00000000000E+00  0.00000000000E+00 -0.27554832253E+04  0.27554832253E+04  0.25500000920E-02 0.  1.
    10030    2    1    2    0    0  0.00000000000E+00  0.00000000000E+00 -0.14384993150E+04  0.40724671356E+04  0.38099485943E+04 0.  0.
        3    1    3    3  502    0 -0.18475989160E+04 -0.36598024036E+03 -0.10241472598E+04  0.21439311814E+04  0.10100000352E+00 0. -1.
       -3    1    3    3    0  502  0.18475989160E+04  0.36598024036E+03 -0.41435205521E+03  0.19285359542E+04  0.10100000352E+00 0.  1.
</event>
<event>
 5   0  0.7858367E-08  0.3833073E+04  0.7818609E-02  0.8039094E-01
        2   -1    0    0  501    0  0.00000000000E+00  0.00000000000E+00  0.24094425641E+04  0.24094425641E+04  0.25500000920E-02 0. -1.
       -2   -1    0    0    0  501  0.00000000000E+00  0.00000000000E+00 -0.15244657356E+04  0.15244657356E+04  0.25500000920E-02 0.  1.
    10030    2    1    2    0    0  0.00000000000E+00  0.00000000000E+00  0.88497682851E+03  0.39339082998E+04  0.38330732479E+04 0.  0.
        2    1    3    3  502    0  0.81799811209E+02  0.77850092139E+03  0.22378966444E+04  0.23708513840E+04  0.25500000920E-02 0. -1.
       -2    1    3    3    0  502 -0.81799811209E+02 -0.77850092139E+03 -0.13529198159E+04  0.15630569158E+04  0.25500000920E-02 0.  1.
</event>
<event>
 5   0  0.3701250E-08  0.3805289E+04  0.7818609E-02  0.8045021E-01
       -1   -1    0    0    0  501  0.00000000000E+00  0.00000000000E+00  0.24245072624E+04  0.24245072624E+04  0.50400001928E-02 0. -1.
        1   -1    0    0  501    0  0.00000000000E+00  0.00000000000E+00 -0.14931103210E+04  0.14931103211E+04  0.50400001928E-02 0.  1.
    10030    2    1    2    0    0  0.00000000000E+00  0.00000000000E+00  0.93139694137E+03  0.39176175835E+04  0.38052893803E+04 0.  0.
        3    1    3    3  502    0 -0.12596564152E+04  0.10618153658E+04 -0.51416923812E+03  0.17258494057E+04  0.10100000352E+00 0.  1.
       -3    1    3    3    0  502  0.12596564152E+04 -0.10618153658E+04  0.14455661795E+04  0.21917681778E+04  0.10100000352E+00 0. -1.
</event>
<event>
 5   0  0.1150235E-07  0.3797568E+04  0.7818609E-02  0.8046677E-01
       -2   -1    0    0    0  501  0.00000000000E+00  0.00000000000E+00  0.20144643022E+04  0.20144643022E+04  0.25500000920E-02 0.  1.
        2   -1    0    0  501    0  0.00000000000E+00  0.00000000000E+00 -0.17897465571E+04  0.17897465571E+04  0.25500000920E-02 0. -1.
    10030    2    1    2    0    0  0.00000000000E+00  0.00000000000E+00  0.22471774515E+03  0.38042108593E+04  0.37975679319E+04 0.  0.
        4    1    3    3  502    0 -0.57151213704E+03 -0.39957604626E+03 -0.16568255542E+04  0.17975983059E+04  0.12699999809E+01 0. -1.
       -4    1    3    3    0  502  0.57151213704E+03  0.39957604626E+03  0.18815432993E+04  0.20066125534E+04  0.12699999809E+01 0.  1.
</event>
<event>
 5   0  0.3701250E-08  0.3807241E+04  0.7818609E-02  0.8044603E-01
       -1   -1    0    0    0  501  0.00000000000E+00  0.00000000000E+00  0.15762130470E+04  0.15762130470E+04  0.50400001928E-02 0.  1.
        1   -1    0    0  501    0  0.00000000000E+00  0.00000000000E+00 -0.22990367252E+04  0.22990367252E+04  0.50400001928E-02 0. -1.
    10030    2    1    2    0    0  0.00000000000E+00  0.00000000000E+00 -0.72282367817E+03  0.38752497722E+04  0.38072413540E+04 0.  0.
        2    1    3    3  502    0 -0.17180887601E+04  0.44353543122E+03 -0.10630871495E+04  0.20685035542E+04  0.25500000920E-02 0. -1.
       -2    1    3    3    0  502  0.17180887601E+04 -0.44353543122E+03  0.34026347138E+03  0.18067462180E+04  0.25500000920E-02 0.  1.
</event>
<event>
 5   0  0.3701250E-08  0.3791192E+04  0.7818609E-02  0.8048048E-01
        1   -1    0    0  501    0  0.00000000000E+00  0.00000000000E+00  0.23659383236E+04  0.23659383236E+04  0.50400001928E-02 0. -1.
       -1   -1    0    0    0  501  0.00000000000E+00  0.00000000000E+00 -0.15187567188E+04  0.15187567188E+04  0.50400001928E-02 0.  1.
    10030    2    1    2    0    0  0.00000000000E+00  0.00000000000E+00  0.84718160480E+03  0.38846950424E+04  0.37911922796E+04 0.  0.
        2    1    3    3  502    0  0.68477490411E+02 -0.16908985262E+04  0.12987381609E+04  0.21332013039E+04  0.25500000920E-02 0. -1.
       -2    1    3    3    0  502 -0.68477490411E+02  0.16908985262E+04 -0.45155655613E+03  0.17514937385E+04  0.25500000920E-02 0.  1.
</event>
<event>
 5   0  0.1193861E-07  0.3790447E+04  0.7818609E-02  0.8048208E-01
       -2   -1    0    0    0  501  0.00000000000E+00  0.00000000000E+00  0.15224835397E+04  0.15224835397E+04  0.25500000920E-02 0. -1.
        2   -1    0    0  501    0  0.00000000000E+00  0.00000000000E+00 -0.23592190470E+04  0.23592190470E+04  0.25500000920E-02 0.  1.
    10030    2    1    2    0    0  0.00000000000E+00  0.00000000000E+00 -0.83673550725E+03  0.38817025867E+04  0.37904470268E+04 0.  0.
        3    1    3    3  502    0  0.13812678347E+04  0.90208376440E+02 -0.17440739760E+04  0.22266190573E+04  0.10100000352E+00 0.  1.
       -3    1    3    3    0  502 -0.13812678347E+04 -0.90208376440E+02  0.90733846877E+03  0.16550835294E+04  0.10100000352E+00 0. -1.
</event>
<event>
 5   0  0.1193861E-07  0.3797007E+04  0.7818609E-02  0.8046797E-01
       -2   -1    0    0    0  501  0.00000000000E+00  0.00000000000E+00  0.16556961448E+04  0.16556961448E+04  0.25500000920E-02 0. -1.
        2   -1    0    0  501    0  0.00000000000E+00  0.00000000000E+00 -0.21769190111E+04  0.21769190111E+04  0.25500000920E-02 0.  1.
    10030    2    1    2    0    0  0.00000000000E+00  0.00000000000E+00 -0.52122286635E+03  0.38326151559E+04  0.37970074608E+04 0.  0.
        3    1    3    3  502    0  0.15044872223E+04 -0.11535729763E+04 -0.36207268629E+03  0.19301059697E+04  0.10100000352E+00 0.  1.
       -3    1    3    3    0  502 -0.15044872223E+04  0.11535729763E+04 -0.15915018006E+03  0.19025091863E+04  0.10100000352E+00 0. -1.
</event>
<event>
 5   0  0.3701250E-08  0.3893755E+04  0.7818609E-02  0.8026329E-01
        3   -1    0    0  501    0  0.00000000000E+00  0.00000000000E+00  0.25790603681E+04  0.25790603700E+04  0.10100000352E+00 0.  1.
       -3   -1    0    0    0  501  0.00000000000E+00  0.00000000000E+00 -0.14696563937E+04  0.14696563972E+04  0.10100000352E+00 0. -1.
    10030    2    1    2    0    0  0.00000000000E+00  0.00000000000E+00  0.11094039743E+04  0.40487167672E+04  0.38937552932E+04 0.  0.
        5    1    3    3  502    0 -0.12126760709E+03 -0.19264374300E+04  0.29074192481E+03  0.19520297029E+04  0.46999998093E+01 0. -1.
       -5    1    3    3    0  502  0.12126760709E+03  0.19264374300E+04  0.81866204952E+03  0.20966870643E+04  0.46999998093E+01 0.  1.
</event>
<event>
 5   0  0.3889225E-08  0.3788122E+04  0.7818609E-02  0.8048709E-01
        1   -1    0    0  501    0  0.00000000000E+00  0.00000000000E+00  0.22340701034E+04  0.22340701034E+04  0.50400001928E-02 0.  1.
       -1   -1    0    0    0  501  0.00000000000E+00  0.00000000000E+00 -0.16057986161E+04  0.16057986161E+04  0.50400001928E-02 0. -1.
    10030    2    1    2    0    0  0.00000000000E+00  0.00000000000E+00  0.62827148731E+03  0.38398687195E+04  0.37881217934E+04 0.  0.
        5    1    3    3  502    0 -0.17254658557E+04 -0.66738111796E+03 -0.97383645870E+02  0.18526023967E+04  0.46999998093E+01 0. -1.
       -5    1    3    3    0  502  0.17254658557E+04  0.66738111796E+03  0.72565513318E+03  0.19872663229E+04  0.46999998093E+01 0.  1.
</event>
<event>
 5   0  0.1193861E-07  0.3796176E+04  0.7818609E-02  0.8046976E-01
        2   -1    0    0  501    0  0.00000000000E+00  0.00000000000E+00  0.18940580868E+04  0.18940580868E+04  0.25500000920E-02 0. -1.
       -2   -1    0    0    0  501  0.00000000000E+00  0.00000000000E+00 -0.19021265482E+04  0.19021265482E+04  0.25500000920E-02 0.  1.
    10030    2    1    2    0    0  0.00000000000E+00  0.00000000000E+00 -0.80684614318E+01  0.37961846350E+04  0.37961760606E+04 0.  0.
        3    1    3    3  502    0 -0.23709699712E+03 -0.77347710157E+03  0.17130183795E+04  0.18944428710E+04  0.10100000352E+00 0. -1.
       -3    1    3    3    0  502  0.23709699712E+03  0.77347710157E+03 -0.17210868409E+04  0.19017417640E+04  0.10100000352E+00 0.  1.
</event>
<event>
 5   0  0.1143283E-07  0.3779368E+04  0.7818609E-02  0.8050597E-01
       -2   -1    0    0    0  501  0.00000000000E+00  0.00000000000E+00  0.28883528319E+04  0.28883528319E+04  0.25500000920E-02 0. -1.
        2   -1    0    0  501    0  0.00000000000E+00  0.00000000000E+00 -0.12363120160E+04  0.12363120160E+04  0.25500000920E-02 0.  1.
    10030    2    1    2    0    0  0.00000000000E+00  0.00000000000E+00  0.16520408158E+04  0.41246648479E+04  0.37793678374E+04 0.  0.
        1    1    3    3  502    0  0.97257126786E+03 -0.63491061000E+03  0.24528110117E+04  0.27139064489E+04  0.50400001928E-02 0. -1.
       -1    1    3    3    0  502 -0.97257126786E+03  0.63491061000E+03 -0.80077019594E+03  0.14107583991E+04  0.50400001928E-02 0.  1.
</event>
<event>
 5   0  0.3701250E-08  0.3810330E+04  0.7818609E-02  0.8043942E-01
       -1   -1    0    0    0  501  0.00000000000E+00  0.00000000000E+00  0.12204525242E+04  0.12204525242E+04  0.50400001928E-02 0. -1.
        1   -1    0    0  501    0  0.00000000000E+00  0.00000000000E+00 -0.29740227952E+04  0.29740227952E+04  0.50400001928E-02 0.  1.
    10030    2    1    2    0    0  0.00000000000E+00  0.00000000000E+00 -0.17535702710E+04  0.41944753194E+04  0.38103299739E+04 0.  0.
        4    1    3    3  502    0  0.46425890918E+03 -0.18040455498E+04 -0.43709826319E+03  0.19134192393E+04  0.12699999809E+01 0.  1.
       -4    1    3    3    0  502 -0.46425890918E+03  0.18040455498E+04 -0.13164720078E+04  0.22810560802E+04  0.12699999809E+01 0. -1.
</event>
<event>
 5   0  0.3889225E-08  0.3792253E+04  0.7818609E-02  0.8047819E-01
        1   -1    0    0  501    0  0.00000000000E+00  0.00000000000E+00  0.19188488356E+04  0.19188488356E+04  0.50400001928E-02 0.  1.
       -1   -1    0    0    0  501  0.00000000000E+00  0.00000000000E+00 -0.18736732285E+04  0.18736732285E+04  0.50400001928E-02 0. -1.
    10030    2    1    2    0    0  0.00000000000E+00  0.00000000000E+00  0.45175607106E+02  0.37925220641E+04  0.37922529941E+04 0.  0.
        5    1    3    3  502    0 -0.12937431988E+03  0.17840398053E+04  0.65170942983E+03  0.19037549770E+04  0.46999998093E+01 0.  1.
       -5    1    3    3    0  502  0.12937431988E+03 -0.17840398053E+04 -0.60653382273E+03  0.18887670872E+04  0.46999998093E+01 0. -1.
</event>
<event>
 5   0  0.1193861E-07  0.3794991E+04  0.7818609E-02  0.8047231E-01
       -2   -1    0    0    0  501  0.00000000000E+00  0.00000000000E+00  0.28094749826E+04  0.28094749826E+04  0.25500000920E-02 0.  1.
        2   -1    0    0  501    0  0.00000000000E+00  0.00000000000E+00 -0.12815524287E+04  0.12815524287E+04  0.25500000920E-02 0. -1.
    10030    2    1    2    0    0  0.00000000000E+00  0.00000000000E+00  0.15279225538E+04  0.40910274113E+04  0.37949911659E+04 0.  0.
        3    1    3    3  502    0 -0.12079834762E+04  0.14516876216E+04  0.96235104350E+03  0.21196085890E+04  0.10100000352E+00 0.  1.
       -3    1    3    3    0  502  0.12079834762E+04 -0.14516876216E+04  0.56557151032E+03  0.19714188223E+04  0.10100000352E+00 0. -1.
</event>
<event>
 5   0  0.7858367E-08  0.3798886E+04  0.7818609E-02  0.8046394E-01
        2   -1    0    0  501    0  0.00000000000E+00  0.00000000000E+00  0.16071827950E+04  0.16071827950E+04  0.25500000920E-02 0.  1.
       -2   -1    0    0    0  501  0.00000000000E+00  0.00000000000E+00 -0.22448497416E+04  0.22448497416E+04  0.25500000920E-02 0. -1.
    10030    2    1    2    0    0  0.00000000000E+00  0.00000000000E+00 -0.63766694660E+03  0.38520325366E+04  0.37988860905E+04 0.  0.
        2    1    3    3  502    0  0.11170220289E+04  0.53066629629E+03 -0.17807169556E+04  0.21680170218E+04  0.25500000920E-02 0. -1.
       -2    1    3    3    0  502 -0.11170220289E+04 -0.53066629629E+03  0.11430500090E+04  0.16840155148E+04  0.25500000920E-02 0.  1.
</event>
<event>
 5   0  0.1143283E-07  0.3802773E+04  0.7818609E-02  0.8045560E-01
        2   -1    0    0  501    0  0.00000000000E+00  0.00000000000E+00  0.18249153326E+04  0.18249153326E+04  0.25500000920E-02 0. -1.
       -2   -1    0    0    0  501  0.00000000000E+00  0.00000000000E+00 -0.19810623230E+04  0.19810623230E+04  0.25500000920E-02 0.  1.
    10030    2    1    2    0    0  0.00000000000E+00  0.00000000000E+00 -0.15614699042E+03  0.38059776557E+04  0.38027732029E+04 0.  0.
        1    1    3    3  502    0  0.94809855688E+03 -0.15089233783E+04 -0.74160302454E+03  0.19302113048E+04  0.50400001928E-02 0.  1.
       -1    1    3    3    0  502 -0.94809855688E+03  0.15089233783E+04  0.58545603412E+03  0.18757663509E+04  0.50400001928E-02 0. -1.
</event>
<event>
 5   0  0.3701250E-08  0.3811544E+04  0.7818609E-02  0.8043682E-01
       -1   -1    0    0    0  501  0.00000000000E+00  0.00000000000E+00  0.18720174349E+04  0.18720174349E+04  0.50400001928E-02 0. -1.
        1   -1    0    0  501    0  0.00000000000E+00  0.00000000000E+00 -0.19401350264E+04  0.19401350264E+04  0.50400001928E-02 0.  1.
    10030    2    1    2    0    0  0.00000000000E+00  0.00000000000E+00 -0.68117591470E+02  0.38121524613E+04  0.38115438319E+04 0.  0.
        4    1    3    3  502    0  0.87006829165E+03 -0.51415983722E+03 -0.16500475329E+04  0.19349515870E+04  0.12699999809E+01 0.  1.
       -4    1    3    3    0  502 -0.87006829165E+03  0.51415983722E+03  0.15819299414E+04  0.18772008744E+04  0.12699999809E+01 0. -1.
</event>
<event>
 5   0  0.1193861E-07  0.3802596E+04  0.7818609E-02  0.8045598E-01
       -2   -1    0    0    0  501  0.00000000000E+00  0.00000000000E+00  0.22020523469E+04  0.22020523469E+04  0.25500000920E-02 0.  1.
        2   -1    0    0  501    0  0.00000000000E+00  0.00000000000E+00 -0.16416207415E+04  0.16416207415E+04  0.25500000920E-02 0. -1.
    10030    2    1    2    0    0  0.00000000000E+00  0.00000000000E+00  0.56043160539E+03  0.38436730884E+04  0.38025963796E+04 0.  0.
        3    1    3    3  502    0  0.23964931802E+03 -0.11934811171E+04 -0.11960766970E+04  0.17065838532E+04  0.10100000352E+00 0. -1.
       -3    1    3    3    0  502 -0.23964931802E+03  0.11934811171E+04  0.17565083024E+04  0.21370892352E+04  0.10100000352E+00 0.  1.
</event>
<event>
 5   0  0.1174870E-07  0.3798195E+04  0.7818609E-02  0.8046542E-01
        2   -1    0    0  501    0  0.00000000000E+00  0.00000000000E+00  0.24937797149E+04  0.24937797149E+04  0.25500000920E-02 0. -1.
       -2   -1    0    0    0  501  0.00000000000E+00  0.00000000000E+00 -0.14462268253E+04  0.14462268253E+04  0.25500000920E-02 0.  1.
    10030    2    1    2    0    0  0.00000000000E+00  0.00000000000E+00  0.10475528896E+04  0.39400065402E+04  0.37981948977E+04 0.  0.
        5    1    3    3  502    0 -0.15823318178E+03 -0.13810221290E+04 -0.81847824696E+03  0.16131300602E+04  0.46999998093E+01 0.  1.
       -5    1    3    3    0  502  0.15823318178E+03  0.13810221290E+04  0.18660311366E+04  0.23268764800E+04  0.46999998093E+01 0. -1.
</event>
<event>
 5   0  0.3701250E-08  0.3793454E+04  0.7818609E-02  0.8047561E-01
        1   -1    0    0  501    0  0.00000000000E+00  0.00000000000E+00  0.22390801847E+04  0.22390801847E+04  0.50400001928E-02 0.  1.
       -1   -1    0    0    0  501  0.00000000000E+00  0.00000000000E+00 -0.16067193133E+04  0.16067193134E+04  0.50400001928E-02 0. -1.
    10030    2    1    2    0    0  0.00000000000E+00  0.00000000000E+00  0.63236087135E+03  0.38457994980E+04  0.37934540339E+04 0.  0.
        4    1    3    3  502    0  0.17313706639E+04 -0.51709366776E+03 -0.26844102780E+03  0.18267710407E+04  0.12699999809E+01 0. -1.
       -4    1    3    3    0  502 -0.17313706639E+04  0.51709366776E+03  0.90080189915E+03  0.20190284573E+04  0.12699999809E+01 0.  1.
</event>
<event>
 5   0  0.1174870E-07  0.3797409E+04  0.7818609E-02  0.8046711E-01
       -2   -1    0    0    0  501  0.00000000000E+00  0.00000000000E+00  0.16677961516E+04  0.16677961516E+04  0.25500000920E-02 0.  1.
        2   -1    0    0  501    0  0.00000000000E+00  0.00000000000E+00 -0.21615819114E+04  0.21615819114E+04  0.25500000920E-02 0. -1.
    10030    2    1    2    0    0  0.00000000000E+00  0.00000000000E+00 -0.49378575986E+03  0.38293780630E+04  0.37974085865E+04 0.  0.
        5    1    3    3  502    0 -0.27021343674E+03  0.18364821296E+04  0.15568475009E+03  0.18627779646E+04  0.46999998093E+01 0.  1.
       -5    1    3    3    0  502  0.27021343674E+03 -0.18364821296E+04 -0.64947050995E+03  0.19666000984E+04  0.46999998093E+01 0. -1.
</event>
<event>
 5   0  0.1150235E-07  0.3754725E+04  0.7818609E-02  0.8055941E-01
       -2   -1    0    0    0  501  0.00000000000E+00  0.00000000000E+00  0.16284797026E+04  0.16284797026E+04  0.25500000920E-02 0.  1.
        2   -1    0    0  501    0  0.00000000000E+00  0.00000000000E+00 -0.21642829332E+04  0.21642829332E+04  0.25500000920E-02 0. -1.
    10030    2    1    2    0    0  0.00000000000E+00  0.00000000000E+00 -0.53580323058E+03  0.37927626357E+04  0.37547254639E+04 0.  0.
        4    1    3    3  502    0 -0.85082592596E+03  0.46922415304E+03 -0.18905413227E+04  0.21256114809E+04  0.12699999809E+01 0. -1.
       -4    1    3    3    0  502  0.85082592596E+03 -0.46922415304E+03  0.13547380921E+04  0.16671511548E+04  0.12699999809E+01 0.  1.
</event>
<event>
 5   0  0.1150235E-07  0.3802431E+04  0.7818609E-02  0.8045633E-01
        2   -1    0    0  501    0  0.00000000000E+00  0.00000000000E+00  0.18709883474E+04  0.18709883474E+04  0.25500000920E-02 0.  1.
       -2   -1    0    0    0  501  0.00000000000E+00  0.00000000000E+00 -0.19319305707E+04  0.19319305707E+04  0.25500000920E-02 0. -1.
    10030    2    1    2    0    0  0.00000000000E+00  0.00000000000E+00 -0.60942223379E+02  0.38029189181E+04  0.38024305836E+04 0.  0.
        4    1    3    3  502    0 -0.82785265300E+03  0.17008276996E+04 -0.22144875538E+03  0.19045198983E+04  0.12699999809E+01 0. -1.
       -4    1    3    3    0  502  0.82785265300E+03 -0.17008276996E+04  0.16050653200E+03  0.18983990198E+04  0.12699999809E+01 0.  1.
</event>
<event>
 5   0  0.7858367E-08  0.3789004E+04  0.7818609E-02  0.8048519E-01
        2   -1    0    0  501    0  0.00000000000E+00  0.00000000000E+00  0.17554696452E+04  0.17554696452E+04  0.25500000920E-02 0.  1.
       -2   -1    0    0    0  501  0.00000000000E+00  0.00000000000E+00 -0.20445454430E+04  0.20445454430E+04  0.25500000920E-02 0. -1.
    10030    2    1    2    0    0  0.00000000000E+00  0.00000000000E+00 -0.28907579785E+03  0.38000150882E+04  0.37890038075E+04 0.  0.
        2    1    3    3  502    0 -0.93415399219E+03 -0.14579357400E+04 -0.91548322601E+03  0.19586551100E+04  0.25500000920E-02 0. -1.
       -2    1    3    3    0  502  0.93415399219E+03  0.14579357400E+04  0.62640742816E+03  0.18413599781E+04  0.25500000920E-02 0.  1.
</event>
<event>
 5   0  0.1143283E-07  0.3781981E+04  0.7818609E-02  0.8050033E-01
       -2   -1    0    0    0  501  0.00000000000E+00  0.00000000000E+00  0.20362189883E+04  0.20362189883E+04  0.25500000920E-02 0. -1.
        2   -1    0    0  501    0  0.00000000000E+00  0.00000000000E+00 -0.17561196294E+04  0.17561196294E+04  0.25500000920E-02 0.  1.
    10030    2    1    2    0    0  0.00000000000E+00  0.00000000000E+00  0.28009935896E+03  0.37923386177E+04  0.37819805051E+04 0.  0.
        1    1    3    3  502    0 -0.18181658410E+04  0.27366981555E+03  0.58309906315E+03  0.19288926126E+04  0.50400001928E-02 0. -1.
       -1    1    3    3    0  502  0.18181658410E+04 -0.27366981555E+03 -0.30299970419E+03  0.18634460052E+04  0.50400001928E-02 0.  1.
</event>
<event>
 5   0  0.1150235E-07  0.3803568E+04  0.7818609E-02  0.8045390E-01
        2   -1    0    0  501    0  0.00000000000E+00  0.00000000000E+00  0.26734197326E+04  0.26734197326E+04  0.25500000920E-02 0. -1.
       -2   -1    0    0    0  501  0.00000000000E+00  0.00000000000E+00 -0.13528676232E+04  0.13528676232E+04  0.25500000920E-02 0.  1.
    10030    2    1    2    0    0  0.00000000000E+00  0.00000000000E+00  0.13205521094E+04  0.40262873558E+04  0.38035683244E+04 0.  0.
        4    1    3    3  502    0  0.74559701473E+03  0.68670656406E+03  0.23636295223E+04  0.25718139406E+04  0.12699999809E+01 0. -1.
       -4    1    3    3    0  502 -0.74559701473E+03 -0.68670656406E+03 -0.10430774129E+04  0.14544734153E+04  0.12699999809E+01 0.  1.
</event>
<event>
 5   0  0.1193861E-07  0.3775725E+04  0.7818609E-02  0.8051384E-01
       -2   -1    0    0    0  501  0.00000000000E+00  0.00000000000E+00  0.23668695555E+04  0.23668695555E+04  0.25500000920E-02 0. -1.
        2   -1    0    0  501    0  0.00000000000E+00  0.00000000000E+00 -0.15057968837E+04  0.15057968837E+04  0.25500000920E-02 0.  1.
    10030    2    1    2    0    0  0.00000000000E+00  0.00000000000E+00  0.86107267179E+03  0.38726664391E+04  0.37757249903E+04 0.  0.
        3    1    3    3  502    0  0.84410562939E+03  0.80095846029E+03  0.19553034560E+04  0.22753593966E+04  0.10100000352E+00 0. -1.
       -3    1    3    3    0  502 -0.84410562939E+03 -0.80095846029E+03 -0.10942307842E+04  0.15973070425E+04  0.10100000352E+00 0.  1.
</event>
<event>
 5   0  0.3701250E-08  0.3833251E+04  0.7818609E-02  0.8039057E-01
        1   -1    0    0  501    0  0.00000000000E+00  0.00000000000E+00  0.12777518781E+04  0.12777518782E+04  0.50400001928E-02 0.  1.
       -1   -1    0    0    0  501  0.00000000000E+00  0.00000000000E+00 -0.28749354302E+04  0.28749354302E+04  0.50400001928E-02 0. -1.
    10030    2    1    2    0    0  0.00000000000E+00  0.00000000000E+00 -0.15971835521E+04  0.41526873084E+04  0.38332514374E+04 0.  0.
        1    1    3    3  502    0  0.83886439994E+03 -0.96962722671E+03 -0.23419452615E+04  0.26699397087E+04  0.50400001928E-02 0. -1.
       -1    1    3    3    0  502 -0.83886439994E+03  0.96962722671E+03  0.74476170947E+03  0.14827475996E+04  0.50400001928E-02 0.  1.
</event>
<event>
 5   0  0.3701250E-08  0.3794585E+04  0.7818609E-02  0.8047318E-01
       -1   -1    0    0    0  501  0.00000000000E+00  0.00000000000E+00  0.18306545987E+04  0.18306545987E+04  0.50400001928E-02 0. -1.
        1   -1    0    0  501    0  0.00000000000E+00  0.00000000000E+00 -0.19663562322E+04  0.19663562322E+04  0.50400001928E-02 0.  1.
    10030    2    1    2    0    0  0.00000000000E+00  0.00000000000E+00 -0.13570163348E+03  0.37970108309E+04  0.37945851311E+04 0.  0.
        1    1    3    3  502    0  0.12430159692E+04  0.11991691715E+04  0.71790505298E+03  0.18704232319E+04  0.50400001928E-02 0. -1.
       -1    1    3    3    0  502 -0.12430159692E+04 -0.11991691715E+04 -0.85360668646E+03  0.19265875990E+04  0.50400001928E-02 0.  1.
</event>
<event>
 5   0  0.3701250E-08  0.3793501E+04  0.7818609E-02  0.8047551E-01
        1   -1    0    0  501    0  0.00000000000E+00  0.00000000000E+00  0.25234887254E+04  0.25234887254E+04  0.50400001928E-02 0. -1.
       -1   -1    0    0    0  501  0.00000000000E+00  0.00000000000E+00 -0.14256697787E+04  0.14256697787E+04  0.50400001928E-02 0.  1.
    10030    2    1    2    0    0  0.00000000000E+00  0.00000000000E+00  0.10978189467E+04  0.39491585041E+04  0.37935005537E+04 0.  0.
        4    1    3    3  502    0  0.13045904601E+04  0.63739177832E+03 -0.72159224463E+03  0.16213949328E+04  0.12699999809E+01 0.  1.
       -4    1    3    3    0  502 -0.13045904601E+04 -0.63739177832E+03  0.18194111913E+04  0.23277635713E+04  0.12699999809E+01 0. -1.
</event>
<event>
 5   0  0.3701250E-08  0.3800576E+04  0.7818609E-02  0.8046031E-01
        1   -1    0    0  501    0  0.00000000000E+00  0.00000000000E+00  0.21330162674E+04  0.21330162674E+04  0.50400001928E-02 0. -1.
       -1   -1    0    0    0  501  0.00000000000E+00  0.00000000000E+00 -0.16929518568E+04  0.16929518568E+04  0.50400001928E-02 0.  1.
    10030    2    1    2    0    0  0.00000000000E+00  0.00000000000E+00  0.44006441065E+03  0.38259681242E+04  0.38005756671E+04 0.  0.
        1    1    3    3  502    0  0.40571843672E+03 -0.11571106951E+04 -0.12414183479E+04  0.17448874247E+04  0.50400001928E-02 0.  1.
       -1    1    3    3    0  502 -0.40571843672E+03  0.11571106951E+04  0.16814827585E+04  0.20810806995E+04  0.50400001928E-02 0. -1.
</event>
<event>
 5   0  0.1150235E-07  0.3772984E+04  0.7818609E-02  0.8051977E-01
        2   -1    0    0  501    0  0.00000000000E+00  0.00000000000E+00  0.18257533652E+04  0.18257533652E+04  0.25500000920E-02 0.  1.
       -2   -1    0    0    0  501  0.00000000000E+00  0.00000000000E+00 -0.19492512879E+04  0.19492512879E+04  0.25500000920E-02 0. -1.
    10030    2    1    2    0    0  0.00000000000E+00  0.00000000000E+00 -0.12349792267E+03  0.37750046531E+04  0.37729840172E+04 0.  0.
        4    1    3    3  502    0 -0.94202266957E+02  0.16235827558E+04  0.89477320791E+03  0.18562100470E+04  0.12699999809E+01 0. -1.
       -4    1    3    3    0  502  0.94202266957E+02 -0.16235827558E+04 -0.10182711306E+04  0.19187946061E+04  0.12699999809E+01 0.  1.
</event>
<event>
 5   0  0.7858367E-08  0.3806871E+04  0.7818609E-02  0.8044682E-01
       -2   -1    0    0    0  501  0.00000000000E+00  0.00000000000E+00  0.14305632763E+04  0.14305632764E+04  0.25500000920E-02 0. -1.
        2   -1    0    0  501    0  0.00000000000E+00  0.00000000000E+00 -0.25326159735E+04  0.25326159735E+04  0.25500000920E-02 0.  1.
    10030    2    1    2    0    0  0.00000000000E+00  0.00000000000E+00 -0.11020526972E+04  0.39631792499E+04  0.38068713689E+04 0.  0.
        2    1    3    3  502    0 -0.18456479488E+04 -0.20143115003E+03 -0.98787024062E+03  0.21030640673E+04  0.25500000920E-02 0.  1.
       -2    1    3    3    0  502  0.18456479488E+04  0.20143115003E+03 -0.11418245656E+03  0.18601151826E+04  0.25500000920E-02 0. -1.
</event>
<event>
 5   0  0.7858367E-08  0.3820640E+04  0.7818609E-02  0.8041740E-01
       -2   -1    0    0    0  501  0.00000000000E+00  0.00000000000E+00  0.12394932864E+04  0.12394932864E+04  0.25500000920E-02 0. -1.
        2   -1    0    0  501    0  0.00000000000E+00  0.00000000000E+00 -0.29442044226E+04  0.29442044226E+04  0.25500000920E-02 0.  1.
    10030    2    1    2    0    0  0.00000000000E+00  0.00000000000E+00 -0.17047111362E+04  0.41836977090E+04  0.38206395358E+04 0.  0.
        2    1    3    3  502    0  0.82734831227E+03 -0.33282702216E+03  0.99757084951E+03  0.13380682555E+04  0.25500000920E-02 0. -1.
       -2    1    3    3    0  502 -0.82734831227E+03  0.33282702216E+03 -0.27022819857E+04  0.28456294535E+04  0.25500000920E-02 0.  1.
</event>
<event>
 5   0  0.3889225E-08  0.3813778E+04  0.7818609E-02  0.8043205E-01
        1   -1    0    0  501    0  0.00000000000E+00  0.00000000000E+00  0.30636362636E+04  0.30636362636E+04  0.50400001928E-02 0. -1.
       -1   -1    0    0    0  501  0.00000000000E+00  0.00000000000E+00 -0.11868989049E+04  0.11868989049E+04  0.50400001928E-02 0.  1.
    10030    2    1    2    0    0  0.00000000000E+00  0.00000000000E+00  0.18767373587E+04  0.42505351684E+04  0.38137784551E+04 0.  0.
        5    1    3    3  502    0  0.40385584722E+03  0.10341681061E+04  0.26662716873E+04  0.28881880163E+04  0.46999998093E+01 0. -1.
       -5    1    3    3    0  502 -0.40385584722E+03 -0.10341681061E+04 -0.78953432856E+03  0.13623471522E+04  0.46999998093E+01 0.  1.
</event>
<event>
 5   0  0.3701250E-08  0.3669677E+04  0.7818609E-02  0.8074715E-01
        1   -1    0    0  501    0  0.00000000000E+00  0.00000000000E+00  0.23004501361E+04  0.23004501361E+04  0.50400001928E-02 0.  1.
       -1   -1    0    0    0  501  0.00000000000E+00  0.00000000000E+00 -0.14634664292E+04  0.14634664292E+04  0.50400001928E-02 0. -1.
    10030    2    1    2    0    0  0.00000000000E+00  0.00000000000E+00  0.83698370686E+03  0.37639165653E+04  0.36696765777E+04 0.  0.
        3    1    3    3  502    0 -0.91110306962E+03 -0.13157558071E+04 -0.50194410977E+03  0.16772805511E+04  0.10100000352E+00 0.  1.
       -3    1    3    3    0  502  0.91110306962E+03  0.13157558071E+04  0.13389278166E+04  0.20866360142E+04  0.10100000352E+00 0. -1.
</event>
<event>
 5   0  0.1143283E-07  0.3801524E+04  0.7818609E-02  0.8045828E-01
       -2   -1    0    0    0  501  0.00000000000E+00  0.00000000000E+00  0.14852578792E+04  0.14852578792E+04  0.25500000920E-02 0. -1.
        2   -1    0    0  501    0  0.00000000000E+00  0.00000000000E+00 -0.24325048815E+04  0.24325048815E+04  0.25500000920E-02 0.  1.
    10030    2    1    2    0    0  0.00000000000E+00  0.00000000000E+00 -0.94724700229E+03  0.39177627607E+04  0.38015244529E+04 0.  0.
        1    1    3    3  502    0 -0.40781693585E+02  0.17356381277E+04 -0.12711022750E+04  0.21516978994E+04  0.50400001928E-02 0. -1.
       -1    1    3    3    0  502  0.40781693585E+02 -0.17356381277E+04  0.32385527267E+03  0.17660648613E+04  0.50400001928E-02 0.  1.
</event>
<event>
 5   0  0.3701250E-08  0.3788751E+04  0.7818609E-02  0.8048573E-01
       -1   -1    0    0    0  501  0.00000000000E+00  0.00000000000E+00  0.18080587097E+04  0.18080587097E+04  0.50400001928E-02 0. -1.
        1   -1    0    0  501    0  0.00000000000E+00  0.00000000000E+00 -0.19848132454E+04  0.19848132454E+04  0.50400001928E-02 0.  1.
    10030    2    1    2    0    0  0.00000000000E+00  0.00000000000E+00 -0.17675453567E+03  0.37928719551E+04  0.37887511797E+04 0.  0.
        4    1    3    3  502    0 -0.17485039147E+04 -0.48998058346E+03  0.45194150253E+03  0.18712561680E+04  0.12699999809E+01 0.  1.
       -4    1    3    3    0  502  0.17485039147E+04  0.48998058346E+03 -0.62869603820E+03  0.19216157871E+04  0.12699999809E+01 0. -1.
</event>
<event>
 5   0  0.3701250E-08  0.3802618E+04  0.7818609E-02  0.8045593E-01
       -1   -1    0    0    0  501  0.00000000000E+00  0.00000000000E+00  0.29232625621E+04  0.29232625621E+04  0.50400001928E-02 0.  1.
        1   -1    0    0  501    0  0.00000000000E+00  0.00000000000E+00 -0.12366238020E+04  0.12366238020E+04  0.50400001928E-02 0. -1.
    10030    2    1    2    0    0  0.00000000000E+00  0.00000000000E+00  0.16866387601E+04  0.41598863642E+04  0.38026180791E+04 0.  0.
        1    1    3    3  502    0 -0.16687092636E+03 -0.16230513447E+04  0.19111625963E+04  0.25129035085E+04  0.50400001928E-02 0.  1.
       -1    1    3    3    0  502  0.16687092636E+03  0.16230513447E+04 -0.22452383614E+03  0.16469828556E+04  0.50400001928E-02 0. -1.
</event>
<event>
 5   0  0.3701250E-08  0.3795359E+04  0.7818609E-02  0.8047152E-01
        1   -1    0    0  501    0  0.00000000000E+00  0.00000000000E+00  0.19098265663E+04  0.19098265664E+04  0.50400001928E-02 0.  1.
       -1   -1    0    0    0  501  0.00000000000E+00  0.00000000000E+00 -0.18856096828E+04  0.18856096828E+04  0.50400001928E-02 0. -1.
    10030    2    1    2    0    0  0.00000000000E+00  0.00000000000E+00  0.24216883562E+02  0.37954362491E+04  0.37953589901E+04 0.  0.
        4    1    3    3  502    0  0.25101785915E+03 -0.16663835129E+04 -0.86045838754E+03  0.18921506883E+04  0.12699999809E+01 0.  1.
       -4    1    3    3    0  502 -0.25101785915E+03  0.16663835129E+04  0.88467527111E+03  0.19032855608E+04  0.12699999809E+01 0. -1.
</event>
<event>
 5   0  0.3701250E-08  0.3814319E+04  0.7818609E-02  0.8043089E-01
        3   -1    0    0  501    0  0.00000000000E+00  0.00000000000E+00  0.24217886395E+04  0.24217886416E+04  0.10100000352E+00 0. -1.
       -3   -1    0    0    0  501  0.00000000000E+00  0.00000000000E+00 -0.15018886669E+04  0.15018886703E+04  0.10100000352E+00 0.  1.
    10030    2    1    2    0    0  0.00000000000E+00  0.00000000000E+00  0.91989997255E+03  0.39236773119E+04  0.38143187712E+04 0.  0.
        3    1    3    3  502    0 -0.11963288334E+04 -0.14804528031E+04  0.58302013973E+03  0.19906922598E+04  0.10100000352E+00 0. -1.
       -3    1    3    3    0  502  0.11963288334E+04  0.14804528031E+04  0.33687983282E+03  0.19329850521E+04  0.10100000352E+00 0.  1.
</event>
<event>
 5   0  0.3889225E-08  0.3817492E+04  0.7818609E-02  0.8042411E-01
       -1   -1    0    0    0  501  0.00000000000E+00  0.00000000000E+00  0.19930552204E+04  0.19930552204E+04  0.50400001928E-02 0. -1.
        1   -1    0    0  501    0  0.00000000000E+00  0.00000000000E+00 -0.18280033763E+04  0.18280033763E+04  0.50400001928E-02 0.  1.
    10030    2    1    2    0    0  0.00000000000E+00  0.00000000000E+00  0.16505184417E+03  0.38210585967E+04  0.38174921988E+04 0.  0.
        5    1    3    3  502    0 -0.14968054551E+04  0.61536493361E+03  0.10954936168E+04  0.19542847608E+04  0.46999998093E+01 0. -1.
       -5    1    3    3    0  502  0.14968054551E+04 -0.61536493361E+03 -0.93044177263E+03  0.18667738359E+04  0.46999998093E+01 0.  1.
</event>
<event>
 5   0  0.3701250E-08  0.3793294E+04  0.7818609E-02  0.8047596E-01
        1   -1    0    0  501    0  0.00000000000E+00  0.00000000000E+00  0.29566161368E+04  0.29566161368E+04  0.50400001928E-02 0.  1.
       -1   -1    0    0    0  501  0.00000000000E+00  0.00000000000E+00 -0.12166846791E+04  0.12166846791E+04  0.50400001928E-02 0. -1.
    10030    2    1    2    0    0  0.00000000000E+00  0.00000000000E+00  0.17399314577E+04  0.41733008159E+04  0.37932938487E+04 0.  0.
        3    1    3    3  502    0 -0.56720924109E+03 -0.17909093173E+04  0.58267995444E+03  0.19668752999E+04  0.10100000352E+00 0. -1.
       -3    1    3    3    0  502  0.56720924109E+03  0.17909093173E+04  0.11572515032E+04  0.22064255160E+04  0.10100000352E+00 0.  1.
</event>
<event>
 5   0  0.1150235E-07  0.3802347E+04  0.7818609E-02  0.8045651E-01
       -2   -1    0    0    0  501  0.00000000000E+00  0.00000000000E+00  0.29357009771E+04  0.29357009771E+04  0.25500000920E-02 0.  1.
        2   -1    0    0  501    0  0.00000000000E+00  0.00000000000E+00 -0.12312086482E+04  0.12312086482E+04  0.25500000920E-02 0. -1.
    10030    2    1    2    0    0  0.00000000000E+00  0.00000000000E+00  0.17044923289E+04  0.41669096254E+04  0.38023468709E+04 0.  0.
        4    1    3    3  502    0  0.11596178498E+04 -0.34931941765E+03 -0.75377513546E+03  0.14265048829E+04  0.12699999809E+01 0. -1.
       -4    1    3    3    0  502 -0.11596178498E+04  0.34931941765E+03  0.24582674644E+04  0.27404047425E+04  0.12699999809E+01 0.  1.
</event>
<event>
 5   0  0.1150235E-07  0.3727840E+04  0.7818609E-02  0.8061820E-01
       -2   -1    0    0    0  501  0.00000000000E+00  0.00000000000E+00  0.13058438296E+04  0.13058438296E+04  0.25500000920E-02 0. -1.
        2   -1    0    0  501    0  0.00000000000E+00  0.00000000000E+00 -0.26604995328E+04  0.26604995328E+04  0.25500000920E-02 0.  1.
    10030    2    1    2    0    0  0.00000000000E+00  0.00000000000E+00 -0.13546557032E+04  0.39663433625E+04  0.37278395345E+04 0.  0.
        4    1    3    3  502    0 -0.18480427727E+04 -0.22906693776E+03 -0.59180130868E+03  0.19539611443E+04  0.12699999809E+01 0.  1.
       -4    1    3    3    0  502  0.18480427727E+04  0.22906693776E+03 -0.76285439451E+03  0.20123822181E+04  0.12699999809E+01 0. -1.
</event>
<event>
 5   0  0.3701250E-08  0.3790600E+04  0.7818609E-02  0.8048175E-01
        1   -1    0    0  501    0  0.00000000000E+00  0.00000000000E+00  0.19364417074E+04  0.19364417074E+04  0.50400001928E-02 0.  1.
       -1   -1    0    0    0  501  0.00000000000E+00  0.00000000000E+00 -0.18550320602E+04  0.18550320602E+04  0.50400001928E-02 0. -1.
    10030    2    1    2    0    0  0.00000000000E+00  0.00000000000E+00  0.81409647228E+02  0.37914737676E+04  0.37905996623E+04 0.  0.
        4    1    3    3  502    0  0.87256161082E+03  0.87158061532E+03  0.14801834157E+04  0.19266450350E+04  0.12699999809E+01 0.  1.
       -4    1    3    3    0  502 -0.87256161082E+03 -0.87158061532E+03 -0.13987737685E+04  0.18648287326E+04  0.12699999809E+01 0. -1.
</event>
<event>
 5   0  0.1174870E-07  0.3798860E+04  0.7818609E-02  0.8046400E-01
       -2   -1    0    0    0  501  0.00000000000E+00  0.00000000000E+00  0.12816503286E+04  0.12816503286E+04  0.25500000920E-02 0. -1.
        2   -1    0    0  501    0  0.00000000000E+00  0.00000000000E+00 -0.28149913012E+04  0.28149913012E+04  0.25500000920E-02 0.  1.
    10030    2    1    2    0    0  0.00000000000E+00  0.00000000000E+00 -0.15333409726E+04  0.40966416298E+04  0.37988601060E+04 0.  0.
        5    1    3    3  502    0 -0.80451637944E+03 -0.52492990700E+03  0.10003760402E+04  0.13869290984E+04  0.46999998093E+01 0. -1.
       -5    1    3    3    0  502  0.80451637944E+03  0.52492990700E+03 -0.25337170128E+04  0.27097125315E+04  0.46999998093E+01 0.  1.
</event>
<event>
 5   0  0.3701250E-08  0.3814946E+04  0.7818609E-02  0.8042955E-01
       -1   -1    0    0    0  501  0.00000000000E+00  0.00000000000E+00  0.14930188976E+04  0.14930188976E+04  0.50400001928E-02 0. -1.
        1   -1    0    0  501    0  0.00000000000E+00  0.00000000000E+00 -0.24369775208E+04  0.24369775208E+04  0.50400001928E-02 0.  1.
    10030    2    1    2    0    0  0.00000000000E+00  0.00000000000E+00 -0.94395862319E+03  0.39299964184E+04  0.38149461289E+04 0.  0.
        2    1    3    3  502    0  0.37811171379E+03 -0.13014279736E+04  0.91080184015E+03  0.16328635064E+04  0.25500000920E-02 0. -1.
       -2    1    3    3    0  502 -0.37811171379E+03  0.13014279736E+04 -0.18547604633E+04  0.22971329119E+04  0.25500000920E-02 0.  1.
</event>
<event>
 5   0  0.3701250E-08  0.3806498E+04  0.7818609E-02  0.8044762E-01
       -1   -1    0    0    0  501  0.00000000000E+00  0.00000000000E+00  0.28444817658E+04  0.28444817658E+04  0.50400001928E-02 0.  1.
        1   -1    0    0  501    0  0.00000000000E+00  0.00000000000E+00 -0.12734678804E+04  0.12734678804E+04  0.50400001928E-02 0. -1.
    10030    2    1    2    0    0  0.00000000000E+00  0.00000000000E+00  0.15710138854E+04  0.41179496462E+04  0.38064976895E+04 0.  0.
        1    1    3    3  502    0  0.16142158498E+04  0.95860141455E+03  0.44728134223E+03  0.19299404345E+04  0.50400001928E-02 0.  1.
       -1    1    3    3    0  502 -0.16142158498E+04 -0.95860141455E+03  0.11237325432E+04  0.21880092117E+04  0.50400001928E-02 0. -1.
</event>
<event>
 5   0  0.3701250E-08  0.3797746E+04  0.7818609E-02  0.8046639E-01
       -1   -1    0    0    0  501  0.00000000000E+00  0.00000000000E+00  0.19545467157E+04  0.19545467157E+04  0.50400001928E-02 0.  1.
        1   -1    0    0  501    0  0.00000000000E+00  0.00000000000E+00 -0.18447846675E+04  0.18447846675E+04  0.50400001928E-02 0. -1.
    10030    2    1    2    0    0  0.00000000000E+00  0.00000000000E+00  0.10976204818E+03  0.37993313833E+04  0.37977455487E+04 0.  0.
        1    1    3    3  502    0  0.20943451230E+03 -0.18811613141E+04 -0.97126849033E+02  0.18952742096E+04  0.50400001928E-02 0.  1.
       -1    1    3    3    0  502 -0.20943451230E+03  0.18811613141E+04  0.20688889721E+03  0.19040571737E+04  0.50400001928E-02 0. -1.
</event>
<event>
 5   0  0.3701250E-08  0.3812279E+04  0.7818609E-02  0.8043525E-01
        1   -1    0    0  501    0  0.00000000000E+00  0.00000000000E+00  0.15110916250E+04  0.15110916250E+04  0.50400001928E-02 0.  1.
       -1   -1    0    0    0  501  0.00000000000E+00  0.00000000000E+00 -0.24044659780E+04  0.24044659780E+04  0.50400001928E-02 0. -1.
    10030    2    1    2    0    0  0.00000000000E+00  0.00000000000E+00 -0.89337435300E+03  0.39155576029E+04  0.38122793191E+04 0.  0.
        3    1    3    3  502    0 -0.10295553589E+04 -0.64272354435E+03 -0.19562979697E+04  0.23022118816E+04  0.10100000352E+00 0. -1.
       -3    1    3    3    0  502  0.10295553589E+04  0.64272354435E+03  0.10629236167E+04  0.16133457213E+04  0.10100000352E+00 0.  1.
</event>
<event>
 5   0  0.1193861E-07  0.3794045E+04  0.7818609E-02  0.8047434E-01
        2   -1    0    0  501    0  0.00000000000E+00  0.00000000000E+00  0.22293423487E+04  0.22293423487E+04  0.25500000920E-02 0.  1.
       -2   -1    0    0    0  501  0.00000000000E+00  0.00000000000E+00 -0.16142400993E+04  0.16142400993E+04  0.25500000920E-02 0. -1.
    10030    2    1    2    0    0  0.00000000000E+00  0.00000000000E+00  0.61510224941E+03  0.38435824481E+04  0.37940447095E+04 0.  0.
        3    1    3    3  502    0 -0.73536452622E+03 -0.46158728185E+03 -0.14011455326E+04  0.16483423852E+04  0.10100000352E+00 0. -1.
       -3    1    3    3    0  502  0.73536452622E+03  0.46158728185E+03  0.20162477820E+04  0.21952400629E+04  0.10100000352E+00 0.  1.
</event>
<event>
 5   0  0.1143283E-07  0.3804445E+04  0.7818609E-02  0.8045202E-01
       -2   -1    0    0    0  501  0.00000000000E+00  0.00000000000E+00  0.13048987788E+04  0.13048987788E+04  0.25500000920E-02 0.  1.
        2   -1    0    0  501    0  0.00000000000E+00  0.00000000000E+00 -0.27729745567E+04  0.27729745567E+04  0.25500000920E-02 0. -1.
    10030    2    1    2    0    0  0.00000000000E+00  0.00000000000E+00 -0.14680757778E+04  0.40778733355E+04  0.38044453539E+04 0.  0.
        1    1    3    3  502    0  0.18414306158E+04  0.25023642342E+03 -0.29868665726E+03  0.18822058070E+04  0.50400001928E-02 0.  1.
       -1    1    3    3    0  502 -0.18414306158E+04 -0.25023642342E+03 -0.11693891206E+04  0.21956675285E+04  0.50400001928E-02 0. -1.
</event>
<event>
 5   0  0.3701250E-08  0.3784389E+04  0.7818609E-02  0.8049513E-01
        1   -1    0    0  501    0  0.00000000000E+00  0.00000000000E+00  0.24604996452E+04  0.24604996452E+04  0.50400001928E-02 0. -1.
       -1   -1    0    0    0  501  0.00000000000E+00  0.00000000000E+00 -0.14551515564E+04  0.14551515564E+04  0.50400001928E-02 0.  1.
    10030    2    1    2    0    0  0.00000000000E+00  0.00000000000E+00  0.10053480888E+04  0.39156512017E+04  0.37843889273E+04 0.  0.
        4    1    3    3  502    0 -0.97448114572E+03 -0.11232543279E+04  0.17133372969E+04  0.22686648264E+04  0.12699999809E+01 0. -1.
       -4    1    3    3    0  502  0.97448114572E+03  0.11232543279E+04 -0.70798920813E+03  0.16469863753E+04  0.12699999809E+01 0.  1.
</event>
<event>
 5   0  0.3701250E-08  0.3812801E+04  0.7818609E-02  0.8043413E-01
       -1   -1    0    0    0  501  0.00000000000E+00  0.00000000000E+00  0.33790770331E+04  0.33790770331E+04  0.50400001928E-02 0.  1.
        1   -1    0    0  501    0  0.00000000000E+00  0.00000000000E+00 -0.10755491454E+04  0.10755491454E+04  0.50400001928E-02 0. -1.
    10030    2    1    2    0    0  0.00000000000E+00  0.00000000000E+00  0.23035278877E+04  0.44546261785E+04  0.38128012879E+04 0.  0.
        3    1    3    3  502    0  0.61596038149E+03 -0.18019225493E+04  0.10470604684E+04  0.21731699657E+04  0.10100000352E+00 0.  1.
       -3    1    3    3    0  502 -0.61596038149E+03  0.18019225493E+04  0.12564674193E+04  0.22814562128E+04  0.10100000352E+00 0. -1.
</event>
<event>
 5   0  0.1193861E-07  0.3790251E+04  0.7818609E-02  0.8048250E-01
        2   -1    0    0  501    0  0.00000000000E+00  0.00000000000E+00  0.33094288560E+04  0.33094288560E+04  0.25500000920E-02 0.  1.
       -2   -1    0    0    0  501  0.00000000000E+00  0.00000000000E+00 -0.10852328795E+04  0.10852328795E+04  0.25500000920E-02 0. -1.
    10030    2    1    2    0    0  0.00000000000E+00  0.00000000000E+00  0.22241959765E+04  0.43946617355E+04  0.37902511826E+04 0.  0.
        3    1    3    3  502    0  0.95770056099E+03 -0.14977657127E+04  0.18733007913E+04  0.25825855958E+04  0.10100000352E+00 0.  1.
       -3    1    3    3    0  502 -0.95770056099E+03  0.14977657127E+04  0.35089518521E+03  0.18120761397E+04  0.10100000352E+00 0. -1.
</event>
<event>
 5   0  0.3701250E-08  0.3828986E+04  0.7818609E-02  0.8039963E-01
        1   -1    0    0  501    0  0.00000000000E+00  0.00000000000E+00  0.25279967614E+04  0.25279967615E+04  0.50400001928E-02 0.  1.
       -1   -1    0    0    0  501  0.00000000000E+00  0.00000000000E+00 -0.14498768471E+04  0.14498768471E+04  0.50400001928E-02 0. -1.
    10030    2    1    2    0    0  0.00000000000E+00  0.00000000000E+00  0.10781199143E+04  0.39778736086E+04  0.38289862753E+04 0.  0.
        3    1    3    3  502    0 -0.13042790001E+04  0.92460980912E+03 -0.55509626683E+03  0.16923885148E+04  0.10100000352E+00 0. -1.
       -3    1    3    3    0  502  0.13042790001E+04 -0.92460980912E+03  0.16332161812E+04  0.22854850938E+04  0.10100000352E+00 0.  1.
</event>
<event>
 5   0  0.3701250E-08  0.3625073E+04  0.7818609E-02  0.8084772E-01
        1   -1    0    0  501    0  0.00000000000E+00  0.00000000000E+00  0.13444947364E+04  0.13444947364E+04  0.50400001928E-02 0. -1.
       -1   -1    0    0    0  501  0.00000000000E+00  0.00000000000E+00 -0.24435115879E+04  0.24435115879E+04  0.50400001928E-02 0.  1.
    10030    2    1    2    0    0  0.00000000000E+00  0.00000000000E+00 -0.10990168515E+04  0.37880063243E+04  0.36250729472E+04 0.  0.
        1    1    3    3  502    0  0.10402328351E+04  0.10173619062E+04 -0.16789105964E+04  0.22216773821E+04  0.50400001928E-02 0.  1.
       -1    1    3    3    0  502 -0.10402328351E+04 -0.10173619062E+04  0.57989374492E+03  0.15663289421E+04  0.50400001928E-02 0. -1.
</event>
<event>
 5   0  0.1150235E-07  0.3798872E+04  0.7818609E-02  0.8046397E-01
       -2   -1    0    0    0  501  0.00000000000E+00  0.00000000000E+00  0.23266826935E+04  0.23266826935E+04  0.25500000920E-02 0.  1.
        2   -1    0    0  501    0  0.00000000000E+00  0.00000000000E+00 -0.15506446458E+04  0.15506446458E+04  0.25500000920E-02 0. -1.
    10030    2    1    2    0    0  0.00000000000E+00  0.00000000000E+00  0.77603804779E+03  0.38773273393E+04  0.37988724965E+04 0.  0.
        4    1    3    3  502    0 -0.12692801582E+04  0.11352096232E+04  0.12468742621E+04  0.21105615478E+04  0.12699999809E+01 0.  1.
       -4    1    3    3    0  502  0.12692801582E+04 -0.11352096232E+04 -0.47083621426E+03  0.17667657915E+04  0.12699999809E+01 0. -1.
</event>
<event>
 5   0  0.7858367E-08  0.3836800E+04  0.7818609E-02  0.8038304E-01
        2   -1    0    0  501    0  0.00000000000E+00  0.00000000000E+00  0.20371643934E+04  0.20371643934E+04  0.25500000920E-02 0. -1.
       -2   -1    0    0    0  501  0.00000000000E+00  0.00000000000E+00 -0.18065589730E+04  0.18065589730E+04  0.25500000920E-02 0.  1.
    10030    2    1    2    0    0  0.00000000000E+00  0.00000000000E+00  0.23060542036E+03  0.38437233663E+04  0.38367995070E+04 0.  0.
        2    1    3    3  502    0  0.94054265668E+02  0.10117653609E+04 -0.15148221555E+04  0.18240618172E+04  0.25500000920E-02 0.  1.
       -2    1    3    3    0  502 -0.94054265668E+02 -0.10117653609E+04  0.17454275758E+04  0.20196615491E+04  0.25500000920E-02 0. -1.
</event>
<event>
 5   0  0.1174870E-07  0.3827515E+04  0.7818609E-02  0.8040276E-01
       -2   -1    0    0    0  501  0.00000000000E+00  0.00000000000E+00  0.12222979135E+04  0.12222979135E+04  0.25500000920E-02 0.  1.
        2   -1    0    0  501    0  0.00000000000E+00  0.00000000000E+00 -0.29963797219E+04  0.29963797219E+04  0.25500000920E-02 0. -1.
    10030    2    1    2    0    0  0.00000000000E+00  0.00000000000E+00 -0.17740818085E+04  0.42186776354E+04  0.38275154772E+04 0.  0.
        5    1    3    3  502    0 -0.66211400316E+03 -0.16335083522E+04 -0.65403115761E+02  0.17638152248E+04  0.46999998093E+01 0.  1.
       -5    1    3    3    0  502  0.66211400316E+03  0.16335083522E+04 -0.17086786927E+04  0.24548624105E+04  0.46999998093E+01 0. -1.
</event>
<event>
 5   0  0.7858367E-08  0.3810217E+04  0.7818609E-02  0.8043966E-01
       -2   -1    0    0    0  501  0.00000000000E+00  0.00000000000E+00  0.13284155202E+04  0.13284155202E+04  0.25500000920E-02 0.  1.
        2   -1    0    0  501    0  0.00000000000E+00  0.00000000000E+00 -0.27321558476E+04  0.27321558476E+04  0.25500000920E-02 0. -1.
    10030    2    1    2    0    0  0.00000000000E+00  0.00000000000E+00 -0.14037403274E+04  0.40605713678E+04  0.38102169133E+04 0.  0.
        2    1    3    3  502    0 -0.14273801609E+04  0.65163925360E+03  0.44958095115E+03  0.16322288051E+04  0.25500000920E-02 0.  1.
       -2    1    3    3    0  502  0.14273801609E+04 -0.65163925360E+03 -0.18533212785E+04  0.24283425627E+04  0.25500000920E-02 0. -1.
</event>
<event>
 5   0  0.3701250E-08  0.3797506E+04  0.7818609E-02  0.8046690E-01
        4   -1    0    0  501    0  0.00000000000E+00  0.00000000000E+00  0.24021258302E+04  0.24021261659E+04  0.12699999809E+01 0. -1.
       -4   -1    0    0    0  501  0.00000000000E+00  0.00000000000E+00 -0.15008631395E+04  0.15008636768E+04  0.12699999809E+01 0.  1.
    10030    2    1    2    0    0  0.00000000000E+00  0.00000000000E+00  0.90126269069E+03  0.39029898428E+04  0.37975064549E+04 0.  0.
        3    1    3    3  502    0 -0.80210863089E+03  0.48642255286E+03  0.21473286016E+04  0.23432894164E+04  0.10100000352E+00 0. -1.
       -3    1    3    3    0  502  0.80210863089E+03 -0.48642255286E+03 -0.12460659109E+04  0.15597004264E+04  0.10100000352E+00 0.  1.
</event>
<event>
 5   0  0.3889225E-08  0.3792368E+04  0.7818609E-02  0.8047795E-01
       -1   -1    0    0    0  501  0.00000000000E+00  0.00000000000E+00  0.13677186282E+04  0.13677186282E+04  0.50400001928E-02 0. -1.
        1   -1    0    0  501    0  0.00000000000E+00  0.00000000000E+00 -0.26288408231E+04  0.26288408231E+04  0.50400001928E-02 0.  1.
    10030    2    1    2    0    0  0.00000000000E+00  0.00000000000E+00 -0.12611221949E+04  0.39965594513E+04  0.37923684232E+04 0.  0.
        5    1    3    3  502    0 -0.16244920060E+04 -0.15497565022E+03 -0.16482155792E+04  0.23194025988E+04  0.46999998093E+01 0.  1.
       -5    1    3    3    0  502  0.16244920060E+04  0.15497565022E+03  0.38709338430E+03  0.16771568525E+04  0.46999998093E+01 0. -1.
</event>
<event>
 5   0  0.3701250E-08  0.3793816E+04  0.7818609E-02  0.8047483E-01
       -1   -1    0    0    0  501  0.00000000000E+00  0.00000000000E+00  0.17143307991E+04  0.17143307991E+04  0.50400001928E-02 0.  1.
        1   -1    0    0  501    0  0.00000000000E+00  0.00000000000E+00 -0.20989296089E+04  0.20989296089E+04  0.50400001928E-02 0. -1.
    10030    2    1    2    0    0  0.00000000000E+00  0.00000000000E+00 -0.38459880988E+03  0.38132604080E+04  0.37938158488E+04 0.  0.
        1    1    3    3  502    0  0.93006741735E+03 -0.58848410178E+03  0.13605853142E+04  0.17500089532E+04  0.50400001928E-02 0.  1.
       -1    1    3    3    0  502 -0.93006741735E+03  0.58848410178E+03 -0.17451841241E+04  0.20632514548E+04  0.50400001928E-02 0. -1.
</event>
<event>
 5   0  0.7858367E-08  0.3790276E+04  0.7818609E-02  0.8048245E-01
       -2   -1    0    0    0  501  0.00000000000E+00  0.00000000000E+00  0.24606062645E+04  0.24606062645E+04  0.25500000920E-02 0. -1.
        2   -1    0    0  501    0  0.00000000000E+00  0.00000000000E+00 -0.14596194540E+04  0.14596194540E+04  0.25500000920E-02 0.  1.
    10030    2    1    2    0    0  0.00000000000E+00  0.00000000000E+00  0.10009868105E+04  0.39202257184E+04  0.37902763868E+04 0.  0.
        2    1    3    3  502    0  0.14397159841E+04  0.12323646996E+04  0.49364017899E+03  0.19583629628E+04  0.25500000920E-02 0.  1.
       -2    1    3    3    0  502 -0.14397159841E+04 -0.12323646996E+04  0.50734663152E+03  0.19618627557E+04  0.25500000920E-02 0. -1.
</event>
<event>
 5   0  0.1150235E-07  0.3778230E+04  0.7818609E-02  0.8050843E-01
       -2   -1    0    0    0  501  0.00000000000E+00  0.00000000000E+00  0.16889944748E+04  0.16889944748E+04  0.25500000920E-02 0.  1.
        2   -1    0    0  501    0  0.00000000000E+00  0.00000000000E+00 -0.21129470305E+04  0.21129470305E+04  0.25500000920E-02 0. -1.
    10030    2    1    2    0    0  0.00000000000E+00  0.00000000000E+00 -0.42395255567E+03  0.38019415053E+04  0.37782301994E+04 0.  0.
        4    1    3    3  502    0  0.67847124094E+03 -0.87943588974E+03  0.13256919724E+04  0.17295061513E+04  0.12699999809E+01 0.  1.
       -4    1    3    3    0  502 -0.67847124094E+03  0.87943588974E+03 -0.17496445280E+04  0.20724353540E+04  0.12699999809E+01 0. -1.
</event>
<event>
 5   0  0.1150235E-07  0.3812743E+04  0.7818609E-02  0.8043426E-01
        2   -1    0    0  501    0  0.00000000000E+00  0.00000000000E+00  0.19883600623E+04  0.19883600623E+04  0.25500000920E-02 0.  1.
       -2   -1    0    0    0  501  0.00000000000E+00  0.00000000000E+00 -0.18277636068E+04  0.18277636068E+04  0.25500000920E-02 0. -1.
    10030    2    1    2    0    0  0.00000000000E+00  0.00000000000E+00  0.16059645551E+03  0.38161236690E+04  0.38127429281E+04 0.  0.
        4    1    3    3  502    0 -0.11611461152E+04  0.14741292560E+04 -0.25605507618E+03  0.18939068560E+04  0.12699999809E+01 0. -1.
       -4    1    3    3    0  502  0.11611461152E+04 -0.14741292560E+04  0.41665153169E+03  0.19222168130E+04  0.12699999809E+01 0.  1.
</event>
<event>
 5   0  0.1150235E-07  0.3804985E+04  0.7818609E-02  0.8045086E-01
       -2   -1    0    0    0  501  0.00000000000E+00  0.00000000000E+00  0.16090223300E+04  0.16090223300E+04  0.25500000920E-02 0. -1.
        2   -1    0    0  501    0  0.00000000000E+00  0.00000000000E+00 -0.22494891289E+04  0.22494891289E+04  0.25500000920E-02 0.  1.
    10030    2    1    2    0    0  0.00000000000E+00  0.00000000000E+00 -0.64046679887E+03  0.38585114589E+04  0.38049852769E+04 0.  0.
        4    1    3    3  502    0  0.11422873306E+03 -0.12333506714E+04 -0.17845953458E+04  0.21723223156E+04  0.12699999809E+01 0.  1.
       -4    1    3    3    0  502 -0.11422873306E+03  0.12333506714E+04  0.11441285469E+04  0.16861891432E+04  0.12699999809E+01 0. -1.
</event>
<event>
 5   0  0.1174870E-07  0.3797702E+04  0.7818609E-02  0.8046648E-01
       -2   -1    0    0    0  501  0.00000000000E+00  0.00000000000E+00  0.14354553929E+04  0.14354553929E+04  0.25500000920E-02 0. -1.
        2   -1    0    0  501    0  0.00000000000E+00  0.00000000000E+00 -0.25118410735E+04  0.25118410735E+04  0.25500000920E-02 0.  1.
    10030    2    1    2    0    0  0.00000000000E+00  0.00000000000E+00 -0.10763856806E+04  0.39472964664E+04  0.37977023660E+04 0.  0.
        5    1    3    3  502    0  0.69160115992E+01 -0.18652199807E+04 -0.90790093321E+03  0.20744636902E+04  0.46999998093E+01 0. -1.
       -5    1    3    3    0  502 -0.69160115992E+01  0.18652199807E+04 -0.16848474734E+03  0.18728327762E+04  0.46999998093E+01 0.  1.
</event>
<event>
 5   0  0.1174870E-07  0.3799415E+04  0.7818609E-02  0.8046281E-01
        2   -1    0    0  501    0  0.00000000000E+00  0.00000000000E+00  0.30107478426E+04  0.30107478426E+04  0.25500000920E-02 0.  1.
       -2   -1    0    0    0  501  0.00000000000E+00  0.00000000000E+00 -0.11986682231E+04  0.11986682231E+04  0.25500000920E-02 0. -1.
    10030    2    1    2    0    0  0.00000000000E+00  0.00000000000E+00  0.18120796195E+04  0.42094160657E+04  0.37994145690E+04 0.  0.
        5    1    3    3  502    0 -0.20173656366E+03  0.12211924550E+04 -0.69060557631E+03  0.14173802614E+04  0.46999998093E+01 0. -1.
       -5    1    3    3    0  502  0.20173656366E+03 -0.12211924550E+04  0.25026851958E+04  0.27920358043E+04  0.46999998093E+01 0.  1.
</event>
<event>
 5   0  0.1150235E-07  0.3813250E+04  0.7818609E-02  0.8043317E-01
        2   -1    0    0  501    0  0.00000000000E+00  0.00000000000E+00  0.15817307938E+04  0.15817307938E+04  0.25500000920E-02 0. -1.
       -2   -1    0    0    0  501  0.00000000000E+00  0.00000000000E+00 -0.22982544066E+04  0.22982544066E+04  0.25500000920E-02 0.  1.
    10030    2    1    2    0    0  0.00000000000E+00  0.00000000000E+00 -0.71652361278E+03  0.38799852004E+04  0.38132504596E+04 0.  0.
        4    1    3    3  502    0  0.16571269376E+04 -0.93325410164E+03 -0.49547452176E+03  0.19653319109E+04  0.12699999809E+01 0.  1.
       -4    1    3    3    0  502 -0.16571269376E+04  0.93325410164E+03 -0.22104909102E+03  0.19146532895E+04  0.12699999809E+01 0. -1.
</event>
<event>
 5   0  0.1174870E-07  0.3799285E+04  0.7818609E-02  0.8046308E-01
        2   -1    0    0  501    0  0.00000000000E+00  0.00000000000E+00  0.24749629008E+04  0.24749629008E+04  0.25500000920E-02 0. -1.
       -2   -1    0    0    0  501  0.00000000000E+00  0.00000000000E+00 -0.14580587325E+04  0.14580587326E+04  0.25500000920E-02 0.  1.
    10030    2    1    2    0    0  0.00000000000E+00  0.00000000000E+00  0.10169041683E+04  0.39330216334E+04  0.37992848118E+04 0.  0.
        5    1    3    3  502    0 -0.76383564428E+03  0.97848936709E+03 -0.98012626207E+03  0.15816307763E+04  0.46999998093E+01 0.  1.
       -5    1    3    3    0  502  0.76383564428E+03 -0.97848936709E+03  0.19970304304E+04  0.23513908571E+04  0.46999998093E+01 0. -1.
</event>
<event>
 5   0  0.1150235E-07  0.3793150E+04  0.7818609E-02  0.8047626E-01
       -2   -1    0    0    0  501  0.00000000000E+00  0.00000000000E+00  0.22050060248E+04  0.22050060248E+04  0.25500000920E-02 0.  1.
        2   -1    0    0  501    0  0.00000000000E+00  0.00000000000E+00 -0.16312867653E+04  0.16312867653E+04  0.25500000920E-02 0. -1.
    10030    2    1    2    0    0  0.00000000000E+00  0.00000000000E+00  0.57371925952E+03  0.38362927900E+04  0.37931502188E+04 0.  0.
        4    1    3    3  502    0  0.98965415525E+03 -0.11529072853E+03 -0.13452759328E+04  0.16740598100E+04  0.12699999809E+01 0. -1.
       -4    1    3    3    0  502 -0.98965415525E+03  0.11529072853E+03  0.19189951923E+04  0.21622329801E+04  0.12699999809E+01 0.  1.
</event>
<event>
 5   0  0.3701250E-08  0.3798588E+04  0.7818609E-02  0.8046458E-01
       -1   -1    0    0    0  501  0.00000000000E+00  0.00000000000E+00  0.29331138145E+04  0.29331138145E+04  0.50400001928E-02 0.  1.
        1   -1    0    0  501    0  0.00000000000E+00  0.00000000000E+00 -0.12298596971E+04  0.12298596971E+04  0.50400001928E-02 0. -1.
    10030    2    1    2    0    0  0.00000000000E+00  0.00000000000E+00  0.17032541174E+04  0.41629735116E+04  0.37985884049E+04 0.  0.
        1    1    3    3  502    0  0.16024952408E+03 -0.25157653781E+03  0.29072847326E+04  0.29225460101E+04  0.50400001928E-02 0.  1.
       -1    1    3    3    0  502 -0.16024952408E+03  0.25157653781E+03 -0.12040306152E+04  0.12404275016E+04  0.50400001928E-02 0. -1.
</event>
<event>
 5   0  0.1193861E-07  0.3798394E+04  0.7818609E-02  0.8046500E-01
        2   -1    0    0  501    0  0.00000000000E+00  0.00000000000E+00  0.19297403627E+04  0.19297403627E+04  0.25500000920E-02 0. -1.
       -2   -1    0    0    0  501  0.00000000000E+00  0.00000000000E+00 -0.18691372130E+04  0.18691372130E+04  0.25500000920E-02 0.  1.
    10030    2    1    2    0    0  0.00000000000E+00  0.00000000000E+00  0.60603149718E+02  0.37988775757E+04  0.37983941467E+04 0.  0.
        3    1    3    3  502    0 -0.54271276451E+03 -0.10095110064E+04  0.15448588300E+04  0.19236003825E+04  0.10100000352E+00 0. -1.
       -3    1    3    3    0  502  0.54271276451E+03  0.10095110064E+04 -0.14842556802E+04  0.18752771932E+04  0.10100000352E+00 0.  1.
</event>
<event>
 5   0  0.1150235E-07  0.3787195E+04  0.7818609E-02  0.8048908E-01
       -2   -1    0    0    0  501  0.00000000000E+00  0.00000000000E+00  0.28588495365E+04  0.28588495365E+04  0.25500000920E-02 0.  1.
        2   -1    0    0  501    0  0.00000000000E+00  0.00000000000E+00 -0.12542495317E+04  0.12542495317E+04  0.25500000920E-02 0. -1.
    10030    2    1    2    0    0  0.00000000000E+00  0.00000000000E+00  0.16046000048E+04  0.41130990682E+04  0.37871945778E+04 0.  0.
        4    1    3    3  502    0 -0.53210690068E+03  0.13184850111E+04  0.21605925977E+04  0.25864459136E+04  0.12699999809E+01 0.  1.
       -4    1    3    3    0  502  0.53210690068E+03 -0.13184850111E+04 -0.55599259289E+03  0.15266531546E+04  0.12699999809E+01 0. -1.
</event>
<event>
 5   0  0.3701250E-08  0.3828647E+04  0.7818609E-02  0.8040035E-01
       -1   -1    0    0    0  501  0.00000000000E+00  0.00000000000E+00  0.16083832367E+04  0.16083832367E+04  0.50400001928E-02 0. -1.
        1   -1    0    0  501    0  0.00000000000E+00  0.00000000000E+00 -0.22784587161E+04  0.22784587161E+04  0.50400001928E-02 0.  1.
    10030    2    1    2    0    0  0.00000000000E+00  0.00000000000E+00 -0.67007547946E+03  0.38868419528E+04  0.38286471785E+04 0.  0.
        2    1    3    3  502    0 -0.11135084322E+04  0.14976558113E+04  0.97776662261E+02  0.18688055633E+04  0.25500000920E-02 0.  1.
       -2    1    3    3    0  502  0.11135084322E+04 -0.14976558113E+04 -0.76785214173E+03  0.20180363895E+04  0.25500000920E-02 0. -1.
</event>
<event>
 5   0  0.1193861E-07  0.3803148E+04  0.7818609E-02  0.8045480E-01
        2   -1    0    0  501    0  0.00000000000E+00  0.00000000000E+00  0.24525123890E+04  0.24525123890E+04  0.25500000920E-02 0.  1.
       -2   -1    0    0    0  501  0.00000000000E+00  0.00000000000E+00 -0.14743995675E+04  0.14743995675E+04  0.25500000920E-02 0. -1.
    10030    2    1    2    0    0  0.00000000000E+00  0.00000000000E+00  0.97811282152E+03  0.39269119565E+04  0.38031477518E+04 0.  0.
        3    1    3    3  502    0  0.10713875969E+04 -0.15048097778E+04  0.23084070790E+02  0.18473918736E+04  0.10100000352E+00 0. -1.
       -3    1    3    3    0  502 -0.10713875969E+04  0.15048097778E+04  0.95502875073E+03  0.20795200829E+04  0.10100000352E+00 0.  1.
</event>
<event>
 5   0  0.1143283E-07  0.3792958E+04  0.7818609E-02  0.8047668E-01
       -2   -1    0    0    0  501  0.00000000000E+00  0.00000000000E+00  0.12675969263E+04  0.12675969263E+04  0.25500000920E-02 0.  1.
        2   -1    0    0  501    0  0.00000000000E+00  0.00000000000E+00 -0.28373624590E+04  0.28373624590E+04  0.25500000920E-02 0. -1.
    10030    2    1    2    0    0  0.00000000000E+00  0.00000000000E+00 -0.15697655327E+04  0.41049593852E+04  0.37929576490E+04 0.  0.
        1    1    3    3  502    0  0.76689130996E+03  0.17253914230E+04 -0.97706843907E+03  0.21259728546E+04  0.50400001928E-02 0. -1.
       -1    1    3    3    0  502 -0.76689130996E+03 -0.17253914230E+04 -0.59269709361E+03  0.19789865307E+04  0.50400001928E-02 0.  1.
</event>
<event>
 5   0  0.3701250E-08  0.3807563E+04  0.7818609E-02  0.8044534E-01
       -1   -1    0    0    0  501  0.00000000000E+00  0.00000000000E+00  0.13435941633E+04  0.13435941633E+04  0.50400001928E-02 0.  1.
        1   -1    0    0  501    0  0.00000000000E+00  0.00000000000E+00 -0.26975286844E+04  0.26975286844E+04  0.50400001928E-02 0. -1.
    10030    2    1    2    0    0  0.00000000000E+00  0.00000000000E+00 -0.13539345211E+04  0.40411228477E+04  0.38075628928E+04 0.  0.
        2    1    3    3  502    0  0.38895898544E+03  0.69395152791E+03  0.11587312548E+04  0.14055304822E+04  0.25500000920E-02 0.  1.
       -2    1    3    3    0  502 -0.38895898544E+03 -0.69395152791E+03 -0.25126657760E+04  0.26355923655E+04  0.25500000920E-02 0. -1.
</event>
<event>
 5   0  0.1193861E-07  0.3805453E+04  0.7818609E-02  0.8044986E-01
       -2   -1    0    0    0  501  0.00000000000E+00  0.00000000000E+00  0.15554976857E+04  0.15554976857E+04  0.25500000920E-02 0. -1.
        2   -1    0    0  501    0  0.00000000000E+00  0.00000000000E+00 -0.23274664742E+04  0.23274664742E+04  0.25500000920E-02 0.  1.
    10030    2    1    2    0    0  0.00000000000E+00  0.00000000000E+00 -0.77196878852E+03  0.38829641598E+04  0.38054533050E+04 0.  0.
        3    1    3    3  502    0 -0.15451344347E+04  0.11075447876E+04 -0.46679876678E+03  0.19575487163E+04  0.10100000352E+00 0.  1.
       -3    1    3    3    0  502  0.15451344347E+04 -0.11075447876E+04 -0.30517002174E+03  0.19254154435E+04  0.10100000352E+00 0. -1.
</event>
<event>
 5   0  0.3701250E-08  0.3811446E+04  0.7818609E-02  0.8043703E-01
       -1   -1    0    0    0  501  0.00000000000E+00  0.00000000000E+00  0.15637949473E+04  0.15637949473E+04  0.50400001928E-02 0.  1.
        1   -1    0    0  501    0  0.00000000000E+00  0.00000000000E+00 -0.23224142919E+04  0.23224142919E+04  0.50400001928E-02 0. -1.
    10030    2    1    2    0    0  0.00000000000E+00  0.00000000000E+00 -0.75861934455E+03  0.38862092392E+04  0.38114457809E+04 0.  0.
        1    1    3    3  502    0  0.79335652387E+03  0.53525828646E+03  0.13010042324E+04  0.16150938115E+04  0.50400001928E-02 0.  1.
       -1    1    3    3    0  502 -0.79335652387E+03 -0.53525828646E+03 -0.20596235769E+04  0.22711154277E+04  0.50400001928E-02 0. -1.
</event>
<event>
 5   0  0.1143283E-07  0.3800664E+04  0.7818609E-02  0.8046012E-01
       -2   -1    0    0    0  501  0.00000000000E+00  0.00000000000E+00  0.22475261725E+04  0.22475261725E+04  0.25500000920E-02 0. -1.
        2   -1    0    0  501    0  0.00000000000E+00  0.00000000000E+00 -0.16067717643E+04  0.16067717643E+04  0.25500000920E-02 0.  1.
    10030    2    1    2    0    0  0.00000000000E+00  0.00000000000E+00  0.64075440820E+03  0.38542979368E+04  0.38006639386E+04 0.  0.
        1    1    3    3  502    0 -0.13448227437E+04  0.72404831233E+03 -0.82627218858E+03  0.17365252374E+04  0.50400001928E-02 0. -1.
       -1    1    3    3    0  502  0.13448227437E+04 -0.72404831233E+03  0.14670265968E+04  0.21177726994E+04  0.50400001928E-02 0.  1.
</event>
<event>
 5   0  0.7858367E-08  0.3828552E+04  0.7818609E-02  0.8040055E-01
        2   -1    0    0  501    0  0.00000000000E+00  0.00000000000E+00  0.21804874707E+04  0.21804874707E+04  0.25500000920E-02 0.  1.
       -2   -1    0    0    0  501  0.00000000000E+00  0.00000000000E+00 -0.16805660717E+04  0.16805660717E+04  0.25500000920E-02 0. -1.
    10030    2    1    2    0    0  0.00000000000E+00  0.00000000000E+00  0.49992139899E+03  0.38610535424E+04  0.38285523442E+04 0.  0.
        2    1    3    3  502    0  0.99265793090E+03  0.26818732800E+03 -0.13784164456E+04  0.17196877938E+04  0.25500000920E-02 0. -1.
       -2    1    3    3    0  502 -0.99265793090E+03 -0.26818732800E+03  0.18783378446E+04  0.21413657486E+04  0.25500000920E-02 0.  1.
</event>
<event>
 5   0  0.3889225E-08  0.3821697E+04  0.7818609E-02  0.8041515E-01
       -1   -1    0    0    0  501  0.00000000000E+00  0.00000000000E+00  0.20613453948E+04  0.20613453948E+04  0.50400001928E-02 0. -1.
        1   -1    0    0  501    0  0.00000000000E+00  0.00000000000E+00 -0.17713389729E+04  0.17713389729E+04  0.50400001928E-02 0.  1.
    10030    2    1    2    0    0  0.00000000000E+00  0.00000000000E+00  0.29000642191E+03  0.38326843677E+04  0.38216967093E+04 0.  0.
        5    1    3    3  502    0 -0.92970700627E+03 -0.97945759144E+03 -0.12107811688E+04  0.18137545092E+04  0.46999998093E+01 0.  1.
       -5    1    3    3    0  502  0.92970700627E+03  0.97945759144E+03  0.15007875908E+04  0.20189298585E+04  0.46999998093E+01 0. -1.
</event>
<event>
 5   0  0.3701250E-08  0.3800510E+04  0.7818609E-02  0.8046045E-01
       -1   -1    0    0    0  501  0.00000000000E+00  0.00000000000E+00  0.13325779377E+04  0.13325779377E+04  0.50400001928E-02 0. -1.
        1   -1    0    0  501    0  0.00000000000E+00  0.00000000000E+00 -0.27097618536E+04  0.27097618536E+04  0.50400001928E-02 0.  1.
    10030    2    1    2    0    0  0.00000000000E+00  0.00000000000E+00 -0.13771839159E+04  0.40423397913E+04  0.38005098935E+04 0.  0.
        3    1    3    3  502    0 -0.64086695093E+03  0.70065435652E+03  0.10621528782E+04  0.14247089959E+04  0.10100000352E+00 0. -1.
       -3    1    3    3    0  502  0.64086695093E+03 -0.70065435652E+03 -0.24393367941E+04  0.26176307955E+04  0.10100000352E+00 0.  1.
</event>
<event>
 5   0  0.1143283E-07  0.3805481E+04  0.7818609E-02  0.8044980E-01
        2   -1    0    0  501    0  0.00000000000E+00  0.00000000000E+00  0.23264002922E+04  0.23264002922E+04  0.25500000920E-02 0.  1.
       -2   -1    0    0    0  501  0.00000000000E+00  0.00000000000E+00 -0.15562328133E+04  0.15562328133E+04  0.25500000920E-02 0. -1.
    10030    2    1    2    0    0  0.00000000000E+00  0.00000000000E+00  0.77016747889E+03  0.38826331056E+04  0.38054805067E+04 0.  0.
        1    1    3    3  502    0  0.60245738444E+03 -0.88379798223E+02  0.22243112401E+04  0.23061496876E+04  0.50400001928E-02 0.  1.
       -1    1    3    3    0  502 -0.60245738444E+03  0.88379798223E+02 -0.14541437612E+04  0.15764834179E+04  0.50400001928E-02 0. -1.
</event>
<event>
 5   0  0.1174870E-07  0.3791325E+04  0.7818609E-02  0.8048019E-01
        2   -1    0    0  501    0  0.00000000000E+00  0.00000000000E+00  0.28609792120E+04  0.28609792120E+04  0.25500000920E-02 0. -1.
       -2   -1    0    0    0  501  0.00000000000E+00  0.00000000000E+00 -0.12560508548E+04  0.12560508548E+04  0.25500000920E-02 0.  1.
    10030    2    1    2    0    0  0.00000000000E+00  0.00000000000E+00  0.16049283572E+04  0.41170300668E+04  0.37913245099E+04 0.  0.
        5    1    3    3  502    0 -0.75234537483E+03  0.20425559546E+03  0.26788459724E+04  0.27899788072E+04  0.46999998093E+01 0. -1.
       -5    1    3    3    0  502  0.75234537483E+03 -0.20425559546E+03 -0.10739176152E+04  0.13270512596E+04  0.46999998093E+01 0.  1.
</event>
<event>
 5   0  0.3889225E-08  0.3800378E+04  0.7818609E-02  0.8046074E-01
       -1   -1    0    0    0  501  0.00000000000E+00  0.00000000000E+00  0.16097621793E+04  0.16097621793E+04  0.50400001928E-02 0.  1.
        1   -1    0    0  501    0  0.00000000000E+00  0.00000000000E+00 -0.22430132974E+04  0.22430132974E+04  0.50400001928E-02 0. -1.
    10030    2    1    2    0    0  0.00000000000E+00  0.00000000000E+00 -0.63325111807E+03  0.38527754768E+04  0.38003778622E+04 0.  0.
        5    1    3    3  502    0  0.88829169770E+03 -0.95563954671E+03  0.10838647996E+04  0.16961998931E+04  0.46999998093E+01 0.  1.
       -5    1    3    3    0  502 -0.88829169770E+03  0.95563954671E+03 -0.17171159177E+04  0.21565755837E+04  0.46999998093E+01 0. -1.
</event>
<event>
 5   0  0.1150235E-07  0.3800372E+04  0.7818609E-02  0.8046075E-01
       -2   -1    0    0    0  501  0.00000000000E+00  0.00000000000E+00  0.28299958592E+04  0.28299958592E+04  0.25500000920E-02 0. -1.
        2   -1    0    0  501    0  0.00000000000E+00  0.00000000000E+00 -0.12758701230E+04  0.12758701230E+04  0.25500000920E-02 0.  1.
    10030    2    1    2    0    0  0.00000000000E+00  0.00000000000E+00  0.15541257363E+04  0.41058659822E+04  0.38003721738E+04 0.  0.
        4    1    3    3  502    0  0.90695665333E+02 -0.65615909446E+02 -0.12723041608E+04  0.12772198878E+04  0.12699999809E+01 0.  1.
       -4    1    3    3    0  502 -0.90695665333E+02  0.65615909446E+02  0.28264298971E+04  0.28286460944E+04  0.12699999809E+01 0. -1.
</event>
<event>
 5   0  0.3701250E-08  0.3788312E+04  0.7818609E-02  0.8048668E-01
        1   -1    0    0  501    0  0.00000000000E+00  0.00000000000E+00  0.25693390021E+04  0.25693390021E+04  0.50400001928E-02 0. -1.
       -1   -1    0    0    0  501  0.00000000000E+00  0.00000000000E+00 -0.13964004331E+04  0.13964004331E+04  0.50400001928E-02 0.  1.
    10030    2    1    2    0    0  0.00000000000E+00  0.00000000000E+00  0.11729385690E+04  0.39657394352E+04  0.37883115476E+04 0.  0.
        4    1    3    3  502    0  0.76002841140E+03  0.17053440535E+04  0.25216473637E+03  0.18839931513E+04  0.12699999809E+01 0. -1.
       -4    1    3    3    0  502 -0.76002841140E+03 -0.17053440535E+04  0.92077383266E+03  0.20817462839E+04  0.12699999809E+01 0.  1.
</event>
<event>
 5   0  0.1143283E-07  0.3805995E+04  0.7818609E-02  0.8044870E-01
       -2   -1    0    0    0  501  0.00000000000E+00  0.00000000000E+00  0.23760832366E+04  0.23760832366E+04  0.25500000920E-02 0.  1.
        2   -1    0    0  501    0  0.00000000000E+00  0.00000000000E+00 -0.15241044703E+04  0.15241044703E+04  0.25500000920E-02 0. -1.
    10030    2    1    2    0    0  0.00000000000E+00  0.00000000000E+00  0.85197876631E+03  0.39001877070E+04  0.38059947887E+04 0.  0.
        1    1    3    3  502    0  0.12333349618E+03  0.69759566024E+02  0.23706699252E+04  0.23749007227E+04  0.50400001928E-02 0.  1.
       -1    1    3    3    0  502 -0.12333349618E+03 -0.69759566024E+02 -0.15186911589E+04  0.15252869843E+04  0.50400001928E-02 0. -1.
</event>
<event>
 5   0  0.7858367E-08  0.3795985E+04  0.7818609E-02  0.8047017E-01
        2   -1    0    0  501    0  0.00000000000E+00  0.00000000000E+00  0.26419402561E+04  0.26419402561E+04  0.25500000920E-02 0. -1.
       -2   -1    0    0    0  501  0.00000000000E+00  0.00000000000E+00 -0.13635339814E+04  0.13635339814E+04  0.25500000920E-02 0.  1.
    10030    2    1    2    0    0  0.00000000000E+00  0.00000000000E+00  0.12784062747E+04  0.40054742375E+04  0.37959848872E+04 0.  0.
        2    1    3    3  502    0 -0.61007296530E+03  0.16402441482E+04  0.14144500509E+04  0.22501686237E+04  0.25500000920E-02 0.  1.
       -2    1    3    3    0  502  0.61007296530E+03 -0.16402441482E+04 -0.13604377617E+03  0.17553056138E+04  0.25500000920E-02 0. -1.
</event>
<event>
 5   0  0.7858367E-08  0.3808277E+04  0.7818609E-02  0.8044381E-01
        2   -1    0    0  501    0  0.00000000000E+00  0.00000000000E+00  0.28613142393E+04  0.28613142393E+04  0.25500000920E-02 0. -1.
       -2   -1    0    0    0  501  0.00000000000E+00  0.00000000000E+00 -0.12671600662E+04  0.12671600662E+04  0.25500000920E-02 0.  1.
    10030    2    1    2    0    0  0.00000000000E+00  0.00000000000E+00  0.15941541731E+04  0.41284743055E+04  0.38082768497E+04 0.  0.
        2    1    3    3  502    0 -0.15426212077E+04 -0.98077645360E+03  0.13749437515E+04  0.22873725019E+04  0.25500000920E-02 0. -1.
       -2    1    3    3    0  502  0.15426212077E+04  0.98077645360E+03  0.21921042167E+03  0.18411018037E+04  0.25500000920E-02 0.  1.
</event>
<event>
 5   0  0.7858367E-08  0.3806753E+04  0.7818609E-02  0.8044707E-01
        2   -1    0    0  501    0  0.00000000000E+00  0.00000000000E+00  0.25690479558E+04  0.25690479558E+04  0.25500000920E-02 0. -1.
       -2   -1    0    0    0  501  0.00000000000E+00  0.00000000000E+00 -0.14101885822E+04  0.14101885822E+04  0.25500000920E-02 0.  1.
    10030    2    1    2    0    0  0.00000000000E+00  0.00000000000E+00  0.11588593737E+04  0.39792365380E+04  0.38067529966E+04 0.  0.
        2    1    3    3  502    0  0.98776208699E+03  0.33003105228E+03 -0.10859453654E+04  0.15046168192E+04  0.25500000920E-02 0.  1.
       -2    1    3    3    0  502 -0.98776208699E+03 -0.33003105228E+03  0.22448047391E+04  0.24746197188E+04  0.25500000920E-02 0. -1.
</event>
<event>
 5   0  0.1143283E-07  0.3733667E+04  0.7818609E-02  0.8060542E-01
        2   -1    0    0  501    0  0.00000000000E+00  0.00000000000E+00  0.25798093827E+04  0.25798093827E+04  0.25500000920E-02 0.  1.
       -2   -1    0    0    0  501  0.00000000000E+00  0.00000000000E+00 -0.13509007766E+04  0.13509007766E+04  0.25500000920E-02 0. -1.
    10030    2    1    2    0    0  0.00000000000E+00  0.00000000000E+00  0.12289086062E+04  0.39307101593E+04  0.37336665617E+04 0.  0.
        1    1    3    3  502    0  0.18592950841E+04  0.15643248860E+03  0.67777120594E+03  0.19851506595E+04  0.50400001928E-02 0.  1.
       -1    1    3    3    0  502 -0.18592950841E+04 -0.15643248860E+03  0.55113740022E+03  0.19455594998E+04  0.50400001928E-02 0. -1.
</event>
<event>
 5   0  0.3889225E-08  0.3809581E+04  0.7818609E-02  0.8044102E-01
       -1   -1    0    0    0  501  0.00000000000E+00  0.00000000000E+00  0.24446991144E+04  0.24446991144E+04  0.50400001928E-02 0. -1.
        1   -1    0    0  501    0  0.00000000000E+00  0.00000000000E+00 -0.14841202054E+04  0.14841202054E+04  0.50400001928E-02 0.  1.
    10030    2    1    2    0    0  0.00000000000E+00  0.00000000000E+00  0.96057890907E+03  0.39288193198E+04  0.38095812640E+04 0.  0.
        5    1    3    3  502    0  0.27003739498E+03 -0.44798613364E+03 -0.14085922695E+04  0.15025864509E+04  0.46999998093E+01 0.  1.
       -5    1    3    3    0  502 -0.27003739498E+03  0.44798613364E+03  0.23691711786E+04  0.24262328689E+04  0.46999998093E+01 0. -1.
</event>
<event>
 5   0  0.3701250E-08  0.3797546E+04  0.7818609E-02  0.8046682E-01
        1   -1    0    0  501    0  0.00000000000E+00  0.00000000000E+00  0.21831483066E+04  0.21831483066E+04  0.50400001928E-02 0. -1.
       -1   -1    0    0    0  501  0.00000000000E+00  0.00000000000E+00 -0.16514406349E+04  0.16514406350E+04  0.50400001928E-02 0.  1.
    10030    2    1    2    0    0  0.00000000000E+00  0.00000000000E+00  0.53170767166E+03  0.38345889416E+04  0.37975464846E+04 0.  0.
        1    1    3    3  502    0 -0.14699890352E+04 -0.10757495755E+04 -0.27531693274E+03  0.18422552283E+04  0.50400001928E-02 0. -1.
       -1    1    3    3    0  502  0.14699890352E+04  0.10757495755E+04  0.80702460440E+03  0.19923337132E+04  0.50400001928E-02 0.  1.
</event>
<event>
 5   0  0.1143283E-07  0.3802424E+04  0.7818609E-02  0.8045635E-01
       -2   -1    0    0    0  501  0.00000000000E+00  0.00000000000E+00  0.16787627129E+04  0.16787627129E+04  0.25500000920E-02 0. -1.
        2   -1    0    0  501    0  0.00000000000E+00  0.00000000000E+00 -0.21531373440E+04  0.21531373440E+04  0.25500000920E-02 0.  1.
    10030    2    1    2    0    0  0.00000000000E+00  0.00000000000E+00 -0.47437463116E+03  0.38319000569E+04  0.38024238001E+04 0.  0.
        1    1    3    3  502    0  0.16972038799E+04  0.98028594759E+02 -0.10949589328E+04  0.20221388874E+04  0.50400001928E-02 0.  1.
       -1    1    3    3    0  502 -0.16972038799E+04 -0.98028594759E+02  0.62058430163E+03  0.18097611695E+04  0.50400001928E-02 0. -1.
</event>
<event>
 5   0  0.3701250E-08  0.3809079E+04  0.7818609E-02  0.8044209E-01
       -1   -1    0    0    0  501  0.00000000000E+00  0.00000000000E+00  0.25507436717E+04  0.25507436717E+04  0.50400001928E-02 0. -1.
        1   -1    0    0  501    0  0.00000000000E+00  0.00000000000E+00 -0.14220445696E+04  0.14220445696E+04  0.50400001928E-02 0.  1.
    10030    2    1    2    0    0  0.00000000000E+00  0.00000000000E+00  0.11286991021E+04  0.39727882413E+04  0.38090792519E+04 0.  0.
        2    1    3    3  502    0 -0.88474521974E+03 -0.96064341094E+03 -0.88146913167E+03  0.15756261285E+04  0.25500000920E-02 0.  1.
       -2    1    3    3    0  502  0.88474521974E+03  0.96064341094E+03  0.20101682337E+04  0.23971621127E+04  0.25500000920E-02 0. -1.
</event>
<event>
 5   0  0.3701250E-08  0.3794750E+04  0.7818609E-02  0.8047283E-01
        1   -1    0    0  501    0  0.00000000000E+00  0.00000000000E+00  0.26229083438E+04  0.26229083438E+04  0.50400001928E-02 0.  1.
       -1   -1    0    0    0  501  0.00000000000E+00  0.00000000000E+00 -0.13725341381E+04  0.13725341381E+04  0.50400001928E-02 0. -1.
    10030    2    1    2    0    0  0.00000000000E+00  0.00000000000E+00  0.12503742057E+04  0.39954424819E+04  0.37947496587E+04 0.  0.
        3    1    3    3  502    0 -0.43137966695E+03 -0.17737912214E+04  0.11698539082E+04  0.21681747833E+04  0.10100000352E+00 0.  1.
       -3    1    3    3    0  502  0.43137966695E+03  0.17737912214E+04  0.80520297501E+02  0.18272676987E+04  0.10100000352E+00 0. -1.
</event>
<event>
 5   0  0.3701250E-08  0.3775634E+04  0.7818609E-02  0.8051404E-01
       -1   -1    0    0    0  501  0.00000000000E+00  0.00000000000E+00  0.15651346399E+04  0.15651346400E+04  0.50400001928E-02 0.  1.
        1   -1    0    0  501    0  0.00000000000E+00  0.00000000000E+00 -0.22770261051E+04  0.22770261051E+04  0.50400001928E-02 0. -1.
    10030    2    1    2    0    0  0.00000000000E+00  0.00000000000E+00 -0.71189146510E+03  0.38421607450E+04  0.37756336862E+04 0.  0.
        4    1    3    3  502    0  0.12173998493E+04  0.13856081821E+04  0.53484700159E+02  0.18452194052E+04  0.12699999809E+01 0.  1.
       -4    1    3    3    0  502 -0.12173998493E+04 -0.13856081821E+04 -0.76537616526E+03  0.19969413398E+04  0.12699999809E+01 0. -1.
</event>
<event>
 5   0  0.1150235E-07  0.3792453E+04  0.7818609E-02  0.8047776E-01
       -2   -1    0    0    0  501  0.00000000000E+00  0.00000000000E+00  0.15859490898E+04  0.15859490898E+04  0.25500000920E-02 0.  1.
        2   -1    0    0  501    0  0.00000000000E+00  0.00000000000E+00 -0.22672065067E+04  0.22672065067E+04  0.25500000920E-02 0. -1.
    10030    2    1    2    0    0  0.00000000000E+00  0.00000000000E+00 -0.68125741695E+03  0.38531555965E+04  0.37924525551E+04 0.  0.
        4    1    3    3  502    0 -0.11808704967E+03  0.10968678344E+04  0.12263312867E+04  0.16495313380E+04  0.12699999809E+01 0.  1.
       -4    1    3    3    0  502  0.11808704967E+03 -0.10968678344E+04 -0.19075887037E+04  0.22036242585E+04  0.12699999809E+01 0. -1.
</event>
<event>
 5   0  0.3701250E-08  0.3636925E+04  0.7818609E-02  0.8082086E-01
        1   -1    0    0  501    0  0.00000000000E+00  0.00000000000E+00  0.21520862694E+04  0.21520862694E+04  0.50400001928E-02 0. -1.
       -1   -1    0    0    0  501  0.00000000000E+00  0.00000000000E+00 -0.15365580854E+04  0.15365580854E+04  0.50400001928E-02 0.  1.
    10030    2    1    2    0    0  0.00000000000E+00  0.00000000000E+00  0.61552818401E+03  0.36886443548E+04  0.36369248317E+04 0.  0.
        2    1    3    3  502    0 -0.29747291187E+03  0.10080963646E+04 -0.11972714343E+04  0.15931752261E+04  0.25500000920E-02 0.  1.
       -2    1    3    3    0  502  0.29747291187E+03 -0.10080963646E+04  0.18127996183E+04  0.20954691288E+04  0.25500000920E-02 0. -1.
</event>
<event>
 5   0  0.3701250E-08  0.3797572E+04  0.7818609E-02  0.8046676E-01
       -1   -1    0    0    0  501  0.00000000000E+00  0.00000000000E+00  0.15932936965E+04  0.15932936965E+04  0.50400001928E-02 0. -1.
        1   -1    0    0  501    0  0.00000000000E+00  0.00000000000E+00 -0.22628524598E+04  0.22628524598E+04  0.50400001928E-02 0.  1.
    10030    2    1    2    0    0  0.00000000000E+00  0.00000000000E+00 -0.66955876326E+03  0.38561461564E+04  0.37975721510E+04 0.  0.
        3    1    3    3  502    0  0.64232420827E+03  0.15257789082E+04 -0.12790729281E+04  0.20920347107E+04  0.10100000352E+00 0.  1.
       -3    1    3    3    0  502 -0.64232420827E+03 -0.15257789082E+04  0.60951416488E+03  0.17641114456E+04  0.10100000352E+00 0. -1.
</event>
<event>
 5   0  0.3889225E-08  0.3805071E+04  0.7818609E-02  0.8045068E-01
       -1   -1    0    0    0  501  0.00000000000E+00  0.00000000000E+00  0.19479665083E+04  0.19479665083E+04  0.50400001928E-02 0. -1.
        1   -1    0    0  501    0  0.00000000000E+00  0.00000000000E+00 -0.18581638044E+04  0.18581638044E+04  0.50400001928E-02 0.  1.
    10030    2    1    2    0    0  0.00000000000E+00  0.00000000000E+00  0.89802703882E+02  0.38061303128E+04  0.38050707526E+04 0.  0.
        5    1    3    3  502    0 -0.17933867355E+04  0.58717832528E+03 -0.19724951393E+03  0.18973517938E+04  0.46999998093E+01 0.  1.
       -5    1    3    3    0  502  0.17933867355E+04 -0.58717832528E+03  0.28705221781E+03  0.19087785190E+04  0.46999998093E+01 0. -1.
</event>
<event>
 5   0  0.1143283E-07  0.3791990E+04  0.7818609E-02  0.8047876E-01
       -2   -1    0    0    0  501  0.00000000000E+00  0.00000000000E+00  0.16549752365E+04  0.16549752365E+04  0.25500000920E-02 0.  1.
        2   -1    0    0  501    0  0.00000000000E+00  0.00000000000E+00 -0.21721156902E+04  0.21721156902E+04  0.25500000920E-02 0. -1.
    10030    2    1    2    0    0  0.00000000000E+00  0.00000000000E+00 -0.51714045372E+03  0.38270909268E+04  0.37919903366E+04 0.  0.
        1    1    3    3  502    0  0.10360979387E+04 -0.13498220548E+04 -0.11025399201E+04  0.20275879250E+04  0.50400001928E-02 0. -1.
       -1    1    3    3    0  502 -0.10360979387E+04  0.13498220548E+04  0.58539946639E+03  0.17995030018E+04  0.50400001928E-02 0.  1.
</event>
<event>
 5   0  0.3701250E-08  0.3797458E+04  0.7818609E-02  0.8046701E-01
        3   -1    0    0  501    0  0.00000000000E+00  0.00000000000E+00  0.22421530061E+04  0.22421530084E+04  0.10100000352E+00 0. -1.
       -3   -1    0    0    0  501  0.00000000000E+00  0.00000000000E+00 -0.16079061260E+04  0.16079061291E+04  0.10100000352E+00 0.  1.
    10030    2    1    2    0    0  0.00000000000E+00  0.00000000000E+00  0.63424688014E+03  0.38500591375E+04  0.37974578677E+04 0.  0.
        4    1    3    3  502    0 -0.13253216375E+03 -0.11998220115E+04 -0.11687945537E+04  0.16802440166E+04  0.12699999809E+01 0.  1.
       -4    1    3    3    0  502  0.13253216375E+03  0.11998220115E+04  0.18030414339E+04  0.21698151209E+04  0.12699999809E+01 0. -1.
</event>
<event>
 5   0  0.3701250E-08  0.3777739E+04  0.7818609E-02  0.8050949E-01
        1   -1    0    0  501    0  0.00000000000E+00  0.00000000000E+00  0.22108715178E+04  0.22108715178E+04  0.50400001928E-02 0. -1.
       -1   -1    0    0    0  501  0.00000000000E+00  0.00000000000E+00 -0.16137657991E+04  0.16137657991E+04  0.50400001928E-02 0.  1.
    10030    2    1    2    0    0  0.00000000000E+00  0.00000000000E+00  0.59710571870E+03  0.38246373168E+04  0.37777394518E+04 0.  0.
        3    1    3    3  502    0 -0.84368517214E+03 -0.33712728168E+03 -0.13780153630E+04  0.16505713631E+04  0.10100000352E+00 0.  1.
       -3    1    3    3    0  502  0.84368517214E+03  0.33712728168E+03  0.19751210817E+04  0.21740659538E+04  0.10100000352E+00 0. -1.
</event>
<event>
 5   0  0.7858367E-08  0.3800018E+04  0.7818609E-02  0.8046151E-01
       -2   -1    0    0    0  501  0.00000000000E+00  0.00000000000E+00  0.16510016072E+04  0.16510016072E+04  0.25500000920E-02 0.  1.
        2   -1    0    0  501    0  0.00000000000E+00  0.00000000000E+00 -0.21865724635E+04  0.21865724635E+04  0.25500000920E-02 0. -1.
    10030    2    1    2    0    0  0.00000000000E+00  0.00000000000E+00 -0.53557085630E+03  0.38375740708E+04  0.38000182376E+04 0.  0.
        2    1    3    3  502    0 -0.61179763519E+03 -0.26313820130E+03  0.15292663999E+04  0.16679909416E+04  0.25500000920E-02 0.  1.
       -2    1    3    3    0  502  0.61179763519E+03  0.26313820130E+03 -0.20648372562E+04  0.21695831291E+04  0.25500000920E-02 0. -1.
</event>
<event>
 5   0  0.1174870E-07  0.3787033E+04  0.7818609E-02  0.8048943E-01
        2   -1    0    0  501    0  0.00000000000E+00  0.00000000000E+00  0.12943842203E+04  0.12943842203E+04  0.25500000920E-02 0. -1.
       -2   -1    0    0    0  501  0.00000000000E+00  0.00000000000E+00 -0.27699690539E+04  0.27699690539E+04  0.25500000920E-02 0.  1.
    10030    2    1    2    0    0  0.00000000000E+00  0.00000000000E+00 -0.14755848336E+04  0.40643532741E+04  0.37870327350E+04 0.  0.
        5    1    3    3  502    0  0.17265502120E+04 -0.56428694494E+03 -0.16385392884E+03  0.18238052503E+04  0.46999998093E+01 0. -1.
       -5    1    3    3    0  502 -0.17265502120E+04  0.56428694494E+03 -0.13117309047E+04  0.22405480239E+04  0.46999998093E+01 0.  1.
</event>
<event>
 5   0  0.1174870E-07  0.3796556E+04  0.7818609E-02  0.8046894E-01
       -2   -1    0    0    0  501  0.00000000000E+00  0.00000000000E+00  0.19088937509E+04  0.19088937509E+04  0.25500000920E-02 0. -1.
        2   -1    0    0  501    0  0.00000000000E+00  0.00000000000E+00 -0.18877215249E+04  0.18877215249E+04  0.25500000920E-02 0.  1.
    10030    2    1    2    0    0  0.00000000000E+00  0.00000000000E+00  0.21172225988E+02  0.37966152759E+04  0.37965562408E+04 0.  0.
        5    1    3    3  502    0  0.13777397033E+04 -0.11332867655E+04  0.65938904174E+03  0.19019257560E+04  0.46999998093E+01 0. -1.
       -5    1    3    3    0  502 -0.13777397033E+04  0.11332867655E+04 -0.63821681575E+03  0.18946895199E+04  0.46999998093E+01 0.  1.
</event>
<event>
 5   0  0.1150235E-07  0.3807990E+04  0.7818609E-02  0.8044442E-01
       -2   -1    0    0    0  501  0.00000000000E+00  0.00000000000E+00  0.13633034729E+04  0.13633034729E+04  0.25500000920E-02 0. -1.
        2   -1    0    0  501    0  0.00000000000E+00  0.00000000000E+00 -0.26591269077E+04  0.26591269077E+04  0.25500000920E-02 0.  1.
    10030    2    1    2    0    0  0.00000000000E+00  0.00000000000E+00 -0.12958234348E+04  0.40224303806E+04  0.38079899937E+04 0.  0.
        4    1    3    3  502    0 -0.13160214794E+04  0.59460256322E+01  0.80552600431E+03  0.15429911360E+04  0.12699999809E+01 0. -1.
       -4    1    3    3    0  502  0.13160214794E+04 -0.59460256322E+01 -0.21013494391E+04  0.24794392445E+04  0.12699999809E+01 0.  1.
</event>
<event>
 5   0  0.1150235E-07  0.3800704E+04  0.7818609E-02  0.8046004E-01
        2   -1    0    0  501    0  0.00000000000E+00  0.00000000000E+00  0.31273862058E+04  0.31273862058E+04  0.25500000920E-02 0.  1.
       -2   -1    0    0    0  501  0.00000000000E+00  0.00000000000E+00 -0.11547464118E+04  0.11547464118E+04  0.25500000920E-02 0. -1.
    10030    2    1    2    0    0  0.00000000000E+00  0.00000000000E+00  0.19726397940E+04  0.42821326176E+04  0.38007041450E+04 0.  0.
        4    1    3    3  502    0 -0.13048990520E+04  0.12381635472E+04  0.16767440657E+04  0.24591223597E+04  0.12699999809E+01 0.  1.
       -4    1    3    3    0  502  0.13048990520E+04 -0.12381635472E+04  0.29589572830E+03  0.18230102579E+04  0.12699999809E+01 0. -1.
</event>
<event>
 5   0  0.3889225E-08  0.3822550E+04  0.7818609E-02  0.8041333E-01
       -1   -1    0    0    0  501  0.00000000000E+00  0.00000000000E+00  0.20313909524E+04  0.20313909524E+04  0.50400001928E-02 0. -1.
        1   -1    0    0  501    0  0.00000000000E+00  0.00000000000E+00 -0.17982619074E+04  0.17982619074E+04  0.50400001928E-02 0.  1.
    10030    2    1    2    0    0  0.00000000000E+00  0.00000000000E+00  0.23312904498E+03  0.38296528598E+04  0.38225504412E+04 0.  0.
        5    1    3    3  502    0 -0.18978470781E+04 -0.21363678874E+03  0.19077420689E+03  0.19193439237E+04  0.46999998093E+01 0.  1.
       -5    1    3    3    0  502  0.18978470781E+04  0.21363678874E+03  0.42354838092E+02  0.19103089362E+04  0.46999998093E+01 0. -1.
</event>
<event>
 5   0  0.3889225E-08  0.3804368E+04  0.7818609E-02  0.8045218E-01
       -1   -1    0    0    0  501  0.00000000000E+00  0.00000000000E+00  0.28230085819E+04  0.28230085819E+04  0.50400001928E-02 0.  1.
        1   -1    0    0  501    0  0.00000000000E+00  0.00000000000E+00 -0.12817192278E+04  0.12817192278E+04  0.50400001928E-02 0. -1.
    10030    2    1    2    0    0  0.00000000000E+00  0.00000000000E+00  0.15412893542E+04  0.41047278097E+04  0.38043682154E+04 0.  0.
        5    1    3    3  502    0 -0.69448724939E+03 -0.71928155440E+02  0.26797470197E+04  0.27692151196E+04  0.46999998093E+01 0.  1.
       -5    1    3    3    0  502  0.69448724939E+03  0.71928155440E+02 -0.11384576655E+04  0.13355126901E+04  0.46999998093E+01 0. -1.
</event>
<event>
 5   0  0.3889225E-08  0.3804531E+04  0.7818609E-02  0.8045183E-01
        1   -1    0    0  501    0  0.00000000000E+00  0.00000000000E+00  0.17418823582E+04  0.17418823582E+04  0.50400001928E-02 0. -1.
       -1   -1    0    0    0  501  0.00000000000E+00  0.00000000000E+00 -0.20774162075E+04  0.20774162075E+04  0.50400001928E-02 0.  1.
    10030    2    1    2    0    0  0.00000000000E+00  0.00000000000E+00 -0.33553384924E+03  0.38192985657E+04  0.38045313207E+04 0.  0.
        5    1    3    3  502    0  0.17972374452E+04 -0.30724922738E+03 -0.71220771174E+03  0.19574796134E+04  0.46999998093E+01 0.  1.
       -5    1    3    3    0  502 -0.17972374452E+04  0.30724922738E+03  0.37667386250E+03  0.18618189523E+04  0.46999998093E+01 0. -1.
</event>
<event>
 5   0  0.1150235E-07  0.3803110E+04  0.7818609E-02  0.8045488E-01
        2   -1    0    0  501    0  0.00000000000E+00  0.00000000000E+00  0.20722443980E+04  0.20722443980E+04  0.25500000920E-02 0.  1.
       -2   -1    0    0    0  501  0.00000000000E+00  0.00000000000E+00 -0.17449255312E+04  0.17449255312E+04  0.25500000920E-02 0. -1.
    10030    2    1    2    0    0  0.00000000000E+00  0.00000000000E+00  0.32731886675E+03  0.38171699292E+04  0.38031103886E+04 0.  0.
        4    1    3    3  502    0  0.37893753126E+02 -0.13983050185E+04 -0.11292087451E+04  0.17977226884E+04  0.12699999809E+01 0. -1.
       -4    1    3    3    0  502 -0.37893753126E+02  0.13983050185E+04  0.14565276119E+04  0.20194472408E+04  0.12699999809E+01 0.  1.
</event>
<event>
 5   0  0.1193861E-07  0.3802530E+04  0.7818609E-02  0.8045612E-01
        2   -1    0    0  501    0  0.00000000000E+00  0.00000000000E+00  0.19980868564E+04  0.19980868564E+04  0.25500000920E-02 0. -1.
       -2   -1    0    0    0  501  0.00000000000E+00  0.00000000000E+00 -0.18091351136E+04  0.18091351136E+04  0.25500000920E-02 0.  1.
    10030    2    1    2    0    0  0.00000000000E+00  0.00000000000E+00  0.18895174277E+03  0.38072219701E+04  0.38025302587E+04 0.  0.
        3    1    3    3  502    0 -0.10190492831E+04  0.15937077929E+04 -0.96660458891E+02  0.18941249233E+04  0.10100000352E+00 0. -1.
       -3    1    3    3    0  502  0.10190492831E+04 -0.15937077929E+04  0.28561220166E+03  0.19130970468E+04  0.10100000352E+00 0.  1.
</event>
<event>
 5   0  0.3701250E-08  0.3791132E+04  0.7818609E-02  0.8048061E-01
        1   -1    0    0  501    0  0.00000000000E+00  0.00000000000E+00  0.15889859887E+04  0.15889859887E+04  0.50400001928E-02 0. -1.
       -1   -1    0    0    0  501  0.00000000000E+00  0.00000000000E+00 -0.22612981615E+04  0.22612981615E+04  0.50400001928E-02 0.  1.
    10030    2    1    2    0    0  0.00000000000E+00  0.00000000000E+00 -0.67231217274E+03  0.38502841502E+04  0.37911323348E+04 0.  0.
        3    1    3    3  502    0 -0.31572867835E+03  0.22976496412E+03  0.15476964179E+04  0.15961957114E+04  0.10100000352E+00 0. -1.
       -3    1    3    3    0  502  0.31572867835E+03 -0.22976496412E+03 -0.22200085906E+04  0.22540884388E+04  0.10100000352E+00 0.  1.
</event>
<event>
 5   0  0.7858367E-08  0.3807209E+04  0.7818609E-02  0.8044610E-01
       -2   -1    0    0    0  501  0.00000000000E+00  0.00000000000E+00  0.31198144684E+04  0.31198144684E+04  0.25500000920E-02 0. -1.
        2   -1    0    0  501    0  0.00000000000E+00  0.00000000000E+00 -0.11615148638E+04  0.11615148638E+04  0.25500000920E-02 0.  1.
    10030    2    1    2    0    0  0.00000000000E+00  0.00000000000E+00  0.19582996046E+04  0.42813293322E+04  0.38072094124E+04 0.  0.
        2    1    3    3  502    0  0.14721198339E+04  0.10763906551E+04  0.15929808266E+04  0.24214337821E+04  0.25500000920E-02 0.  1.
       -2    1    3    3    0  502 -0.14721198339E+04 -0.10763906551E+04  0.36531877800E+03  0.18598955500E+04  0.25500000920E-02 0. -1.
</event>
<event>
 5   0  0.1143283E-07  0.3782653E+04  0.7818609E-02  0.8049888E-01
       -2   -1    0    0    0  501  0.00000000000E+00  0.00000000000E+00  0.22929405612E+04  0.22929405612E+04  0.25500000920E-02 0. -1.
        2   -1    0    0  501    0  0.00000000000E+00  0.00000000000E+00 -0.15600560793E+04  0.15600560793E+04  0.25500000920E-02 0.  1.
    10030    2    1    2    0    0  0.00000000000E+00  0.00000000000E+00  0.73288448184E+03  0.38529966405E+04  0.37826529642E+04 0.  0.
        1    1    3    3  502    0  0.16685308544E+04 -0.14077055765E+03  0.12621727024E+04  0.20968766040E+04  0.50400001928E-02 0. -1.
       -1    1    3    3    0  502 -0.16685308544E+04  0.14077055765E+03 -0.52928822053E+03  0.17561200364E+04  0.50400001928E-02 0.  1.
</event>
<event>
 5   0  0.3701250E-08  0.3807406E+04  0.7818609E-02  0.8044568E-01
        1   -1    0    0  501    0  0.00000000000E+00  0.00000000000E+00  0.23560473008E+04  0.23560473008E+04  0.50400001928E-02 0.  1.
       -1   -1    0    0    0  501  0.00000000000E+00  0.00000000000E+00 -0.15382051806E+04  0.15382051806E+04  0.50400001928E-02 0. -1.
    10030    2    1    2    0    0  0.00000000000E+00  0.00000000000E+00  0.81784212028E+03  0.38942524814E+04  0.38074055018E+04 0.  0.
        1    1    3    3  502    0 -0.16611946248E+04 -0.30601440142E+03  0.13069411295E+04  0.21357217776E+04  0.50400001928E-02 0.  1.
       -1    1    3    3    0  502  0.16611946248E+04  0.30601440142E+03 -0.48909900918E+03  0.17585307038E+04  0.50400001928E-02 0. -1.
</event>
<event>
 5   0  0.1193861E-07  0.3784776E+04  0.7818609E-02  0.8049430E-01
        2   -1    0    0  501    0  0.00000000000E+00  0.00000000000E+00  0.25853108754E+04  0.25853108754E+04  0.25500000920E-02 0. -1.
       -2   -1    0    0    0  501  0.00000000000E+00  0.00000000000E+00 -0.13851844447E+04  0.13851844447E+04  0.25500000920E-02 0.  1.
    10030    2    1    2    0    0  0.00000000000E+00  0.00000000000E+00  0.12001264307E+04  0.39704953201E+04  0.37847760353E+04 0.  0.
        3    1    3    3  502    0  0.90511330907E+03  0.14836314804E+04 -0.18550742485E+03  0.17478001850E+04  0.10100000352E+00 0. -1.
       -3    1    3    3    0  502 -0.90511330907E+03 -0.14836314804E+04  0.13856338556E+04  0.22226951351E+04  0.10100000352E+00 0.  1.
</event>
<event>
 5   0  0.3701250E-08  0.3796507E+04  0.7818609E-02  0.8046905E-01
        1   -1    0    0  501    0  0.00000000000E+00  0.00000000000E+00  0.15689238697E+04  0.15689238697E+04  0.50400001928E-02 0. -1.
       -1   -1    0    0    0  501  0.00000000000E+00  0.00000000000E+00 -0.22967121376E+04  0.22967121376E+04  0.50400001928E-02 0.  1.
    10030    2    1    2    0    0  0.00000000000E+00  0.00000000000E+00 -0.72778826790E+03  0.38656360073E+04  0.37965070760E+04 0.  0.
        3    1    3    3  502    0 -0.65411816266E+03  0.17177481131E+04 -0.84669824260E+03  0.20237161548E+04  0.10100000352E+00 0.  1.
       -3    1    3    3    0  502  0.65411816266E+03 -0.17177481131E+04  0.11890997469E+03  0.18419198525E+04  0.10100000352E+00 0. -1.
</event>
<event>
 5   0  0.3889225E-08  0.3828862E+04  0.7818609E-02  0.8039989E-01
        1   -1    0    0  501    0  0.00000000000E+00  0.00000000000E+00  0.16874134138E+04  0.16874134138E+04  0.50400001928E-02 0. -1.
       -1   -1    0    0    0  501  0.00000000000E+00  0.00000000000E+00 -0.21719911276E+04  0.21719911276E+04  0.50400001928E-02 0.  1.
    10030    2    1    2    0    0  0.00000000000E+00  0.00000000000E+00 -0.48457771375E+03  0.38594045414E+04  0.38288624751E+04 0.  0.
        5    1    3    3  502    0  0.11470626608E+04  0.37840279921E+03  0.12548480063E+04  0.17417253042E+04  0.46999998093E+01 0. -1.
       -5    1    3    3    0  502 -0.11470626608E+04 -0.37840279921E+03 -0.17394257201E+04  0.21176792372E+04  0.46999998093E+01 0.  1.
</event>
<event>
 5   0  0.3701250E-08  0.3785898E+04  0.7818609E-02  0.8049188E-01
        1   -1    0    0  501    0  0.00000000000E+00  0.00000000000E+00  0.17781683576E+04  0.17781683576E+04  0.50400001928E-02 0.  1.
       -1   -1    0    0    0  501  0.00000000000E+00  0.00000000000E+00 -0.20151386742E+04  0.20151386742E+04  0.50400001928E-02 0. -1.
    10030    2    1    2    0    0  0.00000000000E+00  0.00000000000E+00 -0.23697031666E+03  0.37933070318E+04  0.37858979525E+04 0.  0.
        1    1    3    3  502    0  0.23658268161E+02 -0.46524285562E+03 -0.19568087728E+04  0.20114947680E+04  0.50400001928E-02 0. -1.
       -1    1    3    3    0  502 -0.23658268161E+02  0.46524285562E+03  0.17198384561E+04  0.17818122638E+04  0.50400001928E-02 0.  1.
</event>
<event>
 5   0  0.3701250E-08  0.3791381E+04  0.7818609E-02  0.8048007E-01
       -1   -1    0    0    0  501  0.00000000000E+00  0.00000000000E+00  0.20173347313E+04  0.20173347313E+04  0.50400001928E-02 0.  1.
        1   -1    0    0  501    0  0.00000000000E+00  0.00000000000E+00 -0.17813811552E+04  0.17813811552E+04  0.50400001928E-02 0. -1.
    10030    2    1    2    0    0  0.00000000000E+00  0.00000000000E+00  0.23595357608E+03  0.37987158864E+04  0.37913807901E+04 0.  0.
        4    1    3    3  502    0  0.85140290359E+03 -0.18951131185E+03  0.18043370338E+04  0.20041045846E+04  0.12699999809E+01 0.  1.
       -4    1    3    3    0  502 -0.85140290359E+03  0.18951131185E+03 -0.15683834577E+04  0.17946113019E+04  0.12699999809E+01 0. -1.
</event>
<event>
 5   0  0.1193861E-07  0.3791521E+04  0.7818609E-02  0.8047977E-01
       -2   -1    0    0    0  501  0.00000000000E+00  0.00000000000E+00  0.23090244852E+04  0.23090244852E+04  0.25500000920E-02 0. -1.
        2   -1    0    0  501    0  0.00000000000E+00  0.00000000000E+00 -0.15564613775E+04  0.15564613775E+04  0.25500000920E-02 0.  1.
    10030    2    1    2    0    0  0.00000000000E+00  0.00000000000E+00  0.75256310769E+03  0.38654858628E+04  0.37915207667E+04 0.  0.
        3    1    3    3  502    0 -0.99051643456E+03 -0.16125605711E+04  0.26260289624E+03  0.19106110787E+04  0.10100000352E+00 0. -1.
       -3    1    3    3    0  502  0.99051643456E+03  0.16125605711E+04  0.48996021145E+03  0.19548747841E+04  0.10100000352E+00 0.  1.
</event>
<event>
 5   0  0.3701250E-08  0.3804494E+04  0.7818609E-02  0.8045191E-01
        1   -1    0    0  501    0  0.00000000000E+00  0.00000000000E+00  0.21283238833E+04  0.21283238833E+04  0.50400001928E-02 0.  1.
       -1   -1    0    0    0  501  0.00000000000E+00  0.00000000000E+00 -0.17001851113E+04  0.17001851113E+04  0.50400001928E-02 0. -1.
    10030    2    1    2    0    0  0.00000000000E+00  0.00000000000E+00  0.42813877208E+03  0.38285089946E+04  0.38044944886E+04 0.  0.
        1    1    3    3  502    0 -0.62506801386E+03 -0.14588110750E+04  0.12693568367E+04  0.20322663588E+04  0.50400001928E-02 0.  1.
       -1    1    3    3    0  502  0.62506801386E+03  0.14588110750E+04 -0.84121806458E+03  0.17962426358E+04  0.50400001928E-02 0. -1.
</event>
<event>
 5   0  0.3701250E-08  0.3793550E+04  0.7818609E-02  0.8047540E-01
       -1   -1    0    0    0  501  0.00000000000E+00  0.00000000000E+00  0.15693796663E+04  0.15693796663E+04  0.50400001928E-02 0. -1.
        1   -1    0    0  501    0  0.00000000000E+00  0.00000000000E+00 -0.22924698652E+04  0.22924698652E+04  0.50400001928E-02 0.  1.
    10030    2    1    2    0    0  0.00000000000E+00  0.00000000000E+00 -0.72309019886E+03  0.38618495315E+04  0.37935501010E+04 0.  0.
        2    1    3    3  502    0 -0.95376778289E+03 -0.37382873866E+03  0.12635461688E+04  0.16266437318E+04  0.25500000920E-02 0. -1.
       -2    1    3    3    0  502  0.95376778289E+03  0.37382873866E+03 -0.19866363677E+04  0.22352057997E+04  0.25500000920E-02 0.  1.
</event>
<event>
 5   0  0.3701250E-08  0.3771234E+04  0.7818609E-02  0.8052356E-01
        1   -1    0    0  501    0  0.00000000000E+00  0.00000000000E+00  0.23318524450E+04  0.23318524450E+04  0.50400001928E-02 0.  1.
       -1   -1    0    0    0  501  0.00000000000E+00  0.00000000000E+00 -0.15247752390E+04  0.15247752390E+04  0.50400001928E-02 0. -1.
    10030    2    1    2    0    0  0.00000000000E+00  0.00000000000E+00  0.80707720606E+03  0.38566276840E+04  0.37712336810E+04 0.  0.
        3    1    3    3  502    0  0.32991046087E+03  0.11599452851E+04 -0.10788490128E+04  0.16180943048E+04  0.10100000352E+00 0. -1.
       -3    1    3    3    0  502 -0.32991046087E+03 -0.11599452851E+04  0.18859262188E+04  0.22385333792E+04  0.10100000352E+00 0.  1.
</event>
<event>
 5   0  0.1150235E-07  0.3768509E+04  0.7818609E-02  0.8052947E-01
       -2   -1    0    0    0  501  0.00000000000E+00  0.00000000000E+00  0.14986766902E+04  0.14986766902E+04  0.25500000920E-02 0. -1.
        2   -1    0    0  501    0  0.00000000000E+00  0.00000000000E+00 -0.23690329595E+04  0.23690329595E+04  0.25500000920E-02 0.  1.
    10030    2    1    2    0    0  0.00000000000E+00  0.00000000000E+00 -0.87035626929E+03  0.38677096497E+04  0.37685087102E+04 0.  0.
        4    1    3    3  502    0  0.73409012773E+03 -0.17225467919E+04 -0.21902283215E+03  0.18852130860E+04  0.12699999809E+01 0.  1.
       -4    1    3    3    0  502 -0.73409012773E+03  0.17225467919E+04 -0.65133343714E+03  0.19824965637E+04  0.12699999809E+01 0. -1.
</event>
<event>
 5   0  0.1143283E-07  0.3799202E+04  0.7818609E-02  0.8046326E-01
       -2   -1    0    0    0  501  0.00000000000E+00  0.00000000000E+00  0.20940450492E+04  0.20940450492E+04  0.25500000920E-02 0. -1.
        2   -1    0    0  501    0  0.00000000000E+00  0.00000000000E+00 -0.17232123097E+04  0.17232123097E+04  0.25500000920E-02 0.  1.
    10030    2    1    2    0    0  0.00000000000E+00  0.00000000000E+00  0.37083273953E+03  0.38172573589E+04  0.37992021299E+04 0.  0.
        1    1    3    3  502    0 -0.81566067165E+03 -0.78783196918E+03 -0.13458020728E+04  0.17598763485E+04  0.50400001928E-02 0.  1.
       -1    1    3    3    0  502  0.81566067165E+03  0.78783196918E+03  0.17166348123E+04  0.20573810104E+04  0.50400001928E-02 0. -1.
</event>
<event>
 5   0  0.3701250E-08  0.3778170E+04  0.7818609E-02  0.8050856E-01
        1   -1    0    0  501    0  0.00000000000E+00  0.00000000000E+00  0.17778248351E+04  0.17778248351E+04  0.50400001928E-02 0. -1.
       -1   -1    0    0    0  501  0.00000000000E+00  0.00000000000E+00 -0.20073076430E+04  0.20073076430E+04  0.50400001928E-02 0.  1.
    10030    2    1    2    0    0  0.00000000000E+00  0.00000000000E+00 -0.22948280785E+03  0.37851324781E+04  0.37781695989E+04 0.  0.
        4    1    3    3  502    0  0.11921503980E+04 -0.85331195116E+03 -0.13082706095E+04  0.19649268328E+04  0.12699999809E+01 0.  1.
       -4    1    3    3    0  502 -0.11921503980E+04  0.85331195116E+03  0.10787878017E+04  0.18202056454E+04  0.12699999809E+01 0. -1.
</event>
<event>
 5   0  0.1174870E-07  0.3797845E+04  0.7818609E-02  0.8046618E-01
        2   -1    0    0  501    0  0.00000000000E+00  0.00000000000E+00  0.22181073736E+04  0.22181073736E+04  0.25500000920E-02 0. -1.
       -2   -1    0    0    0  501  0.00000000000E+00  0.00000000000E+00 -0.16256680036E+04  0.16256680036E+04  0.25500000920E-02 0.  1.
    10030    2    1    2    0    0  0.00000000000E+00  0.00000000000E+00  0.59243937000E+03  0.38437753772E+04  0.37978447498E+04 0.  0.
        5    1    3    3  502    0  0.97172300398E+03  0.15643262259E+04  0.76498629491E+03  0.19941384754E+04  0.46999998093E+01 0.  1.
       -5    1    3    3    0  502 -0.97172300398E+03 -0.15643262259E+04 -0.17254692491E+03  0.18496369019E+04  0.46999998093E+01 0. -1.
</event>
<event>
 5   0  0.3701250E-08  0.3802126E+04  0.7818609E-02  0.8045699E-01
        1   -1    0    0  501    0  0.00000000000E+00  0.00000000000E+00  0.17064910359E+04  0.17064910359E+04  0.50400001928E-02 0.  1.
       -1   -1    0    0    0  501  0.00000000000E+00  0.00000000000E+00 -0.21178202817E+04  0.21178202817E+04  0.50400001928E-02 0. -1.
    10030    2    1    2    0    0  0.00000000000E+00  0.00000000000E+00 -0.41132924580E+03  0.38243113176E+04  0.38021264189E+04 0.  0.
        2    1    3    3  502    0  0.91651457678E+03  0.51307513964E+03 -0.17994594842E+04  0.20835785331E+04  0.25500000920E-02 0. -1.
       -2    1    3    3    0  502 -0.91651457678E+03 -0.51307513964E+03  0.13881302384E+04  0.17407327845E+04  0.25500000920E-02 0.  1.
</event>
<event>
 5   0  0.3701250E-08  0.3782332E+04  0.7818609E-02  0.8049957E-01
        1   -1    0    0  501    0  0.00000000000E+00  0.00000000000E+00  0.18097984249E+04  0.18097984249E+04  0.50400001928E-02 0. -1.
       -1   -1    0    0    0  501  0.00000000000E+00  0.00000000000E+00 -0.19761914623E+04  0.19761914623E+04  0.50400001928E-02 0.  1.
    10030    2    1    2    0    0  0.00000000000E+00  0.00000000000E+00 -0.16639303745E+03  0.37859898872E+04  0.37823316596E+04 0.  0.
        1    1    3    3  502    0 -0.98669738554E+02  0.12683420732E+04  0.13174713084E+04  0.18314360432E+04  0.50400001928E-02 0. -1.
       -1    1    3    3    0  502  0.98669738554E+02 -0.12683420732E+04 -0.14838643459E+04  0.19545538440E+04  0.50400001928E-02 0.  1.
</event>
<event>
 5   0  0.3889225E-08  0.3840700E+04  0.7818609E-02  0.8037477E-01
       -1   -1    0    0    0  501  0.00000000000E+00  0.00000000000E+00  0.16166758296E+04  0.16166758296E+04  0.50400001928E-02 0.  1.
        1   -1    0    0  501    0  0.00000000000E+00  0.00000000000E+00 -0.22810657609E+04  0.22810657609E+04  0.50400001928E-02 0. -1.
    10030    2    1    2    0    0  0.00000000000E+00  0.00000000000E+00 -0.66438993123E+03  0.38977415905E+04  0.38406998745E+04 0.  0.
        5    1    3    3  502    0 -0.12064247542E+04 -0.13586742581E+04 -0.96292796837E+03  0.20563824521E+04  0.46999998093E+01 0. -1.
       -5    1    3    3    0  502  0.12064247542E+04  0.13586742581E+04  0.29853803714E+03  0.18413591384E+04  0.46999998093E+01 0.  1.
</event>
<event>
 5   0  0.3701250E-08  0.3791722E+04  0.7818609E-02  0.8047934E-01
       -1   -1    0    0    0  501  0.00000000000E+00  0.00000000000E+00  0.15665382955E+04  0.15665382955E+04  0.50400001928E-02 0. -1.
        1   -1    0    0  501    0  0.00000000000E+00  0.00000000000E+00 -0.22944150535E+04  0.22944150535E+04  0.50400001928E-02 0.  1.
    10030    2    1    2    0    0  0.00000000000E+00  0.00000000000E+00 -0.72787675794E+03  0.38609533490E+04  0.37917220611E+04 0.  0.
        4    1    3    3  502    0 -0.24804644193E+03 -0.60098544966E+03 -0.21773470200E+04  0.22723450897E+04  0.12699999809E+01 0.  1.
       -4    1    3    3    0  502  0.24804644193E+03  0.60098544966E+03  0.14494702621E+04  0.15886082593E+04  0.12699999809E+01 0. -1.
</event>
<event>
 5   0  0.1150235E-07  0.3819696E+04  0.7818609E-02  0.8041941E-01
        2   -1    0    0  501    0  0.00000000000E+00  0.00000000000E+00  0.26051541518E+04  0.26051541518E+04  0.25500000920E-02 0.  1.
       -2   -1    0    0    0  501  0.00000000000E+00  0.00000000000E+00 -0.14001162072E+04  0.14001162072E+04  0.25500000920E-02 0. -1.
    10030    2    1    2    0    0  0.00000000000E+00  0.00000000000E+00  0.12050379446E+04  0.40052703590E+04  0.38196955639E+04 0.  0.
        4    1    3    3  502    0  0.26880719927E+03  0.17139085461E+04  0.14399278383E+04  0.22545805835E+04  0.12699999809E+01 0.  1.
       -4    1    3    3    0  502 -0.26880719927E+03 -0.17139085461E+04 -0.23488989378E+03  0.17506897755E+04  0.12699999809E+01 0. -1.
</event>
<event>
 5   0  0.3701250E-08  0.3787988E+04  0.7818609E-02  0.8048738E-01
        3   -1    0    0  501    0  0.00000000000E+00  0.00000000000E+00  0.22196416546E+04  0.22196416569E+04  0.10100000352E+00 0.  1.
       -3   -1    0    0    0  501  0.00000000000E+00  0.00000000000E+00 -0.16161225781E+04  0.16161225812E+04  0.10100000352E+00 0. -1.
    10030    2    1    2    0    0  0.00000000000E+00  0.00000000000E+00  0.60351907657E+03  0.38357642381E+04  0.37879878583E+04 0.  0.
        3    1    3    3  502    0  0.11558936094E+02  0.18843232223E+04  0.10855109468E+03  0.18874827060E+04  0.10100000352E+00 0.  1.
       -3    1    3    3    0  502 -0.11558936094E+02 -0.18843232223E+04  0.49496798189E+03  0.19482815321E+04  0.10100000352E+00 0. -1.
</event>
<event>
 5   0  0.7858367E-08  0.3801281E+04  0.7818609E-02  0.8045880E-01
        2   -1    0    0  501    0  0.00000000000E+00  0.00000000000E+00  0.12435386716E+04  0.12435386716E+04  0.25500000920E-02 0.  1.
       -2   -1    0    0    0  501  0.00000000000E+00  0.00000000000E+00 -0.29049636451E+04  0.29049636451E+04  0.25500000920E-02 0. -1.
    10030    2    1    2    0    0  0.00000000000E+00  0.00000000000E+00 -0.16614249736E+04  0.41485023167E+04  0.38012811694E+04 0.  0.
        2    1    3    3  502    0  0.93670255279E+03  0.28275101099E+03  0.94756579791E+03  0.13620722257E+04  0.25500000920E-02 0.  1.
       -2    1    3    3    0  502 -0.93670255279E+03 -0.28275101099E+03 -0.26089907715E+04  0.27864300910E+04  0.25500000920E-02 0. -1.
</event>
<event>
 5   0  0.3701250E-08  0.3801976E+04  0.7818609E-02  0.8045731E-01
        1   -1    0    0  501    0  0.00000000000E+00  0.00000000000E+00  0.16055978444E+04  0.16055978445E+04  0.50400001928E-02 0.  1.
       -1   -1    0    0    0  501  0.00000000000E+00  0.00000000000E+00 -0.22507229620E+04  0.22507229620E+04  0.50400001928E-02 0. -1.
    10030    2    1    2    0    0  0.00000000000E+00  0.00000000000E+00 -0.64512511760E+03  0.38563208065E+04  0.38019762947E+04 0.  0.
        1    1    3    3  502    0  0.13355380525E+04  0.43237580398E+03 -0.16227372967E+04  0.21456670431E+04  0.50400001928E-02 0. -1.
       -1    1    3    3    0  502 -0.13355380525E+04 -0.43237580398E+03  0.97761217913E+03  0.17106537634E+04  0.50400001928E-02 0.  1.
</event>
<event>
 5   0  0.3701250E-08  0.3800359E+04  0.7818609E-02  0.8046078E-01
       -1   -1    0    0    0  501  0.00000000000E+00  0.00000000000E+00  0.10106241096E+04  0.10106241096E+04  0.50400001928E-02 0. -1.
        1   -1    0    0  501    0  0.00000000000E+00  0.00000000000E+00 -0.35727254056E+04  0.35727254056E+04  0.50400001928E-02 0.  1.
    10030    2    1    2    0    0  0.00000000000E+00  0.00000000000E+00 -0.25621012960E+04  0.45833495152E+04  0.38003591576E+04 0.  0.
        2    1    3    3  502    0  0.76105442028E+03 -0.64510319508E+03 -0.32314376368E+04  0.33819448789E+04  0.25500000920E-02 0.  1.
       -2    1    3    3    0  502 -0.76105442028E+03  0.64510319508E+03  0.66933634083E+03  0.12014046363E+04  0.25500000920E-02 0. -1.
</event>
<event>
 5   0  0.1150235E-07  0.3799996E+04  0.7818609E-02  0.8046156E-01
       -2   -1    0    0    0  501  0.00000000000E+00  0.00000000000E+00  0.19434501925E+04  0.19434501925E+04  0.25500000920E-02 0.  1.
        2   -1    0    0  501    0  0.00000000000E+00  0.00000000000E+00 -0.18575169809E+04  0.18575169809E+04  0.25500000920E-02 0. -1.
    10030    2    1    2    0    0  0.00000000000E+00  0.00000000000E+00  0.85933211514E+02  0.38009671734E+04  0.37999956495E+04 0.  0.
        4    1    3    3  502    0  0.10135284556E+04  0.10600745180E+04  0.12511629174E+04  0.19277987895E+04  0.12699999809E+01 0.  1.
       -4    1    3    3    0  502 -0.10135284556E+04 -0.10600745180E+04 -0.11652297059E+04  0.18731683839E+04  0.12699999809E+01 0. -1.
</event>
<event>
 5   0  0.1150235E-07  0.3802049E+04  0.7818609E-02  0.8045715E-01
        2   -1    0    0  501    0  0.00000000000E+00  0.00000000000E+00  0.28077298660E+04  0.28077298660E+04  0.25500000920E-02 0.  1.
       -2   -1    0    0    0  501  0.00000000000E+00  0.00000000000E+00 -0.12871231206E+04  0.12871231206E+04  0.25500000920E-02 0. -1.
    10030    2    1    2    0    0  0.00000000000E+00  0.00000000000E+00  0.15206067455E+04  0.40948529866E+04  0.38020489355E+04 0.  0.
        4    1    3    3  502    0 -0.15701274169E+03 -0.18569185786E+04  0.11648541560E+04  0.21976547559E+04  0.12699999809E+01 0. -1.
       -4    1    3    3    0  502  0.15701274169E+03  0.18569185786E+04  0.35575258945E+03  0.18971982307E+04  0.12699999809E+01 0.  1.
</event>
<event>
 5   0  0.1193861E-07  0.3805017E+04  0.7818609E-02  0.8045079E-01
       -2   -1    0    0    0  501  0.00000000000E+00  0.00000000000E+00  0.22113284333E+04  0.22113284333E+04  0.25500000920E-02 0. -1.
        2   -1    0    0  501    0  0.00000000000E+00  0.00000000000E+00 -0.16368159816E+04  0.16368159816E+04  0.25500000920E-02 0.  1.
    10030    2    1    2    0    0  0.00000000000E+00  0.00000000000E+00  0.57451245163E+03  0.38481444149E+04  0.38050165415E+04 0.  0.
        3    1    3    3  502    0  0.62865467721E+03 -0.57907943462E+03 -0.14317143180E+04  0.16674368334E+04  0.10100000352E+00 0.  1.
       -3    1    3    3    0  502 -0.62865467721E+03  0.57907943462E+03  0.20062267696E+04  0.21807075815E+04  0.10100000352E+00 0. -1.
</event>
<event>
 5   0  0.1143283E-07  0.3770993E+04  0.7818609E-02  0.8052408E-01
       -2   -1    0    0    0  501  0.00000000000E+00  0.00000000000E+00  0.18158871761E+04  0.18158871761E+04  0.25500000920E-02 0.  1.
        2   -1    0    0  501    0  0.00000000000E+00  0.00000000000E+00 -0.19577744988E+04  0.19577744988E+04  0.25500000920E-02 0. -1.
    10030    2    1    2    0    0  0.00000000000E+00  0.00000000000E+00 -0.14188732277E+03  0.37736616749E+04  0.37709932941E+04 0.  0.
        1    1    3    3  502    0 -0.59989737759E+02  0.10022673752E+04  0.15261050895E+04  0.18267828016E+04  0.50400001928E-02 0.  1.
       -1    1    3    3    0  502  0.59989737759E+02 -0.10022673752E+04 -0.16679924122E+04  0.19468788733E+04  0.50400001928E-02 0. -1.
</event>
<event>
 5   0  0.3889225E-08  0.3815065E+04  0.7818609E-02  0.8042930E-01
       -1   -1    0    0    0  501  0.00000000000E+00  0.00000000000E+00  0.16156754944E+04  0.16156754944E+04  0.50400001928E-02 0.  1.
        1   -1    0    0  501    0  0.00000000000E+00  0.00000000000E+00 -0.22521103002E+04  0.22521103002E+04  0.50400001928E-02 0. -1.
    10030    2    1    2    0    0  0.00000000000E+00  0.00000000000E+00 -0.63643480582E+03  0.38677857946E+04  0.38150645723E+04 0.  0.
        5    1    3    3  502    0  0.14254132844E+04  0.86009879059E+03 -0.12622591507E+04  0.20892326856E+04  0.46999998093E+01 0. -1.
       -5    1    3    3    0  502 -0.14254132844E+04 -0.86009879059E+03  0.62582434489E+03  0.17785531090E+04  0.46999998093E+01 0.  1.
</event>
<event>
 5   0  0.1193861E-07  0.3813317E+04  0.7818609E-02  0.8043303E-01
        2   -1    0    0  501    0  0.00000000000E+00  0.00000000000E+00  0.13048424197E+04  0.13048424197E+04  0.25500000920E-02 0. -1.
       -2   -1    0    0    0  501  0.00000000000E+00  0.00000000000E+00 -0.27860431540E+04  0.27860431540E+04  0.25500000920E-02 0.  1.
    10030    2    1    2    0    0  0.00000000000E+00  0.00000000000E+00 -0.14812007343E+04  0.40908855737E+04  0.38133173435E+04 0.  0.
        3    1    3    3  502    0 -0.16397221125E+04  0.48430609841E+03  0.16468768853E+03  0.17176620879E+04  0.10100000352E+00 0. -1.
       -3    1    3    3    0  502  0.16397221125E+04 -0.48430609841E+03 -0.16458884228E+04  0.23732234858E+04  0.10100000352E+00 0.  1.
</event>
<event>
 5   0  0.1174870E-07  0.3787975E+04  0.7818609E-02  0.8048740E-01
       -2   -1    0    0    0  501  0.00000000000E+00  0.00000000000E+00  0.25581781902E+04  0.25581781902E+04  0.25500000920E-02 0.  1.
        2   -1    0    0  501    0  0.00000000000E+00  0.00000000000E+00 -0.14022433356E+04  0.14022433356E+04  0.25500000920E-02 0. -1.
    10030    2    1    2    0    0  0.00000000000E+00  0.00000000000E+00  0.11559348546E+04  0.39604215258E+04  0.37879748249E+04 0.  0.
        5    1    3    3  502    0 -0.55953776151E+03 -0.17867363058E+04  0.27920134514E+03  0.18930094068E+04  0.46999998093E+01 0. -1.
       -5    1    3    3    0  502  0.55953776151E+03  0.17867363058E+04  0.87673350948E+03  0.20674121190E+04  0.46999998093E+01 0.  1.
</event>
<event>
 5   0  0.1193861E-07  0.3744307E+04  0.7818609E-02  0.8058213E-01
        2   -1    0    0  501    0  0.00000000000E+00  0.00000000000E+00  0.23145704270E+04  0.23145704270E+04  0.25500000920E-02 0. -1.
       -2   -1    0    0    0  501  0.00000000000E+00  0.00000000000E+00 -0.15143023982E+04  0.15143023982E+04  0.25500000920E-02 0.  1.
    10030    2    1    2    0    0  0.00000000000E+00  0.00000000000E+00  0.80026802887E+03  0.38288728252E+04  0.37443074385E+04 0.  0.
        3    1    3    3  502    0  0.89127782165E+03 -0.11983334225E+04 -0.75433706361E+03  0.16731418238E+04  0.10100000352E+00 0.  1.
       -3    1    3    3    0  502 -0.89127782165E+03  0.11983334225E+04  0.15546050925E+04  0.21557310014E+04  0.10100000352E+00 0. -1.
</event>
<event>
 5   0  0.3701250E-08  0.3805927E+04  0.7818609E-02  0.8044884E-01
       -1   -1    0    0    0  501  0.00000000000E+00  0.00000000000E+00  0.21891956125E+04  0.21891956125E+04  0.50400001928E-02 0.  1.
        1   -1    0    0  501    0  0.00000000000E+00  0.00000000000E+00 -0.16541557436E+04  0.16541557436E+04  0.50400001928E-02 0. -1.
    10030    2    1    2    0    0  0.00000000000E+00  0.00000000000E+00  0.53503986888E+03  0.38433513560E+04  0.38059272175E+04 0.  0.
        1    1    3    3  502    0  0.15425495913E+04 -0.30594419943E+03  0.13496019014E+04  0.20723142588E+04  0.50400001928E-02 0.  1.
       -1    1    3    3    0  502 -0.15425495913E+04  0.30594419943E+03 -0.81456203254E+03  0.17710370972E+04  0.50400001928E-02 0. -1.
</event>
<event>
 5   0  0.3701250E-08  0.3853810E+04  0.7818609E-02  0.8034705E-01
        1   -1    0    0  501    0  0.00000000000E+00  0.00000000000E+00  0.19736156714E+04  0.19736156715E+04  0.50400001928E-02 0. -1.
       -1   -1    0    0    0  501  0.00000000000E+00  0.00000000000E+00 -0.18812996159E+04  0.18812996159E+04  0.50400001928E-02 0.  1.
    10030    2    1    2    0    0  0.00000000000E+00  0.00000000000E+00  0.92316055527E+02  0.38549152874E+04  0.38538097538E+04 0.  0.
        2    1    3    3  502    0  0.31270507792E+03 -0.10675106357E+04  0.16200130160E+04  0.19651477286E+04  0.25500000920E-02 0. -1.
       -2    1    3    3    0  502 -0.31270507792E+03  0.10675106357E+04 -0.15276969605E+04  0.18897675588E+04  0.25500000920E-02 0.  1.
</event>
<event>
 5   0  0.3701250E-08  0.3809792E+04  0.7818609E-02  0.8044057E-01
        1   -1    0    0  501    0  0.00000000000E+00  0.00000000000E+00  0.12588231005E+04  0.12588231005E+04  0.50400001928E-02 0.  1.
       -1   -1    0    0    0  501  0.00000000000E+00  0.00000000000E+00 -0.28825572509E+04  0.28825572509E+04  0.50400001928E-02 0. -1.
    10030    2    1    2    0    0  0.00000000000E+00  0.00000000000E+00 -0.16237341504E+04  0.41413803515E+04  0.38097924648E+04 0.  0.
        3    1    3    3  502    0  0.70896031741E+03  0.30664818144E+03  0.10809401259E+04  0.13285666730E+04  0.10100000352E+00 0.  1.
       -3    1    3    3    0  502 -0.70896031741E+03 -0.30664818144E+03 -0.27046742763E+04  0.28128136785E+04  0.10100000352E+00 0. -1.
</event>
<event>
 5   0  0.3701250E-08  0.3801283E+04  0.7818609E-02  0.8045880E-01
        1   -1    0    0  501    0  0.00000000000E+00  0.00000000000E+00  0.16184393251E+04  0.16184393251E+04  0.50400001928E-02 0. -1.
       -1   -1    0    0    0  501  0.00000000000E+00  0.00000000000E+00 -0.22320503277E+04  0.22320503277E+04  0.50400001928E-02 0.  1.
    10030    2    1    2    0    0  0.00000000000E+00  0.00000000000E+00 -0.61361100266E+03  0.38504896528E+04  0.38012829550E+04 0.  0.
        3    1    3    3  502    0  0.12625350048E+04  0.14204321832E+04 -0.27787372761E+03  0.19206342817E+04  0.10100000352E+00 0. -1.
       -3    1    3    3    0  502 -0.12625350048E+04 -0.14204321832E+04 -0.33573727505E+03  0.19298553711E+04  0.10100000352E+00 0.  1.
</event>
<event>
 5   0  0.7858367E-08  0.3775659E+04  0.7818609E-02  0.8051399E-01
       -2   -1    0    0    0  501  0.00000000000E+00  0.00000000000E+00  0.23545989435E+04  0.23545989435E+04  0.25500000920E-02 0.  1.
        2   -1    0    0  501    0  0.00000000000E+00  0.00000000000E+00 -0.15135908700E+04  0.15135908700E+04  0.25500000920E-02 0. -1.
    10030    2    1    2    0    0  0.00000000000E+00  0.00000000000E+00  0.84100807353E+03  0.38681898134E+04  0.37756585986E+04 0.  0.
        2    1    3    3  502    0  0.37842340843E+03 -0.18477691220E+04  0.33825926626E+03  0.19162135412E+04  0.25500000920E-02 0.  1.
       -2    1    3    3    0  502 -0.37842340843E+03  0.18477691220E+04  0.50274880727E+03  0.19519762723E+04  0.25500000920E-02 0. -1.
</event>
<event>
 5   0  0.3701250E-08  0.3792608E+04  0.7818609E-02  0.8047743E-01
       -1   -1    0    0    0  501  0.00000000000E+00  0.00000000000E+00  0.21597427214E+04  0.21597427214E+04  0.50400001928E-02 0.  1.
        1   -1    0    0  501    0  0.00000000000E+00  0.00000000000E+00 -0.16649987172E+04  0.16649987172E+04  0.50400001928E-02 0. -1.
    10030    2    1    2    0    0  0.00000000000E+00  0.00000000000E+00  0.49474400415E+03  0.38247414386E+04  0.37926080001E+04 0.  0.
        3    1    3    3  502    0 -0.13961300495E+04  0.72453886930E+03 -0.82076820046E+03  0.17742029584E+04  0.10100000352E+00 0. -1.
       -3    1    3    3    0  502  0.13961300495E+04 -0.72453886930E+03  0.13155122046E+04  0.20505384803E+04  0.10100000352E+00 0.  1.
</event>
<event>
 5   0  0.1174870E-07  0.3809838E+04  0.7818609E-02  0.8044047E-01
       -2   -1    0    0    0  501  0.00000000000E+00  0.00000000000E+00  0.14296290349E+04  0.14296290349E+04  0.25500000920E-02 0.  1.
        2   -1    0    0  501    0  0.00000000000E+00  0.00000000000E+00 -0.25382223529E+04  0.25382223529E+04  0.25500000920E-02 0. -1.
    10030    2    1    2    0    0  0.00000000000E+00  0.00000000000E+00 -0.11085933179E+04  0.39678513878E+04  0.38098379875E+04 0.  0.
        5    1    3    3  502    0  0.10042201439E+04  0.74703538015E+03 -0.20498833015E+04  0.24017834200E+04  0.46999998093E+01 0. -1.
       -5    1    3    3    0  502 -0.10042201439E+04 -0.74703538015E+03  0.94128998358E+03  0.15660679678E+04  0.46999998093E+01 0.  1.
</event>
<event>
 5   0  0.3701250E-08  0.3815576E+04  0.7818609E-02  0.8042821E-01
       -1   -1    0    0    0  501  0.00000000000E+00  0.00000000000E+00  0.18234357400E+04  0.18234357401E+04  0.50400001928E-02 0. -1.
        1   -1    0    0  501    0  0.00000000000E+00  0.00000000000E+00 -0.19960423656E+04  0.19960423656E+04  0.50400001928E-02 0.  1.
    10030    2    1    2    0    0  0.00000000000E+00  0.00000000000E+00 -0.17260662556E+03  0.38194781057E+04  0.38155759660E+04 0.  0.
        1    1    3    3  502    0  0.80996992590E+03  0.14643773076E+04  0.83071368231E+03  0.18682979960E+04  0.50400001928E-02 0. -1.
       -1    1    3    3    0  502 -0.80996992590E+03 -0.14643773076E+04 -0.10033203079E+04  0.19511801096E+04  0.50400001928E-02 0.  1.
</event>
<event>
 5   0  0.1150235E-07  0.3794556E+04  0.7818609E-02  0.8047324E-01
       -2   -1    0    0    0  501  0.00000000000E+00  0.00000000000E+00  0.20024421796E+04  0.20024421796E+04  0.25500000920E-02 0.  1.
        2   -1    0    0  501    0  0.00000000000E+00  0.00000000000E+00 -0.17976366944E+04  0.17976366944E+04  0.25500000920E-02 0. -1.
    10030    2    1    2    0    0  0.00000000000E+00  0.00000000000E+00  0.20480548520E+03  0.38000788740E+04  0.37945558583E+04 0.  0.
        4    1    3    3  502    0 -0.15429849549E+04 -0.41247025572E+02  0.12072573894E+04  0.19595856463E+04  0.12699999809E+01 0. -1.
       -4    1    3    3    0  502  0.15429849549E+04  0.41247025572E+02 -0.10024519042E+04  0.18404932277E+04  0.12699999809E+01 0.  1.
</event>
<event>
 5   0  0.7858367E-08  0.3804973E+04  0.7818609E-02  0.8045088E-01
        2   -1    0    0  501    0  0.00000000000E+00  0.00000000000E+00  0.11123362716E+04  0.11123362716E+04  0.25500000920E-02 0. -1.
       -2   -1    0    0    0  501  0.00000000000E+00  0.00000000000E+00 -0.32539217949E+04  0.32539217949E+04  0.25500000920E-02 0.  1.
    10030    2    1    2    0    0  0.00000000000E+00  0.00000000000E+00 -0.21415855233E+04  0.43662580664E+04  0.38049731864E+04 0.  0.
        2    1    3    3  502    0  0.12451439289E+04  0.13223558995E+03 -0.27144173118E+04  0.29893027611E+04  0.25500000920E-02 0.  1.
       -2    1    3    3    0  502 -0.12451439289E+04 -0.13223558995E+03  0.57283178848E+03  0.13769553053E+04  0.25500000920E-02 0. -1.
</event>
<event>
 5   0  0.3701250E-08  0.3842223E+04  0.7818609E-02  0.8037154E-01
        1   -1    0    0  501    0  0.00000000000E+00  0.00000000000E+00  0.15358490881E+04  0.15358490881E+04  0.50400001928E-02 0. -1.
       -1   -1    0    0    0  501  0.00000000000E+00  0.00000000000E+00 -0.24030161322E+04  0.24030161322E+04  0.50400001928E-02 0.  1.
    10030    2    1    2    0    0  0.00000000000E+00  0.00000000000E+00 -0.86716704412E+03  0.39388652204E+04  0.38422233852E+04 0.  0.
        3    1    3    3  502    0  0.30824243041E+03 -0.73988030409E+03  0.13562500557E+04  0.15753889945E+04  0.10100000352E+00 0. -1.
       -3    1    3    3    0  502 -0.30824243041E+03  0.73988030409E+03 -0.22234170998E+04  0.23634762259E+04  0.10100000352E+00 0.  1.
</event>
<event>
 5   0  0.1143283E-07  0.3805100E+04  0.7818609E-02  0.8045061E-01
       -2   -1    0    0    0  501  0.00000000000E+00  0.00000000000E+00  0.19720751233E+04  0.19720751233E+04  0.25500000920E-02 0.  1.
        2   -1    0    0  501    0  0.00000000000E+00  0.00000000000E+00 -0.18354763207E+04  0.18354763207E+04  0.25500000920E-02 0. -1.
    10030    2    1    2    0    0  0.00000000000E+00  0.00000000000E+00  0.13659880263E+03  0.38075514439E+04  0.38051003621E+04 0.  0.
        1    1    3    3  502    0  0.41356154364E+03  0.64167433538E+03  0.18120975124E+04  0.19663358049E+04  0.50400001928E-02 0. -1.
       -1    1    3    3    0  502 -0.41356154364E+03 -0.64167433538E+03 -0.16754987098E+04  0.18412156391E+04  0.50400001928E-02 0.  1.
</event>
<event>
 5   0  0.3701250E-08  0.3786346E+04  0.7818609E-02  0.8049091E-01
        1   -1    0    0  501    0  0.00000000000E+00  0.00000000000E+00  0.26856399250E+04  0.26856399250E+04  0.50400001928E-02 0.  1.
       -1   -1    0    0    0  501  0.00000000000E+00  0.00000000000E+00 -0.13345440429E+04  0.13345440429E+04  0.50400001928E-02 0. -1.
    10030    2    1    2    0    0  0.00000000000E+00  0.00000000000E+00  0.13510958821E+04  0.40201839679E+04  0.37863463989E+04 0.  0.
        1    1    3    3  502    0 -0.52935088080E+03 -0.14797239909E+04 -0.44525294374E+03  0.16334153263E+04  0.50400001928E-02 0. -1.
       -1    1    3    3    0  502  0.52935088080E+03  0.14797239909E+04  0.17963488259E+04  0.23867686416E+04  0.50400001928E-02 0.  1.
</event>
<event>
 5   0  0.3701250E-08  0.3798208E+04  0.7818609E-02  0.8046540E-01
       -1   -1    0    0    0  501  0.00000000000E+00  0.00000000000E+00  0.23812635234E+04  0.23812635234E+04  0.50400001928E-02 0.  1.
        1   -1    0    0  501    0  0.00000000000E+00  0.00000000000E+00 -0.15145723333E+04  0.15145723333E+04  0.50400001928E-02 0. -1.
    10030    2    1    2    0    0  0.00000000000E+00  0.00000000000E+00  0.86669119003E+03  0.38958358567E+04  0.37982079200E+04 0.  0.
        3    1    3    3  502    0  0.13088461645E+04  0.13579896131E+04  0.20541362805E+03  0.18972108054E+04  0.10100000352E+00 0. -1.
       -3    1    3    3    0  502 -0.13088461645E+04 -0.13579896131E+04  0.66127756198E+03  0.19986250513E+04  0.10100000352E+00 0.  1.
</event>
<event>
 5   0  0.1150235E-07  0.3805296E+04  0.7818609E-02  0.8045019E-01
        2   -1    0    0  501    0  0.00000000000E+00  0.00000000000E+00  0.23798370590E+04  0.23798370590E+04  0.25500000920E-02 0.  1.
       -2   -1    0    0    0  501  0.00000000000E+00  0.00000000000E+00 -0.15211420890E+04  0.15211420890E+04  0.25500000920E-02 0. -1.
    10030    2    1    2    0    0  0.00000000000E+00  0.00000000000E+00  0.85869497004E+03  0.39009791480E+04  0.38052964748E+04 0.  0.
        4    1    3    3  502    0  0.69525488375E+03  0.17465965042E+04  0.73013616321E+03  0.20167000599E+04  0.12699999809E+01 0.  1.
       -4    1    3    3    0  502 -0.69525488375E+03 -0.17465965042E+04  0.12855880683E+03  0.18842790881E+04  0.12699999809E+01 0. -1.
</event>
<event>
 5   0  0.1174870E-07  0.3805087E+04  0.7818609E-02  0.8045064E-01
        2   -1    0    0  501    0  0.00000000000E+00  0.00000000000E+00  0.22699524051E+04  0.22699524051E+04  0.25500000920E-02 0. -1.
       -2   -1    0    0    0  501  0.00000000000E+00  0.00000000000E+00 -0.15946028566E+04  0.15946028566E+04  0.25500000920E-02 0.  1.
    10030    2    1    2    0    0  0.00000000000E+00  0.00000000000E+00  0.67534954848E+03  0.38645552617E+04  0.38050874311E+04 0.  0.
        5    1    3    3  502    0 -0.58686520060E+03  0.13816764040E+04 -0.84944248650E+03  0.17248232016E+04  0.46999998093E+01 0.  1.
       -5    1    3    3    0  502  0.58686520060E+03 -0.13816764040E+04  0.15247920350E+04  0.21397320601E+04  0.46999998093E+01 0. -1.
</event>
<event>
 5   0  0.3701250E-08  0.3707395E+04  0.7818609E-02  0.8066325E-01
        3   -1    0    0  501    0  0.00000000000E+00  0.00000000000E+00  0.25273759355E+04  0.25273759375E+04  0.10100000352E+00 0. -1.
       -3   -1    0    0    0  501  0.00000000000E+00  0.00000000000E+00 -0.13595900767E+04  0.13595900805E+04  0.10100000352E+00 0.  1.
    10030    2    1    2    0    0  0.00000000000E+00  0.00000000000E+00  0.11677858588E+04  0.38869660180E+04  0.37073954487E+04 0.  0.
        2    1    3    3  502    0 -0.95999766162E+03 -0.26022118599E+03 -0.10561249474E+04  0.14507620344E+04  0.25500000920E-02 0.  1.
       -2    1    3    3    0  502  0.95999766162E+03  0.26022118599E+03  0.22239108062E+04  0.24362039836E+04  0.25500000920E-02 0. -1.
</event>
<event>
 5   0  0.1143283E-07  0.3799868E+04  0.7818609E-02  0.8046183E-01
        2   -1    0    0  501    0  0.00000000000E+00  0.00000000000E+00  0.18722497783E+04  0.18722497783E+04  0.25500000920E-02 0. -1.
       -2   -1    0    0    0  501  0.00000000000E+00  0.00000000000E+00 -0.19280278255E+04  0.19280278255E+04  0.25500000920E-02 0.  1.
    10030    2    1    2    0    0  0.00000000000E+00  0.00000000000E+00 -0.55778047227E+02  0.38002776037E+04  0.37998682444E+04 0.  0.
        1    1    3    3  502    0 -0.10719074780E+04  0.53539636993E+03  0.14467577862E+04  0.18784948779E+04  0.50400001928E-02 0. -1.
       -1    1    3    3    0  502  0.10719074780E+04 -0.53539636993E+03 -0.15025358335E+04  0.19217827258E+04  0.50400001928E-02 0.  1.
</event>
<event>
 5   0  0.1193861E-07  0.3801673E+04  0.7818609E-02  0.8045796E-01
        2   -1    0    0  501    0  0.00000000000E+00  0.00000000000E+00  0.19104752291E+04  0.19104752291E+04  0.25500000920E-02 0. -1.
       -2   -1    0    0    0  501  0.00000000000E+00  0.00000000000E+00 -0.18912465855E+04  0.18912465855E+04  0.25500000920E-02 0.  1.
    10030    2    1    2    0    0  0.00000000000E+00  0.00000000000E+00  0.19228643618E+02  0.38017218147E+04  0.38016731863E+04 0.  0.
        3    1    3    3  502    0  0.12552477293E+04  0.61371871678E+03 -0.12791543574E+04  0.18943424731E+04  0.10100000352E+00 0.  1.
       -3    1    3    3    0  502 -0.12552477293E+04 -0.61371871678E+03  0.12983830010E+04  0.19073793416E+04  0.10100000352E+00 0. -1.
</event>
<event>
 5   0  0.7858367E-08  0.3795474E+04  0.7818609E-02  0.8047127E-01
        2   -1    0    0  501    0  0.00000000000E+00  0.00000000000E+00  0.24173899348E+04  0.24173899348E+04  0.25500000920E-02 0. -1.
       -2   -1    0    0    0  501  0.00000000000E+00  0.00000000000E+00 -0.14897910424E+04  0.14897910424E+04  0.25500000920E-02 0.  1.
    10030    2    1    2    0    0  0.00000000000E+00  0.00000000000E+00  0.92759889247E+03  0.39071809772E+04  0.37954740788E+04 0.  0.
        2    1    3    3  502    0 -0.15224518742E+04  0.10875302297E+04  0.13692587589E+03  0.18759878478E+04  0.25500000920E-02 0. -1.
       -2    1    3    3    0  502  0.15224518742E+04 -0.10875302297E+04  0.79067301658E+03  0.20311931294E+04  0.25500000920E-02 0.  1.
</event>
<event>
 5   0  0.3701250E-08  0.3891818E+04  0.7818609E-02  0.8026733E-01
       -1   -1    0    0    0  501  0.00000000000E+00  0.00000000000E+00  0.18102575245E+04  0.18102575246E+04  0.50400001928E-02 0.  1.
        1   -1    0    0  501    0  0.00000000000E+00  0.00000000000E+00 -0.20917257810E+04  0.20917257810E+04  0.50400001928E-02 0. -1.
    10030    2    1    2    0    0  0.00000000000E+00  0.00000000000E+00 -0.28146825642E+03  0.39019833055E+04  0.38918182559E+04 0.  0.
        3    1    3    3  502    0 -0.10355481075E+04  0.16401297638E+04 -0.29662915389E+03  0.19622370881E+04  0.10100000352E+00 0.  1.
       -3    1    3    3    0  502  0.10355481075E+04 -0.16401297638E+04  0.15160897468E+02  0.19397462174E+04  0.10100000352E+00 0. -1.
</event>
<event>
 5   0  0.3701250E-08  0.3794634E+04  0.7818609E-02  0.8047307E-01
       -1   -1    0    0    0  501  0.00000000000E+00  0.00000000000E+00  0.13906691226E+04  0.13906691226E+04  0.50400001928E-02 0. -1.
        1   -1    0    0  501    0  0.00000000000E+00  0.00000000000E+00 -0.25885467414E+04  0.25885467414E+04  0.50400001928E-02 0.  1.
    10030    2    1    2    0    0  0.00000000000E+00  0.00000000000E+00 -0.11978776188E+04  0.39792158640E+04  0.37946341197E+04 0.  0.
        3    1    3    3  502    0 -0.14936769397E+04  0.82316986053E+03  0.27284395789E+03  0.17271720398E+04  0.10100000352E+00 0. -1.
       -3    1    3    3    0  502  0.14936769397E+04 -0.82316986053E+03 -0.14707215767E+04  0.22520438242E+04  0.10100000352E+00 0.  1.
</event>
<event>
 5   0  0.1143283E-07  0.3804723E+04  0.7818609E-02  0.8045142E-01
        2   -1    0    0  501    0  0.00000000000E+00  0.00000000000E+00  0.17907417488E+04  0.17907417488E+04  0.25500000920E-02 0.  1.
       -2   -1    0    0    0  501  0.00000000000E+00  0.00000000000E+00 -0.20209382519E+04  0.20209382519E+04  0.25500000920E-02 0. -1.
    10030    2    1    2    0    0  0.00000000000E+00  0.00000000000E+00 -0.23019650311E+03  0.38116800007E+04  0.38047225914E+04 0.  0.
        1    1    3    3  502    0 -0.10332615443E+04 -0.12963977338E+04 -0.10499187059E+04  0.19622960511E+04  0.50400001928E-02 0. -1.
       -1    1    3    3    0  502  0.10332615443E+04  0.12963977338E+04  0.81972220276E+03  0.18493839496E+04  0.50400001928E-02 0.  1.
</event>
<event>
 5   0  0.1150235E-07  0.3805357E+04  0.7818609E-02  0.8045006E-01
       -2   -1    0    0    0  501  0.00000000000E+00  0.00000000000E+00  0.31072588193E+04  0.31072588193E+04  0.25500000920E-02 0. -1.
        2   -1    0    0  501    0  0.00000000000E+00  0.00000000000E+00 -0.11650736344E+04  0.11650736344E+04  0.25500000920E-02 0.  1.
    10030    2    1    2    0    0  0.00000000000E+00  0.00000000000E+00  0.19421851849E+04  0.42723324538E+04  0.38053569219E+04 0.  0.
        4    1    3    3  502    0  0.11535192921E+04 -0.33915348818E+03  0.26266892012E+04  0.28887937999E+04  0.12699999809E+01 0. -1.
       -4    1    3    3    0  502 -0.11535192921E+04  0.33915348818E+03 -0.68450401625E+03  0.13835386539E+04  0.12699999809E+01 0.  1.
</event>
<event>
 5   0  0.3701250E-08  0.3800051E+04  0.7818609E-02  0.8046144E-01
        1   -1    0    0  501    0  0.00000000000E+00  0.00000000000E+00  0.26822019566E+04  0.26822019566E+04  0.50400001928E-02 0. -1.
       -1   -1    0    0    0  501  0.00000000000E+00  0.00000000000E+00 -0.13459452196E+04  0.13459452196E+04  0.50400001928E-02 0.  1.
    10030    2    1    2    0    0  0.00000000000E+00  0.00000000000E+00  0.13362567370E+04  0.40281471761E+04  0.38000510004E+04 0.  0.
        2    1    3    3  502    0  0.16118692683E+04 -0.99148160181E+03  0.84845282753E+03  0.20738925973E+04  0.25500000920E-02 0.  1.
       -2    1    3    3    0  502 -0.16118692683E+04  0.99148160181E+03  0.48780390946E+03  0.19542545788E+04  0.25500000920E-02 0. -1.
</event>
<event>
 5   0  0.3701250E-08  0.3794730E+04  0.7818609E-02  0.8047287E-01
        1   -1    0    0  501    0  0.00000000000E+00  0.00000000000E+00  0.30511600176E+04  0.30511600176E+04  0.50400001928E-02 0. -1.
       -1   -1    0    0    0  501  0.00000000000E+00  0.00000000000E+00 -0.11798774034E+04  0.11798774034E+04  0.50400001928E-02 0.  1.
    10030    2    1    2    0    0  0.00000000000E+00  0.00000000000E+00  0.18712826142E+04  0.42310374211E+04  0.37947304300E+04 0.  0.
        1    1    3    3  502    0  0.23325882171E+03 -0.10846563290E+04  0.26518028194E+04  0.28745342619E+04  0.50400001928E-02 0. -1.
       -1    1    3    3    0  502 -0.23325882171E+03  0.10846563290E+04 -0.78052020523E+03  0.13565031591E+04  0.50400001928E-02 0.  1.
</event>
<event>
 5   0  0.1174870E-07  0.3797656E+04  0.7818609E-02  0.8046658E-01
        2   -1    0    0  501    0  0.00000000000E+00  0.00000000000E+00  0.17541235827E+04  0.17541235827E+04  0.25500000920E-02 0.  1.
       -2   -1    0    0    0  501  0.00000000000E+00  0.00000000000E+00 -0.20554699718E+04  0.20554699718E+04  0.25500000920E-02 0. -1.
    10030    2    1    2    0    0  0.00000000000E+00  0.00000000000E+00 -0.30134638904E+03  0.38095935545E+04  0.37976563041E+04 0.  0.
        5    1    3    3  502    0 -0.60125541465E+03  0.17747729400E+04  0.15721042983E+03  0.18804425733E+04  0.46999998093E+01 0.  1.
       -5    1    3    3    0  502  0.60125541465E+03 -0.17747729400E+04 -0.45855681887E+03  0.19291509812E+04  0.46999998093E+01 0. -1.
</event>
<event>
 5   0  0.3701250E-08  0.3803174E+04  0.7818609E-02  0.8045474E-01
        3   -1    0    0  501    0  0.00000000000E+00  0.00000000000E+00  0.17787167749E+04  0.17787167778E+04  0.10100000352E+00 0.  1.
       -3   -1    0    0    0  501  0.00000000000E+00  0.00000000000E+00 -0.20329444795E+04  0.20329444820E+04  0.10100000352E+00 0. -1.
    10030    2    1    2    0    0  0.00000000000E+00  0.00000000000E+00 -0.25422770455E+03  0.38116612598E+04  0.38031736528E+04 0.  0.
        1    1    3    3  502    0 -0.21473439693E+03  0.18344792156E+04 -0.58045905888E+03  0.19360675537E+04  0.50400001928E-02 0. -1.
       -1    1    3    3    0  502  0.21473439693E+03 -0.18344792156E+04  0.32623135433E+03  0.18755937060E+04  0.50400001928E-02 0.  1.
</event>
<event>
 5   0  0.7858367E-08  0.3794856E+04  0.7818609E-02  0.8047260E-01
       -2   -1    0    0    0  501  0.00000000000E+00  0.00000000000E+00  0.21052269107E+04  0.21052269107E+04  0.25500000920E-02 0.  1.
        2   -1    0    0  501    0  0.00000000000E+00  0.00000000000E+00 -0.17101402800E+04  0.17101402800E+04  0.25500000920E-02 0. -1.
    10030    2    1    2    0    0  0.00000000000E+00  0.00000000000E+00  0.39508663072E+03  0.38153671907E+04  0.37948561705E+04 0.  0.
        2    1    3    3  502    0 -0.19131175665E+03  0.10609152568E+04  0.17674218902E+04  0.20702467265E+04  0.25500000920E-02 0.  1.
       -2    1    3    3    0  502  0.19131175665E+03 -0.10609152568E+04 -0.13723352595E+04  0.17451204643E+04  0.25500000920E-02 0. -1.
</event>
<event>
 5   0  0.1150235E-07  0.3770025E+04  0.7818609E-02  0.8052618E-01
        2   -1    0    0  501    0  0.00000000000E+00  0.00000000000E+00  0.19424672231E+04  0.19424672231E+04  0.25500000920E-02 0. -1.
       -2   -1    0    0    0  501  0.00000000000E+00  0.00000000000E+00 -0.18292567366E+04  0.18292567366E+04  0.25500000920E-02 0.  1.
    10030    2    1    2    0    0  0.00000000000E+00  0.00000000000E+00  0.11321048653E+03  0.37717239598E+04  0.37700245376E+04 0.  0.
        4    1    3    3  502    0  0.26736453741E+03 -0.12008462710E+04  0.14854486291E+04  0.19287495445E+04  0.12699999809E+01 0. -1.
       -4    1    3    3    0  502 -0.26736453741E+03  0.12008462710E+04 -0.13722381426E+04  0.18429744153E+04  0.12699999809E+01 0.  1.
</event>
<event>
 5   0  0.1174870E-07  0.3791674E+04  0.7818609E-02  0.8047944E-01
        2   -1    0    0  501    0  0.00000000000E+00  0.00000000000E+00  0.24595231046E+04  0.24595231046E+04  0.25500000920E-02 0. -1.
       -2   -1    0    0    0  501  0.00000000000E+00  0.00000000000E+00 -0.14613397206E+04  0.14613397206E+04  0.25500000920E-02 0.  1.
    10030    2    1    2    0    0  0.00000000000E+00  0.00000000000E+00  0.99818338407E+03  0.39208628252E+04  0.37916744620E+04 0.  0.
        5    1    3    3  502    0 -0.13448671169E+04  0.56626329352E+03 -0.75245751457E+03  0.16418087833E+04  0.46999998093E+01 0.  1.
       -5    1    3    3    0  502  0.13448671169E+04 -0.56626329352E+03  0.17506408986E+04  0.22790540419E+04  0.46999998093E+01 0. -1.
</event>
<event>
 5   0  0.3701250E-08  0.3797701E+04  0.7818609E-02  0.8046648E-01
       -1   -1    0    0    0  501  0.00000000000E+00  0.00000000000E+00  0.26072247295E+04  0.26072247295E+04  0.50400001928E-02 0. -1.
        1   -1    0    0  501    0  0.00000000000E+00  0.00000000000E+00 -0.13829393952E+04  0.13829393952E+04  0.50400001928E-02 0.  1.
    10030    2    1    2    0    0  0.00000000000E+00  0.00000000000E+00  0.12242853343E+04  0.39901641247E+04  0.37977012998E+04 0.  0.
        3    1    3    3  502    0  0.81650935309E+03  0.65302336844E+03 -0.10532765584E+04  0.14840884617E+04  0.10100000352E+00 0.  1.
       -3    1    3    3    0  502 -0.81650935309E+03 -0.65302336844E+03  0.22775618927E+04  0.25060756630E+04  0.10100000352E+00 0. -1.
</event>
<event>
 5   0  0.1174870E-07  0.3809463E+04  0.7818609E-02  0.8044127E-01
       -2   -1    0    0    0  501  0.00000000000E+00  0.00000000000E+00  0.17491550306E+04  0.17491550306E+04  0.25500000920E-02 0. -1.
        2   -1    0    0  501    0  0.00000000000E+00  0.00000000000E+00 -0.20741459862E+04  0.20741459862E+04  0.25500000920E-02 0.  1.
    10030    2    1    2    0    0  0.00000000000E+00  0.00000000000E+00 -0.32499095553E+03  0.38233010168E+04  0.38094634194E+04 0.  0.
        5    1    3    3  502    0  0.73285263484E+03 -0.66341126589E+03  0.14715442726E+04  0.17727526980E+04  0.46999998093E+01 0. -1.
       -5    1    3    3    0  502 -0.73285263484E+03  0.66341126589E+03 -0.17965352281E+04  0.20505483188E+04  0.46999998093E+01 0.  1.
</event>
<event>
 5   0  0.1150235E-07  0.3806917E+04  0.7818609E-02  0.8044672E-01
       -2   -1    0    0    0  501  0.00000000000E+00  0.00000000000E+00  0.14612606790E+04  0.14612606790E+04  0.25500000920E-02 0. -1.
        2   -1    0    0  501    0  0.00000000000E+00  0.00000000000E+00 -0.24794720588E+04  0.24794720588E+04  0.25500000920E-02 0.  1.
    10030    2    1    2    0    0  0.00000000000E+00  0.00000000000E+00 -0.10182113798E+04  0.39407327377E+04  0.38069174008E+04 0.  0.
        4    1    3    3  502    0  0.15697934780E+04 -0.19712412590E+03 -0.16046275693E+04  0.22534286618E+04  0.12699999809E+01 0.  1.
       -4    1    3    3    0  502 -0.15697934780E+04  0.19712412590E+03  0.58641618952E+03  0.16873040760E+04  0.12699999809E+01 0. -1.
</event>
<event>
 5   0  0.3701250E-08  0.3790415E+04  0.7818609E-02  0.8048215E-01
       -1   -1    0    0    0  501  0.00000000000E+00  0.00000000000E+00  0.18263640899E+04  0.18263640899E+04  0.50400001928E-02 0. -1.
        1   -1    0    0  501    0  0.00000000000E+00  0.00000000000E+00 -0.19666461617E+04  0.19666461617E+04  0.50400001928E-02 0.  1.
    10030    2    1    2    0    0  0.00000000000E+00  0.00000000000E+00 -0.14028207174E+03  0.37930102516E+04  0.37904152423E+04 0.  0.
        2    1    3    3  502    0  0.64913721296E+03  0.14787887788E+04  0.92231240375E+03  0.18597998665E+04  0.25500000920E-02 0. -1.
       -2    1    3    3    0  502 -0.64913721296E+03 -0.14787887788E+04 -0.10625944755E+04  0.19332103850E+04  0.25500000920E-02 0.  1.
</event>
<event>
 5   0  0.1150235E-07  0.3801133E+04  0.7818609E-02  0.8045912E-01
       -2   -1    0    0    0  501  0.00000000000E+00  0.00000000000E+00  0.24932112027E+04  0.24932112027E+04  0.25500000920E-02 0. -1.
        2   -1    0    0  501    0  0.00000000000E+00  0.00000000000E+00 -0.14487953486E+04  0.14487953486E+04  0.25500000920E-02 0.  1.
    10030    2    1    2    0    0  0.00000000000E+00  0.00000000000E+00  0.10444158541E+04  0.39420065513E+04  0.38011328803E+04 0.  0.
        4    1    3    3  502    0  0.15295115977E+04  0.71978941254E+03 -0.37869228839E+03  0.17323140559E+04  0.12699999809E+01 0.  1.
       -4    1    3    3    0  502 -0.15295115977E+04 -0.71978941254E+03  0.14231081425E+04  0.22096924954E+04  0.12699999809E+01 0. -1.
</event>
<event>
 5   0  0.3889225E-08  0.3757581E+04  0.7818609E-02  0.8055320E-01
        1   -1    0    0  501    0  0.00000000000E+00  0.00000000000E+00  0.26678419082E+04  0.26678419082E+04  0.50400001928E-02 0.  1.
       -1   -1    0    0    0  501  0.00000000000E+00  0.00000000000E+00 -0.13231117142E+04  0.13231117142E+04  0.50400001928E-02 0. -1.
    10030    2    1    2    0    0  0.00000000000E+00  0.00000000000E+00  0.13447301940E+04  0.39909536225E+04  0.37575805410E+04 0.  0.
        5    1    3    3  502    0  0.10224914347E+04  0.14520018435E+04  0.21064927476E+02  0.17760247489E+04  0.46999998093E+01 0. -1.
       -5    1    3    3    0  502 -0.10224914347E+04 -0.14520018435E+04  0.13236652665E+04  0.22149288736E+04  0.46999998093E+01 0.  1.
</event>
<event>
 5   0  0.7858367E-08  0.3795673E+04  0.7818609E-02  0.8047084E-01
        2   -1    0    0  501    0  0.00000000000E+00  0.00000000000E+00  0.16712716024E+04  0.16712716024E+04  0.25500000920E-02 0.  1.
       -2   -1    0    0    0  501  0.00000000000E+00  0.00000000000E+00 -0.21551151657E+04  0.21551151657E+04  0.25500000920E-02 0. -1.
    10030    2    1    2    0    0  0.00000000000E+00  0.00000000000E+00 -0.48384356326E+03  0.38263867681E+04  0.37956726816E+04 0.  0.
        2    1    3    3  502    0  0.21848018727E+02 -0.12495702953E+04  0.11978788857E+04  0.17311317349E+04  0.25500000920E-02 0.  1.
       -2    1    3    3    0  502 -0.21848018727E+02  0.12495702953E+04 -0.16817224490E+04  0.20952550332E+04  0.25500000920E-02 0. -1.
</event>
<event>
 5   0  0.3701250E-08  0.3813366E+04  0.7818609E-02  0.8043293E-01
        1   -1    0    0  501    0  0.00000000000E+00  0.00000000000E+00  0.11558852214E+04  0.11558852215E+04  0.50400001928E-02 0.  1.
       -1   -1    0    0    0  501  0.00000000000E+00  0.00000000000E+00 -0.31451574182E+04  0.31451574183E+04  0.50400001928E-02 0. -1.
    10030    2    1    2    0    0  0.00000000000E+00  0.00000000000E+00 -0.19892721968E+04  0.43010426397E+04  0.38133664806E+04 0.  0.
        4    1    3    3  502    0  0.11045527206E+03 -0.17504802118E+04 -0.15131367710E+03  0.17604768618E+04  0.12699999809E+01 0. -1.
       -4    1    3    3    0  502 -0.11045527206E+03  0.17504802118E+04 -0.18379585197E+04  0.25405657779E+04  0.12699999809E+01 0.  1.
</event>
<event>
 5   0  0.7858367E-08  0.3769623E+04  0.7818609E-02  0.8052705E-01
       -2   -1    0    0    0  501  0.00000000000E+00  0.00000000000E+00  0.15354114129E+04  0.15354114129E+04  0.25500000920E-02 0. -1.
        2   -1    0    0  501    0  0.00000000000E+00  0.00000000000E+00 -0.23137215154E+04  0.23137215154E+04  0.25500000920E-02 0.  1.
    10030    2    1    2    0    0  0.00000000000E+00  0.00000000000E+00 -0.77831010256E+03  0.38491329283E+04  0.37696230162E+04 0.  0.
        2    1    3    3  502    0 -0.68545766167E+02  0.18166237770E+04  0.11903094110E+03  0.18218092201E+04  0.25500000920E-02 0.  1.
       -2    1    3    3    0  502  0.68545766167E+02 -0.18166237770E+04 -0.89734104366E+03  0.20273237083E+04  0.25500000920E-02 0. -1.
</event>
<event>
 5   0  0.3701250E-08  0.3803172E+04  0.7818609E-02  0.8045475E-01
       -1   -1    0    0    0  501  0.00000000000E+00  0.00000000000E+00  0.21993013591E+04  0.21993013591E+04  0.50400001928E-02 0. -1.
        1   -1    0    0  501    0  0.00000000000E+00  0.00000000000E+00 -0.16441715720E+04  0.16441715720E+04  0.50400001928E-02 0.  1.
    10030    2    1    2    0    0  0.00000000000E+00  0.00000000000E+00  0.55512978702E+03  0.38434729311E+04  0.38031717147E+04 0.  0.
        3    1    3    3  502    0 -0.18866821943E+04  0.13260317758E+03  0.47682284029E+03  0.19505161717E+04  0.10100000352E+00 0. -1.
       -3    1    3    3    0  502  0.18866821943E+04 -0.13260317758E+03  0.78306946729E+02  0.18929567594E+04  0.10100000352E+00 0.  1.
</event>
<event>
 5   0  0.1193861E-07  0.3806658E+04  0.7818609E-02  0.8044728E-01
        2   -1    0    0  501    0  0.00000000000E+00  0.00000000000E+00  0.31524358719E+04  0.31524358719E+04  0.25500000920E-02 0. -1.
       -2   -1    0    0    0  501  0.00000000000E+00  0.00000000000E+00 -0.11491627059E+04  0.11491627059E+04  0.25500000920E-02 0.  1.
    10030    2    1    2    0    0  0.00000000000E+00  0.00000000000E+00  0.20032731660E+04  0.43015985778E+04  0.38066582388E+04 0.  0.
        3    1    3    3  502    0  0.18257572191E+04  0.53281789429E+03  0.10845017405E+04  0.21893899532E+04  0.10100000352E+00 0. -1.
       -3    1    3    3    0  502 -0.18257572191E+04 -0.53281789429E+03  0.91877142549E+03  0.21122086247E+04  0.10100000352E+00 0.  1.
</event>
<event>
 5   0  0.1174870E-07  0.3801084E+04  0.7818609E-02  0.8045922E-01
       -2   -1    0    0    0  501  0.00000000000E+00  0.00000000000E+00  0.17189791119E+04  0.17189791119E+04  0.25500000920E-02 0.  1.
        2   -1    0    0  501    0  0.00000000000E+00  0.00000000000E+00 -0.21012823427E+04  0.21012823427E+04  0.25500000920E-02 0. -1.
    10030    2    1    2    0    0  0.00000000000E+00  0.00000000000E+00 -0.38230323079E+03  0.38202614547E+04  0.38010842955E+04 0.  0.
        5    1    3    3  502    0  0.12880298327E+04 -0.11919407301E+04 -0.92441787529E+03  0.19835105375E+04  0.46999998093E+01 0. -1.
       -5    1    3    3    0  502 -0.12880298327E+04  0.11919407301E+04  0.54211464450E+03  0.18367509172E+04  0.46999998093E+01 0.  1.
</event>
<event>
 5   0  0.1143283E-07  0.3794334E+04  0.7818609E-02  0.8047372E-01
       -2   -1    0    0    0  501  0.00000000000E+00  0.00000000000E+00  0.15134658770E+04  0.15134658770E+04  0.25500000920E-02 0. -1.
        2   -1    0    0  501    0  0.00000000000E+00  0.00000000000E+00 -0.23781458079E+04  0.23781458079E+04  0.25500000920E-02 0.  1.
    10030    2    1    2    0    0  0.00000000000E+00  0.00000000000E+00 -0.86467993091E+03  0.38916116850E+04  0.37943339499E+04 0.  0.
        1    1    3    3  502    0 -0.39596188419E+03  0.18340107126E+04 -0.14431757349E+03  0.18818099451E+04  0.50400001928E-02 0. -1.
       -1    1    3    3    0  502  0.39596188419E+03 -0.18340107126E+04 -0.72036235742E+03  0.20098017398E+04  0.50400001928E-02 0.  1.
</event>
<event>
 5   0  0.3701250E-08  0.3824621E+04  0.7818609E-02  0.8040892E-01
       -1   -1    0    0    0  501  0.00000000000E+00  0.00000000000E+00  0.12770068473E+04  0.12770068473E+04  0.50400001928E-02 0.  1.
        1   -1    0    0  501    0  0.00000000000E+00  0.00000000000E+00 -0.28636744236E+04  0.28636744236E+04  0.50400001928E-02 0. -1.
    10030    2    1    2    0    0  0.00000000000E+00  0.00000000000E+00 -0.15866675763E+04  0.41406812709E+04  0.38246212086E+04 0.  0.
        2    1    3    3  502    0 -0.36219102445E+03 -0.11316237029E+04 -0.24155498408E+04  0.26919575734E+04  0.25500000920E-02 0. -1.
       -2    1    3    3    0  502  0.36219102445E+03  0.11316237029E+04  0.82888226454E+03  0.14487236975E+04  0.25500000920E-02 0.  1.
</event>
<event>
 5   0  0.3701250E-08  0.3803801E+04  0.7818609E-02  0.8045340E-01
        1   -1    0    0  501    0  0.00000000000E+00  0.00000000000E+00  0.16766124003E+04  0.16766124003E+04  0.50400001928E-02 0. -1.
       -1   -1    0    0    0  501  0.00000000000E+00  0.00000000000E+00 -0.21574604747E+04  0.21574604747E+04  0.50400001928E-02 0.  1.
    10030    2    1    2    0    0  0.00000000000E+00  0.00000000000E+00 -0.48084807438E+03  0.38340728750E+04  0.38038007230E+04 0.  0.
        3    1    3    3  502    0 -0.11796072451E+04  0.96354190631E+03  0.90764841494E+03  0.17730515823E+04  0.10100000352E+00 0. -1.
       -3    1    3    3    0  502  0.11796072451E+04 -0.96354190631E+03 -0.13884964893E+04  0.20610212927E+04  0.10100000352E+00 0.  1.
</event>
<event>
 5   0  0.3701250E-08  0.3810377E+04  0.7818609E-02  0.8043932E-01
       -1   -1    0    0    0  501  0.00000000000E+00  0.00000000000E+00  0.20996144600E+04  0.20996144600E+04  0.50400001928E-02 0.  1.
        1   -1    0    0  501    0  0.00000000000E+00  0.00000000000E+00 -0.17287667951E+04  0.17287667951E+04  0.50400001928E-02 0. -1.
    10030    2    1    2    0    0  0.00000000000E+00  0.00000000000E+00  0.37084766484E+03  0.38283812551E+04  0.38103772836E+04 0.  0.
        1    1    3    3  502    0 -0.44685095255E+03 -0.18064846824E+04 -0.22477115971E+03  0.18744558559E+04  0.50400001928E-02 0. -1.
       -1    1    3    3    0  502  0.44685095255E+03  0.18064846824E+04  0.59561882456E+03  0.19539253992E+04  0.50400001928E-02 0.  1.
</event>
<event>
 5   0  0.1150235E-07  0.3821794E+04  0.7818609E-02  0.8041494E-01
       -2   -1    0    0    0  501  0.00000000000E+00  0.00000000000E+00  0.24283163331E+04  0.24283163331E+04  0.25500000920E-02 0.  1.
        2   -1    0    0  501    0  0.00000000000E+00  0.00000000000E+00 -0.15037280297E+04  0.15037280297E+04  0.25500000920E-02 0. -1.
    10030    2    1    2    0    0  0.00000000000E+00  0.00000000000E+00  0.92458830336E+03  0.39320443628E+04  0.38217939950E+04 0.  0.
        4    1    3    3  502    0  0.17398768790E+04  0.56542083478E+01  0.12752285933E+04  0.21571771142E+04  0.12699999809E+01 0.  1.
       -4    1    3    3    0  502 -0.17398768790E+04 -0.56542083478E+01 -0.35064028991E+03  0.17748672485E+04  0.12699999809E+01 0. -1.
</event>
<event>
 5   0  0.3889225E-08  0.3803819E+04  0.7818609E-02  0.8045336E-01
        1   -1    0    0  501    0  0.00000000000E+00  0.00000000000E+00  0.17568952338E+04  0.17568952338E+04  0.50400001928E-02 0. -1.
       -1   -1    0    0    0  501  0.00000000000E+00  0.00000000000E+00 -0.20588929203E+04  0.20588929203E+04  0.50400001928E-02 0.  1.
    10030    2    1    2    0    0  0.00000000000E+00  0.00000000000E+00 -0.30199768651E+03  0.38157881540E+04  0.38038186910E+04 0.  0.
        5    1    3    3  502    0  0.69636318625E+03 -0.14960216412E+04 -0.10996142842E+04  0.19829715334E+04  0.46999998093E+01 0.  1.
       -5    1    3    3    0  502 -0.69636318625E+03  0.14960216412E+04  0.79761659771E+03  0.18328166207E+04  0.46999998093E+01 0. -1.
</event>
<event>
 5   0  0.3701250E-08  0.3760833E+04  0.7818609E-02  0.8054613E-01
        1   -1    0    0  501    0  0.00000000000E+00  0.00000000000E+00  0.14673262432E+04  0.14673262432E+04  0.50400001928E-02 0.  1.
       -1   -1    0    0    0  501  0.00000000000E+00  0.00000000000E+00 -0.24098017479E+04  0.24098017479E+04  0.50400001928E-02 0. -1.
    10030    2    1    2    0    0  0.00000000000E+00  0.00000000000E+00 -0.94247550476E+03  0.38771279911E+04  0.37608325385E+04 0.  0.
        4    1    3    3  502    0  0.11365397042E+04  0.11827557187E+04 -0.14190871102E+04  0.21689728972E+04  0.12699999809E+01 0. -1.
       -4    1    3    3    0  502 -0.11365397042E+04 -0.11827557187E+04  0.47661160546E+03  0.17081550939E+04  0.12699999809E+01 0.  1.
</event>
<event>
 5   0  0.3701250E-08  0.3818478E+04  0.7818609E-02  0.8042201E-01
       -1   -1    0    0    0  501  0.00000000000E+00  0.00000000000E+00  0.17656070067E+04  0.17656070067E+04  0.50400001928E-02 0. -1.
        1   -1    0    0  501    0  0.00000000000E+00  0.00000000000E+00 -0.20645558535E+04  0.20645558536E+04  0.50400001928E-02 0.  1.
    10030    2    1    2    0    0  0.00000000000E+00  0.00000000000E+00 -0.29894884682E+03  0.38301628603E+04  0.38184783780E+04 0.  0.
        2    1    3    3  502    0 -0.73754382105E+03 -0.61725243255E+03  0.15048822413E+04  0.17859568902E+04  0.25500000920E-02 0. -1.
       -2    1    3    3    0  502  0.73754382105E+03  0.61725243255E+03 -0.18038310882E+04  0.20442059701E+04  0.25500000920E-02 0.  1.
</event>
<event>
 5   0  0.1143283E-07  0.3840067E+04  0.7818609E-02  0.8037611E-01
        2   -1    0    0  501    0  0.00000000000E+00  0.00000000000E+00  0.12484759081E+04  0.12484759081E+04  0.25500000920E-02 0.  1.
       -2   -1    0    0    0  501  0.00000000000E+00  0.00000000000E+00 -0.29528229030E+04  0.29528229030E+04  0.25500000920E-02 0. -1.
    10030    2    1    2    0    0  0.00000000000E+00  0.00000000000E+00 -0.17043469949E+04  0.42012988110E+04  0.38400667990E+04 0.  0.
        1    1    3    3  502    0  0.95716763399E+03 -0.13544450229E+04  0.20621451153E+03  0.16712916036E+04  0.50400001928E-02 0. -1.
       -1    1    3    3    0  502 -0.95716763399E+03  0.13544450229E+04 -0.19105615064E+04  0.25300072074E+04  0.50400001928E-02 0.  1.
</event>
<event>
 5   0  0.7858367E-08  0.3786446E+04  0.7818609E-02  0.8049070E-01
       -2   -1    0    0    0  501  0.00000000000E+00  0.00000000000E+00  0.28071794159E+04  0.28071794159E+04  0.25500000920E-02 0. -1.
        2   -1    0    0  501    0  0.00000000000E+00  0.00000000000E+00 -0.12768310586E+04  0.12768310586E+04  0.25500000920E-02 0.  1.
    10030    2    1    2    0    0  0.00000000000E+00  0.00000000000E+00  0.15303483573E+04  0.40840104746E+04  0.37864462840E+04 0.  0.
        2    1    3    3  502    0  0.48289851872E+03 -0.15183210517E+04 -0.33783775455E+03  0.16286878595E+04  0.25500000920E-02 0.  1.
       -2    1    3    3    0  502 -0.48289851872E+03  0.15183210517E+04  0.18681861118E+04  0.24553226150E+04  0.25500000920E-02 0. -1.
</event>
<event>
 5   0  0.1143283E-07  0.3775712E+04  0.7818609E-02  0.8051387E-01
       -2   -1    0    0    0  501  0.00000000000E+00  0.00000000000E+00  0.14870467849E+04  0.14870467849E+04  0.25500000920E-02 0. -1.
        2   -1    0    0  501    0  0.00000000000E+00  0.00000000000E+00 -0.23966974103E+04  0.23966974103E+04  0.25500000920E-02 0.  1.
    10030    2    1    2    0    0  0.00000000000E+00  0.00000000000E+00 -0.90965062543E+03  0.38837441952E+04  0.37757124776E+04 0.  0.
        1    1    3    3  502    0 -0.11462588367E+04  0.13331517453E+04 -0.11621024940E+04  0.21075305699E+04  0.50400001928E-02 0.  1.
       -1    1    3    3    0  502  0.11462588367E+04 -0.13331517453E+04  0.25245186853E+03  0.17762136253E+04  0.50400001928E-02 0. -1.
</event>
<event>
 5   0  0.1143283E-07  0.3796240E+04  0.7818609E-02  0.8046962E-01
       -2   -1    0    0    0  501  0.00000000000E+00  0.00000000000E+00  0.11870917300E+04  0.11870917300E+04  0.25500000920E-02 0.  1.
        2   -1    0    0  501    0  0.00000000000E+00  0.00000000000E+00 -0.30350305465E+04  0.30350305465E+04  0.25500000920E-02 0. -1.
    10030    2    1    2    0    0  0.00000000000E+00  0.00000000000E+00 -0.18479388165E+04  0.42221222765E+04  0.37962400672E+04 0.  0.
        1    1    3    3  502    0  0.56453580824E+03 -0.47650103398E+03 -0.28685787552E+04  0.29621779132E+04  0.50400001928E-02 0. -1.
       -1    1    3    3    0  502 -0.56453580824E+03  0.47650103398E+03  0.10206399387E+04  0.12599443633E+04  0.50400001928E-02 0.  1.
</event>
<event>
 5   0  0.3889225E-08  0.3800321E+04  0.7818609E-02  0.8046086E-01
       -1   -1    0    0    0  501  0.00000000000E+00  0.00000000000E+00  0.18051791093E+04  0.18051791093E+04  0.50400001928E-02 0. -1.
        1   -1    0    0  501    0  0.00000000000E+00  0.00000000000E+00 -0.20001398459E+04  0.20001398459E+04  0.50400001928E-02 0.  1.
    10030    2    1    2    0    0  0.00000000000E+00  0.00000000000E+00 -0.19496073658E+03  0.38053189551E+04  0.38003213892E+04 0.  0.
        5    1    3    3  502    0 -0.85056263127E+03  0.51073492736E+03  0.15252313991E+04  0.18195218786E+04  0.46999998093E+01 0. -1.
       -5    1    3    3    0  502  0.85056263127E+03 -0.51073492736E+03 -0.17201921357E+04  0.19857970766E+04  0.46999998093E+01 0.  1.
</event>
<event>
 5   0  0.3701250E-08  0.3796093E+04  0.7818609E-02  0.8046994E-01
       -1   -1    0    0    0  501  0.00000000000E+00  0.00000000000E+00  0.24679592884E+04  0.24679592884E+04  0.50400001928E-02 0. -1.
        1   -1    0    0  501    0  0.00000000000E+00  0.00000000000E+00 -0.14597404637E+04  0.14597404637E+04  0.50400001928E-02 0.  1.
    10030    2    1    2    0    0  0.00000000000E+00  0.00000000000E+00  0.10082188247E+04  0.39276997520E+04  0.37960927470E+04 0.  0.
        2    1    3    3  502    0 -0.40441706096E+03  0.49194215425E+03 -0.13459008145E+04  0.14889624726E+04  0.25500000920E-02 0.  1.
       -2    1    3    3    0  502  0.40441706096E+03 -0.49194215425E+03  0.23541196392E+04  0.24387372794E+04  0.25500000920E-02 0. -1.
</event>
<event>
 5   0  0.3701250E-08  0.3821758E+04  0.7818609E-02  0.8041502E-01
       -1   -1    0    0    0  501  0.00000000000E+00  0.00000000000E+00  0.25703774651E+04  0.25703774651E+04  0.50400001928E-02 0.  1.
        1   -1    0    0  501    0  0.00000000000E+00  0.00000000000E+00 -0.14205923557E+04  0.14205923557E+04  0.50400001928E-02 0. -1.
    10030    2    1    2    0    0  0.00000000000E+00  0.00000000000E+00  0.11497851093E+04  0.39909698208E+04  0.38217580134E+04 0.  0.
        3    1    3    3  502    0 -0.12263634814E+03 -0.19802819740E+03  0.25554971220E+04  0.25660904878E+04  0.10100000352E+00 0.  1.
       -3    1    3    3    0  502  0.12263634814E+03  0.19802819740E+03 -0.14057120127E+04  0.14248793330E+04  0.10100000352E+00 0. -1.
</event>
<event>
 5   0  0.3701250E-08  0.3679570E+04  0.7818609E-02  0.8072504E-01
       -1   -1    0    0    0  501  0.00000000000E+00  0.00000000000E+00  0.11922457267E+04  0.11922457267E+04  0.50400001928E-02 0. -1.
        1   -1    0    0  501    0  0.00000000000E+00  0.00000000000E+00 -0.28390199788E+04  0.28390199788E+04  0.50400001928E-02 0.  1.
    10030    2    1    2    0    0  0.00000000000E+00  0.00000000000E+00 -0.16467742521E+04  0.40312657055E+04  0.36795703215E+04 0.  0.
        1    1    3    3  502    0  0.33084405373E+03  0.12977669389E+04  0.55858803112E+03  0.14510952430E+04  0.50400001928E-02 0. -1.
       -1    1    3    3    0  502 -0.33084405373E+03 -0.12977669389E+04 -0.22053622832E+04  0.25801704626E+04  0.50400001928E-02 0.  1.
</event>
<event>
 5   0  0.7858367E-08  0.3790492E+04  0.7818609E-02  0.8048198E-01
       -2   -1    0    0    0  501  0.00000000000E+00  0.00000000000E+00  0.17646543801E+04  0.17646543801E+04  0.25500000920E-02 0. -1.
        2   -1    0    0  501    0  0.00000000000E+00  0.00000000000E+00 -0.20355023087E+04  0.20355023087E+04  0.25500000920E-02 0.  1.
    10030    2    1    2    0    0  0.00000000000E+00  0.00000000000E+00 -0.27084792859E+03  0.38001566888E+04  0.37904923505E+04 0.  0.
        2    1    3    3  502    0 -0.99035186232E+02  0.14687586192E+04  0.10613105064E+04  0.18147836898E+04  0.25500000920E-02 0. -1.
       -2    1    3    3    0  502  0.99035186232E+02 -0.14687586192E+04 -0.13321584350E+04  0.19853729991E+04  0.25500000920E-02 0.  1.
</event>
<event>
 5   0  0.1150235E-07  0.3798701E+04  0.7818609E-02  0.8046434E-01
       -2   -1    0    0    0  501  0.00000000000E+00  0.00000000000E+00  0.19585710241E+04  0.19585710241E+04  0.25500000920E-02 0.  1.
        2   -1    0    0  501    0  0.00000000000E+00  0.00000000000E+00 -0.18419206296E+04  0.18419206296E+04  0.25500000920E-02 0. -1.
    10030    2    1    2    0    0  0.00000000000E+00  0.00000000000E+00  0.11665039448E+03  0.38004916536E+04  0.37987010273E+04 0.  0.
        4    1    3    3  502    0 -0.56003148066E+03  0.13128208883E+04 -0.11954202588E+04  0.18617639894E+04  0.12699999809E+01 0. -1.
       -4    1    3    3    0  502  0.56003148066E+03 -0.13128208883E+04  0.13120706533E+04  0.19387276643E+04  0.12699999809E+01 0.  1.
</event>
<event>
 5   0  0.7858367E-08  0.3803103E+04  0.7818609E-02  0.8045489E-01
       -2   -1    0    0    0  501  0.00000000000E+00  0.00000000000E+00  0.16371135852E+04  0.16371135852E+04  0.25500000920E-02 0.  1.
        2   -1    0    0  501    0  0.00000000000E+00  0.00000000000E+00 -0.22087035081E+04  0.22087035081E+04  0.25500000920E-02 0. -1.
    10030    2    1    2    0    0  0.00000000000E+00  0.00000000000E+00 -0.57158992289E+03  0.38458170933E+04  0.38031032165E+04 0.  0.
        2    1    3    3  502    0 -0.16957565479E+04  0.18555419439E+03  0.56380660117E+03  0.17966353309E+04  0.25500000920E-02 0.  1.
       -2    1    3    3    0  502  0.16957565479E+04 -0.18555419439E+03 -0.11353965241E+04  0.20491817624E+04  0.25500000920E-02 0. -1.
</event>
<event>
 5   0  0.3701250E-08  0.3846822E+04  0.7818609E-02  0.8036181E-01
        1   -1    0    0  501    0  0.00000000000E+00  0.00000000000E+00  0.22035725333E+04  0.22035725333E+04  0.50400001928E-02 0.  1.
       -1   -1    0    0    0  501  0.00000000000E+00  0.00000000000E+00 -0.16788691814E+04  0.16788691814E+04  0.50400001928E-02 0. -1.
    10030    2    1    2    0    0  0.00000000000E+00  0.00000000000E+00  0.52470335191E+03  0.38824417147E+04  0.38468220729E+04 0.  0.
        1    1    3    3  502    0  0.43574259179E+03 -0.18582519328E+04  0.50233092650E+03  0.19736535187E+04  0.50400001928E-02 0.  1.
       -1    1    3    3    0  502 -0.43574259179E+03  0.18582519328E+04  0.22372425415E+02  0.19087881961E+04  0.50400001928E-02 0. -1.
</event>
<event>
 5   0  0.1143283E-07  0.3796949E+04  0.7818609E-02  0.8046810E-01
       -2   -1    0    0    0  501  0.00000000000E+00  0.00000000000E+00  0.17262460565E+04  0.17262460565E+04  0.25500000920E-02 0.  1.
        2   -1    0    0  501    0  0.00000000000E+00  0.00000000000E+00 -0.20878858913E+04  0.20878858913E+04  0.25500000920E-02 0. -1.
    10030    2    1    2    0    0  0.00000000000E+00  0.00000000000E+00 -0.36163983483E+03  0.38141319478E+04  0.37969486624E+04 0.  0.
        1    1    3    3  502    0  0.92705619214E+03 -0.65594259800E+03 -0.17090565446E+04  0.20519668974E+04  0.50400001928E-02 0. -1.
       -1    1    3    3    0  502 -0.92705619214E+03  0.65594259800E+03  0.13474167097E+04  0.17621650504E+04  0.50400001928E-02 0.  1.
</event>
<event>
 5   0  0.1174870E-07  0.3702384E+04  0.7818609E-02  0.8067434E-01
       -2   -1    0    0    0  501  0.00000000000E+00  0.00000000000E+00  0.21245459176E+04  0.21245459176E+04  0.25500000920E-02 0. -1.
        2   -1    0    0  501    0  0.00000000000E+00  0.00000000000E+00 -0.16130093363E+04  0.16130093363E+04  0.25500000920E-02 0.  1.
    10030    2    1    2    0    0  0.00000000000E+00  0.00000000000E+00  0.51153658126E+03  0.37375552539E+04  0.37023843131E+04 0.  0.
        5    1    3    3  502    0 -0.93616655443E+03 -0.14902425215E+04 -0.32384597677E+03  0.17894493279E+04  0.46999998093E+01 0.  1.
       -5    1    3    3    0  502  0.93616655443E+03  0.14902425215E+04  0.83538255803E+03  0.19481059259E+04  0.46999998093E+01 0. -1.
</event>
<event>
 5   0  0.1150235E-07  0.3824631E+04  0.7818609E-02  0.8040890E-01
       -2   -1    0    0    0  501  0.00000000000E+00  0.00000000000E+00  0.12945873214E+04  0.12945873214E+04  0.25500000920E-02 0.  1.
        2   -1    0    0  501    0  0.00000000000E+00  0.00000000000E+00 -0.28248005451E+04  0.28248005451E+04  0.25500000920E-02 0. -1.
    10030    2    1    2    0    0  0.00000000000E+00  0.00000000000E+00 -0.15302132237E+04  0.41193878665E+04  0.38246312090E+04 0.  0.
        4    1    3    3  502    0  0.45851615470E+03  0.17325404954E+04 -0.46599948472E+02  0.17927930166E+04  0.12699999809E+01 0.  1.
       -4    1    3    3    0  502 -0.45851615470E+03 -0.17325404954E+04 -0.14836132753E+04  0.23265948499E+04  0.12699999809E+01 0. -1.
</event>
<event>
 5   0  0.3701250E-08  0.3725283E+04  0.7818609E-02  0.8062382E-01
       -1   -1    0    0    0  501  0.00000000000E+00  0.00000000000E+00  0.23728458914E+04  0.23728458914E+04  0.50400001928E-02 0.  1.
        1   -1    0    0  501    0  0.00000000000E+00  0.00000000000E+00 -0.14621400569E+04  0.14621400569E+04  0.50400001928E-02 0. -1.
    10030    2    1    2    0    0  0.00000000000E+00  0.00000000000E+00  0.91070583457E+03  0.38349859483E+04  0.37252828224E+04 0.  0.
        1    1    3    3  502    0 -0.63688518497E+03 -0.17473959900E+04  0.56042495506E+03  0.19424447521E+04  0.50400001928E-02 0.  1.
       -1    1    3    3    0  502  0.63688518497E+03  0.17473959900E+04  0.35028087951E+03  0.18925411962E+04  0.50400001928E-02 0. -1.
</event>
<event>
 5   0  0.3701250E-08  0.3815753E+04  0.7818609E-02  0.8042783E-01
        1   -1    0    0  501    0  0.00000000000E+00  0.00000000000E+00  0.14447557900E+04  0.14447557900E+04  0.50400001928E-02 0.  1.
       -1   -1    0    0    0  501  0.00000000000E+00  0.00000000000E+00 -0.25194514394E+04  0.25194514394E+04  0.50400001928E-02 0. -1.
    10030    2    1    2    0    0  0.00000000000E+00  0.00000000000E+00 -0.10746956493E+04  0.39642072294E+04  0.38157526412E+04 0.  0.
        4    1    3    3  502    0  0.56972672315E+03 -0.26936626807E+03 -0.24081985870E+04  0.24892908172E+04  0.12699999809E+01 0. -1.
       -4    1    3    3    0  502 -0.56972672315E+03  0.26936626807E+03  0.13335029376E+04  0.14749164122E+04  0.12699999809E+01 0.  1.
</event>
<event>
 5   0  0.3701250E-08  0.3799674E+04  0.7818609E-02  0.8046225E-01
        1   -1    0    0  501    0  0.00000000000E+00  0.00000000000E+00  0.22081846751E+04  0.22081846751E+04  0.50400001928E-02 0. -1.
       -1   -1    0    0    0  501  0.00000000000E+00  0.00000000000E+00 -0.16345465401E+04  0.16345465401E+04  0.50400001928E-02 0.  1.
    10030    2    1    2    0    0  0.00000000000E+00  0.00000000000E+00  0.57363813500E+03  0.38427312151E+04  0.37996739968E+04 0.  0.
        3    1    3    3  502    0 -0.45024606180E+02 -0.72018039816E+02 -0.16326255284E+04  0.16348333063E+04  0.10100000352E+00 0.  1.
       -3    1    3    3    0  502  0.45024606180E+02  0.72018039816E+02  0.22062636634E+04  0.22078979088E+04  0.10100000352E+00 0. -1.
</event>
<event>
 5   0  0.1150235E-07  0.3756391E+04  0.7818609E-02  0.8055578E-01
       -2   -1    0    0    0  501  0.00000000000E+00  0.00000000000E+00  0.21452014491E+04  0.21452014491E+04  0.25500000920E-02 0.  1.
        2   -1    0    0  501    0  0.00000000000E+00  0.00000000000E+00 -0.16444232224E+04  0.16444232224E+04  0.25500000920E-02 0. -1.
    10030    2    1    2    0    0  0.00000000000E+00  0.00000000000E+00  0.50077822671E+03  0.37896246714E+04  0.37563913957E+04 0.  0.
        4    1    3    3  502    0  0.10668156652E+04 -0.49511974589E+02  0.18090727380E+04  0.21007838736E+04  0.12699999809E+01 0.  1.
       -4    1    3    3    0  502 -0.10668156652E+04  0.49511974589E+02 -0.13082945113E+04  0.16888407978E+04  0.12699999809E+01 0. -1.
</event>
<event>
 5   0  0.1174870E-07  0.3900044E+04  0.7818609E-02  0.8025020E-01
        2   -1    0    0  501    0  0.00000000000E+00  0.00000000000E+00  0.17836091623E+04  0.17836091623E+04  0.25500000920E-02 0.  1.
       -2   -1    0    0    0  501  0.00000000000E+00  0.00000000000E+00 -0.21319616292E+04  0.21319616292E+04  0.25500000920E-02 0. -1.
    10030    2    1    2    0    0  0.00000000000E+00  0.00000000000E+00 -0.34835246693E+03  0.39155707915E+04  0.39000442539E+04 0.  0.
        5    1    3    3  502    0 -0.66193747696E+02  0.84655649463E+03  0.15882395414E+04  0.18009904058E+04  0.46999998093E+01 0.  1.
       -5    1    3    3    0  502  0.66193747696E+02 -0.84655649463E+03 -0.19365920084E+04  0.21145803857E+04  0.46999998093E+01 0. -1.
</event>
<event>
 5   0  0.7858367E-08  0.3805596E+04  0.7818609E-02  0.8044955E-01
       -2   -1    0    0    0  501  0.00000000000E+00  0.00000000000E+00  0.24687229946E+04  0.24687229946E+04  0.25500000920E-02 0.  1.
        2   -1    0    0  501    0  0.00000000000E+00  0.00000000000E+00 -0.14666046115E+04  0.14666046115E+04  0.25500000920E-02 0. -1.
    10030    2    1    2    0    0  0.00000000000E+00  0.00000000000E+00  0.10021183831E+04  0.39353276061E+04  0.38055961575E+04 0.  0.
        2    1    3    3  502    0  0.11092113620E+04  0.26304022125E+02  0.20995888053E+04  0.23747241732E+04  0.25500000920E-02 0.  1.
       -2    1    3    3    0  502 -0.11092113620E+04 -0.26304022125E+02 -0.10974704222E+04  0.15606034329E+04  0.25500000920E-02 0. -1.
</event>
<event>
 5   0  0.1143283E-07  0.3816563E+04  0.7818609E-02  0.8042610E-01
        2   -1    0    0  501    0  0.00000000000E+00  0.00000000000E+00  0.24171266186E+04  0.24171266186E+04  0.25500000920E-02 0.  1.
       -2   -1    0    0    0  501  0.00000000000E+00  0.00000000000E+00 -0.15065565900E+04  0.15065565900E+04  0.25500000920E-02 0. -1.
    10030    2    1    2    0    0  0.00000000000E+00  0.00000000000E+00  0.91057002867E+03  0.39236832086E+04  0.38165628705E+04 0.  0.
        1    1    3    3  502    0 -0.16726361014E+04  0.18266568506E+02 -0.48891111432E+03  0.17427218002E+04  0.50400001928E-02 0. -1.
       -1    1    3    3    0  502  0.16726361014E+04 -0.18266568506E+02  0.13994811430E+04  0.21809614084E+04  0.50400001928E-02 0.  1.
</event>
<event>
 5   0  0.7858367E-08  0.3800260E+04  0.7818609E-02  0.8046099E-01
        2   -1    0    0  501    0  0.00000000000E+00  0.00000000000E+00  0.21335731229E+04  0.21335731229E+04  0.25500000920E-02 0. -1.
       -2   -1    0    0    0  501  0.00000000000E+00  0.00000000000E+00 -0.16922289849E+04  0.16922289849E+04  0.25500000920E-02 0.  1.
    10030    2    1    2    0    0  0.00000000000E+00  0.00000000000E+00  0.44134413798E+03  0.38258021078E+04  0.38002601384E+04 0.  0.
        2    1    3    3  502    0  0.30684258257E+03 -0.12555152900E+04  0.16228807289E+04  0.20746597008E+04  0.25500000920E-02 0. -1.
       -2    1    3    3    0  502 -0.30684258257E+03  0.12555152900E+04 -0.11815365909E+04  0.17511424070E+04  0.25500000920E-02 0.  1.
</event>
<event>
 5   0  0.1193861E-07  0.3780615E+04  0.7818609E-02  0.8050328E-01
       -2   -1    0    0    0  501  0.00000000000E+00  0.00000000000E+00  0.23940382209E+04  0.23940382209E+04  0.25500000920E-02 0. -1.
        2   -1    0    0  501    0  0.00000000000E+00  0.00000000000E+00 -0.14925672820E+04  0.14925672820E+04  0.25500000920E-02 0.  1.
    10030    2    1    2    0    0  0.00000000000E+00  0.00000000000E+00  0.90147093891E+03  0.38866055028E+04  0.37806153574E+04 0.  0.
        3    1    3    3  502    0  0.13930229126E+04  0.56932848607E+02 -0.86157423036E+03  0.16389217031E+04  0.10100000352E+00 0.  1.
       -3    1    3    3    0  502 -0.13930229126E+04 -0.56932848607E+02  0.17630451693E+04  0.22476837997E+04  0.10100000352E+00 0. -1.
</event>
<event>
 5   0  0.1193861E-07  0.3801259E+04  0.7818609E-02  0.8045885E-01
       -2   -1    0    0    0  501  0.00000000000E+00  0.00000000000E+00  0.15143161036E+04  0.15143161036E+04  0.25500000920E-02 0. -1.
        2   -1    0    0  501    0  0.00000000000E+00  0.00000000000E+00 -0.23854941504E+04  0.23854941504E+04  0.25500000920E-02 0.  1.
    10030    2    1    2    0    0  0.00000000000E+00  0.00000000000E+00 -0.87117804685E+03  0.38998102540E+04  0.38012588478E+04 0.  0.
        3    1    3    3  502    0  0.12633696102E+04  0.29649444704E+03 -0.18602528416E+04  0.22681605706E+04  0.10100000352E+00 0.  1.
       -3    1    3    3    0  502 -0.12633696102E+04 -0.29649444704E+03  0.98907479480E+03  0.16316496833E+04  0.10100000352E+00 0. -1.
</event>
<event>
 5   0  0.7858367E-08  0.3774332E+04  0.7818609E-02  0.8051686E-01
       -2   -1    0    0    0  501  0.00000000000E+00  0.00000000000E+00  0.28522159420E+04  0.28522159420E+04  0.25500000920E-02 0. -1.
        2   -1    0    0  501    0  0.00000000000E+00  0.00000000000E+00 -0.12486413118E+04  0.12486413118E+04  0.25500000920E-02 0.  1.
    10030    2    1    2    0    0  0.00000000000E+00  0.00000000000E+00  0.16035746302E+04  0.41008572538E+04  0.37743315463E+04 0.  0.
        2    1    3    3  502    0 -0.11926250787E+04  0.59434706917E+03  0.22537317545E+04  0.26181882740E+04  0.25500000920E-02 0. -1.
       -2    1    3    3    0  502  0.11926250787E+04 -0.59434706917E+03 -0.65015712435E+03  0.14826689797E+04  0.25500000920E-02 0.  1.
</event>
<event>
 5   0  0.3701250E-08  0.3807780E+04  0.7818609E-02  0.8044487E-01
       -1   -1    0    0    0  501  0.00000000000E+00  0.00000000000E+00  0.27636708013E+04  0.27636708013E+04  0.50400001928E-02 0.  1.
        1   -1    0    0  501    0  0.00000000000E+00  0.00000000000E+00 -0.13115881280E+04  0.13115881280E+04  0.50400001928E-02 0. -1.
    10030    2    1    2    0    0  0.00000000000E+00  0.00000000000E+00  0.14520826733E+04  0.40752589294E+04  0.38077803576E+04 0.  0.
        3    1    3    3  502    0  0.10159206902E+04  0.11657962068E+04  0.19147471845E+04  0.24611851688E+04  0.10100000352E+00 0.  1.
       -3    1    3    3    0  502 -0.10159206902E+04 -0.11657962068E+04 -0.46266451118E+03  0.16140737606E+04  0.10100000352E+00 0. -1.
</event>
<event>
 5   0  0.3701250E-08  0.3804233E+04  0.7818609E-02  0.8045247E-01
        1   -1    0    0  501    0  0.00000000000E+00  0.00000000000E+00  0.20845378201E+04  0.20845378201E+04  0.50400001928E-02 0. -1.
       -1   -1    0    0    0  501  0.00000000000E+00  0.00000000000E+00 -0.17356588817E+04  0.17356588817E+04  0.50400001928E-02 0.  1.
    10030    2    1    2    0    0  0.00000000000E+00  0.00000000000E+00  0.34887893841E+03  0.38201967018E+04  0.38042326857E+04 0.  0.
        2    1    3    3  502    0  0.93324852232E+03 -0.15160460426E+04 -0.49822084176E+03  0.18486677405E+04  0.25500000920E-02 0. -1.
       -2    1    3    3    0  502 -0.93324852232E+03  0.15160460426E+04  0.84709978017E+03  0.19715289613E+04  0.25500000920E-02 0.  1.
</event>
<event>
 5   0  0.3701250E-08  0.3806141E+04  0.7818609E-02  0.8044838E-01
        1   -1    0    0  501    0  0.00000000000E+00  0.00000000000E+00  0.18330649845E+04  0.18330649845E+04  0.50400001928E-02 0.  1.
       -1   -1    0    0    0  501  0.00000000000E+00  0.00000000000E+00 -0.19757495086E+04  0.19757495086E+04  0.50400001928E-02 0. -1.
    10030    2    1    2    0    0  0.00000000000E+00  0.00000000000E+00 -0.14268452414E+03  0.38088144931E+04  0.38061409550E+04 0.  0.
        2    1    3    3  502    0  0.66469803284E+02 -0.17413944992E+04  0.69391982329E+03  0.18757392564E+04  0.25500000920E-02 0. -1.
       -2    1    3    3    0  502 -0.66469803284E+02  0.17413944992E+04 -0.83660434743E+03  0.19330752367E+04  0.25500000920E-02 0.  1.
</event>
<event>
 5   0  0.3701250E-08  0.3771205E+04  0.7818609E-02  0.8052363E-01
       -1   -1    0    0    0  501  0.00000000000E+00  0.00000000000E+00  0.14024218651E+04  0.14024218651E+04  0.50400001928E-02 0. -1.
        1   -1    0    0  501    0  0.00000000000E+00  0.00000000000E+00 -0.25352549191E+04  0.25352549191E+04  0.50400001928E-02 0.  1.
    10030    2    1    2    0    0  0.00000000000E+00  0.00000000000E+00 -0.11328330541E+04  0.39376767842E+04  0.37712050764E+04 0.  0.
        3    1    3    3  502    0 -0.13571055314E+04  0.11354286895E+04 -0.12467644825E+04  0.21645681826E+04  0.10100000352E+00 0.  1.
       -3    1    3    3    0  502  0.13571055314E+04 -0.11354286895E+04  0.11393142843E+03  0.17731086015E+04  0.10100000352E+00 0. -1.
</event>
<event>
 5   0  0.1143283E-07  0.3771364E+04  0.7818609E-02  0.8052328E-01
        2   -1    0    0  501    0  0.00000000000E+00  0.00000000000E+00  0.12222465444E+04  0.12222465444E+04  0.25500000920E-02 0.  1.
       -2   -1    0    0    0  501  0.00000000000E+00  0.00000000000E+00 -0.29092304452E+04  0.29092304452E+04  0.25500000920E-02 0. -1.
    10030    2    1    2    0    0  0.00000000000E+00  0.00000000000E+00 -0.16869839008E+04  0.41314769896E+04  0.37713641344E+04 0.  0.
        1    1    3    3  502    0 -0.12127782963E+04 -0.42932295039E+03 -0.23537725971E+04  0.26824233131E+04  0.50400001928E-02 0. -1.
       -1    1    3    3    0  502  0.12127782963E+04  0.42932295039E+03  0.66678869638E+03  0.14490536765E+04  0.50400001928E-02 0.  1.
</event>
<event>
 5   0  0.3701250E-08  0.3761215E+04  0.7818609E-02  0.8054530E-01
        1   -1    0    0  501    0  0.00000000000E+00  0.00000000000E+00  0.16363989089E+04  0.16363989089E+04  0.50400001928E-02 0.  1.
       -1   -1    0    0    0  501  0.00000000000E+00  0.00000000000E+00 -0.21612603066E+04  0.21612603067E+04  0.50400001928E-02 0. -1.
    10030    2    1    2    0    0  0.00000000000E+00  0.00000000000E+00 -0.52486139775E+03  0.37976592156E+04  0.37612147015E+04 0.  0.
        3    1    3    3  502    0 -0.18574209646E+04 -0.84140529306E+02 -0.54728437936E+03  0.19381982537E+04  0.10100000352E+00 0.  1.
       -3    1    3    3    0  502  0.18574209646E+04  0.84140529306E+02  0.22422981606E+02  0.18594609619E+04  0.10100000352E+00 0. -1.
</event>
<event>
 5   0  0.1143283E-07  0.3802912E+04  0.7818609E-02  0.8045530E-01
        2   -1    0    0  501    0  0.00000000000E+00  0.00000000000E+00  0.21116356906E+04  0.21116356906E+04  0.25500000920E-02 0.  1.
       -2   -1    0    0    0  501  0.00000000000E+00  0.00000000000E+00 -0.17121964954E+04  0.17121964954E+04  0.25500000920E-02 0. -1.
    10030    2    1    2    0    0  0.00000000000E+00  0.00000000000E+00  0.39943919523E+03  0.38238321860E+04  0.38029121625E+04 0.  0.
        1    1    3    3  502    0 -0.88395977297E+03  0.50376673991E+02  0.18917160317E+04  0.20886627861E+04  0.50400001928E-02 0.  1.
       -1    1    3    3    0  502  0.88395977297E+03 -0.50376673991E+02 -0.14922768365E+04  0.17351693999E+04  0.50400001928E-02 0. -1.
</event>
<event>
 5   0  0.3701250E-08  0.3842469E+04  0.7818609E-02  0.8037102E-01
       -1   -1    0    0    0  501  0.00000000000E+00  0.00000000000E+00  0.12142901728E+04  0.12142901728E+04  0.50400001928E-02 0. -1.
        1   -1    0    0  501    0  0.00000000000E+00  0.00000000000E+00 -0.30397535746E+04  0.30397535746E+04  0.50400001928E-02 0.  1.
    10030    2    1    2    0    0  0.00000000000E+00  0.00000000000E+00 -0.18254634017E+04  0.42540437474E+04  0.38424694630E+04 0.  0.
        1    1    3    3  502    0 -0.28837226675E+03  0.11788810393E+04  0.73616788800E+03  0.14194584279E+04  0.50400001928E-02 0. -1.
       -1    1    3    3    0  502  0.28837226675E+03 -0.11788810393E+04 -0.25616312897E+04  0.28345853195E+04  0.50400001928E-02 0.  1.
</event>
<event>
 5   0  0.7858367E-08  0.3803205E+04  0.7818609E-02  0.8045467E-01
        2   -1    0    0  501    0  0.00000000000E+00  0.00000000000E+00  0.29300819089E+04  0.29300819089E+04  0.25500000920E-02 0. -1.
       -2   -1    0    0    0  501  0.00000000000E+00  0.00000000000E+00 -0.12341269096E+04  0.12341269096E+04  0.25500000920E-02 0.  1.
    10030    2    1    2    0    0  0.00000000000E+00  0.00000000000E+00  0.16959549994E+04  0.41642088185E+04  0.38032054538E+04 0.  0.
        2    1    3    3  502    0  0.16170843614E+04 -0.38443699770E+03  0.18594255567E+04  0.24940362944E+04  0.25500000920E-02 0. -1.
       -2    1    3    3    0  502 -0.16170843614E+04  0.38443699770E+03 -0.16347055734E+03  0.16701725241E+04  0.25500000920E-02 0.  1.
</event>
<event>
 5   0  0.7858367E-08  0.3829075E+04  0.7818609E-02  0.8039944E-01
       -2   -1    0    0    0  501  0.00000000000E+00  0.00000000000E+00  0.17739218491E+04  0.17739218491E+04  0.25500000920E-02 0. -1.
        2   -1    0    0  501    0  0.00000000000E+00  0.00000000000E+00 -0.20662993273E+04  0.20662993273E+04  0.25500000920E-02 0.  1.
    10030    2    1    2    0    0  0.00000000000E+00  0.00000000000E+00 -0.29237747820E+03  0.38402211765E+04  0.38290748353E+04 0.  0.
        2    1    3    3  502    0 -0.11795489432E+04  0.30309823877E+03  0.13353552899E+04  0.18073123698E+04  0.25500000920E-02 0. -1.
       -2    1    3    3    0  502  0.11795489432E+04 -0.30309823877E+03 -0.16277327681E+04  0.20329088067E+04  0.25500000920E-02 0.  1.
</event>
<event>
 5   0  0.3701250E-08  0.3803080E+04  0.7818609E-02  0.8045494E-01
        1   -1    0    0  501    0  0.00000000000E+00  0.00000000000E+00  0.13425155190E+04  0.13425155190E+04  0.50400001928E-02 0. -1.
       -1   -1    0    0    0  501  0.00000000000E+00  0.00000000000E+00 -0.26933421012E+04  0.26933421012E+04  0.50400001928E-02 0.  1.
    10030    2    1    2    0    0  0.00000000000E+00  0.00000000000E+00 -0.13508265822E+04  0.40358576203E+04  0.38030795779E+04 0.  0.
        3    1    3    3  502    0  0.11765184240E+04  0.59050437931E+03 -0.21316140835E+04  0.25053282490E+04  0.10100000352E+00 0.  1.
       -3    1    3    3    0  502 -0.11765184240E+04 -0.59050437931E+03  0.78078750127E+03  0.15305293713E+04  0.10100000352E+00 0. -1.
</event>
<event>
 5   0  0.3701250E-08  0.3806722E+04  0.7818609E-02  0.8044714E-01
        1   -1    0    0  501    0  0.00000000000E+00  0.00000000000E+00  0.21065742137E+04  0.21065742137E+04  0.50400001928E-02 0. -1.
       -1   -1    0    0    0  501  0.00000000000E+00  0.00000000000E+00 -0.17197507845E+04  0.17197507845E+04  0.50400001928E-02 0.  1.
    10030    2    1    2    0    0  0.00000000000E+00  0.00000000000E+00  0.38682342918E+03  0.38263249982E+04  0.38067217690E+04 0.  0.
        1    1    3    3  502    0 -0.11423129605E+04  0.64811165176E+03  0.15781325874E+04  0.20531512551E+04  0.50400001928E-02 0. -1.
       -1    1    3    3    0  502  0.11423129605E+04 -0.64811165176E+03 -0.11913091582E+04  0.17731737431E+04  0.50400001928E-02 0.  1.
</event>
<event>
 5   0  0.3701250E-08  0.3791184E+04  0.7818609E-02  0.8048049E-01
        1   -1    0    0  501    0  0.00000000000E+00  0.00000000000E+00  0.22185111481E+04  0.22185111481E+04  0.50400001928E-02 0. -1.
       -1   -1    0    0    0  501  0.00000000000E+00  0.00000000000E+00 -0.16196757801E+04  0.16196757801E+04  0.50400001928E-02 0.  1.
    10030    2    1    2    0    0  0.00000000000E+00  0.00000000000E+00  0.59883536798E+03  0.38381869282E+04  0.37911838650E+04 0.  0.
        2    1    3    3  502    0 -0.20063105186E+03 -0.16404654401E+04  0.12393075514E+04  0.20657354347E+04  0.25500000920E-02 0. -1.
       -2    1    3    3    0  502  0.20063105186E+03  0.16404654401E+04 -0.64047218342E+03  0.17724514935E+04  0.25500000920E-02 0.  1.
</event>
<event>
 5   0  0.7858367E-08  0.3825552E+04  0.7818609E-02  0.8040694E-01
        2   -1    0    0  501    0  0.00000000000E+00  0.00000000000E+00  0.21553406516E+04  0.21553406516E+04  0.25500000920E-02 0.  1.
       -2   -1    0    0    0  501  0.00000000000E+00  0.00000000000E+00 -0.16975097705E+04  0.16975097705E+04  0.25500000920E-02 0. -1.
    10030    2    1    2    0    0  0.00000000000E+00  0.00000000000E+00  0.45783088110E+03  0.38528504220E+04  0.38255518894E+04 0.  0.
        2    1    3    3  502    0  0.34003508667E+03  0.18145593578E+04 -0.27511785546E+03  0.18665313707E+04  0.25500000920E-02 0. -1.
       -2    1    3    3    0  502 -0.34003508667E+03 -0.18145593578E+04  0.73294873655E+03  0.19863190513E+04  0.25500000920E-02 0.  1.
</event>
<event>
 5   0  0.3701250E-08  0.3791282E+04  0.7818609E-02  0.8048028E-01
        1   -1    0    0  501    0  0.00000000000E+00  0.00000000000E+00  0.20542037716E+04  0.20542037716E+04  0.50400001928E-02 0. -1.
       -1   -1    0    0    0  501  0.00000000000E+00  0.00000000000E+00 -0.17493173120E+04  0.17493173120E+04  0.50400001928E-02 0.  1.
    10030    2    1    2    0    0  0.00000000000E+00  0.00000000000E+00  0.30488645953E+03  0.38035210836E+04  0.37912816936E+04 0.  0.
        3    1    3    3  502    0 -0.17055400171E+04 -0.80440161992E+03 -0.41897120620E+02  0.18861824130E+04  0.10100000352E+00 0.  1.
       -3    1    3    3    0  502  0.17055400171E+04  0.80440161992E+03  0.34678358015E+03  0.19173386706E+04  0.10100000352E+00 0. -1.
</event>
<event>
 5   0  0.7858367E-08  0.3805051E+04  0.7818609E-02  0.8045072E-01
       -2   -1    0    0    0  501  0.00000000000E+00  0.00000000000E+00  0.28559062772E+04  0.28559062772E+04  0.25500000920E-02 0.  1.
        2   -1    0    0  501    0  0.00000000000E+00  0.00000000000E+00 -0.12674098517E+04  0.12674098517E+04  0.25500000920E-02 0. -1.
    10030    2    1    2    0    0  0.00000000000E+00  0.00000000000E+00  0.15884964255E+04  0.41233161289E+04  0.38050512487E+04 0.  0.
        2    1    3    3  502    0  0.10956474043E+04  0.14861824446E+04  0.12913347039E+04  0.22531592954E+04  0.25500000920E-02 0.  1.
       -2    1    3    3    0  502 -0.10956474043E+04 -0.14861824446E+04  0.29716172167E+03  0.18701568335E+04  0.25500000920E-02 0. -1.
</event>
<event>
 5   0  0.1150235E-07  0.3794723E+04  0.7818609E-02  0.8047288E-01
       -2   -1    0    0    0  501  0.00000000000E+00  0.00000000000E+00  0.19685364051E+04  0.19685364051E+04  0.25500000920E-02 0.  1.
        2   -1    0    0  501    0  0.00000000000E+00  0.00000000000E+00 -0.18287604230E+04  0.18287604231E+04  0.25500000920E-02 0. -1.
    10030    2    1    2    0    0  0.00000000000E+00  0.00000000000E+00  0.13977598205E+03  0.37972968281E+04  0.37947234255E+04 0.  0.
        4    1    3    3  502    0  0.17361628765E+04  0.74044238514E+03  0.26357388550E+03  0.19057778636E+04  0.12699999809E+01 0.  1.
       -4    1    3    3    0  502 -0.17361628765E+04 -0.74044238514E+03 -0.12379790345E+03  0.18915189645E+04  0.12699999809E+01 0. -1.
</event>
<event>
 5   0  0.3889225E-08  0.3802813E+04  0.7818609E-02  0.8045552E-01
       -1   -1    0    0    0  501  0.00000000000E+00  0.00000000000E+00  0.23584297610E+04  0.23584297610E+04  0.50400001928E-02 0.  1.
        1   -1    0    0  501    0  0.00000000000E+00  0.00000000000E+00 -0.15329464144E+04  0.15329464144E+04  0.50400001928E-02 0. -1.
    10030    2    1    2    0    0  0.00000000000E+00  0.00000000000E+00  0.82548334654E+03  0.38913761754E+04  0.38028128777E+04 0.  0.
        5    1    3    3  502    0  0.11694702860E+04  0.86454561825E+03 -0.84061992327E+03  0.16798106504E+04  0.46999998093E+01 0. -1.
       -5    1    3    3    0  502 -0.11694702860E+04 -0.86454561825E+03  0.16661032698E+04  0.22115655250E+04  0.46999998093E+01 0.  1.
</event>
<event>
 5   0  0.1174870E-07  0.3794821E+04  0.7818609E-02  0.8047267E-01
       -2   -1    0    0    0  501  0.00000000000E+00  0.00000000000E+00  0.14449285232E+04  0.14449285232E+04  0.25500000920E-02 0.  1.
        2   -1    0    0  501    0  0.00000000000E+00  0.00000000000E+00 -0.24915874740E+04  0.24915874740E+04  0.25500000920E-02 0. -1.
    10030    2    1    2    0    0  0.00000000000E+00  0.00000000000E+00 -0.10466589507E+04  0.39365159972E+04  0.37948205803E+04 0.  0.
        5    1    3    3  502    0 -0.13476640895E+04 -0.53014329358E+03 -0.17950299957E+04  0.23063835729E+04  0.46999998093E+01 0. -1.
       -5    1    3    3    0  502  0.13476640895E+04  0.53014329358E+03  0.74837104499E+03  0.16301324243E+04  0.46999998093E+01 0.  1.
</event>
<event>
 5   0  0.7858367E-08  0.3593404E+04  0.7818609E-02  0.8092004E-01
        2   -1    0    0  501    0  0.00000000000E+00  0.00000000000E+00  0.21336062421E+04  0.21336062421E+04  0.25500000920E-02 0. -1.
       -2   -1    0    0    0  501  0.00000000000E+00  0.00000000000E+00 -0.15129963775E+04  0.15129963775E+04  0.25500000920E-02 0.  1.
    10030    2    1    2    0    0  0.00000000000E+00  0.00000000000E+00  0.62060986459E+03  0.36466026196E+04  0.35934042440E+04 0.  0.
        2    1    3    3  502    0  0.45497473189E+03 -0.45729720759E+03 -0.13914273569E+04  0.15336860279E+04  0.25500000920E-02 0.  1.
       -2    1    3    3    0  502 -0.45497473189E+03  0.45729720759E+03  0.20120372215E+04  0.21129165917E+04  0.25500000920E-02 0. -1.
</event>
<event>
 5   0  0.1193861E-07  0.3780797E+04  0.7818609E-02  0.8050288E-01
       -2   -1    0    0    0  501  0.00000000000E+00  0.00000000000E+00  0.28884716637E+04  0.28884716637E+04  0.25500000920E-02 0. -1.
        2   -1    0    0  501    0  0.00000000000E+00  0.00000000000E+00 -0.12371962371E+04  0.12371962371E+04  0.25500000920E-02 0.  1.
    10030    2    1    2    0    0  0.00000000000E+00  0.00000000000E+00  0.16512754266E+04  0.41256679008E+04  0.37807968860E+04 0.  0.
        3    1    3    3  502    0  0.60243265043E+03 -0.38502818150E+03 -0.10839707086E+04  0.12985238951E+04  0.10100000352E+00 0.  1.
       -3    1    3    3    0  502 -0.60243265043E+03  0.38502818150E+03  0.27352461352E+04  0.28271440057E+04  0.10100000352E+00 0. -1.
</event>
<event>
 5   0  0.1193861E-07  0.3796428E+04  0.7818609E-02  0.8046922E-01
        2   -1    0    0  501    0  0.00000000000E+00  0.00000000000E+00  0.18551528587E+04  0.18551528587E+04  0.25500000920E-02 0.  1.
       -2   -1    0    0    0  501  0.00000000000E+00  0.00000000000E+00 -0.19422749931E+04  0.19422749931E+04  0.25500000920E-02 0. -1.
    10030    2    1    2    0    0  0.00000000000E+00  0.00000000000E+00 -0.87122134420E+02  0.37974278517E+04  0.37964283245E+04 0.  0.
        3    1    3    3  502    0 -0.11085372751E+04 -0.13629122641E+04  0.67553867941E+03  0.18822160470E+04  0.10100000352E+00 0.  1.
       -3    1    3    3    0  502  0.11085372751E+04  0.13629122641E+04 -0.76266081383E+03  0.19152118048E+04  0.10100000352E+00 0. -1.
</event>
<event>
 5   0  0.3701250E-08  0.3797830E+04  0.7818609E-02  0.8046621E-01
       -1   -1    0    0    0  501  0.00000000000E+00  0.00000000000E+00  0.16009201513E+04  0.16009201513E+04  0.50400001928E-02 0. -1.
        1   -1    0    0  501    0  0.00000000000E+00  0.00000000000E+00 -0.22523783355E+04  0.22523783355E+04  0.50400001928E-02 0.  1.
    10030    2    1    2    0    0  0.00000000000E+00  0.00000000000E+00 -0.65145818417E+03  0.38532984868E+04  0.37978298359E+04 0.  0.
        2    1    3    3  502    0 -0.16618083586E+04 -0.90696787405E+03 -0.17633686694E+03  0.19013922362E+04  0.25500000920E-02 0.  1.
       -2    1    3    3    0  502  0.16618083586E+04  0.90696787405E+03 -0.47512131723E+03  0.19519062506E+04  0.25500000920E-02 0. -1.
</event>
<event>
 5   0  0.7858367E-08  0.3800565E+04  0.7818609E-02  0.8046034E-01
       -2   -1    0    0    0  501  0.00000000000E+00  0.00000000000E+00  0.32722202168E+04  0.32722202168E+04  0.25500000920E-02 0.  1.
        2   -1    0    0  501    0  0.00000000000E+00  0.00000000000E+00 -0.11035544745E+04  0.11035544745E+04  0.25500000920E-02 0. -1.
    10030    2    1    2    0    0  0.00000000000E+00  0.00000000000E+00  0.21686657423E+04  0.43757746913E+04  0.38005648327E+04 0.  0.
        2    1    3    3  502    0 -0.12386693681E+04  0.49276795161E+01 -0.57486667776E+03  0.13655759893E+04  0.25500000920E-02 0. -1.
       -2    1    3    3    0  502  0.12386693681E+04 -0.49276795161E+01  0.27435324201E+04  0.30101987020E+04  0.25500000920E-02 0.  1.
</event>
<event>
 5   0  0.1174870E-07  0.3804887E+04  0.7818609E-02  0.8045107E-01
        2   -1    0    0  501    0  0.00000000000E+00  0.00000000000E+00  0.19184416611E+04  0.19184416611E+04  0.25500000920E-02 0.  1.
       -2   -1    0    0    0  501  0.00000000000E+00  0.00000000000E+00 -0.18865791112E+04  0.18865791112E+04  0.25500000920E-02 0. -1.
    10030    2    1    2    0    0  0.00000000000E+00  0.00000000000E+00  0.31862549909E+02  0.38050207723E+04  0.38048873644E+04 0.  0.
        5    1    3    3  502    0 -0.18692608478E+03 -0.85155478994E+03 -0.16750398823E+04  0.18883505021E+04  0.46999998093E+01 0. -1.
       -5    1    3    3    0  502  0.18692608478E+03  0.85155478994E+03  0.17069024322E+04  0.19166702702E+04  0.46999998093E+01 0.  1.
</event>
<event>
 5   0  0.1193861E-07  0.3798605E+04  0.7818609E-02  0.8046454E-01
       -2   -1    0    0    0  501  0.00000000000E+00  0.00000000000E+00  0.30222472074E+04  0.30222472074E+04  0.25500000920E-02 0. -1.
        2   -1    0    0  501    0  0.00000000000E+00  0.00000000000E+00 -0.11935985948E+04  0.11935985948E+04  0.25500000920E-02 0.  1.
    10030    2    1    2    0    0  0.00000000000E+00  0.00000000000E+00  0.18286486126E+04  0.42158458022E+04  0.37986050176E+04 0.  0.
        3    1    3    3  502    0  0.28570439290E+03 -0.69792253497E+03  0.28489604040E+04  0.29470830084E+04  0.10100000352E+00 0. -1.
       -3    1    3    3    0  502 -0.28570439290E+03  0.69792253497E+03 -0.10203117914E+04  0.12687627938E+04  0.10100000352E+00 0.  1.
</event>
<event>
 5   0  0.3701250E-08  0.3710494E+04  0.7818609E-02  0.8065640E-01
       -1   -1    0    0    0  501  0.00000000000E+00  0.00000000000E+00  0.20969614206E+04  0.20969614206E+04  0.50400001928E-02 0.  1.
        1   -1    0    0  501    0  0.00000000000E+00  0.00000000000E+00 -0.16413949787E+04  0.16413949787E+04  0.50400001928E-02 0. -1.
    10030    2    1    2    0    0  0.00000000000E+00  0.00000000000E+00  0.45556644190E+03  0.37383563992E+04  0.37104942777E+04 0.  0.
        4    1    3    3  502    0 -0.11471897220E+04  0.14057505737E+04  0.61767931231E+03  0.19166920148E+04  0.12699999809E+01 0.  1.
       -4    1    3    3    0  502  0.11471897220E+04 -0.14057505737E+04 -0.16211287041E+03  0.18216643844E+04  0.12699999809E+01 0. -1.
</event>
<event>
 5   0  0.3701250E-08  0.3787601E+04  0.7818609E-02  0.8048821E-01
       -1   -1    0    0    0  501  0.00000000000E+00  0.00000000000E+00  0.17366393295E+04  0.17366393296E+04  0.50400001928E-02 0. -1.
        1   -1    0    0  501    0  0.00000000000E+00  0.00000000000E+00 -0.20651839540E+04  0.20651839540E+04  0.50400001928E-02 0.  1.
    10030    2    1    2    0    0  0.00000000000E+00  0.00000000000E+00 -0.32854462442E+03  0.38018232835E+04  0.37876006533E+04 0.  0.
        2    1    3    3  502    0 -0.15688072842E+04 -0.10513039134E+04 -0.22024022712E+02  0.18886188792E+04  0.25500000920E-02 0. -1.
       -2    1    3    3    0  502  0.15688072842E+04  0.10513039134E+04 -0.30652060170E+03  0.19132044043E+04  0.25500000920E-02 0.  1.
</event>
<event>
 5   0  0.3701250E-08  0.3801113E+04  0.7818609E-02  0.8045916E-01
        1   -1    0    0  501    0  0.00000000000E+00  0.00000000000E+00  0.17872032986E+04  0.17872032986E+04  0.50400001928E-02 0.  1.
       -1   -1    0    0    0  501  0.00000000000E+00  0.00000000000E+00 -0.20210990832E+04  0.20210990832E+04  0.50400001928E-02 0. -1.
    10030    2    1    2    0    0  0.00000000000E+00  0.00000000000E+00 -0.23389578466E+03  0.38083023818E+04  0.38011129677E+04 0.  0.
        1    1    3    3  502    0 -0.10778335699E+04 -0.15543747813E+04  0.68628745965E+02  0.18927535683E+04  0.50400001928E-02 0.  1.
       -1    1    3    3    0  502  0.10778335699E+04  0.15543747813E+04 -0.30252453063E+03  0.19155488135E+04  0.50400001928E-02 0. -1.
</event>
<event>
 5   0  0.1174870E-07  0.3817971E+04  0.7818609E-02  0.8042309E-01
        2   -1    0    0  501    0  0.00000000000E+00  0.00000000000E+00  0.10591711353E+04  0.10591711353E+04  0.25500000920E-02 0. -1.
       -2   -1    0    0    0  501  0.00000000000E+00  0.00000000000E+00 -0.34406395043E+04  0.34406395043E+04  0.25500000920E-02 0.  1.
    10030    2    1    2    0    0  0.00000000000E+00  0.00000000000E+00 -0.23814683691E+04  0.44998106396E+04  0.38179712151E+04 0.  0.
        5    1    3    3  502    0 -0.58027468878E+03  0.86433123591E+03  0.69515825360E+03  0.12518203894E+04  0.46999998093E+01 0. -1.
       -5    1    3    3    0  502  0.58027468878E+03 -0.86433123591E+03 -0.30766266227E+04  0.32479902502E+04  0.46999998093E+01 0.  1.
</event>
<event>
 5   0  0.3889225E-08  0.3769744E+04  0.7818609E-02  0.8052679E-01
       -1   -1    0    0    0  501  0.00000000000E+00  0.00000000000E+00  0.25876300870E+04  0.25876300870E+04  0.50400001928E-02 0.  1.
        1   -1    0    0  501    0  0.00000000000E+00  0.00000000000E+00 -0.13729715180E+04  0.13729715180E+04  0.50400001928E-02 0. -1.
    10030    2    1    2    0    0  0.00000000000E+00  0.00000000000E+00  0.12146585689E+04  0.39606016050E+04  0.37697439747E+04 0.  0.
        5    1    3    3  502    0  0.78879175805E+03  0.11572340310E+04 -0.71802022509E+03  0.15738354977E+04  0.46999998093E+01 0. -1.
       -5    1    3    3    0  502 -0.78879175805E+03 -0.11572340310E+04  0.19326787940E+04  0.23867661073E+04  0.46999998093E+01 0.  1.
</event>
<event>
 5   0  0.3701250E-08  0.3810171E+04  0.7818609E-02  0.8043976E-01
       -1   -1    0    0    0  501  0.00000000000E+00  0.00000000000E+00  0.16072632388E+04  0.16072632388E+04  0.50400001928E-02 0. -1.
        1   -1    0    0  501    0  0.00000000000E+00  0.00000000000E+00 -0.22580940370E+04  0.22580940370E+04  0.50400001928E-02 0.  1.
    10030    2    1    2    0    0  0.00000000000E+00  0.00000000000E+00 -0.65083079826E+03  0.38653572758E+04  0.38101714059E+04 0.  0.
        1    1    3    3  502    0 -0.31988172955E+03  0.81161318767E+03  0.13927234846E+04  0.16433864402E+04  0.50400001928E-02 0. -1.
       -1    1    3    3    0  502  0.31988172955E+03 -0.81161318767E+03 -0.20435542829E+04  0.22219708356E+04  0.50400001928E-02 0.  1.
</event>
<event>
 5   0  0.1143283E-07  0.3812319E+04  0.7818609E-02  0.8043516E-01
        2   -1    0    0  501    0  0.00000000000E+00  0.00000000000E+00  0.21836571856E+04  0.21836571856E+04  0.25500000920E-02 0.  1.
       -2   -1    0    0    0  501  0.00000000000E+00  0.00000000000E+00 -0.16639260871E+04  0.16639260871E+04  0.25500000920E-02 0. -1.
    10030    2    1    2    0    0  0.00000000000E+00  0.00000000000E+00  0.51973109843E+03  0.38475832727E+04  0.38123190614E+04 0.  0.
        1    1    3    3  502    0 -0.12919846653E+04 -0.77553692216E+03  0.14380379281E+04  0.20829390235E+04  0.50400001928E-02 0.  1.
       -1    1    3    3    0  502  0.12919846653E+04  0.77553692216E+03 -0.91830682965E+03  0.17646442492E+04  0.50400001928E-02 0. -1.
</event>
<event>
 5   0  0.3701250E-08  0.3765045E+04  0.7818609E-02  0.8053698E-01
        1   -1    0    0  501    0  0.00000000000E+00  0.00000000000E+00  0.13654369617E+04  0.13654369617E+04  0.50400001928E-02 0.  1.
       -1   -1    0    0    0  501  0.00000000000E+00  0.00000000000E+00 -0.25954265129E+04  0.25954265129E+04  0.50400001928E-02 0. -1.
    10030    2    1    2    0    0  0.00000000000E+00  0.00000000000E+00 -0.12299895512E+04  0.39608634747E+04  0.37650451749E+04 0.  0.
        1    1    3    3  502    0  0.16548945274E+04 -0.75993652241E+03 -0.11298459619E+03  0.18245396499E+04  0.50400001928E-02 0.  1.
       -1    1    3    3    0  502 -0.16548945274E+04  0.75993652241E+03 -0.11170049550E+04  0.21363238248E+04  0.50400001928E-02 0. -1.
</event>
<event>
 5   0  0.1143283E-07  0.3799559E+04  0.7818609E-02  0.8046250E-01
       -2   -1    0    0    0  501  0.00000000000E+00  0.00000000000E+00  0.16036063292E+04  0.16036063292E+04  0.25500000920E-02 0. -1.
        2   -1    0    0  501    0  0.00000000000E+00  0.00000000000E+00 -0.22506533938E+04  0.22506533938E+04  0.25500000920E-02 0.  1.
    10030    2    1    2    0    0  0.00000000000E+00  0.00000000000E+00 -0.64704706462E+03  0.38542597230E+04  0.37995589361E+04 0.  0.
        1    1    3    3  502    0 -0.53461087312E+03 -0.61625402458E+03 -0.20639113082E+04  0.22193034260E+04  0.50400001928E-02 0.  1.
       -1    1    3    3    0  502  0.53461087312E+03  0.61625402458E+03  0.14168642436E+04  0.16349562970E+04  0.50400001928E-02 0. -1.
</event>
<event>
 5   0  0.3701250E-08  0.3771263E+04  0.7818609E-02  0.8052350E-01
       -1   -1    0    0    0  501  0.00000000000E+00  0.00000000000E+00  0.17555013195E+04  0.17555013195E+04  0.50400001928E-02 0. -1.
        1   -1    0    0  501    0  0.00000000000E+00  0.00000000000E+00 -0.20254079313E+04  0.20254079313E+04  0.50400001928E-02 0.  1.
    10030    2    1    2    0    0  0.00000000000E+00  0.00000000000E+00 -0.26990661178E+03  0.37809092508E+04  0.37712630754E+04 0.  0.
        1    1    3    3  502    0  0.80795898209E+03  0.48039420142E+03 -0.17737689036E+04  0.20074442530E+04  0.50400001928E-02 0.  1.
       -1    1    3    3    0  502 -0.80795898209E+03 -0.48039420142E+03  0.15038622919E+04  0.17734649978E+04  0.50400001928E-02 0. -1.
</event>
<event>
 5   0  0.3701250E-08  0.3717612E+04  0.7818609E-02  0.8064070E-01
       -1   -1    0    0    0  501  0.00000000000E+00  0.00000000000E+00  0.21918365519E+04  0.21918365519E+04  0.50400001928E-02 0.  1.
        1   -1    0    0  501    0  0.00000000000E+00  0.00000000000E+00 -0.15763769293E+04  0.15763769293E+04  0.50400001928E-02 0. -1.
    10030    2    1    2    0    0  0.00000000000E+00  0.00000000000E+00  0.61545962264E+03  0.37682134812E+04  0.37176124452E+04 0.  0.
        4    1    3    3  502    0  0.53395636611E+03  0.20523917333E+03 -0.14849373016E+04  0.15913116985E+04  0.12699999809E+01 0. -1.
       -4    1    3    3    0  502 -0.53395636611E+03 -0.20523917333E+03  0.21003969243E+04  0.21769017827E+04  0.12699999809E+01 0.  1.
</event>
<event>
 5   0  0.1150235E-07  0.3796741E+04  0.7818609E-02  0.8046855E-01
        2   -1    0    0  501    0  0.00000000000E+00  0.00000000000E+00  0.21263313297E+04  0.21263313297E+04  0.25500000920E-02 0. -1.
       -2   -1    0    0    0  501  0.00000000000E+00  0.00000000000E+00 -0.16948491121E+04  0.16948491121E+04  0.25500000920E-02 0.  1.
    10030    2    1    2    0    0  0.00000000000E+00  0.00000000000E+00  0.43148221756E+03  0.38211804418E+04  0.37967411111E+04 0.  0.
        4    1    3    3  502    0 -0.70748929953E+03  0.17012671936E+04  0.67580276914E+03  0.19625397241E+04  0.12699999809E+01 0. -1.
       -4    1    3    3    0  502  0.70748929953E+03 -0.17012671936E+04 -0.24432055158E+03  0.18586407178E+04  0.12699999809E+01 0.  1.
</event>
<event>
 5   0  0.3701250E-08  0.3740609E+04  0.7818609E-02  0.8059021E-01
       -1   -1    0    0    0  501  0.00000000000E+00  0.00000000000E+00  0.29130979943E+04  0.29130979943E+04  0.50400001928E-02 0. -1.
        1   -1    0    0  501    0  0.00000000000E+00  0.00000000000E+00 -0.12007969717E+04  0.12007969717E+04  0.50400001928E-02 0.  1.
    10030    2    1    2    0    0  0.00000000000E+00  0.00000000000E+00  0.17123010226E+04  0.41138949660E+04  0.37406091749E+04 0.  0.
        1    1    3    3  502    0 -0.18529852637E+04  0.42940185350E+02  0.11314086795E+04  0.21715164855E+04  0.50400001928E-02 0.  1.
       -1    1    3    3    0  502  0.18529852637E+04 -0.42940185350E+02  0.58089234308E+03  0.19423784804E+04  0.50400001928E-02 0. -1.
</event>
<event>
 5   0  0.3701250E-08  0.3799764E+04  0.7818609E-02  0.8046206E-01
       -1   -1    0    0    0  501  0.00000000000E+00  0.00000000000E+00  0.18786379705E+04  0.18786379705E+04  0.50400001928E-02 0.  1.
        1   -1    0    0  501    0  0.00000000000E+00  0.00000000000E+00 -0.19213658498E+04  0.19213658498E+04  0.50400001928E-02 0. -1.
    10030    2    1    2    0    0  0.00000000000E+00  0.00000000000E+00 -0.42727879336E+02  0.38000038203E+04  0.37997635930E+04 0.  0.
        1    1    3    3  502    0 -0.70703167211E+03 -0.46001752284E+02  0.17415693643E+04  0.18801791929E+04  0.50400001928E-02 0.  1.
       -1    1    3    3    0  502  0.70703167211E+03  0.46001752284E+02 -0.17842972436E+04  0.19198246275E+04  0.50400001928E-02 0. -1.
</event>
<event>
 5   0  0.1143283E-07  0.3801215E+04  0.7818609E-02  0.8045894E-01
        2   -1    0    0  501    0  0.00000000000E+00  0.00000000000E+00  0.18292702151E+04  0.18292702151E+04  0.25500000920E-02 0. -1.
       -2   -1    0    0    0  501  0.00000000000E+00  0.00000000000E+00 -0.19747263990E+04  0.19747263990E+04  0.25500000920E-02 0.  1.
    10030    2    1    2    0    0  0.00000000000E+00  0.00000000000E+00 -0.14545618392E+03  0.38039966141E+04  0.38012146399E+04 0.  0.
        1    1    3    3  502    0 -0.86206844526E+02  0.10258186502E+04  0.15261184621E+04  0.18408620491E+04  0.50400001928E-02 0. -1.
       -1    1    3    3    0  502  0.86206844526E+02 -0.10258186502E+04 -0.16715746460E+04  0.19631345651E+04  0.50400001928E-02 0.  1.
</event>
<event>
 5   0  0.1193861E-07  0.3798839E+04  0.7818609E-02  0.8046404E-01
        2   -1    0    0  501    0  0.00000000000E+00  0.00000000000E+00  0.16877865852E+04  0.16877865852E+04  0.25500000920E-02 0. -1.
       -2   -1    0    0    0  501  0.00000000000E+00  0.00000000000E+00 -0.21375887555E+04  0.21375887555E+04  0.25500000920E-02 0.  1.
    10030    2    1    2    0    0  0.00000000000E+00  0.00000000000E+00 -0.44980217025E+03  0.38253753407E+04  0.37988385732E+04 0.  0.
        3    1    3    3  502    0 -0.10782036568E+04 -0.42081476132E+03  0.12916690266E+04  0.17343635932E+04  0.10100000352E+00 0. -1.
       -3    1    3    3    0  502  0.10782036568E+04  0.42081476132E+03 -0.17414711969E+04  0.20910117476E+04  0.10100000352E+00 0.  1.
</event>
<event>
 5   0  0.7858367E-08  0.3789305E+04  0.7818609E-02  0.8048454E-01
       -2   -1    0    0    0  501  0.00000000000E+00  0.00000000000E+00  0.23143227283E+04  0.23143227283E+04  0.25500000920E-02 0. -1.
        2   -1    0    0  501    0  0.00000000000E+00  0.00000000000E+00 -0.15510837121E+04  0.15510837121E+04  0.25500000920E-02 0.  1.
    10030    2    1    2    0    0  0.00000000000E+00  0.00000000000E+00  0.76323901613E+03  0.38654064404E+04  0.37893051017E+04 0.  0.
        2    1    3    3  502    0  0.50607827661E+03 -0.95669139237E+03 -0.12047114152E+04  0.16194762228E+04  0.25500000920E-02 0.  1.
       -2    1    3    3    0  502 -0.50607827661E+03  0.95669139237E+03  0.19679504313E+04  0.22459302176E+04  0.25500000920E-02 0. -1.
</event>
<event>
 5   0  0.7858367E-08  0.3799807E+04  0.7818609E-02  0.8046196E-01
        2   -1    0    0  501    0  0.00000000000E+00  0.00000000000E+00  0.20682847487E+04  0.20682847487E+04  0.25500000920E-02 0. -1.
       -2   -1    0    0    0  501  0.00000000000E+00  0.00000000000E+00 -0.17452299772E+04  0.17452299772E+04  0.25500000920E-02 0.  1.
    10030    2    1    2    0    0  0.00000000000E+00  0.00000000000E+00  0.32305477151E+03  0.38135147259E+04  0.37998065976E+04 0.  0.
        2    1    3    3  502    0 -0.58502588127E+03  0.11774087145E+04 -0.12149473950E+04  0.17901518749E+04  0.25500000920E-02 0.  1.
       -2    1    3    3    0  502  0.58502588127E+03 -0.11774087145E+04  0.15380021665E+04  0.20233628510E+04  0.25500000920E-02 0. -1.
</event>
<event>
 5   0  0.1143283E-07  0.3761662E+04  0.7818609E-02  0.8054433E-01
        2   -1    0    0  501    0  0.00000000000E+00  0.00000000000E+00  0.14163956180E+04  0.14163956180E+04  0.25500000920E-02 0. -1.
       -2   -1    0    0    0  501  0.00000000000E+00  0.00000000000E+00 -0.24975539443E+04  0.24975539443E+04  0.25500000920E-02 0.  1.
    10030    2    1    2    0    0  0.00000000000E+00  0.00000000000E+00 -0.10811583263E+04  0.39139495623E+04  0.37616615809E+04 0.  0.
        1    1    3    3  502    0 -0.66510761912E+03 -0.14505012831E+04  0.49531804754E+03  0.16708267670E+04  0.50400001928E-02 0.  1.
       -1    1    3    3    0  502  0.66510761912E+03  0.14505012831E+04 -0.15764763739E+04  0.22431227953E+04  0.50400001928E-02 0. -1.
</event>
<event>
 5   0  0.1174870E-07  0.3805124E+04  0.7818609E-02  0.8045056E-01
        2   -1    0    0  501    0  0.00000000000E+00  0.00000000000E+00  0.25673878214E+04  0.25673878214E+04  0.25500000920E-02 0. -1.
       -2   -1    0    0    0  501  0.00000000000E+00  0.00000000000E+00 -0.14098929545E+04  0.14098929545E+04  0.25500000920E-02 0.  1.
    10030    2    1    2    0    0  0.00000000000E+00  0.00000000000E+00  0.11574948669E+04  0.39772807758E+04  0.38051239143E+04 0.  0.
        5    1    3    3  502    0  0.39606783544E+03 -0.14935913982E+04  0.17389369978E+04  0.23262865188E+04  0.46999998093E+01 0. -1.
       -5    1    3    3    0  502 -0.39606783544E+03  0.14935913982E+04 -0.58144213094E+03  0.16509942570E+04  0.46999998093E+01 0.  1.
</event>
<event>
 5   0  0.1150235E-07  0.3781146E+04  0.7818609E-02  0.8050213E-01
        2   -1    0    0  501    0  0.00000000000E+00  0.00000000000E+00  0.16912406627E+04  0.16912406627E+04  0.25500000920E-02 0.  1.
       -2   -1    0    0    0  501  0.00000000000E+00  0.00000000000E+00 -0.21133991050E+04  0.21133991050E+04  0.25500000920E-02 0. -1.
    10030    2    1    2    0    0  0.00000000000E+00  0.00000000000E+00 -0.42215844232E+03  0.38046397678E+04  0.37811461241E+04 0.  0.
        4    1    3    3  502    0  0.72615612189E+03  0.17057117712E+04  0.16204761111E+03  0.18609181607E+04  0.12699999809E+01 0.  1.
       -4    1    3    3    0  502 -0.72615612189E+03 -0.17057117712E+04 -0.58420605343E+03  0.19437216070E+04  0.12699999809E+01 0. -1.
</event>
<event>
 5   0  0.3701250E-08  0.3790720E+04  0.7818609E-02  0.8048149E-01
       -1   -1    0    0    0  501  0.00000000000E+00  0.00000000000E+00  0.17336167496E+04  0.17336167496E+04  0.50400001928E-02 0.  1.
        1   -1    0    0  501    0  0.00000000000E+00  0.00000000000E+00 -0.20721936727E+04  0.20721936727E+04  0.50400001928E-02 0. -1.
    10030    2    1    2    0    0  0.00000000000E+00  0.00000000000E+00 -0.33857692306E+03  0.38058104223E+04  0.37907200685E+04 0.  0.
        1    1    3    3  502    0  0.77013907421E+03  0.10114227149E+04 -0.15806940197E+04  0.20284683102E+04  0.50400001928E-02 0. -1.
       -1    1    3    3    0  502 -0.77013907421E+03 -0.10114227149E+04  0.12421170966E+04  0.17773421121E+04  0.50400001928E-02 0.  1.
</event>
<event>
 5   0  0.3701250E-08  0.3787063E+04  0.7818609E-02  0.8048937E-01
       -1   -1    0    0    0  501  0.00000000000E+00  0.00000000000E+00  0.16312195986E+04  0.16312195986E+04  0.50400001928E-02 0. -1.
        1   -1    0    0  501    0  0.00000000000E+00  0.00000000000E+00 -0.21980255942E+04  0.21980255942E+04  0.50400001928E-02 0.  1.
    10030    2    1    2    0    0  0.00000000000E+00  0.00000000000E+00 -0.56680599555E+03  0.38292451928E+04  0.37870634679E+04 0.  0.
        3    1    3    3  502    0 -0.62322953062E+03  0.12741468672E+04  0.98500032098E+03  0.17268731655E+04  0.10100000352E+00 0. -1.
       -3    1    3    3    0  502  0.62322953062E+03 -0.12741468672E+04 -0.15518063165E+04  0.21023720273E+04  0.10100000352E+00 0.  1.
</event>
<event>
 5   0  0.3701250E-08  0.3789059E+04  0.7818609E-02  0.8048507E-01
       -1   -1    0    0    0  501  0.00000000000E+00  0.00000000000E+00  0.23428010800E+04  0.23428010800E+04  0.50400001928E-02 0. -1.
        1   -1    0    0  501    0  0.00000000000E+00  0.00000000000E+00 -0.15320303735E+04  0.15320303735E+04  0.50400001928E-02 0.  1.
    10030    2    1    2    0    0  0.00000000000E+00  0.00000000000E+00  0.81077070645E+03  0.38748314535E+04  0.37890592044E+04 0.  0.
        2    1    3    3  502    0  0.67962481981E+03 -0.31534236516E+03 -0.13740943099E+04  0.15650769551E+04  0.25500000920E-02 0.  1.
       -2    1    3    3    0  502 -0.67962481981E+03  0.31534236516E+03  0.21848650164E+04  0.23097544984E+04  0.25500000920E-02 0. -1.
</event>
<event>
 5   0  0.1150235E-07  0.3815181E+04  0.7818609E-02  0.8042905E-01
        2   -1    0    0  501    0  0.00000000000E+00  0.00000000000E+00  0.19975946978E+04  0.19975946978E+04  0.25500000920E-02 0. -1.
       -2   -1    0    0    0  501  0.00000000000E+00  0.00000000000E+00 -0.18216411930E+04  0.18216411930E+04  0.25500000920E-02 0.  1.
    10030    2    1    2    0    0  0.00000000000E+00  0.00000000000E+00  0.17595350481E+03  0.38192358908E+04  0.38151806187E+04 0.  0.
        4    1    3    3  502    0 -0.76761793237E+02  0.12971213183E+03  0.19916240808E+04  0.19973196294E+04  0.12699999809E+01 0. -1.
       -4    1    3    3    0  502  0.76761793237E+02 -0.12971213183E+03 -0.18156705760E+04  0.18219162613E+04  0.12699999809E+01 0.  1.
</event>
<event>
 5   0  0.3701250E-08  0.3800100E+04  0.7818609E-02  0.8046133E-01
        1   -1    0    0  501    0  0.00000000000E+00  0.00000000000E+00  0.14432566587E+04  0.14432566587E+04  0.50400001928E-02 0. -1.
       -1   -1    0    0    0  501  0.00000000000E+00  0.00000000000E+00 -0.25014195510E+04  0.25014195510E+04  0.50400001928E-02 0.  1.
    10030    2    1    2    0    0  0.00000000000E+00  0.00000000000E+00 -0.10581628923E+04  0.39446762097E+04  0.38001002214E+04 0.  0.
        3    1    3    3  502    0  0.32375326640E+03 -0.13534811497E+03  0.14093288889E+04  0.14523578130E+04  0.10100000352E+00 0. -1.
       -3    1    3    3    0  502 -0.32375326640E+03  0.13534811497E+03 -0.24674917813E+04  0.24923183967E+04  0.10100000352E+00 0.  1.
</event>
<event>
 5   0  0.1193861E-07  0.3810050E+04  0.7818609E-02  0.8044002E-01
        2   -1    0    0  501    0  0.00000000000E+00  0.00000000000E+00  0.33194138368E+04  0.33194138368E+04  0.25500000920E-02 0.  1.
       -2   -1    0    0    0  501  0.00000000000E+00  0.00000000000E+00 -0.10933014473E+04  0.10933014473E+04  0.25500000920E-02 0. -1.
    10030    2    1    2    0    0  0.00000000000E+00  0.00000000000E+00  0.22261123895E+04  0.44127152841E+04  0.38100498433E+04 0.  0.
        3    1    3    3  502    0 -0.76725197048E+02  0.16480483571E+04  0.99443662912E+01  0.16498633409E+04  0.10100000352E+00 0. -1.
       -3    1    3    3    0  502  0.76725197048E+02 -0.16480483571E+04  0.22161680232E+04  0.27628519432E+04  0.10100000352E+00 0.  1.
</event>
<event>
 5   0  0.3701250E-08  0.3740800E+04  0.7818609E-02  0.8058980E-01
        1   -1    0    0  501    0  0.00000000000E+00  0.00000000000E+00  0.25389274715E+04  0.25389274716E+04  0.50400001928E-02 0. -1.
       -1   -1    0    0    0  501  0.00000000000E+00  0.00000000000E+00 -0.13779033541E+04  0.13779033541E+04  0.50400001928E-02 0.  1.
    10030    2    1    2    0    0  0.00000000000E+00  0.00000000000E+00  0.11610241175E+04  0.39168308256E+04  0.37408002774E+04 0.  0.
        3    1    3    3  502    0 -0.41997282765E+03  0.13782650668E+03 -0.13224324060E+04  0.13943460118E+04  0.10100000352E+00 0.  1.
       -3    1    3    3    0  502  0.41997282765E+03 -0.13782650668E+03  0.24834565235E+04  0.25224848139E+04  0.10100000352E+00 0. -1.
</event>
<event>
 5   0  0.1150235E-07  0.3808566E+04  0.7818609E-02  0.8044319E-01
        2   -1    0    0  501    0  0.00000000000E+00  0.00000000000E+00  0.21707477058E+04  0.21707477058E+04  0.25500000920E-02 0.  1.
       -2   -1    0    0    0  501  0.00000000000E+00  0.00000000000E+00 -0.16705271381E+04  0.16705271381E+04  0.25500000920E-02 0. -1.
    10030    2    1    2    0    0  0.00000000000E+00  0.00000000000E+00  0.50022056769E+03  0.38412748439E+04  0.38085655843E+04 0.  0.
        4    1    3    3  502    0 -0.44933949032E+03 -0.10392343056E+04  0.17943961918E+04  0.21217382556E+04  0.12699999809E+01 0.  1.
       -4    1    3    3    0  502  0.44933949032E+03  0.10392343056E+04 -0.12941756241E+04  0.17195365883E+04  0.12699999809E+01 0. -1.
</event>
<event>
 5   0  0.3701250E-08  0.3802152E+04  0.7818609E-02  0.8045693E-01
        1   -1    0    0  501    0  0.00000000000E+00  0.00000000000E+00  0.26819563524E+04  0.26819563524E+04  0.50400001928E-02 0. -1.
       -1   -1    0    0    0  501  0.00000000000E+00  0.00000000000E+00 -0.13475574387E+04  0.13475574387E+04  0.50400001928E-02 0.  1.
    10030    2    1    2    0    0  0.00000000000E+00  0.00000000000E+00  0.13343989137E+04  0.40295137911E+04  0.38021521447E+04 0.  0.
        3    1    3    3  502    0 -0.28441188399E+03 -0.18511277349E+04  0.32129879139E+03  0.19002097079E+04  0.10100000352E+00 0. -1.
       -3    1    3    3    0  502  0.28441188399E+03  0.18511277349E+04  0.10131001223E+04  0.21293040831E+04  0.10100000352E+00 0.  1.
</event>
<event>
 5   0  0.1174870E-07  0.3792524E+04  0.7818609E-02  0.8047761E-01
       -2   -1    0    0    0  501  0.00000000000E+00  0.00000000000E+00  0.14141990336E+04  0.14141990336E+04  0.25500000920E-02 0. -1.
        2   -1    0    0  501    0  0.00000000000E+00  0.00000000000E+00 -0.25426479630E+04  0.25426479630E+04  0.25500000920E-02 0.  1.
    10030    2    1    2    0    0  0.00000000000E+00  0.00000000000E+00 -0.11284489294E+04  0.39568469965E+04  0.37925243793E+04 0.  0.
        5    1    3    3  502    0  0.16305937607E+04 -0.59537263954E+03 -0.13604988229E+04  0.22055121241E+04  0.46999998093E+01 0.  1.
       -5    1    3    3    0  502 -0.16305937607E+04  0.59537263954E+03  0.23204989355E+03  0.17513348724E+04  0.46999998093E+01 0. -1.
</event>
<event>
 5   0  0.1193861E-07  0.3798829E+04  0.7818609E-02  0.8046406E-01
        2   -1    0    0  501    0  0.00000000000E+00  0.00000000000E+00  0.31601961212E+04  0.31601961212E+04  0.25500000920E-02 0.  1.
       -2   -1    0    0    0  501  0.00000000000E+00  0.00000000000E+00 -0.11416303037E+04  0.11416303037E+04  0.25500000920E-02 0. -1.
    10030    2    1    2    0    0  0.00000000000E+00  0.00000000000E+00  0.20185658175E+04  0.43018264249E+04  0.37988291131E+04 0.  0.
        3    1    3    3  502    0 -0.12800697014E+04 -0.59508445681E+03  0.24484096014E+04  0.28262012557E+04  0.10100000352E+00 0.  1.
       -3    1    3    3    0  502  0.12800697014E+04  0.59508445681E+03 -0.42984378391E+03  0.14756251692E+04  0.10100000352E+00 0. -1.
</event>
<event>
 5   0  0.1193861E-07  0.3794115E+04  0.7818609E-02  0.8047419E-01
       -2   -1    0    0    0  501  0.00000000000E+00  0.00000000000E+00  0.26044487561E+04  0.26044487561E+04  0.25500000920E-02 0. -1.
        2   -1    0    0  501    0  0.00000000000E+00  0.00000000000E+00 -0.13818000382E+04  0.13818000382E+04  0.25500000920E-02 0.  1.
    10030    2    1    2    0    0  0.00000000000E+00  0.00000000000E+00  0.12226487179E+04  0.39862487942E+04  0.37941151224E+04 0.  0.
        3    1    3    3  502    0 -0.47532013262E+03 -0.18297308171E+04  0.44525913322E+03  0.19421894340E+04  0.10100000352E+00 0. -1.
       -3    1    3    3    0  502  0.47532013262E+03  0.18297308171E+04  0.77738958467E+03  0.20440593602E+04  0.10100000352E+00 0.  1.
</event>
<event>
 5   0  0.3701250E-08  0.3827973E+04  0.7818609E-02  0.8040178E-01
        1   -1    0    0  501    0  0.00000000000E+00  0.00000000000E+00  0.25199060430E+04  0.25199060430E+04  0.50400001928E-02 0. -1.
       -1   -1    0    0    0  501  0.00000000000E+00  0.00000000000E+00 -0.14537626335E+04  0.14537626335E+04  0.50400001928E-02 0.  1.
    10030    2    1    2    0    0  0.00000000000E+00  0.00000000000E+00  0.10661434096E+04  0.39736686765E+04  0.38279734823E+04 0.  0.
        4    1    3    3  502    0  0.68835297210E+03  0.17265985498E+03  0.23782817994E+04  0.24819079696E+04  0.12699999809E+01 0. -1.
       -4    1    3    3    0  502 -0.68835297210E+03 -0.17265985498E+03 -0.13121383898E+04  0.14917607069E+04  0.12699999809E+01 0.  1.
</event>
<event>
 5   0  0.3701250E-08  0.3793340E+04  0.7818609E-02  0.8047586E-01
       -1   -1    0    0    0  501  0.00000000000E+00  0.00000000000E+00  0.22034908015E+04  0.22034908015E+04  0.50400001928E-02 0.  1.
        1   -1    0    0  501    0  0.00000000000E+00  0.00000000000E+00 -0.16325717358E+04  0.16325717358E+04  0.50400001928E-02 0. -1.
    10030    2    1    2    0    0  0.00000000000E+00  0.00000000000E+00  0.57091906569E+03  0.38360625372E+04  0.37933398490E+04 0.  0.
        4    1    3    3  502    0  0.63249292371E+03 -0.82119472575E+03 -0.13208084349E+04  0.16789712954E+04  0.12699999809E+01 0. -1.
       -4    1    3    3    0  502 -0.63249292371E+03  0.82119472575E+03  0.18917275006E+04  0.21570912418E+04  0.12699999809E+01 0.  1.
</event>
<event>
 5   0  0.3701250E-08  0.3806004E+04  0.7818609E-02  0.8044868E-01
       -1   -1    0    0    0  501  0.00000000000E+00  0.00000000000E+00  0.16330119417E+04  0.16330119417E+04  0.50400001928E-02 0.  1.
        1   -1    0    0  501    0  0.00000000000E+00  0.00000000000E+00 -0.22176301665E+04  0.22176301665E+04  0.50400001928E-02 0. -1.
    10030    2    1    2    0    0  0.00000000000E+00  0.00000000000E+00 -0.58461822484E+03  0.38506421082E+04  0.38060039643E+04 0.  0.
        1    1    3    3  502    0 -0.14206838259E+04  0.48355155852E+03  0.89156519538E+03  0.17455810323E+04  0.50400001928E-02 0.  1.
       -1    1    3    3    0  502  0.14206838259E+04 -0.48355155852E+03 -0.14761834202E+04  0.21050610758E+04  0.50400001928E-02 0. -1.
</event>
<event>
 5   0  0.3889225E-08  0.3777946E+04  0.7818609E-02  0.8050904E-01
        1   -1    0    0  501    0  0.00000000000E+00  0.00000000000E+00  0.14449349736E+04  0.14449349736E+04  0.50400001928E-02 0. -1.
       -1   -1    0    0    0  501  0.00000000000E+00  0.00000000000E+00 -0.24694668624E+04  0.24694668624E+04  0.50400001928E-02 0.  1.
    10030    2    1    2    0    0  0.00000000000E+00  0.00000000000E+00 -0.10245318888E+04  0.39144018360E+04  0.37779460217E+04 0.  0.
        5    1    3    3  502    0  0.18683732989E+04 -0.62538160377E+02 -0.79310417295E+03  0.20307058193E+04  0.46999998093E+01 0.  1.
       -5    1    3    3    0  502 -0.18683732989E+04  0.62538160377E+02 -0.23142771587E+03  0.18836960167E+04  0.46999998093E+01 0. -1.
</event>
<event>
 5   0  0.3701250E-08  0.3797988E+04  0.7818609E-02  0.8046587E-01
        1   -1    0    0  501    0  0.00000000000E+00  0.00000000000E+00  0.22102697137E+04  0.22102697137E+04  0.50400001928E-02 0. -1.
       -1   -1    0    0    0  501  0.00000000000E+00  0.00000000000E+00 -0.16315554324E+04  0.16315554324E+04  0.50400001928E-02 0.  1.
    10030    2    1    2    0    0  0.00000000000E+00  0.00000000000E+00  0.57871428136E+03  0.38418251461E+04  0.37979876558E+04 0.  0.
        3    1    3    3  502    0 -0.67361515094E+03 -0.95262994794E+03 -0.12262412251E+04  0.16926100383E+04  0.10100000352E+00 0.  1.
       -3    1    3    3    0  502  0.67361515094E+03  0.95262994794E+03  0.18049555065E+04  0.21492151078E+04  0.10100000352E+00 0. -1.
</event>
<event>
 5   0  0.3701250E-08  0.3830147E+04  0.7818609E-02  0.8039716E-01
        1   -1    0    0  501    0  0.00000000000E+00  0.00000000000E+00  0.24192338422E+04  0.24192338422E+04  0.50400001928E-02 0. -1.
       -1   -1    0    0    0  501  0.00000000000E+00  0.00000000000E+00 -0.15159786325E+04  0.15159786325E+04  0.50400001928E-02 0.  1.
    10030    2    1    2    0    0  0.00000000000E+00  0.00000000000E+00  0.90325520973E+03  0.39352124747E+04  0.38301471573E+04 0.  0.
        2    1    3    3  502    0 -0.41604824626E+03 -0.88174558490E+03 -0.12419003957E+04  0.15788882204E+04  0.25500000920E-02 0.  1.
       -2    1    3    3    0  502  0.41604824626E+03  0.88174558490E+03  0.21451556054E+04  0.23563242543E+04  0.25500000920E-02 0. -1.
</event>
<event>
 5   0  0.1174870E-07  0.3799541E+04  0.7818609E-02  0.8046253E-01
       -2   -1    0    0    0  501  0.00000000000E+00  0.00000000000E+00  0.22664852954E+04  0.22664852954E+04  0.25500000920E-02 0. -1.
        2   -1    0    0  501    0  0.00000000000E+00  0.00000000000E+00 -0.15923901291E+04  0.15923901291E+04  0.25500000920E-02 0.  1.
    10030    2    1    2    0    0  0.00000000000E+00  0.00000000000E+00  0.67409516638E+03  0.38588754245E+04  0.37995414524E+04 0.  0.
        5    1    3    3  502    0  0.13465151957E+04 -0.13329759457E+04  0.19639785256E+03  0.19048680402E+04  0.46999998093E+01 0.  1.
       -5    1    3    3    0  502 -0.13465151957E+04  0.13329759457E+04  0.47769731382E+03  0.19540073843E+04  0.46999998093E+01 0. -1.
</event>
<event>
 5   0  0.7858367E-08  0.3790234E+04  0.7818609E-02  0.8048254E-01
        2   -1    0    0  501    0  0.00000000000E+00  0.00000000000E+00  0.19938604150E+04  0.19938604150E+04  0.25500000920E-02 0. -1.
       -2   -1    0    0    0  501  0.00000000000E+00  0.00000000000E+00 -0.18012634605E+04  0.18012634605E+04  0.25500000920E-02 0.  1.
    10030    2    1    2    0    0  0.00000000000E+00  0.00000000000E+00  0.19259695458E+03  0.37951238755E+04  0.37902337188E+04 0.  0.
        2    1    3    3  502    0 -0.10815897360E+04 -0.95104917446E+03  0.13296088053E+04  0.19601506229E+04  0.25500000920E-02 0. -1.
       -2    1    3    3    0  502  0.10815897360E+04  0.95104917446E+03 -0.11370118507E+04  0.18349732526E+04  0.25500000920E-02 0.  1.
</event>
<event>
 5   0  0.3701250E-08  0.3803078E+04  0.7818609E-02  0.8045495E-01
       -1   -1    0    0    0  501  0.00000000000E+00  0.00000000000E+00  0.14898022922E+04  0.14898022922E+04  0.50400001928E-02 0. -1.
        1   -1    0    0  501    0  0.00000000000E+00  0.00000000000E+00 -0.24270670364E+04  0.24270670364E+04  0.50400001928E-02 0.  1.
    10030    2    1    2    0    0  0.00000000000E+00  0.00000000000E+00 -0.93726474420E+03  0.39168693286E+04  0.38030777190E+04 0.  0.
        3    1    3    3  502    0  0.10396567594E+04  0.14460180932E+04  0.21763472462E+03  0.17942183219E+04  0.10100000352E+00 0. -1.
       -3    1    3    3    0  502 -0.10396567594E+04 -0.14460180932E+04 -0.11548994688E+04  0.21226510067E+04  0.10100000352E+00 0.  1.
</event>
<event>
 5   0  0.3701250E-08  0.3796056E+04  0.7818609E-02  0.8047002E-01
       -1   -1    0    0    0  501  0.00000000000E+00  0.00000000000E+00  0.26650305460E+04  0.26650305460E+04  0.50400001928E-02 0. -1.
        1   -1    0    0  501    0  0.00000000000E+00  0.00000000000E+00 -0.13517705953E+04  0.13517705953E+04  0.50400001928E-02 0.  1.
    10030    2    1    2    0    0  0.00000000000E+00  0.00000000000E+00  0.13132599508E+04  0.40168011413E+04  0.37960558097E+04 0.  0.
        1    1    3    3  502    0 -0.29987812043E+03 -0.15900100592E+04  0.17065224109E+04  0.23516542294E+04  0.50400001928E-02 0.  1.
       -1    1    3    3    0  502  0.29987812043E+03  0.15900100592E+04 -0.39326246019E+03  0.16651469119E+04  0.50400001928E-02 0. -1.
</event>
<event>
 5   0  0.7858367E-08  0.3800476E+04  0.7818609E-02  0.8046053E-01
       -2   -1    0    0    0  501  0.00000000000E+00  0.00000000000E+00  0.23961901833E+04  0.23961901833E+04  0.25500000920E-02 0. -1.
        2   -1    0    0  501    0  0.00000000000E+00  0.00000000000E+00 -0.15069360315E+04  0.15069360315E+04  0.25500000920E-02 0.  1.
    10030    2    1    2    0    0  0.00000000000E+00  0.00000000000E+00  0.88925415180E+03  0.39031262148E+04  0.38004764573E+04 0.  0.
        2    1    3    3  502    0 -0.72127757943E+03  0.41859516913E+03  0.21982118112E+04  0.23510845219E+04  0.25500000920E-02 0. -1.
       -2    1    3    3    0  502  0.72127757943E+03 -0.41859516913E+03 -0.13089576594E+04  0.15520416929E+04  0.25500000920E-02 0.  1.
</event>
<event>
 5   0  0.3701250E-08  0.3801853E+04  0.7818609E-02  0.8045757E-01
        1   -1    0    0  501    0  0.00000000000E+00  0.00000000000E+00  0.21992748654E+04  0.21992748654E+04  0.50400001928E-02 0. -1.
       -1   -1    0    0    0  501  0.00000000000E+00  0.00000000000E+00 -0.16430510599E+04  0.16430510599E+04  0.50400001928E-02 0.  1.
    10030    2    1    2    0    0  0.00000000000E+00  0.00000000000E+00  0.55622380547E+03  0.38423259253E+04  0.38018526529E+04 0.  0.
        2    1    3    3  502    0 -0.77277158170E+03  0.12061346239E+04 -0.98482493227E+03  0.17383373653E+04  0.25500000920E-02 0.  1.
       -2    1    3    3    0  502  0.77277158170E+03 -0.12061346239E+04  0.15410487377E+04  0.21039885600E+04  0.25500000920E-02 0. -1.
</event>
<event>
 5   0  0.3701250E-08  0.3805746E+04  0.7818609E-02  0.8044923E-01
       -1   -1    0    0    0  501  0.00000000000E+00  0.00000000000E+00  0.15324972844E+04  0.15324972844E+04  0.50400001928E-02 0. -1.
        1   -1    0    0  501    0  0.00000000000E+00  0.00000000000E+00 -0.23627610422E+04  0.23627610422E+04  0.50400001928E-02 0.  1.
    10030    2    1    2    0    0  0.00000000000E+00  0.00000000000E+00 -0.83026375777E+03  0.38952583266E+04  0.38057455936E+04 0.  0.
        3    1    3    3  502    0 -0.12349391973E+04 -0.63587331458E+03 -0.17463047580E+04  0.22313650556E+04  0.10100000352E+00 0.  1.
       -3    1    3    3    0  502  0.12349391973E+04  0.63587331458E+03  0.91604100024E+03  0.16638932710E+04  0.10100000352E+00 0. -1.
</event>
<event>
 5   0  0.1150235E-07  0.3805394E+04  0.7818609E-02  0.8044998E-01
        2   -1    0    0  501    0  0.00000000000E+00  0.00000000000E+00  0.16423605222E+04  0.16423605222E+04  0.25500000920E-02 0.  1.
       -2   -1    0    0    0  501  0.00000000000E+00  0.00000000000E+00 -0.22043007367E+04  0.22043007367E+04  0.25500000920E-02 0. -1.
    10030    2    1    2    0    0  0.00000000000E+00  0.00000000000E+00 -0.56194021454E+03  0.38466612589E+04  0.38053943338E+04 0.  0.
        4    1    3    3  502    0  0.42827225873E+03  0.93359739967E+03 -0.18999734359E+04  0.21598430272E+04  0.12699999809E+01 0. -1.
       -4    1    3    3    0  502 -0.42827225873E+03 -0.93359739967E+03  0.13380332214E+04  0.16868182317E+04  0.12699999809E+01 0.  1.
</event>
<event>
 5   0  0.7858367E-08  0.3816769E+04  0.7818609E-02  0.8042566E-01
        2   -1    0    0  501    0  0.00000000000E+00  0.00000000000E+00  0.22473429599E+04  0.22473429599E+04  0.25500000920E-02 0.  1.
       -2   -1    0    0    0  501  0.00000000000E+00  0.00000000000E+00 -0.16205494871E+04  0.16205494871E+04  0.25500000920E-02 0. -1.
    10030    2    1    2    0    0  0.00000000000E+00  0.00000000000E+00  0.62679347277E+03  0.38678924470E+04  0.38167685186E+04 0.  0.
        2    1    3    3  502    0 -0.51601571859E+03 -0.14420486761E+04 -0.84034033972E+03  0.17469826824E+04  0.25500000920E-02 0. -1.
       -2    1    3    3    0  502  0.51601571859E+03  0.14420486761E+04  0.14671338125E+04  0.21209097646E+04  0.25500000920E-02 0.  1.
</event>
<event>
 5   0  0.1150235E-07  0.3804878E+04  0.7818609E-02  0.8045109E-01
        2   -1    0    0  501    0  0.00000000000E+00  0.00000000000E+00  0.21759410005E+04  0.21759410005E+04  0.25500000920E-02 0.  1.
       -2   -1    0    0    0  501  0.00000000000E+00  0.00000000000E+00 -0.16633146661E+04  0.16633146661E+04  0.25500000920E-02 0. -1.
    10030    2    1    2    0    0  0.00000000000E+00  0.00000000000E+00  0.51262633436E+03  0.38392556666E+04  0.38048782260E+04 0.  0.
        4    1    3    3  502    0 -0.15075042046E+04 -0.11121901714E+04 -0.77945698690E+02  0.18749968131E+04  0.12699999809E+01 0. -1.
       -4    1    3    3    0  502  0.15075042046E+04  0.11121901714E+04  0.59057203305E+03  0.19642588535E+04  0.12699999809E+01 0.  1.
</event>
<event>
 5   0  0.1193861E-07  0.3822115E+04  0.7818609E-02  0.8041426E-01
       -2   -1    0    0    0  501  0.00000000000E+00  0.00000000000E+00  0.26205392605E+04  0.26205392605E+04  0.25500000920E-02 0.  1.
        2   -1    0    0  501    0  0.00000000000E+00  0.00000000000E+00 -0.13936600072E+04  0.13936600072E+04  0.25500000920E-02 0. -1.
    10030    2    1    2    0    0  0.00000000000E+00  0.00000000000E+00  0.12268792532E+04  0.40141992677E+04  0.38221149981E+04 0.  0.
        3    1    3    3  502    0 -0.16879301313E+04 -0.57132397433E+03 -0.11163383787E+03  0.17854919031E+04  0.10100000352E+00 0. -1.
       -3    1    3    3    0  502  0.16879301313E+04  0.57132397433E+03  0.13385130911E+04  0.22287073646E+04  0.10100000352E+00 0.  1.
</event>
<event>
 5   0  0.7858367E-08  0.3816725E+04  0.7818609E-02  0.8042575E-01
       -2   -1    0    0    0  501  0.00000000000E+00  0.00000000000E+00  0.18433227422E+04  0.18433227422E+04  0.25500000920E-02 0. -1.
        2   -1    0    0  501    0  0.00000000000E+00  0.00000000000E+00 -0.19756974469E+04  0.19756974469E+04  0.25500000920E-02 0.  1.
    10030    2    1    2    0    0  0.00000000000E+00  0.00000000000E+00 -0.13237470463E+03  0.38190201891E+04  0.38167253166E+04 0.  0.
        2    1    3    3  502    0 -0.89876085000E+03  0.15432089234E+04  0.60696017951E+03  0.18861774853E+04  0.25500000920E-02 0. -1.
       -2    1    3    3    0  502  0.89876085000E+03 -0.15432089234E+04 -0.73933488415E+03  0.19328427038E+04  0.25500000920E-02 0.  1.
</event>
<event>
 5   0  0.1143283E-07  0.3871053E+04  0.7818609E-02  0.8031077E-01
       -2   -1    0    0    0  501  0.00000000000E+00  0.00000000000E+00  0.19950384974E+04  0.19950384974E+04  0.25500000920E-02 0. -1.
        2   -1    0    0  501    0  0.00000000000E+00  0.00000000000E+00 -0.18777902223E+04  0.18777902223E+04  0.25500000920E-02 0.  1.
    10030    2    1    2    0    0  0.00000000000E+00  0.00000000000E+00  0.11724827504E+03  0.38728287197E+04  0.38710534915E+04 0.  0.
        1    1    3    3  502    0  0.57219296984E+03  0.12100469892E+03 -0.17872739773E+04  0.18805305639E+04  0.50400001928E-02 0.  1.
       -1    1    3    3    0  502 -0.57219296984E+03 -0.12100469892E+03  0.19045222523E+04  0.19922981558E+04  0.50400001928E-02 0. -1.
</event>
<event>
 5   0  0.3701250E-08  0.3808528E+04  0.7818609E-02  0.8044327E-01
       -1   -1    0    0    0  501  0.00000000000E+00  0.00000000000E+00  0.20910865749E+04  0.20910865750E+04  0.50400001928E-02 0.  1.
        1   -1    0    0  501    0  0.00000000000E+00  0.00000000000E+00 -0.17341327088E+04  0.17341327088E+04  0.50400001928E-02 0. -1.
    10030    2    1    2    0    0  0.00000000000E+00  0.00000000000E+00  0.35695386616E+03  0.38252192838E+04  0.38085281286E+04 0.  0.
        2    1    3    3  502    0 -0.10313807914E+04  0.69700726046E+03 -0.12688994009E+04  0.17775463841E+04  0.25500000920E-02 0. -1.
       -2    1    3    3    0  502  0.10313807914E+04 -0.69700726046E+03  0.16258532670E+04  0.20476728997E+04  0.25500000920E-02 0.  1.
</event>
<event>
 5   0  0.7858367E-08  0.3764357E+04  0.7818609E-02  0.8053847E-01
        2   -1    0    0  501    0  0.00000000000E+00  0.00000000000E+00  0.24301832338E+04  0.24301832338E+04  0.25500000920E-02 0. -1.
       -2   -1    0    0    0  501  0.00000000000E+00  0.00000000000E+00 -0.14577481991E+04  0.14577481991E+04  0.25500000920E-02 0.  1.
    10030    2    1    2    0    0  0.00000000000E+00  0.00000000000E+00  0.97243503477E+03  0.38879314329E+04  0.37643566423E+04 0.  0.
        2    1    3    3  502    0 -0.24363621333E+02  0.12926435432E+04 -0.92655862818E+03  0.15906073705E+04  0.25500000920E-02 0.  1.
       -2    1    3    3    0  502  0.24363621333E+02 -0.12926435432E+04  0.18989936629E+04  0.22973240624E+04  0.25500000920E-02 0. -1.
</event>
<event>
 5   0  0.1193861E-07  0.3805753E+04  0.7818609E-02  0.8044921E-01
        2   -1    0    0  501    0  0.00000000000E+00  0.00000000000E+00  0.22625432396E+04  0.22625432396E+04  0.25500000920E-02 0.  1.
       -2   -1    0    0    0  501  0.00000000000E+00  0.00000000000E+00 -0.16003846879E+04  0.16003846879E+04  0.25500000920E-02 0. -1.
    10030    2    1    2    0    0  0.00000000000E+00  0.00000000000E+00  0.66215855164E+03  0.38629279275E+04  0.38057533059E+04 0.  0.
        3    1    3    3  502    0 -0.29450438413E+02 -0.15432481131E+04  0.14606580479E+04  0.21250891770E+04  0.10100000352E+00 0.  1.
       -3    1    3    3    0  502  0.29450438413E+02  0.15432481131E+04 -0.79849949625E+03  0.17378387505E+04  0.10100000352E+00 0. -1.
</event>
<event>
 5   0  0.1174870E-07  0.3864459E+04  0.7818609E-02  0.8032462E-01
       -2   -1    0    0    0  501  0.00000000000E+00  0.00000000000E+00  0.11134407914E+04  0.11134407914E+04  0.25500000920E-02 0.  1.
        2   -1    0    0  501    0  0.00000000000E+00  0.00000000000E+00 -0.33531293455E+04  0.33531293455E+04  0.25500000920E-02 0. -1.
    10030    2    1    2    0    0  0.00000000000E+00  0.00000000000E+00 -0.22396885541E+04  0.44665701369E+04  0.38644590784E+04 0.  0.
        5    1    3    3  502    0  0.79923573598E+03 -0.38576356529E+03 -0.31036277569E+04  0.32280208540E+04  0.46999998093E+01 0. -1.
       -5    1    3    3    0  502 -0.79923573598E+03  0.38576356529E+03  0.86393920287E+03  0.12385492829E+04  0.46999998093E+01 0.  1.
</event>
<event>
 5   0  0.1143283E-07  0.3803914E+04  0.7818609E-02  0.8045315E-01
        2   -1    0    0  501    0  0.00000000000E+00  0.00000000000E+00  0.23424770532E+04  0.23424770532E+04  0.25500000920E-02 0. -1.
       -2   -1    0    0    0  501  0.00000000000E+00  0.00000000000E+00 -0.15442800140E+04  0.15442800140E+04  0.25500000920E-02 0.  1.
    10030    2    1    2    0    0  0.00000000000E+00  0.00000000000E+00  0.79819703921E+03  0.38867570671E+04  0.38039140350E+04 0.  0.
        1    1    3    3  502    0  0.18223656952E+04  0.17080721864E+03 -0.12912103434E+03  0.18349016525E+04  0.50400001928E-02 0.  1.
       -1    1    3    3    0  502 -0.18223656952E+04 -0.17080721864E+03  0.92731807355E+03  0.20518554146E+04  0.50400001928E-02 0. -1.
</event>
<event>
 5   0  0.3701250E-08  0.3811327E+04  0.7818609E-02  0.8043729E-01
       -1   -1    0    0    0  501  0.00000000000E+00  0.00000000000E+00  0.16942880396E+04  0.16942880396E+04  0.50400001928E-02 0.  1.
        1   -1    0    0  501    0  0.00000000000E+00  0.00000000000E+00 -0.21434094157E+04  0.21434094157E+04  0.50400001928E-02 0. -1.
    10030    2    1    2    0    0  0.00000000000E+00  0.00000000000E+00 -0.44912137609E+03  0.38376974553E+04  0.38113267700E+04 0.  0.
        1    1    3    3  502    0  0.17347140649E+04  0.73174845218E+03 -0.52132733725E+03  0.19535789917E+04  0.50400001928E-02 0. -1.
       -1    1    3    3    0  502 -0.17347140649E+04 -0.73174845218E+03  0.72205961156E+02  0.18841184636E+04  0.50400001928E-02 0.  1.
</event>
<event>
 5   0  0.7858367E-08  0.3803734E+04  0.7818609E-02  0.8045354E-01
        2   -1    0    0  501    0  0.00000000000E+00  0.00000000000E+00  0.24380389734E+04  0.24380389734E+04  0.25500000920E-02 0.  1.
       -2   -1    0    0    0  501  0.00000000000E+00  0.00000000000E+00 -0.14836096338E+04  0.14836096338E+04  0.25500000920E-02 0. -1.
    10030    2    1    2    0    0  0.00000000000E+00  0.00000000000E+00  0.95442933961E+03  0.39216486072E+04  0.38037340120E+04 0.  0.
        2    1    3    3  502    0 -0.73019526913E+03 -0.71430966308E+02 -0.13318330503E+04  0.15205481866E+04  0.25500000920E-02 0. -1.
       -2    1    3    3    0  502  0.73019526913E+03  0.71430966308E+02  0.22862623899E+04  0.24011004205E+04  0.25500000920E-02 0.  1.
</event>
<event>
 5   0  0.3701250E-08  0.3812606E+04  0.7818609E-02  0.8043455E-01
        1   -1    0    0  501    0  0.00000000000E+00  0.00000000000E+00  0.10135978262E+04  0.10135978262E+04  0.50400001928E-02 0.  1.
       -1   -1    0    0    0  501  0.00000000000E+00  0.00000000000E+00 -0.35852388707E+04  0.35852388707E+04  0.50400001928E-02 0. -1.
    10030    2    1    2    0    0  0.00000000000E+00  0.00000000000E+00 -0.25716410445E+04  0.45988366970E+04  0.38126055793E+04 0.  0.
        3    1    3    3  502    0 -0.49548447575E+03  0.14249972628E+04 -0.26913984417E+04  0.30854088298E+04  0.10100000352E+00 0. -1.
       -3    1    3    3    0  502  0.49548447575E+03 -0.14249972628E+04  0.11975739719E+03  0.15134278672E+04  0.10100000352E+00 0.  1.
</event>
<event>
 5   0  0.1193861E-07  0.3814443E+04  0.7818609E-02  0.8043062E-01
        2   -1    0    0  501    0  0.00000000000E+00  0.00000000000E+00  0.17146854973E+04  0.17146854973E+04  0.25500000920E-02 0. -1.
       -2   -1    0    0    0  501  0.00000000000E+00  0.00000000000E+00 -0.21213771802E+04  0.21213771802E+04  0.25500000920E-02 0.  1.
    10030    2    1    2    0    0  0.00000000000E+00  0.00000000000E+00 -0.40669168281E+03  0.38360626775E+04  0.38144434379E+04 0.  0.
        3    1    3    3  502    0 -0.79148950822E+03  0.13802821060E+04  0.85421328368E+03  0.18059110382E+04  0.10100000352E+00 0. -1.
       -3    1    3    3    0  502  0.79148950822E+03 -0.13802821060E+04 -0.12609049665E+04  0.20301516393E+04  0.10100000352E+00 0.  1.
</event>
<event>
 5   0  0.3701250E-08  0.3791954E+04  0.7818609E-02  0.8047884E-01
        1   -1    0    0  501    0  0.00000000000E+00  0.00000000000E+00  0.16232303584E+04  0.16232303584E+04  0.50400001928E-02 0.  1.
       -1   -1    0    0    0  501  0.00000000000E+00  0.00000000000E+00 -0.22145530134E+04  0.22145530134E+04  0.50400001928E-02 0. -1.
    10030    2    1    2    0    0  0.00000000000E+00  0.00000000000E+00 -0.59132265503E+03  0.38377833718E+04  0.37919544731E+04 0.  0.
        2    1    3    3  502    0 -0.69279294055E+03 -0.12670921019E+04 -0.15390223480E+04  0.21104677778E+04  0.25500000920E-02 0. -1.
       -2    1    3    3    0  502  0.69279294055E+03  0.12670921019E+04  0.94769969301E+03  0.17273155940E+04  0.25500000920E-02 0.  1.
</event>
<event>
 5   0  0.1150235E-07  0.3809425E+04  0.7818609E-02  0.8044135E-01
        2   -1    0    0  501    0  0.00000000000E+00  0.00000000000E+00  0.29736660121E+04  0.29736660121E+04  0.25500000920E-02 0.  1.
       -2   -1    0    0    0  501  0.00000000000E+00  0.00000000000E+00 -0.12200192366E+04  0.12200192367E+04  0.25500000920E-02 0. -1.
    10030    2    1    2    0    0  0.00000000000E+00  0.00000000000E+00  0.17536467755E+04  0.41936852488E+04  0.38094250160E+04 0.  0.
        4    1    3    3  502    0  0.10563948432E+04 -0.68183356798E+03 -0.69825364787E+03  0.14382026453E+04  0.12699999809E+01 0. -1.
       -4    1    3    3    0  502 -0.10563948432E+04  0.68183356798E+03  0.24519004233E+04  0.27554826035E+04  0.12699999809E+01 0.  1.
</event>
<event>
 5   0  0.3701250E-08  0.3759890E+04  0.7818609E-02  0.8054818E-01
        1   -1    0    0  501    0  0.00000000000E+00  0.00000000000E+00  0.21337450093E+04  0.21337450093E+04  0.50400001928E-02 0. -1.
       -1   -1    0    0    0  501  0.00000000000E+00  0.00000000000E+00 -0.16563332067E+04  0.16563332067E+04  0.50400001928E-02 0.  1.
    10030    2    1    2    0    0  0.00000000000E+00  0.00000000000E+00  0.47741180258E+03  0.37900782160E+04  0.37598897397E+04 0.  0.
        1    1    3    3  502    0 -0.51539261465E+03  0.12183492688E+04  0.15851657207E+04  0.20646440008E+04  0.50400001928E-02 0. -1.
       -1    1    3    3    0  502  0.51539261465E+03 -0.12183492688E+04 -0.11077539181E+04  0.17254342152E+04  0.50400001928E-02 0.  1.
</event>
<event>
 5   0  0.1143283E-07  0.3823327E+04  0.7818609E-02  0.8041167E-01
       -2   -1    0    0    0  501  0.00000000000E+00  0.00000000000E+00  0.16154748287E+04  0.16154748287E+04  0.25500000920E-02 0. -1.
        2   -1    0    0  501    0  0.00000000000E+00  0.00000000000E+00 -0.22621568739E+04  0.22621568739E+04  0.25500000920E-02 0.  1.
    10030    2    1    2    0    0  0.00000000000E+00  0.00000000000E+00 -0.64668204526E+03  0.38776317026E+04  0.38233270790E+04 0.  0.
        1    1    3    3  502    0  0.16994073790E+04 -0.61628925082E+03  0.30731058573E+03  0.18336405527E+04  0.50400001928E-02 0. -1.
       -1    1    3    3    0  502 -0.16994073790E+04  0.61628925082E+03 -0.95399263098E+03  0.20439911498E+04  0.50400001928E-02 0.  1.
</event>
<event>
 5   0  0.3701250E-08  0.3825905E+04  0.7818609E-02  0.8040618E-01
       -1   -1    0    0    0  501  0.00000000000E+00  0.00000000000E+00  0.18367681856E+04  0.18367681856E+04  0.50400001928E-02 0.  1.
        1   -1    0    0  501    0  0.00000000000E+00  0.00000000000E+00 -0.19922971562E+04  0.19922971562E+04  0.50400001928E-02 0. -1.
    10030    2    1    2    0    0  0.00000000000E+00  0.00000000000E+00 -0.15552897062E+03  0.38290653418E+04  0.38259054002E+04 0.  0.
        2    1    3    3  502    0 -0.17026115314E+04 -0.19926085781E+03 -0.92746341342E+03  0.19490457408E+04  0.25500000920E-02 0. -1.
       -2    1    3    3    0  502  0.17026115314E+04  0.19926085781E+03  0.77193444281E+03  0.18800196011E+04  0.25500000920E-02 0.  1.
</event>
<event>
 5   0  0.3701250E-08  0.3798576E+04  0.7818609E-02  0.8046461E-01
       -3   -1    0    0    0  501  0.00000000000E+00  0.00000000000E+00  0.23356623987E+04  0.23356624009E+04  0.10100000352E+00 0.  1.
        3   -1    0    0  501    0  0.00000000000E+00  0.00000000000E+00 -0.15444415904E+04  0.15444415937E+04  0.10100000352E+00 0. -1.
    10030    2    1    2    0    0  0.00000000000E+00  0.00000000000E+00  0.79122080836E+03  0.38801039946E+04  0.37985756069E+04 0.  0.
        4    1    3    3  502    0  0.43750725562E+02  0.84844552727E+03 -0.13395296308E+04  0.15862267125E+04  0.12699999809E+01 0. -1.
       -4    1    3    3    0  502 -0.43750725562E+02 -0.84844552727E+03  0.21307504391E+04  0.22938772821E+04  0.12699999809E+01 0.  1.
</event>
<event>
 5   0  0.1193861E-07  0.3753121E+04  0.7818609E-02  0.8056291E-01
        2   -1    0    0  501    0  0.00000000000E+00  0.00000000000E+00  0.26593578321E+04  0.26593578321E+04  0.25500000920E-02 0. -1.
       -2   -1    0    0    0  501  0.00000000000E+00  0.00000000000E+00 -0.13241837537E+04  0.13241837537E+04  0.25500000920E-02 0.  1.
    10030    2    1    2    0    0  0.00000000000E+00  0.00000000000E+00  0.13351740784E+04  0.39835415858E+04  0.37531205344E+04 0.  0.
        3    1    3    3  502    0  0.74760053023E+02 -0.23993901411E+03  0.26414152194E+04  0.26533439596E+04  0.10100000352E+00 0. -1.
       -3    1    3    3    0  502 -0.74760053023E+02  0.23993901411E+03 -0.13062411410E+04  0.13301976262E+04  0.10100000352E+00 0.  1.
</event>
<event>
 5   0  0.3701250E-08  0.3814949E+04  0.7818609E-02  0.8042954E-01
       -1   -1    0    0    0  501  0.00000000000E+00  0.00000000000E+00  0.25605566210E+04  0.25605566210E+04  0.50400001928E-02 0. -1.
        1   -1    0    0  501    0  0.00000000000E+00  0.00000000000E+00 -0.14209642327E+04  0.14209642327E+04  0.50400001928E-02 0.  1.
    10030    2    1    2    0    0  0.00000000000E+00  0.00000000000E+00  0.11395923883E+04  0.39815208538E+04  0.38149492130E+04 0.  0.
        3    1    3    3  502    0  0.20838524574E+03  0.44079516351E+03 -0.13548309323E+04  0.14398929307E+04  0.10100000352E+00 0.  1.
       -3    1    3    3    0  502 -0.20838524574E+03 -0.44079516351E+03  0.24944233206E+04  0.25416279230E+04  0.10100000352E+00 0. -1.
</event>
<event>
 5   0  0.1143283E-07  0.3920348E+04  0.7818609E-02  0.8020811E-01
        2   -1    0    0  501    0  0.00000000000E+00  0.00000000000E+00  0.13860959801E+04  0.13860959801E+04  0.25500000920E-02 0.  1.
       -2   -1    0    0    0  501  0.00000000000E+00  0.00000000000E+00 -0.27720168168E+04  0.27720168168E+04  0.25500000920E-02 0. -1.
    10030    2    1    2    0    0  0.00000000000E+00  0.00000000000E+00 -0.13859208367E+04  0.41581127969E+04  0.39203476206E+04 0.  0.
        1    1    3    3  502    0 -0.29327471822E+03 -0.11015026120E+04  0.99842169935E+03  0.15153098543E+04  0.50400001928E-02 0.  1.
       -1    1    3    3    0  502  0.29327471822E+03  0.11015026120E+04 -0.23843425360E+04  0.26428029427E+04  0.50400001928E-02 0. -1.
</event>
<event>
 5   0  0.3701250E-08  0.3796339E+04  0.7818609E-02  0.8046941E-01
       -1   -1    0    0    0  501  0.00000000000E+00  0.00000000000E+00  0.14098595625E+04  0.14098595625E+04  0.50400001928E-02 0.  1.
        1   -1    0    0  501    0  0.00000000000E+00  0.00000000000E+00 -0.25556077867E+04  0.25556077867E+04  0.50400001928E-02 0. -1.
    10030    2    1    2    0    0  0.00000000000E+00  0.00000000000E+00 -0.11457482242E+04  0.39654673492E+04  0.37963393295E+04 0.  0.
        2    1    3    3  502    0 -0.82856643166E+03 -0.70491655873E+03 -0.21976848946E+04  0.24521926071E+04  0.25500000920E-02 0. -1.
       -2    1    3    3    0  502  0.82856643166E+03  0.70491655873E+03  0.10519366704E+04  0.15132747421E+04  0.25500000920E-02 0.  1.
</event>
<event>
 5   0  0.1143283E-07  0.3853291E+04  0.7818609E-02  0.8034815E-01
        2   -1    0    0  501    0  0.00000000000E+00  0.00000000000E+00  0.23804623257E+04  0.23804623257E+04  0.25500000920E-02 0. -1.
       -2   -1    0    0    0  501  0.00000000000E+00  0.00000000000E+00 -0.15593453588E+04  0.15593453588E+04  0.25500000920E-02 0.  1.
    10030    2    1    2    0    0  0.00000000000E+00  0.00000000000E+00  0.82111696691E+03  0.39398076845E+04  0.38532909983E+04 0.  0.
        1    1    3    3  502    0  0.40412002085E+03  0.82914278532E+03 -0.13189201781E+04  0.16094536918E+04  0.50400001928E-02 0.  1.
       -1    1    3    3    0  502 -0.40412002085E+03 -0.82914278532E+03  0.21400371450E+04  0.23303539928E+04  0.50400001928E-02 0. -1.
</event>
<event>
 5   0  0.3701250E-08  0.3748627E+04  0.7818609E-02  0.8057270E-01
        1   -1    0    0  501    0  0.00000000000E+00  0.00000000000E+00  0.10478078946E+04  0.10478078946E+04  0.50400001928E-02 0.  1.
       -1   -1    0    0    0  501  0.00000000000E+00  0.00000000000E+00 -0.33527622045E+04  0.33527622045E+04  0.50400001928E-02 0. -1.
    10030    2    1    2    0    0  0.00000000000E+00  0.00000000000E+00 -0.23049543099E+04  0.44005700991E+04  0.37486267921E+04 0.  0.
        4    1    3    3  502    0 -0.23743063930E+03 -0.14943914275E+04 -0.24509516075E+04  0.28804069925E+04  0.12699999809E+01 0. -1.
       -4    1    3    3    0  502  0.23743063930E+03  0.14943914275E+04  0.14599729762E+03  0.15201631067E+04  0.12699999809E+01 0.  1.
</event>
<event>
 5   0  0.3889225E-08  0.3823031E+04  0.7818609E-02  0.8041231E-01
        1   -1    0    0  501    0  0.00000000000E+00  0.00000000000E+00  0.21626956969E+04  0.21626956969E+04  0.50400001928E-02 0. -1.
       -1   -1    0    0    0  501  0.00000000000E+00  0.00000000000E+00 -0.16895077141E+04  0.16895077141E+04  0.50400001928E-02 0.  1.
    10030    2    1    2    0    0  0.00000000000E+00  0.00000000000E+00  0.47318798285E+03  0.38522034110E+04  0.38230307680E+04 0.  0.
        5    1    3    3  502    0  0.16788712806E+04 -0.22830256153E+03  0.11282977660E+04  0.20356347352E+04  0.46999998093E+01 0.  1.
       -5    1    3    3    0  502 -0.16788712806E+04  0.22830256153E+03 -0.65510978313E+03  0.18165686759E+04  0.46999998093E+01 0. -1.
</event>
<event>
 5   0  0.3701250E-08  0.3704311E+04  0.7818609E-02  0.8067007E-01
        1   -1    0    0  501    0  0.00000000000E+00  0.00000000000E+00  0.22981294997E+04  0.22981294997E+04  0.50400001928E-02 0.  1.
       -1   -1    0    0    0  501  0.00000000000E+00  0.00000000000E+00 -0.14927273678E+04  0.14927273678E+04  0.50400001928E-02 0. -1.
    10030    2    1    2    0    0  0.00000000000E+00  0.00000000000E+00  0.80540213184E+03  0.37908568675E+04  0.37043114334E+04 0.  0.
        2    1    3    3  502    0  0.11084564485E+03  0.31066531623E+03 -0.14624278826E+04  0.14991647699E+04  0.25500000920E-02 0. -1.
       -2    1    3    3    0  502 -0.11084564485E+03 -0.31066531623E+03  0.22678300144E+04  0.22916920976E+04  0.25500000920E-02 0.  1.
</event>
<event>
 5   0  0.3701250E-08  0.3753814E+04  0.7818609E-02  0.8056139E-01
       -1   -1    0    0    0  501  0.00000000000E+00  0.00000000000E+00  0.18790004979E+04  0.18790004979E+04  0.50400001928E-02 0.  1.
        1   -1    0    0  501    0  0.00000000000E+00  0.00000000000E+00 -0.18748161695E+04  0.18748161695E+04  0.50400001928E-02 0. -1.
    10030    2    1    2    0    0  0.00000000000E+00  0.00000000000E+00  0.41843283826E+01  0.37538166674E+04  0.37538143353E+04 0.  0.
        3    1    3    3  502    0  0.87223023687E+03  0.61714369235E+03  0.15451837173E+04  0.18786283969E+04  0.10100000352E+00 0.  1.
       -3    1    3    3    0  502 -0.87223023687E+03 -0.61714369235E+03 -0.15409993889E+04  0.18751882705E+04  0.10100000352E+00 0. -1.
</event>
<event>
 5   0  0.7858367E-08  0.3798558E+04  0.7818609E-02  0.8046464E-01
       -2   -1    0    0    0  501  0.00000000000E+00  0.00000000000E+00  0.23041854620E+04  0.23041854620E+04  0.25500000920E-02 0.  1.
        2   -1    0    0  501    0  0.00000000000E+00  0.00000000000E+00 -0.15655254731E+04  0.15655254731E+04  0.25500000920E-02 0. -1.
    10030    2    1    2    0    0  0.00000000000E+00  0.00000000000E+00  0.73865998888E+03  0.38697109351E+04  0.37985581662E+04 0.  0.
        2    1    3    3  502    0 -0.18776416649E+04  0.22529261775E+03  0.54859794397E+03  0.19690745769E+04  0.25500000920E-02 0.  1.
       -2    1    3    3    0  502  0.18776416649E+04 -0.22529261775E+03  0.19006204491E+03  0.19006363582E+04  0.25500000920E-02 0. -1.
</event>
<event>
 5   0  0.1150235E-07  0.3800172E+04  0.7818609E-02  0.8046118E-01
        2   -1    0    0  501    0  0.00000000000E+00  0.00000000000E+00  0.11984703641E+04  0.11984703641E+04  0.25500000920E-02 0. -1.
       -2   -1    0    0    0  501  0.00000000000E+00  0.00000000000E+00 -0.30124462346E+04  0.30124462346E+04  0.25500000920E-02 0.  1.
    10030    2    1    2    0    0  0.00000000000E+00  0.00000000000E+00 -0.18139758706E+04  0.42109165987E+04  0.38001723832E+04 0.  0.
        4    1    3    3  502    0  0.11704735882E+03 -0.14229724899E+04 -0.22962000084E+04  0.27039021585E+04  0.12699999809E+01 0.  1.
       -4    1    3    3    0  502 -0.11704735882E+03  0.14229724899E+04  0.48222413780E+03  0.15070144402E+04  0.12699999809E+01 0. -1.
</event>
<event>
 5   0  0.1193861E-07  0.3795608E+04  0.7818609E-02  0.8047098E-01
        2   -1    0    0  501    0  0.00000000000E+00  0.00000000000E+00  0.24924422909E+04  0.24924422909E+04  0.25500000920E-02 0. -1.
       -2   -1    0    0    0  501  0.00000000000E+00  0.00000000000E+00 -0.14450328233E+04  0.14450328233E+04  0.25500000920E-02 0.  1.
    10030    2    1    2    0    0  0.00000000000E+00  0.00000000000E+00  0.10474094676E+04  0.39374751142E+04  0.37956084732E+04 0.  0.
        3    1    3    3  502    0 -0.15371547185E+04 -0.11107547130E+04  0.45005648488E+03  0.19491463544E+04  0.10100000352E+00 0.  1.
       -3    1    3    3    0  502  0.15371547185E+04  0.11107547130E+04  0.59735298273E+03  0.19883287598E+04  0.10100000352E+00 0. -1.
</event>
<event>
 5   0  0.1174870E-07  0.3800864E+04  0.7818609E-02  0.8045970E-01
       -2   -1    0    0    0  501  0.00000000000E+00  0.00000000000E+00  0.18395156016E+04  0.18395156016E+04  0.25500000920E-02 0.  1.
        2   -1    0    0  501    0  0.00000000000E+00  0.00000000000E+00 -0.19633653222E+04  0.19633653222E+04  0.25500000920E-02 0. -1.
    10030    2    1    2    0    0  0.00000000000E+00  0.00000000000E+00 -0.12384972056E+03  0.38028809238E+04  0.38008636607E+04 0.  0.
        5    1    3    3  502    0 -0.11423367177E+04  0.10352967543E+04  0.10499013913E+04  0.18652312370E+04  0.46999998093E+01 0.  1.
       -5    1    3    3    0  502  0.11423367177E+04 -0.10352967543E+04 -0.11737511119E+04  0.19376496868E+04  0.46999998093E+01 0. -1.
</event>
<event>
 5   0  0.3701250E-08  0.3813141E+04  0.7818609E-02  0.8043341E-01
        1   -1    0    0  501    0  0.00000000000E+00  0.00000000000E+00  0.20921502448E+04  0.20921502448E+04  0.50400001928E-02 0. -1.
       -1   -1    0    0    0  501  0.00000000000E+00  0.00000000000E+00 -0.17374521633E+04  0.17374521633E+04  0.50400001928E-02 0.  1.
    10030    2    1    2    0    0  0.00000000000E+00  0.00000000000E+00  0.35469808148E+03  0.38296024082E+04  0.38131409462E+04 0.  0.
        2    1    3    3  502    0  0.16527148587E+03  0.17008776234E+04 -0.67170679054E+03  0.18361615850E+04  0.25500000920E-02 0.  1.
       -2    1    3    3    0  502 -0.16527148587E+03 -0.17008776234E+04  0.10264048720E+04  0.19934408231E+04  0.25500000920E-02 0. -1.
</event>
<event>
 5   0  0.3701250E-08  0.3794026E+04  0.7818609E-02  0.8047438E-01
        1   -1    0    0  501    0  0.00000000000E+00  0.00000000000E+00  0.26643228163E+04  0.26643228163E+04  0.50400001928E-02 0.  1.
       -1   -1    0    0    0  501  0.00000000000E+00  0.00000000000E+00 -0.13506840727E+04  0.13506840728E+04  0.50400001928E-02 0. -1.
    10030    2    1    2    0    0  0.00000000000E+00  0.00000000000E+00  0.13136387436E+04  0.40150068891E+04  0.37940260372E+04 0.  0.
        4    1    3    3  502    0  0.16225269551E+04  0.56069748889E+03 -0.19746732994E+03  0.17279960513E+04  0.12699999809E+01 0. -1.
       -4    1    3    3    0  502 -0.16225269551E+04 -0.56069748889E+03  0.15111060735E+04  0.22870108378E+04  0.12699999809E+01 0.  1.
</event>
<event>
 5   0  0.1143283E-07  0.3832505E+04  0.7818609E-02  0.8039215E-01
       -2   -1    0    0    0  501  0.00000000000E+00  0.00000000000E+00  0.24965801748E+04  0.24965801748E+04  0.25500000920E-02 0. -1.
        2   -1    0    0  501    0  0.00000000000E+00  0.00000000000E+00 -0.14708213032E+04  0.14708213032E+04  0.25500000920E-02 0.  1.
    10030    2    1    2    0    0  0.00000000000E+00  0.00000000000E+00  0.10257588716E+04  0.39674014780E+04  0.38325048238E+04 0.  0.
        1    1    3    3  502    0  0.48852106822E+03 -0.17604438194E+04  0.11113349615E+04  0.21384294873E+04  0.50400001928E-02 0. -1.
       -1    1    3    3    0  502 -0.48852106822E+03  0.17604438194E+04 -0.85576089869E+02  0.18289719907E+04  0.50400001928E-02 0.  1.
</event>
<event>
 5   0  0.1143283E-07  0.3828197E+04  0.7818609E-02  0.8040131E-01
       -2   -1    0    0    0  501  0.00000000000E+00  0.00000000000E+00  0.21248511134E+04  0.21248511134E+04  0.25500000920E-02 0.  1.
        2   -1    0    0  501    0  0.00000000000E+00  0.00000000000E+00 -0.17242491993E+04  0.17242491993E+04  0.25500000920E-02 0. -1.
    10030    2    1    2    0    0  0.00000000000E+00  0.00000000000E+00  0.40060191404E+03  0.38491003127E+04  0.38281968763E+04 0.  0.
        1    1    3    3  502    0 -0.92950663295E+03 -0.54630424402E+03  0.17905000302E+04  0.20900529338E+04  0.50400001928E-02 0.  1.
       -1    1    3    3    0  502  0.92950663295E+03  0.54630424402E+03 -0.13898981162E+04  0.17590473789E+04  0.50400001928E-02 0. -1.
</event>
<event>
 5   0  0.3701250E-08  0.3792661E+04  0.7818609E-02  0.8047732E-01
       -3   -1    0    0    0  501  0.00000000000E+00  0.00000000000E+00  0.16076047600E+04  0.16076047631E+04  0.10100000352E+00 0. -1.
        3   -1    0    0  501    0  0.00000000000E+00  0.00000000000E+00 -0.22369113291E+04  0.22369113314E+04  0.10100000352E+00 0.  1.
    10030    2    1    2    0    0  0.00000000000E+00  0.00000000000E+00 -0.62930656916E+03  0.38445160945E+04  0.37926609713E+04 0.  0.
        2    1    3    3  502    0 -0.84324340111E+03 -0.16760713978E+04 -0.35581043185E+02  0.18765768769E+04  0.25500000920E-02 0. -1.
       -2    1    3    3    0  502  0.84324340111E+03  0.16760713978E+04 -0.59372552597E+03  0.19679392177E+04  0.25500000920E-02 0.  1.
</event>
<event>
 5   0  0.1193861E-07  0.3788673E+04  0.7818609E-02  0.8048590E-01
       -2   -1    0    0    0  501  0.00000000000E+00  0.00000000000E+00  0.14708373733E+04  0.14708373733E+04  0.25500000920E-02 0.  1.
        2   -1    0    0  501    0  0.00000000000E+00  0.00000000000E+00 -0.24397733747E+04  0.24397733747E+04  0.25500000920E-02 0. -1.
    10030    2    1    2    0    0  0.00000000000E+00  0.00000000000E+00 -0.96893600146E+03  0.39106107480E+04  0.37886725178E+04 0.  0.
        3    1    3    3  502    0 -0.16545987995E+04 -0.78171380945E+03  0.20919290268E+02  0.18300850510E+04  0.10100000352E+00 0. -1.
       -3    1    3    3    0  502  0.16545987995E+04  0.78171380945E+03 -0.98985529173E+03  0.20805256970E+04  0.10100000352E+00 0.  1.
</event>
<event>
 5   0  0.3701250E-08  0.3826896E+04  0.7818609E-02  0.8040408E-01
       -1   -1    0    0    0  501  0.00000000000E+00  0.00000000000E+00  0.14103834100E+04  0.14103834100E+04  0.50400001928E-02 0. -1.
        1   -1    0    0  501    0  0.00000000000E+00  0.00000000000E+00 -0.25959485043E+04  0.25959485043E+04  0.50400001928E-02 0.  1.
    10030    2    1    2    0    0  0.00000000000E+00  0.00000000000E+00 -0.11855650943E+04  0.40063319143E+04  0.38268957152E+04 0.  0.
        3    1    3    3  502    0  0.12294220134E+04  0.83212094280E+03  0.67104129509E+03  0.16291716240E+04  0.10100000352E+00 0. -1.
       -3    1    3    3    0  502 -0.12294220134E+04 -0.83212094280E+03 -0.18566063894E+04  0.23771602903E+04  0.10100000352E+00 0.  1.
</event>
<event>
 5   0  0.3701250E-08  0.3770811E+04  0.7818609E-02  0.8052448E-01
        3   -1    0    0  501    0  0.00000000000E+00  0.00000000000E+00  0.25581774567E+04  0.25581774587E+04  0.10100000352E+00 0.  1.
       -3   -1    0    0    0  501  0.00000000000E+00  0.00000000000E+00 -0.13895648270E+04  0.13895648306E+04  0.10100000352E+00 0. -1.
    10030    2    1    2    0    0  0.00000000000E+00  0.00000000000E+00  0.11686126297E+04  0.39477422893E+04  0.37708107490E+04 0.  0.
        1    1    3    3  502    0 -0.20436394730E+03 -0.94298214903E+03  0.22801164470E+04  0.24758657007E+04  0.50400001928E-02 0.  1.
       -1    1    3    3    0  502  0.20436394730E+03  0.94298214903E+03 -0.11115038172E+04  0.14718765886E+04  0.50400001928E-02 0. -1.
</event>
<event>
 5   0  0.7858367E-08  0.3752866E+04  0.7818609E-02  0.8056346E-01
        2   -1    0    0  501    0  0.00000000000E+00  0.00000000000E+00  0.14874965521E+04  0.14874965521E+04  0.25500000920E-02 0.  1.
       -2   -1    0    0    0  501  0.00000000000E+00  0.00000000000E+00 -0.23670645479E+04  0.23670645479E+04  0.25500000920E-02 0. -1.
    10030    2    1    2    0    0  0.00000000000E+00  0.00000000000E+00 -0.87956799577E+03  0.38545611000E+04  0.37528657603E+04 0.  0.
        2    1    3    3  502    0  0.16534647272E+04  0.34219197768E+03 -0.12804745111E+04  0.21191167800E+04  0.25500000920E-02 0. -1.
       -2    1    3    3    0  502 -0.16534647272E+04 -0.34219197768E+03  0.40090651529E+03  0.17354443200E+04  0.25500000920E-02 0.  1.
</event>
<event>
 5   0  0.3701250E-08  0.3732774E+04  0.7818609E-02  0.8060737E-01
       -1   -1    0    0    0  501  0.00000000000E+00  0.00000000000E+00  0.23678199348E+04  0.23678199348E+04  0.50400001928E-02 0. -1.
        1   -1    0    0  501    0  0.00000000000E+00  0.00000000000E+00 -0.14711422327E+04  0.14711422327E+04  0.50400001928E-02 0.  1.
    10030    2    1    2    0    0  0.00000000000E+00  0.00000000000E+00  0.89667770214E+03  0.38389621675E+04  0.37327737170E+04 0.  0.
        1    1    3    3  502    0  0.16062866317E+04  0.79572334815E+03  0.98280271032E+03  0.20443173818E+04  0.50400001928E-02 0. -1.
       -1    1    3    3    0  502 -0.16062866317E+04 -0.79572334815E+03 -0.86125008176E+02  0.17946447858E+04  0.50400001928E-02 0.  1.
</event>
<event>
 5   0  0.1143283E-07  0.3845149E+04  0.7818609E-02  0.8036535E-01
       -2   -1    0    0    0  501  0.00000000000E+00  0.00000000000E+00  0.16956806176E+04  0.16956806176E+04  0.25500000920E-02 0. -1.
        2   -1    0    0  501    0  0.00000000000E+00  0.00000000000E+00 -0.21798279250E+04  0.21798279250E+04  0.25500000920E-02 0.  1.
    10030    2    1    2    0    0  0.00000000000E+00  0.00000000000E+00 -0.48414730737E+03  0.38755085425E+04  0.38451486120E+04 0.  0.
        1    1    3    3  502    0  0.45162551311E+03 -0.80959153131E+02 -0.21238372203E+04  0.21728332948E+04  0.50400001928E-02 0.  1.
       -1    1    3    3    0  502 -0.45162551311E+03  0.80959153131E+02  0.16396899130E+04  0.17026752477E+04  0.50400001928E-02 0. -1.
</event>
<event>
 5   0  0.7858367E-08  0.3777162E+04  0.7818609E-02  0.8051074E-01
       -2   -1    0    0    0  501  0.00000000000E+00  0.00000000000E+00  0.12919337937E+04  0.12919337937E+04  0.25500000920E-02 0.  1.
        2   -1    0    0  501    0  0.00000000000E+00  0.00000000000E+00 -0.27607746510E+04  0.27607746510E+04  0.25500000920E-02 0. -1.
    10030    2    1    2    0    0  0.00000000000E+00  0.00000000000E+00 -0.14688408573E+04  0.40527084447E+04  0.37771619337E+04 0.  0.
        2    1    3    3  502    0 -0.41547720442E+03 -0.14597816322E+04 -0.19403111893E+04  0.24634104880E+04  0.25500000920E-02 0. -1.
       -2    1    3    3    0  502  0.41547720442E+03  0.14597816322E+04  0.47147033197E+03  0.15892979567E+04  0.25500000920E-02 0.  1.
</event>
<event>
 5   0  0.3701250E-08  0.3792862E+04  0.7818609E-02  0.8047688E-01
        1   -1    0    0  501    0  0.00000000000E+00  0.00000000000E+00  0.26931227126E+04  0.26931227126E+04  0.50400001928E-02 0.  1.
       -1   -1    0    0    0  501  0.00000000000E+00  0.00000000000E+00 -0.13354202497E+04  0.13354202497E+04  0.50400001928E-02 0. -1.
    10030    2    1    2    0    0  0.00000000000E+00  0.00000000000E+00  0.13577024629E+04  0.40285429623E+04  0.37928620356E+04 0.  0.
        1    1    3    3  502    0 -0.43563501900E+03 -0.70704676510E+03 -0.11320107994E+04  0.14039734498E+04  0.50400001928E-02 0. -1.
       -1    1    3    3    0  502  0.43563501900E+03  0.70704676510E+03  0.24897132622E+04  0.26245695125E+04  0.50400001928E-02 0.  1.
</event>
<event>
 5   0  0.1193861E-07  0.3796132E+04  0.7818609E-02  0.8046986E-01
       -2   -1    0    0    0  501  0.00000000000E+00  0.00000000000E+00  0.18460344050E+04  0.18460344050E+04  0.25500000920E-02 0. -1.
        2   -1    0    0  501    0  0.00000000000E+00  0.00000000000E+00 -0.19515638781E+04  0.19515638781E+04  0.25500000920E-02 0.  1.
    10030    2    1    2    0    0  0.00000000000E+00  0.00000000000E+00 -0.10552947302E+03  0.37975982831E+04  0.37961317483E+04 0.  0.
        3    1    3    3  502    0  0.86923135943E+03  0.16410165443E+04 -0.44554295417E+03  0.19097138501E+04  0.10100000352E+00 0.  1.
       -3    1    3    3    0  502 -0.86923135943E+03 -0.16410165443E+04  0.34001348115E+03  0.18878844330E+04  0.10100000352E+00 0. -1.
</event>
<event>
 5   0  0.7858367E-08  0.3798998E+04  0.7818609E-02  0.8046370E-01
       -2   -1    0    0    0  501  0.00000000000E+00  0.00000000000E+00  0.19036732485E+04  0.19036732485E+04  0.25500000920E-02 0. -1.
        2   -1    0    0  501    0  0.00000000000E+00  0.00000000000E+00 -0.18953341693E+04  0.18953341693E+04  0.25500000920E-02 0.  1.
    10030    2    1    2    0    0  0.00000000000E+00  0.00000000000E+00  0.83390792100E+01  0.37990074178E+04  0.37989982653E+04 0.  0.
        2    1    3    3  502    0 -0.14891741504E+04  0.11304288471E+04 -0.33137251275E+03  0.18987671713E+04  0.25500000920E-02 0. -1.
       -2    1    3    3    0  502  0.14891741504E+04 -0.11304288471E+04  0.33971159196E+03  0.19002402465E+04  0.25500000920E-02 0.  1.
</event>
<event>
 5   0  0.1174870E-07  0.3793095E+04  0.7818609E-02  0.8047638E-01
        2   -1    0    0  501    0  0.00000000000E+00  0.00000000000E+00  0.25795731180E+04  0.25795731180E+04  0.25500000920E-02 0. -1.
       -2   -1    0    0    0  501  0.00000000000E+00  0.00000000000E+00 -0.13943751055E+04  0.13943751055E+04  0.25500000920E-02 0.  1.
    10030    2    1    2    0    0  0.00000000000E+00  0.00000000000E+00  0.11851980125E+04  0.39739482235E+04  0.37930950626E+04 0.  0.
        5    1    3    3  502    0 -0.12507385080E+03 -0.11230875831E+04 -0.10031450216E+04  0.15110563232E+04  0.46999998093E+01 0.  1.
       -5    1    3    3    0  502  0.12507385080E+03  0.11230875831E+04  0.21883430341E+04  0.24628919003E+04  0.46999998093E+01 0. -1.
</event>
<event>
 5   0  0.3701250E-08  0.3796865E+04  0.7818609E-02  0.8046828E-01
        1   -1    0    0  501    0  0.00000000000E+00  0.00000000000E+00  0.24336589899E+04  0.24336589899E+04  0.50400001928E-02 0.  1.
       -1   -1    0    0    0  501  0.00000000000E+00  0.00000000000E+00 -0.14809162492E+04  0.14809162492E+04  0.50400001928E-02 0. -1.
    10030    2    1    2    0    0  0.00000000000E+00  0.00000000000E+00  0.95274274073E+03  0.39145752391E+04  0.37968645713E+04 0.  0.
        4    1    3    3  502    0 -0.16895845564E+04 -0.82098066011E+03  0.19338371987E+03  0.18884131151E+04  0.12699999809E+01 0. -1.
       -4    1    3    3    0  502  0.16895845564E+04  0.82098066011E+03  0.75935902086E+03  0.20261621240E+04  0.12699999809E+01 0.  1.
</event>
<event>
 5   0  0.1150235E-07  0.3753341E+04  0.7818609E-02  0.8056243E-01
       -2   -1    0    0    0  501  0.00000000000E+00  0.00000000000E+00  0.21631556828E+04  0.21631556828E+04  0.25500000920E-02 0.  1.
        2   -1    0    0  501    0  0.00000000000E+00  0.00000000000E+00 -0.16281270831E+04  0.16281270831E+04  0.25500000920E-02 0. -1.
    10030    2    1    2    0    0  0.00000000000E+00  0.00000000000E+00  0.53502859964E+03  0.37912827659E+04  0.37533410994E+04 0.  0.
        4    1    3    3  502    0 -0.17642969466E+04 -0.63811483798E+03  0.31219351176E+03  0.19019465460E+04  0.12699999809E+01 0. -1.
       -4    1    3    3    0  502  0.17642969466E+04  0.63811483798E+03  0.22283508788E+03  0.18893362198E+04  0.12699999809E+01 0.  1.
</event>
<event>
 5   0  0.1193861E-07  0.3804340E+04  0.7818609E-02  0.8045224E-01
        2   -1    0    0  501    0  0.00000000000E+00  0.00000000000E+00  0.19312495934E+04  0.19312495935E+04  0.25500000920E-02 0.  1.
       -2   -1    0    0    0  501  0.00000000000E+00  0.00000000000E+00 -0.18735282204E+04  0.18735282204E+04  0.25500000920E-02 0. -1.
    10030    2    1    2    0    0  0.00000000000E+00  0.00000000000E+00  0.57721373020E+02  0.38047778139E+04  0.38043399501E+04 0.  0.
        3    1    3    3  502    0 -0.87470908108E+03  0.47111446890E+03  0.16511404085E+04  0.19270001241E+04  0.10100000352E+00 0.  1.
       -3    1    3    3    0  502  0.87470908108E+03 -0.47111446890E+03 -0.15934190355E+04  0.18777776898E+04  0.10100000352E+00 0. -1.
</event>
<event>
 5   0  0.1174870E-07  0.3805599E+04  0.7818609E-02  0.8044954E-01
       -2   -1    0    0    0  501  0.00000000000E+00  0.00000000000E+00  0.15560497383E+04  0.15560497383E+04  0.25500000920E-02 0.  1.
        2   -1    0    0  501    0  0.00000000000E+00  0.00000000000E+00 -0.23268187552E+04  0.23268187552E+04  0.25500000920E-02 0. -1.
    10030    2    1    2    0    0  0.00000000000E+00  0.00000000000E+00 -0.77076901696E+03  0.38828684935E+04  0.38055988832E+04 0.  0.
        5    1    3    3  502    0 -0.10423734381E+04 -0.10853565572E+04 -0.15735384367E+04  0.21772888055E+04  0.46999998093E+01 0. -1.
       -5    1    3    3    0  502  0.10423734381E+04  0.10853565572E+04  0.80276941979E+03  0.17055796880E+04  0.46999998093E+01 0.  1.
</event>
<event>
 5   0  0.1193861E-07  0.3792839E+04  0.7818609E-02  0.8047693E-01
        2   -1    0    0  501    0  0.00000000000E+00  0.00000000000E+00  0.16354070954E+04  0.16354070954E+04  0.25500000920E-02 0. -1.
       -2   -1    0    0    0  501  0.00000000000E+00  0.00000000000E+00 -0.21990891659E+04  0.21990891659E+04  0.25500000920E-02 0.  1.
    10030    2    1    2    0    0  0.00000000000E+00  0.00000000000E+00 -0.56368207042E+03  0.38344962613E+04  0.37928385283E+04 0.  0.
        3    1    3    3  502    0 -0.37553093296E+03 -0.15811921387E+03 -0.21543121814E+04  0.21925068193E+04  0.10100000352E+00 0.  1.
       -3    1    3    3    0  502  0.37553093296E+03  0.15811921387E+03  0.15906301110E+04  0.16419894420E+04  0.10100000352E+00 0. -1.
</event>
<event>
 5   0  0.3701250E-08  0.3791144E+04  0.7818609E-02  0.8048058E-01
       -1   -1    0    0    0  501  0.00000000000E+00  0.00000000000E+00  0.13772965137E+04  0.13772965138E+04  0.50400001928E-02 0. -1.
        1   -1    0    0  501    0  0.00000000000E+00  0.00000000000E+00 -0.26088741185E+04  0.26088741185E+04  0.50400001928E-02 0.  1.
    10030    2    1    2    0    0  0.00000000000E+00  0.00000000000E+00 -0.12315776048E+04  0.39861706323E+04  0.37911440111E+04 0.  0.
        1    1    3    3  502    0 -0.11054039591E+04 -0.15052975985E+04 -0.27450784459E+03  0.18876422673E+04  0.50400001928E-02 0.  1.
       -1    1    3    3    0  502  0.11054039591E+04  0.15052975985E+04 -0.95706976016E+03  0.20985283649E+04  0.50400001928E-02 0. -1.
</event>
<event>
 5   0  0.3701250E-08  0.3800137E+04  0.7818609E-02  0.8046125E-01
       -1   -1    0    0    0  501  0.00000000000E+00  0.00000000000E+00  0.22549878643E+04  0.22549878643E+04  0.50400001928E-02 0.  1.
        1   -1    0    0  501    0  0.00000000000E+00  0.00000000000E+00 -0.16010109235E+04  0.16010109235E+04  0.50400001928E-02 0. -1.
    10030    2    1    2    0    0  0.00000000000E+00  0.00000000000E+00  0.65397694080E+03  0.38559987879E+04  0.38001369466E+04 0.  0.
        3    1    3    3  502    0 -0.14056932737E+04 -0.10437739768E+04 -0.42198279792E+03  0.18009739549E+04  0.10100000352E+00 0. -1.
       -3    1    3    3    0  502  0.14056932737E+04  0.10437739768E+04  0.10759597387E+04  0.20550248329E+04  0.10100000352E+00 0.  1.
</event>
<event>
 5   0  0.7858367E-08  0.3791115E+04  0.7818609E-02  0.8048064E-01
        2   -1    0    0  501    0  0.00000000000E+00  0.00000000000E+00  0.18478391736E+04  0.18478391736E+04  0.25500000920E-02 0.  1.
       -2   -1    0    0    0  501  0.00000000000E+00  0.00000000000E+00 -0.19445085057E+04  0.19445085057E+04  0.25500000920E-02 0. -1.
    10030    2    1    2    0    0  0.00000000000E+00  0.00000000000E+00 -0.96669332157E+02  0.37923476793E+04  0.37911153980E+04 0.  0.
        2    1    3    3  502    0 -0.16750469785E+04  0.18672738616E+03  0.81940882014E+03  0.18740545113E+04  0.25500000920E-02 0.  1.
       -2    1    3    3    0  502  0.16750469785E+04 -0.18672738616E+03 -0.91607815229E+03  0.19182931679E+04  0.25500000920E-02 0. -1.
</event>
<event>
 5   0  0.3889225E-08  0.3789677E+04  0.7818609E-02  0.8048374E-01
        1   -1    0    0  501    0  0.00000000000E+00  0.00000000000E+00  0.16945609031E+04  0.16945609031E+04  0.50400001928E-02 0.  1.
       -1   -1    0    0    0  501  0.00000000000E+00  0.00000000000E+00 -0.21187867834E+04  0.21187867834E+04  0.50400001928E-02 0. -1.
    10030    2    1    2    0    0  0.00000000000E+00  0.00000000000E+00 -0.42422588032E+03  0.38133476865E+04  0.37896771605E+04 0.  0.
        5    1    3    3  502    0  0.14435931225E+03 -0.14697767053E+04  0.98244479739E+03  0.17737821299E+04  0.46999998093E+01 0.  1.
       -5    1    3    3    0  502 -0.14435931225E+03  0.14697767053E+04 -0.14066706777E+04  0.20395655567E+04  0.46999998093E+01 0. -1.
</event>
<event>
 5   0  0.3889225E-08  0.3732314E+04  0.7818609E-02  0.8060838E-01
        1   -1    0    0  501    0  0.00000000000E+00  0.00000000000E+00  0.28583679450E+04  0.28583679450E+04  0.50400001928E-02 0.  1.
       -1   -1    0    0    0  501  0.00000000000E+00  0.00000000000E+00 -0.12183670452E+04  0.12183670452E+04  0.50400001928E-02 0. -1.
    10030    2    1    2    0    0  0.00000000000E+00  0.00000000000E+00  0.16400008997E+04  0.40767349902E+04  0.37323136563E+04 0.  0.
        5    1    3    3  502    0 -0.36230648033E+03 -0.17689997305E+04  0.30547563030E+03  0.18313829427E+04  0.46999998093E+01 0. -1.
       -5    1    3    3    0  502  0.36230648033E+03  0.17689997305E+04  0.13345252694E+04  0.22453520475E+04  0.46999998093E+01 0.  1.
</event>
<event>
 5   0  0.3701250E-08  0.3842321E+04  0.7818609E-02  0.8037133E-01
       -1   -1    0    0    0  501  0.00000000000E+00  0.00000000000E+00  0.24465457446E+04  0.24465457446E+04  0.50400001928E-02 0.  1.
        1   -1    0    0  501    0  0.00000000000E+00  0.00000000000E+00 -0.15085992258E+04  0.15085992258E+04  0.50400001928E-02 0. -1.
    10030    2    1    2    0    0  0.00000000000E+00  0.00000000000E+00  0.93794651879E+03  0.39551449704E+04  0.38423206613E+04 0.  0.
        3    1    3    3  502    0 -0.44141946447E+03 -0.11701186622E+04  0.19701609800E+04  0.23335730382E+04  0.10100000352E+00 0.  1.
       -3    1    3    3    0  502  0.44141946447E+03  0.11701186622E+04 -0.10322144612E+04  0.16215719322E+04  0.10100000352E+00 0. -1.
</event>
<event>
 5   0  0.3889225E-08  0.3876905E+04  0.7818609E-02  0.8029850E-01
        1   -1    0    0  501    0  0.00000000000E+00  0.00000000000E+00  0.16788045515E+04  0.16788045515E+04  0.50400001928E-02 0. -1.
       -1   -1    0    0    0  501  0.00000000000E+00  0.00000000000E+00 -0.22382582292E+04  0.22382582292E+04  0.50400001928E-02 0.  1.
    10030    2    1    2    0    0  0.00000000000E+00  0.00000000000E+00 -0.55945367767E+03  0.39170627807E+04  0.38769050041E+04 0.  0.
        5    1    3    3  502    0  0.14426789391E+04  0.56965126694E+02 -0.15865729262E+04  0.21451814112E+04  0.46999998093E+01 0.  1.
       -5    1    3    3    0  502 -0.14426789391E+04 -0.56965126694E+02  0.10271192485E+04  0.17718813695E+04  0.46999998093E+01 0. -1.
</event>
<event>
 5   0  0.3701250E-08  0.3800722E+04  0.7818609E-02  0.8046000E-01
       -1   -1    0    0    0  501  0.00000000000E+00  0.00000000000E+00  0.25484956064E+04  0.25484956064E+04  0.50400001928E-02 0.  1.
        1   -1    0    0  501    0  0.00000000000E+00  0.00000000000E+00 -0.14170605899E+04  0.14170605899E+04  0.50400001928E-02 0. -1.
    10030    2    1    2    0    0  0.00000000000E+00  0.00000000000E+00  0.11314350165E+04  0.39655561963E+04  0.38007223983E+04 0.  0.
        1    1    3    3  502    0 -0.43631647370E+03  0.19495332638E+03  0.24847775415E+04  0.25303158489E+04  0.50400001928E-02 0.  1.
       -1    1    3    3    0  502  0.43631647370E+03 -0.19495332638E+03 -0.13533425250E+04  0.14352403473E+04  0.50400001928E-02 0. -1.
</event>
<event>
 5   0  0.1143283E-07  0.3780316E+04  0.7818609E-02  0.8050392E-01
        2   -1    0    0  501    0  0.00000000000E+00  0.00000000000E+00  0.25711331956E+04  0.25711331956E+04  0.25500000920E-02 0.  1.
       -2   -1    0    0    0  501  0.00000000000E+00  0.00000000000E+00 -0.13895419163E+04  0.13895419163E+04  0.25500000920E-02 0. -1.
    10030    2    1    2    0    0  0.00000000000E+00  0.00000000000E+00  0.11815912793E+04  0.39606751119E+04  0.37803160437E+04 0.  0.
        1    1    3    3  502    0 -0.84479302471E+03 -0.43277703876E+03 -0.11217299855E+04  0.14694384574E+04  0.50400001928E-02 0. -1.
       -1    1    3    3    0  502  0.84479302471E+03  0.43277703876E+03  0.23033212647E+04  0.24912366544E+04  0.50400001928E-02 0.  1.
</event>
<event>
 5   0  0.3701250E-08  0.3798688E+04  0.7818609E-02  0.8046436E-01
       -1   -1    0    0    0  501  0.00000000000E+00  0.00000000000E+00  0.13702768280E+04  0.13702768280E+04  0.50400001928E-02 0.  1.
        1   -1    0    0  501    0  0.00000000000E+00  0.00000000000E+00 -0.26326857487E+04  0.26326857487E+04  0.50400001928E-02 0. -1.
    10030    2    1    2    0    0  0.00000000000E+00  0.00000000000E+00 -0.12624089207E+04  0.40029625767E+04  0.37986883404E+04 0.  0.
        2    1    3    3  502    0 -0.58706077983E+03 -0.81425929346E+03  0.10679074679E+04  0.14656346462E+04  0.25500000920E-02 0.  1.
       -2    1    3    3    0  502  0.58706077983E+03  0.81425929346E+03 -0.23303163885E+04  0.25373279305E+04  0.25500000920E-02 0. -1.
</event>
<event>
 5   0  0.3701250E-08  0.3776295E+04  0.7818609E-02  0.8051261E-01
        1   -1    0    0  501    0  0.00000000000E+00  0.00000000000E+00  0.22995351892E+04  0.22995351892E+04  0.50400001928E-02 0.  1.
       -1   -1    0    0    0  501  0.00000000000E+00  0.00000000000E+00 -0.15503569187E+04  0.15503569187E+04  0.50400001928E-02 0. -1.
    10030    2    1    2    0    0  0.00000000000E+00  0.00000000000E+00  0.74917827048E+03  0.38498921080E+04  0.37762946339E+04 0.  0.
        3    1    3    3  502    0  0.88706052982E+03  0.16636481474E+04  0.47904942893E+03  0.19452737359E+04  0.10100000352E+00 0. -1.
       -3    1    3    3    0  502 -0.88706052982E+03 -0.16636481474E+04  0.27012884155E+03  0.19046183721E+04  0.10100000352E+00 0.  1.
</event>
<event>
 5   0  0.1174870E-07  0.3719033E+04  0.7818609E-02  0.8063757E-01
       -2   -1    0    0    0  501  0.00000000000E+00  0.00000000000E+00  0.20799109841E+04  0.20799109841E+04  0.25500000920E-02 0. -1.
        2   -1    0    0  501    0  0.00000000000E+00  0.00000000000E+00 -0.16624760431E+04  0.16624760431E+04  0.25500000920E-02 0.  1.
    10030    2    1    2    0    0  0.00000000000E+00  0.00000000000E+00  0.41743494095E+03  0.37423870272E+04  0.37190333060E+04 0.  0.
        5    1    3    3  502    0 -0.83384028483E+03  0.15686081205E+04 -0.34424116757E+03  0.18095151637E+04  0.46999998093E+01 0.  1.
       -5    1    3    3    0  502  0.83384028483E+03 -0.15686081205E+04  0.76167610852E+03  0.19328718635E+04  0.46999998093E+01 0. -1.
</event>
<event>
 5   0  0.3701250E-08  0.3802996E+04  0.7818609E-02  0.8045512E-01
       -1   -1    0    0    0  501  0.00000000000E+00  0.00000000000E+00  0.22921614123E+04  0.22921614123E+04  0.50400001928E-02 0. -1.
        1   -1    0    0  501    0  0.00000000000E+00  0.00000000000E+00 -0.15774170802E+04  0.15774170802E+04  0.50400001928E-02 0.  1.
    10030    2    1    2    0    0  0.00000000000E+00  0.00000000000E+00  0.71474433217E+03  0.38695784925E+04  0.38029959571E+04 0.  0.
        3    1    3    3  502    0  0.93302412317E+03  0.15655001810E+04 -0.19468539811E+03  0.18328194798E+04  0.10100000352E+00 0.  1.
       -3    1    3    3    0  502 -0.93302412317E+03 -0.15655001810E+04  0.90942973028E+03  0.20367590127E+04  0.10100000352E+00 0. -1.
</event>
<event>
 5   0  0.1174870E-07  0.3799654E+04  0.7818609E-02  0.8046229E-01
       -2   -1    0    0    0  501  0.00000000000E+00  0.00000000000E+00  0.16766562200E+04  0.16766562200E+04  0.25500000920E-02 0. -1.
        2   -1    0    0  501    0  0.00000000000E+00  0.00000000000E+00 -0.21527026905E+04  0.21527026905E+04  0.25500000920E-02 0.  1.
    10030    2    1    2    0    0  0.00000000000E+00  0.00000000000E+00 -0.47604647049E+03  0.38293589106E+04  0.37996538558E+04 0.  0.
        5    1    3    3  502    0 -0.14073359587E+04 -0.58573578946E+03 -0.13807479401E+04  0.20567371927E+04  0.46999998093E+01 0.  1.
       -5    1    3    3    0  502  0.14073359587E+04  0.58573578946E+03  0.90470146957E+03  0.17726217179E+04  0.46999998093E+01 0. -1.
</event>
<event>
 5   0  0.1143283E-07  0.3774051E+04  0.7818609E-02  0.8051747E-01
       -2   -1    0    0    0  501  0.00000000000E+00  0.00000000000E+00  0.22490734811E+04  0.22490734811E+04  0.25500000920E-02 0.  1.
        2   -1    0    0  501    0  0.00000000000E+00  0.00000000000E+00 -0.15832585019E+04  0.15832585019E+04  0.25500000920E-02 0. -1.
    10030    2    1    2    0    0  0.00000000000E+00  0.00000000000E+00  0.66581497914E+03  0.38323319830E+04  0.37740507206E+04 0.  0.
        1    1    3    3  502    0 -0.15983254696E+04 -0.41198340073E+03 -0.59581462910E+03  0.17548132953E+04  0.50400001928E-02 0. -1.
       -1    1    3    3    0  502  0.15983254696E+04  0.41198340073E+03  0.12616296082E+04  0.20775186877E+04  0.50400001928E-02 0.  1.
</event>
<event>
 5   0  0.3701250E-08  0.3752152E+04  0.7818609E-02  0.8056502E-01
       -1   -1    0    0    0  501  0.00000000000E+00  0.00000000000E+00  0.19649294488E+04  0.19649294488E+04  0.50400001928E-02 0.  1.
        1   -1    0    0  501    0  0.00000000000E+00  0.00000000000E+00 -0.17912402920E+04  0.17912402920E+04  0.50400001928E-02 0. -1.
    10030    2    1    2    0    0  0.00000000000E+00  0.00000000000E+00  0.17368915678E+03  0.37561697408E+04  0.37521518091E+04 0.  0.
        1    1    3    3  502    0  0.18371701359E+04 -0.34515856273E+03  0.24617612063E+03  0.18854525250E+04  0.50400001928E-02 0. -1.
       -1    1    3    3    0  502 -0.18371701359E+04  0.34515856273E+03 -0.72486963857E+02  0.18707172158E+04  0.50400001928E-02 0.  1.
</event>
<event>
 5   0  0.7858367E-08  0.3800534E+04  0.7818609E-02  0.8046040E-01
       -2   -1    0    0    0  501  0.00000000000E+00  0.00000000000E+00  0.15637763073E+04  0.15637763073E+04  0.25500000920E-02 0. -1.
        2   -1    0    0  501    0  0.00000000000E+00  0.00000000000E+00 -0.23091628480E+04  0.23091628480E+04  0.25500000920E-02 0.  1.
    10030    2    1    2    0    0  0.00000000000E+00  0.00000000000E+00 -0.74538654071E+03  0.38729391554E+04  0.38005337265E+04 0.  0.
        2    1    3    3  502    0 -0.25297171623E+03  0.13259790208E+04 -0.17356336767E+04  0.21987813244E+04  0.25500000920E-02 0.  1.
       -2    1    3    3    0  502  0.25297171623E+03 -0.13259790208E+04  0.99024713597E+03  0.16741578310E+04  0.25500000920E-02 0. -1.
</event>
<event>
 5   0  0.1174870E-07  0.3811548E+04  0.7818609E-02  0.8043681E-01
       -2   -1    0    0    0  501  0.00000000000E+00  0.00000000000E+00  0.21187651744E+04  0.21187651744E+04  0.25500000920E-02 0.  1.
        2   -1    0    0  501    0  0.00000000000E+00  0.00000000000E+00 -0.17141939420E+04  0.17141939420E+04  0.25500000920E-02 0. -1.
    10030    2    1    2    0    0  0.00000000000E+00  0.00000000000E+00  0.40457123240E+03  0.38329591164E+04  0.38115479409E+04 0.  0.
        5    1    3    3  502    0  0.18237089928E+04  0.21737025580E+03  0.71385539746E+03  0.19704760686E+04  0.46999998093E+01 0.  1.
       -5    1    3    3    0  502 -0.18237089928E+04 -0.21737025580E+03 -0.30928416505E+03  0.18624830478E+04  0.46999998093E+01 0. -1.
</event>
<event>
 5   0  0.1174870E-07  0.3801285E+04  0.7818609E-02  0.8045879E-01
       -2   -1    0    0    0  501  0.00000000000E+00  0.00000000000E+00  0.15778720002E+04  0.15778720002E+04  0.25500000920E-02 0. -1.
        2   -1    0    0  501    0  0.00000000000E+00  0.00000000000E+00 -0.22894392198E+04  0.22894392198E+04  0.25500000920E-02 0.  1.
    10030    2    1    2    0    0  0.00000000000E+00  0.00000000000E+00 -0.71156721961E+03  0.38673112201E+04  0.38012850675E+04 0.  0.
        5    1    3    3  502    0  0.17575382904E+04  0.56185802046E+03  0.10797916877E+03  0.18483254227E+04  0.46999998093E+01 0. -1.
       -5    1    3    3    0  502 -0.17575382904E+04 -0.56185802046E+03 -0.81954638838E+03  0.20189857974E+04  0.46999998093E+01 0.  1.
</event>
<event>
 5   0  0.7858367E-08  0.3911670E+04  0.7818609E-02  0.8022606E-01
        2   -1    0    0  501    0  0.00000000000E+00  0.00000000000E+00  0.20188813654E+04  0.20188813654E+04  0.25500000920E-02 0. -1.
       -2   -1    0    0    0  501  0.00000000000E+00  0.00000000000E+00 -0.18947574919E+04  0.18947574919E+04  0.25500000920E-02 0.  1.
    10030    2    1    2    0    0  0.00000000000E+00  0.00000000000E+00  0.12412387351E+03  0.39136388573E+04  0.39116700231E+04 0.  0.
        2    1    3    3  502    0  0.93827896898E+03  0.17138399901E+04 -0.25592987289E+02  0.19540393896E+04  0.25500000920E-02 0.  1.
       -2    1    3    3    0  502 -0.93827896898E+03 -0.17138399901E+04  0.14971686080E+03  0.19595994677E+04  0.25500000920E-02 0. -1.
</event>
<event>
 5   0  0.1193861E-07  0.3778563E+04  0.7818609E-02  0.8050771E-01
        2   -1    0    0  501    0  0.00000000000E+00  0.00000000000E+00  0.20293845534E+04  0.20293845534E+04  0.25500000920E-02 0.  1.
       -2   -1    0    0    0  501  0.00000000000E+00  0.00000000000E+00 -0.17588507855E+04  0.17588507855E+04  0.25500000920E-02 0. -1.
    10030    2    1    2    0    0  0.00000000000E+00  0.00000000000E+00  0.27053376792E+03  0.37882353389E+04  0.37785630157E+04 0.  0.
        3    1    3    3  502    0 -0.17838254670E+04 -0.16708262959E+03  0.73633028567E+03  0.19370421270E+04  0.10100000352E+00 0.  1.
       -3    1    3    3    0  502  0.17838254670E+04  0.16708262959E+03 -0.46579651775E+03  0.18511932120E+04  0.10100000352E+00 0. -1.
</event>
<event>
 5   0  0.3889225E-08  0.3813056E+04  0.7818609E-02  0.8043359E-01
        1   -1    0    0  501    0  0.00000000000E+00  0.00000000000E+00  0.22188648252E+04  0.22188648252E+04  0.50400001928E-02 0. -1.
       -1   -1    0    0    0  501  0.00000000000E+00  0.00000000000E+00 -0.16381568546E+04  0.16381568546E+04  0.50400001928E-02 0.  1.
    10030    2    1    2    0    0  0.00000000000E+00  0.00000000000E+00  0.58070797063E+03  0.38570216798E+04  0.38130557944E+04 0.  0.
        5    1    3    3  502    0 -0.54513685601E+03  0.74254871372E+03  0.19788141210E+04  0.21827231157E+04  0.46999998093E+01 0. -1.
       -5    1    3    3    0  502  0.54513685601E+03 -0.74254871372E+03 -0.13981061504E+04  0.16742985641E+04  0.46999998093E+01 0.  1.
</event>
<event>
 5   0  0.3701250E-08  0.3791675E+04  0.7818609E-02  0.8047944E-01
       -1   -1    0    0    0  501  0.00000000000E+00  0.00000000000E+00  0.12959109543E+04  0.12959109543E+04  0.50400001928E-02 0.  1.
        1   -1    0    0  501    0  0.00000000000E+00  0.00000000000E+00 -0.27734930026E+04  0.27734930026E+04  0.50400001928E-02 0. -1.
    10030    2    1    2    0    0  0.00000000000E+00  0.00000000000E+00 -0.14775820483E+04  0.40694039569E+04  0.37916750725E+04 0.  0.
        3    1    3    3  502    0  0.90431495647E+03  0.13018882123E+04 -0.18549170929E+04  0.24399622722E+04  0.10100000352E+00 0. -1.
       -3    1    3    3    0  502 -0.90431495647E+03 -0.13018882123E+04  0.37733504467E+03  0.16294416847E+04  0.10100000352E+00 0.  1.
</event>
<event>
 5   0  0.1143283E-07  0.3816584E+04  0.7818609E-02  0.8042605E-01
       -2   -1    0    0    0  501  0.00000000000E+00  0.00000000000E+00  0.14140315881E+04  0.14140315881E+04  0.25500000920E-02 0. -1.
        2   -1    0    0  501    0  0.00000000000E+00  0.00000000000E+00 -0.25753162674E+04  0.25753162674E+04  0.25500000920E-02 0.  1.
    10030    2    1    2    0    0  0.00000000000E+00  0.00000000000E+00 -0.11612846794E+04  0.39893478555E+04  0.38165841018E+04 0.  0.
        1    1    3    3  502    0 -0.17044326973E+04 -0.66294343240E+03 -0.11502826517E+04  0.21604941548E+04  0.50400001928E-02 0.  1.
       -1    1    3    3    0  502  0.17044326973E+04  0.66294343240E+03 -0.11002027633E+02  0.18288537007E+04  0.50400001928E-02 0. -1.
</event>
<event>
 5   0  0.3701250E-08  0.3796584E+04  0.7818609E-02  0.8046888E-01
        1   -1    0    0  501    0  0.00000000000E+00  0.00000000000E+00  0.26937554952E+04  0.26937554952E+04  0.50400001928E-02 0.  1.
       -1   -1    0    0    0  501  0.00000000000E+00  0.00000000000E+00 -0.13377282847E+04  0.13377282847E+04  0.50400001928E-02 0. -1.
    10030    2    1    2    0    0  0.00000000000E+00  0.00000000000E+00  0.13560272106E+04  0.40314837799E+04  0.37965842111E+04 0.  0.
        2    1    3    3  502    0 -0.15734482039E+04 -0.65901971067E+03  0.15622831783E+04  0.23131742171E+04  0.25500000920E-02 0. -1.
       -2    1    3    3    0  502  0.15734482039E+04  0.65901971067E+03 -0.20625596769E+03  0.17183095628E+04  0.25500000920E-02 0.  1.
</event>
<event>
 5   0  0.3701250E-08  0.3780069E+04  0.7818609E-02  0.8050445E-01
       -1   -1    0    0    0  501  0.00000000000E+00  0.00000000000E+00  0.14005864783E+04  0.14005864783E+04  0.50400001928E-02 0. -1.
        1   -1    0    0  501    0  0.00000000000E+00  0.00000000000E+00 -0.25505253252E+04  0.25505253252E+04  0.50400001928E-02 0.  1.
    10030    2    1    2    0    0  0.00000000000E+00  0.00000000000E+00 -0.11499388469E+04  0.39511118036E+04  0.37800694614E+04 0.  0.
        2    1    3    3  502    0  0.12732183850E+04 -0.12617617283E+04 -0.12013371878E+04  0.21578551281E+04  0.25500000920E-02 0.  1.
       -2    1    3    3    0  502 -0.12732183850E+04  0.12617617283E+04  0.51398340921E+02  0.17932566755E+04  0.25500000920E-02 0. -1.
</event>
<event>
 5   0  0.7858367E-08  0.3803096E+04  0.7818609E-02  0.8045491E-01
       -2   -1    0    0    0  501  0.00000000000E+00  0.00000000000E+00  0.29195075411E+04  0.29195075411E+04  0.25500000920E-02 0. -1.
        2   -1    0    0  501    0  0.00000000000E+00  0.00000000000E+00 -0.12385254147E+04  0.12385254147E+04  0.25500000920E-02 0.  1.
    10030    2    1    2    0    0  0.00000000000E+00  0.00000000000E+00  0.16809821264E+04  0.41580329557E+04  0.38030957327E+04 0.  0.
        2    1    3    3  502    0 -0.46982374930E+03  0.16290156792E+04 -0.10095166011E+03  0.16984162259E+04  0.25500000920E-02 0.  1.
       -2    1    3    3    0  502  0.46982374930E+03 -0.16290156792E+04  0.17819337865E+04  0.24596167299E+04  0.25500000920E-02 0. -1.
</event>
<event>
 5   0  0.7858367E-08  0.3807618E+04  0.7818609E-02  0.8044522E-01
        2   -1    0    0  501    0  0.00000000000E+00  0.00000000000E+00  0.16922750955E+04  0.16922750955E+04  0.25500000920E-02 0.  1.
       -2   -1    0    0    0  501  0.00000000000E+00  0.00000000000E+00 -0.21417844160E+04  0.21417844160E+04  0.25500000920E-02 0. -1.
    10030    2    1    2    0    0  0.00000000000E+00  0.00000000000E+00 -0.44950932053E+03  0.38340595116E+04  0.38076178523E+04 0.  0.
        2    1    3    3  502    0  0.18151356799E+04  0.57386448461E+03 -0.20338360359E+03  0.19145241898E+04  0.25500000920E-02 0.  1.
       -2    1    3    3    0  502 -0.18151356799E+04 -0.57386448461E+03 -0.24612571694E+03  0.19195353218E+04  0.25500000920E-02 0. -1.
</event>
<event>
 5   0  0.1193861E-07  0.3790717E+04  0.7818609E-02  0.8048150E-01
        2   -1    0    0  501    0  0.00000000000E+00  0.00000000000E+00  0.14879411350E+04  0.14879411350E+04  0.25500000920E-02 0. -1.
       -2   -1    0    0    0  501  0.00000000000E+00  0.00000000000E+00 -0.24143325145E+04  0.24143325145E+04  0.25500000920E-02 0.  1.
    10030    2    1    2    0    0  0.00000000000E+00  0.00000000000E+00 -0.92639137955E+03  0.39022736495E+04  0.37907174317E+04 0.  0.
        3    1    3    3  502    0  0.65114147083E+03 -0.58504963782E+03 -0.21937742871E+04  0.23619724652E+04  0.10100000352E+00 0.  1.
       -3    1    3    3    0  502 -0.65114147083E+03  0.58504963782E+03  0.12673829075E+04  0.15403011842E+04  0.10100000352E+00 0. -1.
</event>
<event>
 5   0  0.1174870E-07  0.3850975E+04  0.7818609E-02  0.8035303E-01
        2   -1    0    0  501    0  0.00000000000E+00  0.00000000000E+00  0.12708860877E+04  0.12708860877E+04  0.25500000920E-02 0.  1.
       -2   -1    0    0    0  501  0.00000000000E+00  0.00000000000E+00 -0.29172570619E+04  0.29172570619E+04  0.25500000920E-02 0. -1.
    10030    2    1    2    0    0  0.00000000000E+00  0.00000000000E+00 -0.16463709741E+04  0.41881431496E+04  0.38509746373E+04 0.  0.
        5    1    3    3  502    0  0.39819096887E+03 -0.58346254871E+03  0.11248709030E+04  0.13282850718E+04  0.46999998093E+01 0.  1.
       -5    1    3    3    0  502 -0.39819096887E+03  0.58346254871E+03 -0.27712418772E+04  0.28598580778E+04  0.46999998093E+01 0. -1.
</event>
<event>
 5   0  0.7858367E-08  0.3779253E+04  0.7818609E-02  0.8050622E-01
       -2   -1    0    0    0  501  0.00000000000E+00  0.00000000000E+00  0.22671173127E+04  0.22671173127E+04  0.25500000920E-02 0. -1.
        2   -1    0    0  501    0  0.00000000000E+00  0.00000000000E+00 -0.15749902736E+04  0.15749902736E+04  0.25500000920E-02 0.  1.
    10030    2    1    2    0    0  0.00000000000E+00  0.00000000000E+00  0.69212703913E+03  0.38421075864E+04  0.37792526863E+04 0.  0.
        2    1    3    3  502    0  0.13345339249E+04  0.37368175460E+03 -0.95985062661E+03  0.16858030952E+04  0.25500000920E-02 0.  1.
       -2    1    3    3    0  502 -0.13345339249E+04 -0.37368175460E+03  0.16519776657E+04  0.21563044911E+04  0.25500000920E-02 0. -1.
</event>
<event>
 5   0  0.1143283E-07  0.3804278E+04  0.7818609E-02  0.8045237E-01
        2   -1    0    0  501    0  0.00000000000E+00  0.00000000000E+00  0.24092803478E+04  0.24092803478E+04  0.25500000920E-02 0.  1.
       -2   -1    0    0    0  501  0.00000000000E+00  0.00000000000E+00 -0.15017486560E+04  0.15017486560E+04  0.25500000920E-02 0. -1.
    10030    2    1    2    0    0  0.00000000000E+00  0.00000000000E+00  0.90753169178E+03  0.39110290038E+04  0.38042783938E+04 0.  0.
        1    1    3    3  502    0  0.91339279242E+03  0.11553958053E+04 -0.78371675307E+03  0.16683638120E+04  0.50400001928E-02 0. -1.
       -1    1    3    3    0  502 -0.91339279242E+03 -0.11553958053E+04  0.16912484448E+04  0.22426651918E+04  0.50400001928E-02 0.  1.
</event>
<event>
 5   0  0.3701250E-08  0.3840924E+04  0.7818609E-02  0.8037429E-01
       -1   -1    0    0    0  501  0.00000000000E+00  0.00000000000E+00  0.13741908559E+04  0.13741908559E+04  0.50400001928E-02 0.  1.
        1   -1    0    0  501    0  0.00000000000E+00  0.00000000000E+00 -0.26838884097E+04  0.26838884097E+04  0.50400001928E-02 0. -1.
    10030    2    1    2    0    0  0.00000000000E+00  0.00000000000E+00 -0.13096975538E+04  0.40580792656E+04  0.38409243215E+04 0.  0.
        3    1    3    3  502    0  0.63340225378E+03 -0.52132826115E+03  0.11797553130E+04  0.14369426501E+04  0.10100000352E+00 0.  1.
       -3    1    3    3    0  502 -0.63340225378E+03  0.52132826115E+03 -0.24894528668E+04  0.26211366155E+04  0.10100000352E+00 0. -1.
</event>
<event>
 5   0  0.1143283E-07  0.3795883E+04  0.7818609E-02  0.8047039E-01
       -2   -1    0    0    0  501  0.00000000000E+00  0.00000000000E+00  0.15091412033E+04  0.15091412033E+04  0.25500000920E-02 0.  1.
        2   -1    0    0  501    0  0.00000000000E+00  0.00000000000E+00 -0.23869084129E+04  0.23869084129E+04  0.25500000920E-02 0. -1.
    10030    2    1    2    0    0  0.00000000000E+00  0.00000000000E+00 -0.87776720955E+03  0.38960496162E+04  0.37958829457E+04 0.  0.
        1    1    3    3  502    0 -0.14232481885E+04  0.68631321550E+03  0.64029937404E+03  0.17048884199E+04  0.50400001928E-02 0.  1.
       -1    1    3    3    0  502  0.14232481885E+04 -0.68631321550E+03 -0.15180665836E+04  0.21911611963E+04  0.50400001928E-02 0. -1.
</event>
<event>
 5   0  0.3701250E-08  0.3804277E+04  0.7818609E-02  0.8045238E-01
        1   -1    0    0  501    0  0.00000000000E+00  0.00000000000E+00  0.18362863639E+04  0.18362863639E+04  0.50400001928E-02 0.  1.
       -1   -1    0    0    0  501  0.00000000000E+00  0.00000000000E+00 -0.19703523077E+04  0.19703523077E+04  0.50400001928E-02 0. -1.
    10030    2    1    2    0    0  0.00000000000E+00  0.00000000000E+00 -0.13406594380E+03  0.38066386717E+04  0.38042771060E+04 0.  0.
        2    1    3    3  502    0  0.15117801054E+04 -0.69528630625E+02  0.10859920916E+04  0.18627109654E+04  0.25500000920E-02 0.  1.
       -2    1    3    3    0  502 -0.15117801054E+04  0.69528630625E+02 -0.12200580354E+04  0.19439277063E+04  0.25500000920E-02 0. -1.
</event>
<event>
 5   0  0.3701250E-08  0.3782209E+04  0.7818609E-02  0.8049984E-01
       -1   -1    0    0    0  501  0.00000000000E+00  0.00000000000E+00  0.23429169115E+04  0.23429169115E+04  0.50400001928E-02 0. -1.
        1   -1    0    0  501    0  0.00000000000E+00  0.00000000000E+00 -0.15264200550E+04  0.15264200551E+04  0.50400001928E-02 0.  1.
    10030    2    1    2    0    0  0.00000000000E+00  0.00000000000E+00  0.81649685642E+03  0.38693369665E+04  0.37822085405E+04 0.  0.
        1    1    3    3  502    0  0.71952061822E+03  0.69122939196E+03  0.20517325438E+04  0.22814719862E+04  0.50400001928E-02 0. -1.
       -1    1    3    3    0  502 -0.71952061822E+03 -0.69122939196E+03 -0.12352356874E+04  0.15878649803E+04  0.50400001928E-02 0.  1.
</event>
<event>
 5   0  0.7858367E-08  0.3795103E+04  0.7818609E-02  0.8047206E-01
       -2   -1    0    0    0  501  0.00000000000E+00  0.00000000000E+00  0.16540695144E+04  0.16540695144E+04  0.25500000920E-02 0.  1.
        2   -1    0    0  501    0  0.00000000000E+00  0.00000000000E+00 -0.21768748998E+04  0.21768748998E+04  0.25500000920E-02 0. -1.
    10030    2    1    2    0    0  0.00000000000E+00  0.00000000000E+00 -0.52280538545E+03  0.38309444142E+04  0.37951033759E+04 0.  0.
        2    1    3    3  502    0 -0.96209009983E+03  0.12228589800E+04  0.83499523827E+03  0.17658478114E+04  0.25500000920E-02 0.  1.
       -2    1    3    3    0  502  0.96209009983E+03 -0.12228589800E+04 -0.13578006237E+04  0.20650966028E+04  0.25500000920E-02 0. -1.
</event>
<event>
 5   0  0.1150235E-07  0.3810324E+04  0.7818609E-02  0.8043943E-01
       -2   -1    0    0    0  501  0.00000000000E+00  0.00000000000E+00  0.21149847389E+04  0.21149847389E+04  0.25500000920E-02 0.  1.
        2   -1    0    0  501    0  0.00000000000E+00  0.00000000000E+00 -0.17161549432E+04  0.17161549432E+04  0.25500000920E-02 0. -1.
    10030    2    1    2    0    0  0.00000000000E+00  0.00000000000E+00  0.39882979564E+03  0.38311396821E+04  0.38103236159E+04 0.  0.
        4    1    3    3  502    0  0.15990664410E+04 -0.92653235077E+03 -0.26589209995E+03  0.18671303922E+04  0.12699999809E+01 0. -1.
       -4    1    3    3    0  502 -0.15990664410E+04  0.92653235077E+03  0.66472189559E+03  0.19640092899E+04  0.12699999809E+01 0.  1.
</event>
<event>
 5   0  0.7858367E-08  0.3810550E+04  0.7818609E-02  0.8043895E-01
       -2   -1    0    0    0  501  0.00000000000E+00  0.00000000000E+00  0.19890393178E+04  0.19890393178E+04  0.25500000920E-02 0.  1.
        2   -1    0    0  501    0  0.00000000000E+00  0.00000000000E+00 -0.18250381960E+04  0.18250381960E+04  0.25500000920E-02 0. -1.
    10030    2    1    2    0    0  0.00000000000E+00  0.00000000000E+00  0.16400112180E+03  0.38140775137E+04  0.38105499489E+04 0.  0.
        2    1    3    3  502    0  0.93096082070E+03  0.16319990432E+04  0.39846377728E+03  0.19206463258E+04  0.25500000920E-02 0.  1.
       -2    1    3    3    0  502 -0.93096082070E+03 -0.16319990432E+04 -0.23446265548E+03  0.18934311880E+04  0.25500000920E-02 0. -1.
</event>
<event>
 5   0  0.3889225E-08  0.3788188E+04  0.7818609E-02  0.8048695E-01
       -1   -1    0    0    0  501  0.00000000000E+00  0.00000000000E+00  0.26872633740E+04  0.26872633740E+04  0.50400001928E-02 0. -1.
        1   -1    0    0  501    0  0.00000000000E+00  0.00000000000E+00 -0.13350353777E+04  0.13350353777E+04  0.50400001928E-02 0.  1.
    10030    2    1    2    0    0  0.00000000000E+00  0.00000000000E+00  0.13522279963E+04  0.40222987517E+04  0.37881877849E+04 0.  0.
        5    1    3    3  502    0 -0.12214343147E+04  0.77704104605E+03  0.19730216261E+04  0.24471475230E+04  0.46999998093E+01 0. -1.
       -5    1    3    3    0  502  0.12214343147E+04 -0.77704104605E+03 -0.62079362984E+03  0.15751512287E+04  0.46999998093E+01 0.  1.
</event>
<event>
 5   0  0.3701250E-08  0.3806442E+04  0.7818609E-02  0.8044774E-01
       -1   -1    0    0    0  501  0.00000000000E+00  0.00000000000E+00  0.28742157900E+04  0.28742157900E+04  0.50400001928E-02 0.  1.
        1   -1    0    0  501    0  0.00000000000E+00  0.00000000000E+00 -0.12602567669E+04  0.12602567669E+04  0.50400001928E-02 0. -1.
    10030    2    1    2    0    0  0.00000000000E+00  0.00000000000E+00  0.16139590231E+04  0.41344725569E+04  0.38064418549E+04 0.  0.
        1    1    3    3  502    0  0.13039648343E+04  0.40633129652E+03  0.22466549886E+04  0.26292371612E+04  0.50400001928E-02 0.  1.
       -1    1    3    3    0  502 -0.13039648343E+04 -0.40633129652E+03 -0.63269596549E+03  0.15052353957E+04  0.50400001928E-02 0. -1.
</event>
<event>
 5   0  0.3701250E-08  0.3744520E+04  0.7818609E-02  0.8058167E-01
       -3   -1    0    0    0  501  0.00000000000E+00  0.00000000000E+00  0.13173879627E+04  0.13173879666E+04  0.10100000352E+00 0.  1.
        3   -1    0    0  501    0  0.00000000000E+00  0.00000000000E+00 -0.26608391396E+04  0.26608391415E+04  0.10100000352E+00 0. -1.
    10030    2    1    2    0    0  0.00000000000E+00  0.00000000000E+00 -0.13434511769E+04  0.39782271081E+04  0.37445199772E+04 0.  0.
        2    1    3    3  502    0  0.65016035201E+03 -0.72675901312E+03 -0.23697496924E+04  0.25625379511E+04  0.25500000920E-02 0. -1.
       -2    1    3    3    0  502 -0.65016035201E+03  0.72675901312E+03  0.10262985155E+04  0.14156891570E+04  0.25500000920E-02 0.  1.
</event>
<event>
 5   0  0.1193861E-07  0.3795857E+04  0.7818609E-02  0.8047045E-01
        2   -1    0    0  501    0  0.00000000000E+00  0.00000000000E+00  0.23194814424E+04  0.23194814424E+04  0.25500000920E-02 0. -1.
       -2   -1    0    0    0  501  0.00000000000E+00  0.00000000000E+00 -0.15529904018E+04  0.15529904018E+04  0.25500000920E-02 0.  1.
    10030    2    1    2    0    0  0.00000000000E+00  0.00000000000E+00  0.76649104057E+03  0.38724718442E+04  0.37958569084E+04 0.  0.
        3    1    3    3  502    0 -0.18043970875E+04  0.37206003333E+03 -0.81867565745E+02  0.18441745650E+04  0.10100000352E+00 0.  1.
       -3    1    3    3    0  502  0.18043970875E+04 -0.37206003333E+03  0.84835860631E+03  0.20282972792E+04  0.10100000352E+00 0. -1.
</event>
<event>
 5   0  0.1143283E-07  0.3791175E+04  0.7818609E-02  0.8048051E-01
       -2   -1    0    0    0  501  0.00000000000E+00  0.00000000000E+00  0.18384239402E+04  0.18384239402E+04  0.25500000920E-02 0. -1.
        2   -1    0    0  501    0  0.00000000000E+00  0.00000000000E+00 -0.19545283609E+04  0.19545283609E+04  0.25500000920E-02 0.  1.
    10030    2    1    2    0    0  0.00000000000E+00  0.00000000000E+00 -0.11610442074E+03  0.37929523011E+04  0.37911748736E+04 0.  0.
        1    1    3    3  502    0 -0.14053672758E+04  0.93881988045E+03  0.80072763789E+03  0.18701884124E+04  0.50400001928E-02 0. -1.
       -1    1    3    3    0  502  0.14053672758E+04 -0.93881988045E+03 -0.91683205863E+03  0.19227638887E+04  0.50400001928E-02 0.  1.
</event>
<event>
 5   0  0.1174870E-07  0.3808330E+04  0.7818609E-02  0.8044370E-01
        2   -1    0    0  501    0  0.00000000000E+00  0.00000000000E+00  0.14282238771E+04  0.14282238771E+04  0.25500000920E-02 0.  1.
       -2   -1    0    0    0  501  0.00000000000E+00  0.00000000000E+00 -0.25387081821E+04  0.25387081821E+04  0.25500000920E-02 0. -1.
    10030    2    1    2    0    0  0.00000000000E+00  0.00000000000E+00 -0.11104843050E+04  0.39669320592E+04  0.38083296299E+04 0.  0.
        5    1    3    3  502    0  0.74191017354E+03 -0.40038158125E+03  0.12232251076E+04  0.14856102685E+04  0.46999998093E+01 0.  1.
       -5    1    3    3    0  502 -0.74191017354E+03  0.40038158125E+03 -0.23337094126E+04  0.24813217906E+04  0.46999998093E+01 0. -1.
</event>
<event>
 5   0  0.3701250E-08  0.3603112E+04  0.7818609E-02  0.8089779E-01
       -1   -1    0    0    0  501  0.00000000000E+00  0.00000000000E+00  0.20000256058E+04  0.20000256058E+04  0.50400001928E-02 0. -1.
        1   -1    0    0  501    0  0.00000000000E+00  0.00000000000E+00 -0.16227816276E+04  0.16227816276E+04  0.50400001928E-02 0.  1.
    10030    2    1    2    0    0  0.00000000000E+00  0.00000000000E+00  0.37724397818E+03  0.36228072334E+04  0.36031124366E+04 0.  0.
        1    1    3    3  502    0 -0.16949769837E+03  0.16462174839E+04 -0.52719875663E+03  0.17368649928E+04  0.50400001928E-02 0.  1.
       -1    1    3    3    0  502  0.16949769837E+03 -0.16462174839E+04  0.90444273480E+03  0.18859422406E+04  0.50400001928E-02 0. -1.
</event>
<event>
 5   0  0.1174870E-07  0.3835914E+04  0.7818609E-02  0.8038492E-01
        2   -1    0    0  501    0  0.00000000000E+00  0.00000000000E+00  0.20836649774E+04  0.20836649774E+04  0.25500000920E-02 0.  1.
       -2   -1    0    0    0  501  0.00000000000E+00  0.00000000000E+00 -0.17654270819E+04  0.17654270819E+04  0.25500000920E-02 0. -1.
    10030    2    1    2    0    0  0.00000000000E+00  0.00000000000E+00  0.31823789541E+03  0.38490920593E+04  0.38359137533E+04 0.  0.
        5    1    3    3  502    0  0.16249496193E+04 -0.10169193481E+04  0.22218600609E+03  0.19297603315E+04  0.46999998093E+01 0.  1.
       -5    1    3    3    0  502 -0.16249496193E+04  0.10169193481E+04  0.96051889318E+02  0.19193317278E+04  0.46999998093E+01 0. -1.
</event>
<event>
 5   0  0.1193861E-07  0.3800145E+04  0.7818609E-02  0.8046124E-01
       -2   -1    0    0    0  501  0.00000000000E+00  0.00000000000E+00  0.19921635160E+04  0.19921635160E+04  0.25500000920E-02 0. -1.
        2   -1    0    0  501    0  0.00000000000E+00  0.00000000000E+00 -0.18122382002E+04  0.18122382002E+04  0.25500000920E-02 0.  1.
    10030    2    1    2    0    0  0.00000000000E+00  0.00000000000E+00  0.17992531583E+03  0.38044017162E+04  0.38001446419E+04 0.  0.
        3    1    3    3  502    0 -0.78940905071E+03  0.78875212805E+03  0.16295339945E+04  0.19750133211E+04  0.10100000352E+00 0. -1.
       -3    1    3    3    0  502  0.78940905071E+03 -0.78875212805E+03 -0.14496086787E+04  0.18293883952E+04  0.10100000352E+00 0.  1.
</event>
<event>
 5   0  0.1174870E-07  0.3797309E+04  0.7818609E-02  0.8046733E-01
        2   -1    0    0  501    0  0.00000000000E+00  0.00000000000E+00  0.24849055682E+04  0.24849055682E+04  0.25500000920E-02 0. -1.
       -2   -1    0    0    0  501  0.00000000000E+00  0.00000000000E+00 -0.14507144464E+04  0.14507144464E+04  0.25500000920E-02 0.  1.
    10030    2    1    2    0    0  0.00000000000E+00  0.00000000000E+00  0.10341911218E+04  0.39356200146E+04  0.37973087342E+04 0.  0.
        5    1    3    3  502    0 -0.12830932174E+04  0.11431155102E+04 -0.31966802565E+03  0.17479276332E+04  0.46999998093E+01 0.  1.
       -5    1    3    3    0  502  0.12830932174E+04 -0.11431155102E+04  0.13538591474E+04  0.21876923814E+04  0.46999998093E+01 0. -1.
</event>
<event>
 5   0  0.7858367E-08  0.3788635E+04  0.7818609E-02  0.8048598E-01
       -2   -1    0    0    0  501  0.00000000000E+00  0.00000000000E+00  0.26368547759E+04  0.26368547759E+04  0.25500000920E-02 0.  1.
        2   -1    0    0  501    0  0.00000000000E+00  0.00000000000E+00 -0.13608784215E+04  0.13608784215E+04  0.25500000920E-02 0. -1.
    10030    2    1    2    0    0  0.00000000000E+00  0.00000000000E+00  0.12759763544E+04  0.39977331975E+04  0.37886349865E+04 0.  0.
        2    1    3    3  502    0  0.42390486483E+03  0.45523176622E+03 -0.12500392583E+04  0.13962555076E+04  0.25500000920E-02 0. -1.
       -2    1    3    3    0  502 -0.42390486483E+03 -0.45523176622E+03  0.25260156126E+04  0.26014776898E+04  0.25500000920E-02 0.  1.
</event>
<event>
 5   0  0.3701250E-08  0.3799944E+04  0.7818609E-02  0.8046167E-01
       -1   -1    0    0    0  501  0.00000000000E+00  0.00000000000E+00  0.21141745554E+04  0.21141745554E+04  0.50400001928E-02 0. -1.
        1   -1    0    0  501    0  0.00000000000E+00  0.00000000000E+00 -0.17074715973E+04  0.17074715973E+04  0.50400001928E-02 0.  1.
    10030    2    1    2    0    0  0.00000000000E+00  0.00000000000E+00  0.40670295809E+03  0.38216461528E+04  0.37999436865E+04 0.  0.
        3    1    3    3  502    0 -0.15630739166E+04  0.10707979382E+04  0.60821569670E+02  0.18956549176E+04  0.10100000352E+00 0.  1.
       -3    1    3    3    0  502  0.15630739166E+04 -0.10707979382E+04  0.34588138842E+03  0.19259912352E+04  0.10100000352E+00 0. -1.
</event>
<event>
 5   0  0.3701250E-08  0.3799134E+04  0.7818609E-02  0.8046341E-01
       -1   -1    0    0    0  501  0.00000000000E+00  0.00000000000E+00  0.14006157519E+04  0.14006157519E+04  0.50400001928E-02 0. -1.
        1   -1    0    0  501    0  0.00000000000E+00  0.00000000000E+00 -0.25762634866E+04  0.25762634866E+04  0.50400001928E-02 0.  1.
    10030    2    1    2    0    0  0.00000000000E+00  0.00000000000E+00 -0.11756477348E+04  0.39768792385E+04  0.37991342279E+04 0.  0.
        4    1    3    3  502    0 -0.14142458328E+04 -0.80914930428E+03 -0.16100033588E+04  0.22906170130E+04  0.12699999809E+01 0.  1.
       -4    1    3    3    0  502  0.14142458328E+04  0.80914930428E+03  0.43435562398E+03  0.16862622255E+04  0.12699999809E+01 0. -1.
</event>
<event>
 5   0  0.7858367E-08  0.3804281E+04  0.7818609E-02  0.8045237E-01
        2   -1    0    0  501    0  0.00000000000E+00  0.00000000000E+00  0.17699127726E+04  0.17699127726E+04  0.25500000920E-02 0.  1.
       -2   -1    0    0    0  501  0.00000000000E+00  0.00000000000E+00 -0.20442467684E+04  0.20442467684E+04  0.25500000920E-02 0. -1.
    10030    2    1    2    0    0  0.00000000000E+00  0.00000000000E+00 -0.27433399576E+03  0.38141595410E+04  0.38042809916E+04 0.  0.
        2    1    3    3  502    0  0.14997958647E+04  0.11209254172E+04  0.19878075701E+03  0.18829166780E+04  0.25500000920E-02 0. -1.
       -2    1    3    3    0  502 -0.14997958647E+04 -0.11209254172E+04 -0.47311475278E+03  0.19312428631E+04  0.25500000920E-02 0.  1.
</event>
<event>
 5   0  0.1193861E-07  0.3786744E+04  0.7818609E-02  0.8049006E-01
        2   -1    0    0  501    0  0.00000000000E+00  0.00000000000E+00  0.29889941996E+04  0.29889941996E+04  0.25500000920E-02 0.  1.
       -2   -1    0    0    0  501  0.00000000000E+00  0.00000000000E+00 -0.11993525423E+04  0.11993525423E+04  0.25500000920E-02 0. -1.
    10030    2    1    2    0    0  0.00000000000E+00  0.00000000000E+00  0.17896416573E+04  0.41883467418E+04  0.37867441382E+04 0.  0.
        3    1    3    3  502    0  0.16129218550E+04  0.22212495634E+00 -0.20198235174E+03  0.16255195601E+04  0.10100000352E+00 0. -1.
       -3    1    3    3    0  502 -0.16129218550E+04 -0.22212495634E+00  0.19916240090E+04  0.25628271817E+04  0.10100000352E+00 0.  1.
</event>
<event>
 5   0  0.1174870E-07  0.3683113E+04  0.7818609E-02  0.8071714E-01
       -2   -1    0    0    0  501  0.00000000000E+00  0.00000000000E+00  0.20133465273E+04  0.20133465273E+04  0.25500000920E-02 0.  1.
        2   -1    0    0  501    0  0.00000000000E+00  0.00000000000E+00 -0.16844250097E+04  0.16844250097E+04  0.25500000920E-02 0. -1.
    10030    2    1    2    0    0  0.00000000000E+00  0.00000000000E+00  0.32892151754E+03  0.36977715370E+04  0.36831134893E+04 0.  0.
        5    1    3    3  502    0 -0.74221464767E+03 -0.32610095865E+03  0.18245481811E+04  0.19965526724E+04  0.46999998093E+01 0.  1.
       -5    1    3    3    0  502  0.74221464767E+03  0.32610095865E+03 -0.14956266636E+04  0.17012188646E+04  0.46999998093E+01 0. -1.
</event>
<event>
 5   0  0.3701250E-08  0.3806078E+04  0.7818609E-02  0.8044852E-01
        1   -1    0    0  501    0  0.00000000000E+00  0.00000000000E+00  0.23318793595E+04  0.23318793595E+04  0.50400001928E-02 0.  1.
       -1   -1    0    0    0  501  0.00000000000E+00  0.00000000000E+00 -0.15530634794E+04  0.15530634794E+04  0.50400001928E-02 0. -1.
    10030    2    1    2    0    0  0.00000000000E+00  0.00000000000E+00  0.77881588008E+03  0.38849428390E+04  0.38060775986E+04 0.  0.
        2    1    3    3  502    0 -0.57101551830E+03 -0.10498030371E+04 -0.11222970827E+04  0.16394193730E+04  0.25500000920E-02 0. -1.
       -2    1    3    3    0  502  0.57101551830E+03  0.10498030371E+04  0.19011129628E+04  0.22455234659E+04  0.25500000920E-02 0.  1.
</event>
<event>
 5   0  0.3701250E-08  0.3802078E+04  0.7818609E-02  0.8045709E-01
        1   -1    0    0  501    0  0.00000000000E+00  0.00000000000E+00  0.14669434369E+04  0.14669434369E+04  0.50400001928E-02 0.  1.
       -1   -1    0    0    0  501  0.00000000000E+00  0.00000000000E+00 -0.24635913660E+04  0.24635913660E+04  0.50400001928E-02 0. -1.
    10030    2    1    2    0    0  0.00000000000E+00  0.00000000000E+00 -0.99664792910E+03  0.39305348029E+04  0.38020779505E+04 0.  0.
        4    1    3    3  502    0  0.69622109280E+03 -0.30153104468E+03  0.13036402244E+04  0.15083514937E+04  0.12699999809E+01 0.  1.
       -4    1    3    3    0  502 -0.69622109280E+03  0.30153104468E+03 -0.23002881535E+04  0.24221833091E+04  0.12699999809E+01 0. -1.
</event>
<event>
 5   0  0.3889225E-08  0.3795454E+04  0.7818609E-02  0.8047131E-01
       -1   -1    0    0    0  501  0.00000000000E+00  0.00000000000E+00  0.16129860404E+04  0.16129860404E+04  0.50400001928E-02 0. -1.
        1   -1    0    0  501    0  0.00000000000E+00  0.00000000000E+00 -0.22327333692E+04  0.22327333692E+04  0.50400001928E-02 0.  1.
    10030    2    1    2    0    0  0.00000000000E+00  0.00000000000E+00 -0.61974732877E+03  0.38457194097E+04  0.37954539948E+04 0.  0.
        5    1    3    3  502    0  0.70164404577E+03 -0.13064327116E+03 -0.20915620691E+04  0.22099832601E+04  0.46999998093E+01 0.  1.
       -5    1    3    3    0  502 -0.70164404577E+03  0.13064327116E+03  0.14718147403E+04  0.16357361496E+04  0.46999998093E+01 0. -1.
</event>
<event>
 5   0  0.3701250E-08  0.3803871E+04  0.7818609E-02  0.8045325E-01
       -1   -1    0    0    0  501  0.00000000000E+00  0.00000000000E+00  0.27357358488E+04  0.27357358488E+04  0.50400001928E-02 0.  1.
        1   -1    0    0  501    0  0.00000000000E+00  0.00000000000E+00 -0.13222619184E+04  0.13222619184E+04  0.50400001928E-02 0. -1.
    10030    2    1    2    0    0  0.00000000000E+00  0.00000000000E+00  0.14134739305E+04  0.40579977672E+04  0.38038713604E+04 0.  0.
        3    1    3    3  502    0 -0.14032934744E+04  0.62712819130E+03 -0.48829531404E+03  0.16127475523E+04  0.10100000352E+00 0. -1.
       -3    1    3    3    0  502  0.14032934744E+04 -0.62712819130E+03  0.19017692445E+04  0.24452502148E+04  0.10100000352E+00 0.  1.
</event>
<event>
 5   0  0.1150235E-07  0.3721396E+04  0.7818609E-02  0.8063237E-01
        2   -1    0    0  501    0  0.00000000000E+00  0.00000000000E+00  0.28196853308E+04  0.28196853309E+04  0.25500000920E-02 0. -1.
       -2   -1    0    0    0  501  0.00000000000E+00  0.00000000000E+00 -0.12278662271E+04  0.12278662271E+04  0.25500000920E-02 0.  1.
    10030    2    1    2    0    0  0.00000000000E+00  0.00000000000E+00  0.15918191038E+04  0.40475515579E+04  0.37213956461E+04 0.  0.
        4    1    3    3  502    0  0.12962563200E+04 -0.75410363719E+03  0.19939190697E+04  0.24949283782E+04  0.12699999809E+01 0. -1.
       -4    1    3    3    0  502 -0.12962563200E+04  0.75410363719E+03 -0.40209996594E+03  0.15526231798E+04  0.12699999809E+01 0.  1.
</event>
<event>
 5   0  0.3701250E-08  0.3782161E+04  0.7818609E-02  0.8049994E-01
       -1   -1    0    0    0  501  0.00000000000E+00  0.00000000000E+00  0.23001345221E+04  0.23001345221E+04  0.50400001928E-02 0. -1.
        1   -1    0    0  501    0  0.00000000000E+00  0.00000000000E+00 -0.15547722214E+04  0.15547722214E+04  0.50400001928E-02 0.  1.
    10030    2    1    2    0    0  0.00000000000E+00  0.00000000000E+00  0.74536230064E+03  0.38549067435E+04  0.37821608958E+04 0.  0.
        3    1    3    3  502    0  0.42403087503E+02  0.91386037101E+03  0.20595815065E+04  0.22536225930E+04  0.10100000352E+00 0. -1.
       -3    1    3    3    0  502 -0.42403087503E+02 -0.91386037101E+03 -0.13142192058E+04  0.16012841505E+04  0.10100000352E+00 0.  1.
</event>
<event>
 5   0  0.3701250E-08  0.3798383E+04  0.7818609E-02  0.8046502E-01
       -1   -1    0    0    0  501  0.00000000000E+00  0.00000000000E+00  0.26152083437E+04  0.26152083437E+04  0.50400001928E-02 0. -1.
        1   -1    0    0  501    0  0.00000000000E+00  0.00000000000E+00 -0.13792125106E+04  0.13792125106E+04  0.50400001928E-02 0.  1.
    10030    2    1    2    0    0  0.00000000000E+00  0.00000000000E+00  0.12359958331E+04  0.39944208543E+04  0.37983828483E+04 0.  0.
        1    1    3    3  502    0 -0.29659264595E+03  0.56897054750E+03  0.24977751126E+04  0.25788709147E+04  0.50400001928E-02 0. -1.
       -1    1    3    3    0  502  0.29659264595E+03 -0.56897054750E+03 -0.12617792795E+04  0.14155499397E+04  0.50400001928E-02 0.  1.
</event>
<event>
 5   0  0.3701250E-08  0.3797075E+04  0.7818609E-02  0.8046783E-01
       -1   -1    0    0    0  501  0.00000000000E+00  0.00000000000E+00  0.16323413746E+04  0.16323413746E+04  0.50400001928E-02 0.  1.
        1   -1    0    0  501    0  0.00000000000E+00  0.00000000000E+00 -0.22081437687E+04  0.22081437687E+04  0.50400001928E-02 0. -1.
    10030    2    1    2    0    0  0.00000000000E+00  0.00000000000E+00 -0.57580239408E+03  0.38404851433E+04  0.37970748925E+04 0.  0.
        1    1    3    3  502    0  0.12781766968E+04  0.13224224010E+03 -0.17014558083E+04  0.21321762464E+04  0.50400001928E-02 0. -1.
       -1    1    3    3    0  502 -0.12781766968E+04 -0.13224224010E+03  0.11256534142E+04  0.17083088969E+04  0.50400001928E-02 0.  1.
</event>
<event>
 5   0  0.3701250E-08  0.3771661E+04  0.7818609E-02  0.8052264E-01
        1   -1    0    0  501    0  0.00000000000E+00  0.00000000000E+00  0.12833078712E+04  0.12833078712E+04  0.50400001928E-02 0.  1.
       -1   -1    0    0    0  501  0.00000000000E+00  0.00000000000E+00 -0.27712424782E+04  0.27712424782E+04  0.50400001928E-02 0. -1.
    10030    2    1    2    0    0  0.00000000000E+00  0.00000000000E+00 -0.14879346070E+04  0.40545503494E+04  0.37716613237E+04 0.  0.
        2    1    3    3  502    0  0.10870025566E+04  0.14597789005E+04 -0.12747931427E+04  0.22220770808E+04  0.25500000920E-02 0.  1.
       -2    1    3    3    0  502 -0.10870025566E+04 -0.14597789005E+04 -0.21314146429E+03  0.18324732686E+04  0.25500000920E-02 0. -1.
</event>
<event>
 5   0  0.3701250E-08  0.3802191E+04  0.7818609E-02  0.8045685E-01
        1   -1    0    0  501    0  0.00000000000E+00  0.00000000000E+00  0.25782056436E+04  0.25782056436E+04  0.50400001928E-02 0.  1.
       -1   -1    0    0    0  501  0.00000000000E+00  0.00000000000E+00 -0.14018137806E+04  0.14018137806E+04  0.50400001928E-02 0. -1.
    10030    2    1    2    0    0  0.00000000000E+00  0.00000000000E+00  0.11763918630E+04  0.39800194242E+04  0.38021910527E+04 0.  0.
        3    1    3    3  502    0 -0.18771882910E+04 -0.26202978855E+03  0.43410833321E+03  0.19444653623E+04  0.10100000352E+00 0. -1.
       -3    1    3    3    0  502  0.18771882910E+04  0.26202978855E+03  0.74228352983E+03  0.20355540619E+04  0.10100000352E+00 0.  1.
</event>
<event>
 5   0  0.1150235E-07  0.3824889E+04  0.7818609E-02  0.8040835E-01
        2   -1    0    0  501    0  0.00000000000E+00  0.00000000000E+00  0.21616910003E+04  0.21616910003E+04  0.25500000920E-02 0. -1.
       -2   -1    0    0    0  501  0.00000000000E+00  0.00000000000E+00 -0.16919363913E+04  0.16919363913E+04  0.25500000920E-02 0.  1.
    10030    2    1    2    0    0  0.00000000000E+00  0.00000000000E+00  0.46975460897E+03  0.38536273916E+04  0.38248888456E+04 0.  0.
        4    1    3    3  502    0  0.14521504849E+04 -0.11087347111E+04  0.80428593533E+03  0.19962242282E+04  0.12699999809E+01 0.  1.
       -4    1    3    3    0  502 -0.14521504849E+04  0.11087347111E+04 -0.33453132636E+03  0.18574031635E+04  0.12699999809E+01 0. -1.
</event>
<event>
 5   0  0.1193861E-07  0.3716382E+04  0.7818609E-02  0.8064341E-01
       -2   -1    0    0    0  501  0.00000000000E+00  0.00000000000E+00  0.20683702159E+04  0.20683702159E+04  0.25500000920E-02 0. -1.
        2   -1    0    0  501    0  0.00000000000E+00  0.00000000000E+00 -0.16693697191E+04  0.16693697191E+04  0.25500000920E-02 0.  1.
    10030    2    1    2    0    0  0.00000000000E+00  0.00000000000E+00  0.39900049681E+03  0.37377399350E+04  0.37163824380E+04 0.  0.
        3    1    3    3  502    0  0.30759846671E+03 -0.17196277910E+04  0.83649463557E+03  0.19368685660E+04  0.10100000352E+00 0. -1.
       -3    1    3    3    0  502 -0.30759846671E+03  0.17196277910E+04 -0.43749413876E+03  0.18008713691E+04  0.10100000352E+00 0.  1.
</event>
<event>
 5   0  0.3701250E-08  0.3799777E+04  0.7818609E-02  0.8046203E-01
        1   -1    0    0  501    0  0.00000000000E+00  0.00000000000E+00  0.24241539641E+04  0.24241539641E+04  0.50400001928E-02 0. -1.
       -1   -1    0    0    0  501  0.00000000000E+00  0.00000000000E+00 -0.14890049142E+04  0.14890049142E+04  0.50400001928E-02 0.  1.
    10030    2    1    2    0    0  0.00000000000E+00  0.00000000000E+00  0.93514904990E+03  0.39131588782E+04  0.37997774488E+04 0.  0.
        3    1    3    3  502    0 -0.17616373451E+04  0.69195645919E+03  0.29708320497E+03  0.19158361928E+04  0.10100000352E+00 0. -1.
       -3    1    3    3    0  502  0.17616373451E+04 -0.69195645919E+03  0.63806584493E+03  0.19973226854E+04  0.10100000352E+00 0.  1.
</event>
<event>
 5   0  0.1174870E-07  0.3803007E+04  0.7818609E-02  0.8045510E-01
       -2   -1    0    0    0  501  0.00000000000E+00  0.00000000000E+00  0.26270360893E+04  0.26270360893E+04  0.25500000920E-02 0.  1.
        2   -1    0    0  501    0  0.00000000000E+00  0.00000000000E+00 -0.13763475381E+04  0.13763475381E+04  0.25500000920E-02 0. -1.
    10030    2    1    2    0    0  0.00000000000E+00  0.00000000000E+00  0.12506885512E+04  0.40033836274E+04  0.38030065233E+04 0.  0.
        5    1    3    3  502    0 -0.14043977063E+04 -0.17065169365E+03  0.19628137356E+04  0.24195277987E+04  0.46999998093E+01 0.  1.
       -5    1    3    3    0  502  0.14043977063E+04  0.17065169365E+03 -0.71212518441E+03  0.15838558287E+04  0.46999998093E+01 0. -1.
</event>
<event>
 5   0  0.3701250E-08  0.3644406E+04  0.7818609E-02  0.8080395E-01
       -1   -1    0    0    0  501  0.00000000000E+00  0.00000000000E+00  0.15427857245E+04  0.15427857245E+04  0.50400001928E-02 0. -1.
        1   -1    0    0  501    0  0.00000000000E+00  0.00000000000E+00 -0.21522259885E+04  0.21522259885E+04  0.50400001928E-02 0.  1.
    10030    2    1    2    0    0  0.00000000000E+00  0.00000000000E+00 -0.60944026402E+03  0.36950117129E+04  0.36444058670E+04 0.  0.
        2    1    3    3  502    0  0.18127321787E+04 -0.17029780932E+03 -0.23004803661E+03  0.18351897435E+04  0.25500000920E-02 0.  1.
       -2    1    3    3    0  502 -0.18127321787E+04  0.17029780932E+03 -0.37939222741E+03  0.18598219694E+04  0.25500000920E-02 0. -1.
</event>
<event>
 5   0  0.3701250E-08  0.3798594E+04  0.7818609E-02  0.8046457E-01
       -1   -1    0    0    0  501  0.00000000000E+00  0.00000000000E+00  0.27030206767E+04  0.27030206767E+04  0.50400001928E-02 0. -1.
        1   -1    0    0  501    0  0.00000000000E+00  0.00000000000E+00 -0.13345545771E+04  0.13345545771E+04  0.50400001928E-02 0.  1.
    10030    2    1    2    0    0  0.00000000000E+00  0.00000000000E+00  0.13684660996E+04  0.40375752539E+04  0.37985937483E+04 0.  0.
        2    1    3    3  502    0  0.64417429152E+03  0.62766107829E+03  0.24623217711E+04  0.26214399577E+04  0.25500000920E-02 0. -1.
       -2    1    3    3    0  502 -0.64417429152E+03 -0.62766107829E+03 -0.10938556715E+04  0.14161352962E+04  0.25500000920E-02 0.  1.
</event>
<event>
 5   0  0.3701250E-08  0.3840323E+04  0.7818609E-02  0.8037557E-01
       -1   -1    0    0    0  501  0.00000000000E+00  0.00000000000E+00  0.15719144275E+04  0.15719144275E+04  0.50400001928E-02 0. -1.
        1   -1    0    0  501    0  0.00000000000E+00  0.00000000000E+00 -0.23455607559E+04  0.23455607559E+04  0.50400001928E-02 0.  1.
    10030    2    1    2    0    0  0.00000000000E+00  0.00000000000E+00 -0.77364632840E+03  0.39174751834E+04  0.38403233160E+04 0.  0.
        1    1    3    3  502    0  0.25834679461E+03 -0.14485134763E+04  0.87169104328E+03  0.17101987114E+04  0.50400001928E-02 0. -1.
       -1    1    3    3    0  502 -0.25834679461E+03  0.14485134763E+04 -0.16453373717E+04  0.22072764721E+04  0.50400001928E-02 0.  1.
</event>
<event>
 5   0  0.3701250E-08  0.3792470E+04  0.7818609E-02  0.8047773E-01
       -1   -1    0    0    0  501  0.00000000000E+00  0.00000000000E+00  0.18713608553E+04  0.18713608553E+04  0.50400001928E-02 0.  1.
        1   -1    0    0  501    0  0.00000000000E+00  0.00000000000E+00 -0.19214396119E+04  0.19214396119E+04  0.50400001928E-02 0. -1.
    10030    2    1    2    0    0  0.00000000000E+00  0.00000000000E+00 -0.50078756601E+02  0.37928004672E+04  0.37924698420E+04 0.  0.
        3    1    3    3  502    0 -0.16965337898E+04 -0.71104973549E+03  0.43531394818E+03  0.18903218959E+04  0.10100000352E+00 0. -1.
       -3    1    3    3    0  502  0.16965337898E+04  0.71104973549E+03 -0.48539270478E+03  0.19024785713E+04  0.10100000352E+00 0.  1.
</event>
<event>
 5   0  0.1174870E-07  0.3826228E+04  0.7818609E-02  0.8040550E-01
       -2   -1    0    0    0  501  0.00000000000E+00  0.00000000000E+00  0.18548805831E+04  0.18548805831E+04  0.25500000920E-02 0. -1.
        2   -1    0    0  501    0  0.00000000000E+00  0.00000000000E+00 -0.19731757492E+04  0.19731757492E+04  0.25500000920E-02 0.  1.
    10030    2    1    2    0    0  0.00000000000E+00  0.00000000000E+00 -0.11829516602E+03  0.38280563323E+04  0.38262281083E+04 0.  0.
        5    1    3    3  502    0  0.79409845967E+03  0.17359494713E+04  0.66890242608E+02  0.19101333265E+04  0.46999998093E+01 0.  1.
       -5    1    3    3    0  502 -0.79409845967E+03 -0.17359494713E+04 -0.18518540863E+03  0.19179230058E+04  0.46999998093E+01 0. -1.
</event>
<event>
 5   0  0.7858367E-08  0.3792675E+04  0.7818609E-02  0.8047729E-01
        2   -1    0    0  501    0  0.00000000000E+00  0.00000000000E+00  0.22063432556E+04  0.22063432556E+04  0.25500000920E-02 0. -1.
       -2   -1    0    0    0  501  0.00000000000E+00  0.00000000000E+00 -0.16298899139E+04  0.16298899139E+04  0.25500000920E-02 0.  1.
    10030    2    1    2    0    0  0.00000000000E+00  0.00000000000E+00  0.57645334169E+03  0.38362331694E+04  0.37926753717E+04 0.  0.
        2    1    3    3  502    0 -0.94343886790E+03 -0.16447543317E+04  0.25956558350E+03  0.19138098132E+04  0.25500000920E-02 0. -1.
       -2    1    3    3    0  502  0.94343886790E+03  0.16447543317E+04  0.31688775819E+03  0.19224233562E+04  0.25500000920E-02 0.  1.
</event>
<event>
 5   0  0.3889225E-08  0.3797371E+04  0.7818609E-02  0.8046719E-01
       -1   -1    0    0    0  501  0.00000000000E+00  0.00000000000E+00  0.16030243342E+04  0.16030243342E+04  0.50400001928E-02 0.  1.
        1   -1    0    0  501    0  0.00000000000E+00  0.00000000000E+00 -0.22488780571E+04  0.22488780571E+04  0.50400001928E-02 0. -1.
    10030    2    1    2    0    0  0.00000000000E+00  0.00000000000E+00 -0.64585372290E+03  0.38519023913E+04  0.37973708010E+04 0.  0.
        5    1    3    3  502    0 -0.17119985573E+03 -0.65592780103E+03  0.14760787580E+04  0.16243094719E+04  0.46999998093E+01 0.  1.
       -5    1    3    3    0  502  0.17119985573E+03  0.65592780103E+03 -0.21219324809E+04  0.22275929193E+04  0.46999998093E+01 0. -1.
</event>
<event>
 5   0  0.3889225E-08  0.3786923E+04  0.7818609E-02  0.8048967E-01
        1   -1    0    0  501    0  0.00000000000E+00  0.00000000000E+00  0.12015902819E+04  0.12015902820E+04  0.50400001928E-02 0.  1.
       -1   -1    0    0    0  501  0.00000000000E+00  0.00000000000E+00 -0.29837090350E+04  0.29837090350E+04  0.50400001928E-02 0. -1.
    10030    2    1    2    0    0  0.00000000000E+00  0.00000000000E+00 -0.17821187530E+04  0.41852993169E+04  0.37869226454E+04 0.  0.
        5    1    3    3  502    0  0.81415871060E+02  0.18601814446E+04 -0.51097707796E+03  0.19308089535E+04  0.46999998093E+01 0. -1.
       -5    1    3    3    0  502 -0.81415871060E+02 -0.18601814446E+04 -0.12711416751E+04  0.22544903634E+04  0.46999998093E+01 0.  1.
</event>
<event>
 5   0  0.1143283E-07  0.3801277E+04  0.7818609E-02  0.8045881E-01
       -2   -1    0    0    0  501  0.00000000000E+00  0.00000000000E+00  0.27109400272E+04  0.27109400272E+04  0.25500000920E-02 0.  1.
        2   -1    0    0  501    0  0.00000000000E+00  0.00000000000E+00 -0.13325364186E+04  0.13325364186E+04  0.25500000920E-02 0. -1.
    10030    2    1    2    0    0  0.00000000000E+00  0.00000000000E+00  0.13784036086E+04  0.40434764458E+04  0.38012767933E+04 0.  0.
        1    1    3    3  502    0  0.26318041761E+03 -0.16576649654E+04  0.16378243424E+04  0.23451195378E+04  0.50400001928E-02 0.  1.
       -1    1    3    3    0  502 -0.26318041761E+03  0.16576649654E+04 -0.25942073380E+03  0.16983569080E+04  0.50400001928E-02 0. -1.
</event>
<event>
 5   0  0.1150235E-07  0.3796377E+04  0.7818609E-02  0.8046933E-01
        2   -1    0    0  501    0  0.00000000000E+00  0.00000000000E+00  0.15792027502E+04  0.15792027502E+04  0.25500000920E-02 0. -1.
       -2   -1    0    0    0  501  0.00000000000E+00  0.00000000000E+00 -0.22816065858E+04  0.22816065858E+04  0.25500000920E-02 0.  1.
    10030    2    1    2    0    0  0.00000000000E+00  0.00000000000E+00 -0.70240383560E+03  0.38608093359E+04  0.37963769018E+04 0.  0.
        4    1    3    3  502    0  0.18271825401E+04 -0.35030595554E+03 -0.73416649901E+03  0.20000780881E+04  0.12699999809E+01 0.  1.
       -4    1    3    3    0  502 -0.18271825401E+04  0.35030595554E+03  0.31762663404E+02  0.18607312479E+04  0.12699999809E+01 0. -1.
</event>
<event>
 5   0  0.1150235E-07  0.3824925E+04  0.7818609E-02  0.8040827E-01
        2   -1    0    0  501    0  0.00000000000E+00  0.00000000000E+00  0.19821648970E+04  0.19821648970E+04  0.25500000920E-02 0.  1.
       -2   -1    0    0    0  501  0.00000000000E+00  0.00000000000E+00 -0.18452108589E+04  0.18452108589E+04  0.25500000920E-02 0. -1.
    10030    2    1    2    0    0  0.00000000000E+00  0.00000000000E+00  0.13695403804E+03  0.38273757559E+04  0.38249246748E+04 0.  0.
        4    1    3    3  502    0 -0.10876098703E+04 -0.12526398313E+04 -0.88371503458E+03  0.18796158257E+04  0.12699999809E+01 0. -1.
       -4    1    3    3    0  502  0.10876098703E+04  0.12526398313E+04  0.10206690726E+04  0.19477599302E+04  0.12699999809E+01 0.  1.
</event>
<event>
 5   0  0.3701250E-08  0.3792387E+04  0.7818609E-02  0.8047791E-01
        1   -1    0    0  501    0  0.00000000000E+00  0.00000000000E+00  0.13186101591E+04  0.13186101591E+04  0.50400001928E-02 0.  1.
       -1   -1    0    0    0  501  0.00000000000E+00  0.00000000000E+00 -0.27267728003E+04  0.27267728003E+04  0.50400001928E-02 0. -1.
    10030    2    1    2    0    0  0.00000000000E+00  0.00000000000E+00 -0.14081626411E+04  0.40453829594E+04  0.37923872778E+04 0.  0.
        4    1    3    3  502    0  0.36628400828E+02 -0.41853802778E+03  0.12683350796E+04  0.13361104773E+04  0.12699999809E+01 0.  1.
       -4    1    3    3    0  502 -0.36628400828E+02  0.41853802778E+03 -0.26764977207E+04  0.27092724821E+04  0.12699999809E+01 0. -1.
</event>
<event>
 5   0  0.3701250E-08  0.3787456E+04  0.7818609E-02  0.8048852E-01
        1   -1    0    0  501    0  0.00000000000E+00  0.00000000000E+00  0.19080962701E+04  0.19080962701E+04  0.50400001928E-02 0.  1.
       -1   -1    0    0    0  501  0.00000000000E+00  0.00000000000E+00 -0.18794681071E+04  0.18794681071E+04  0.50400001928E-02 0. -1.
    10030    2    1    2    0    0  0.00000000000E+00  0.00000000000E+00  0.28628162925E+02  0.37875643772E+04  0.37874561832E+04 0.  0.
        3    1    3    3  502    0  0.27044858630E+03 -0.16360392399E+04  0.92891073100E+03  0.19006951330E+04  0.10100000352E+00 0.  1.
       -3    1    3    3    0  502 -0.27044858630E+03  0.16360392399E+04 -0.90028256807E+03  0.18868692442E+04  0.10100000352E+00 0. -1.
</event>
<event>
 5   0  0.3701250E-08  0.3762508E+04  0.7818609E-02  0.8054249E-01
        1   -1    0    0  501    0  0.00000000000E+00  0.00000000000E+00  0.28400224873E+04  0.28400224873E+04  0.50400001928E-02 0.  1.
       -1   -1    0    0    0  501  0.00000000000E+00  0.00000000000E+00 -0.12461579229E+04  0.12461579229E+04  0.50400001928E-02 0. -1.
    10030    2    1    2    0    0  0.00000000000E+00  0.00000000000E+00  0.15938645644E+04  0.40861804102E+04  0.37625079528E+04 0.  0.
        1    1    3    3  502    0  0.37478877587E+03 -0.17871105939E+04  0.12885141465E+04  0.22348377138E+04  0.50400001928E-02 0.  1.
       -1    1    3    3    0  502 -0.37478877587E+03  0.17871105939E+04  0.30535041793E+03  0.18513426963E+04  0.50400001928E-02 0. -1.
</event>
<event>
 5   0  0.1150235E-07  0.3808128E+04  0.7818609E-02  0.8044413E-01
        2   -1    0    0  501    0  0.00000000000E+00  0.00000000000E+00  0.23287639985E+04  0.23287639985E+04  0.25500000920E-02 0.  1.
       -2   -1    0    0    0  501  0.00000000000E+00  0.00000000000E+00 -0.15568173806E+04  0.15568173806E+04  0.25500000920E-02 0. -1.
    10030    2    1    2    0    0  0.00000000000E+00  0.00000000000E+00  0.77194661788E+03  0.38855813791E+04  0.38081282900E+04 0.  0.
        4    1    3    3  502    0 -0.98207984907E+02 -0.53298833185E+03 -0.14764560666E+04  0.15727827249E+04  0.12699999809E+01 0. -1.
       -4    1    3    3    0  502  0.98207984907E+02  0.53298833185E+03  0.22484026845E+04  0.23127986542E+04  0.12699999809E+01 0.  1.
</event>
<event>
 5   0  0.3701250E-08  0.3779513E+04  0.7818609E-02  0.8050566E-01
       -1   -1    0    0    0  501  0.00000000000E+00  0.00000000000E+00  0.13564544492E+04  0.13564544492E+04  0.50400001928E-02 0.  1.
        1   -1    0    0  501    0  0.00000000000E+00  0.00000000000E+00 -0.26327305718E+04  0.26327305718E+04  0.50400001928E-02 0. -1.
    10030    2    1    2    0    0  0.00000000000E+00  0.00000000000E+00 -0.12762761226E+04  0.39891850210E+04  0.37795127187E+04 0.  0.
        4    1    3    3  502    0  0.15214462526E+04  0.38476698483E+03  0.47303967319E+03  0.16390889169E+04  0.12699999809E+01 0.  1.
       -4    1    3    3    0  502 -0.15214462526E+04 -0.38476698483E+03 -0.17493157958E+04  0.23500961041E+04  0.12699999809E+01 0. -1.
</event>
<event>
 5   0  0.1143283E-07  0.3797058E+04  0.7818609E-02  0.8046786E-01
        2   -1    0    0  501    0  0.00000000000E+00  0.00000000000E+00  0.20753105711E+04  0.20753105711E+04  0.25500000920E-02 0.  1.
       -2   -1    0    0    0  501  0.00000000000E+00  0.00000000000E+00 -0.17368065202E+04  0.17368065202E+04  0.25500000920E-02 0. -1.
    10030    2    1    2    0    0  0.00000000000E+00  0.00000000000E+00  0.33850405090E+03  0.38121170913E+04  0.37970582989E+04 0.  0.
        1    1    3    3  502    0 -0.11484396603E+04  0.52209331062E+03  0.15936521154E+04  0.20325408097E+04  0.50400001928E-02 0.  1.
       -1    1    3    3    0  502  0.11484396603E+04 -0.52209331062E+03 -0.12551480645E+04  0.17795762816E+04  0.50400001928E-02 0. -1.
</event>
<event>
 5   0  0.3701250E-08  0.3739266E+04  0.7818609E-02  0.8059315E-01
       -1   -1    0    0    0  501  0.00000000000E+00  0.00000000000E+00  0.20812114484E+04  0.20812114484E+04  0.50400001928E-02 0. -1.
        1   -1    0    0  501    0  0.00000000000E+00  0.00000000000E+00 -0.16795642781E+04  0.16795642781E+04  0.50400001928E-02 0.  1.
    10030    2    1    2    0    0  0.00000000000E+00  0.00000000000E+00  0.40164717037E+03  0.37607757265E+04  0.37392664542E+04 0.  0.
        3    1    3    3  502    0 -0.38367102243E+03 -0.25583535454E+03 -0.16214688686E+04  0.16857688110E+04  0.10100000352E+00 0.  1.
       -3    1    3    3    0  502  0.38367102243E+03  0.25583535454E+03  0.20231160390E+04  0.20750069155E+04  0.10100000352E+00 0. -1.
</event>
<event>
 5   0  0.1143283E-07  0.3802784E+04  0.7818609E-02  0.8045558E-01
        2   -1    0    0  501    0  0.00000000000E+00  0.00000000000E+00  0.16179116656E+04  0.16179116656E+04  0.25500000920E-02 0.  1.
       -2   -1    0    0    0  501  0.00000000000E+00  0.00000000000E+00 -0.22345418498E+04  0.22345418498E+04  0.25500000920E-02 0. -1.
    10030    2    1    2    0    0  0.00000000000E+00  0.00000000000E+00 -0.61663018421E+03  0.38524535154E+04  0.38027838888E+04 0.  0.
        1    1    3    3  502    0 -0.63512364944E+03  0.17294765822E+04 -0.78436774737E+03  0.20024245458E+04  0.50400001928E-02 0. -1.
       -1    1    3    3    0  502  0.63512364944E+03 -0.17294765822E+04  0.16773756316E+03  0.18500289697E+04  0.50400001928E-02 0.  1.
</event>
<event>
 5   0  0.1143283E-07  0.3795315E+04  0.7818609E-02  0.8047161E-01
        2   -1    0    0  501    0  0.00000000000E+00  0.00000000000E+00  0.27217319847E+04  0.27217319847E+04  0.25500000920E-02 0. -1.
       -2   -1    0    0    0  501  0.00000000000E+00  0.00000000000E+00 -0.13230926222E+04  0.13230926222E+04  0.25500000920E-02 0.  1.
    10030    2    1    2    0    0  0.00000000000E+00  0.00000000000E+00  0.13986393625E+04  0.40448246069E+04  0.37953147477E+04 0.  0.
        1    1    3    3  502    0  0.17313944413E+04 -0.51805763367E+03  0.82483531466E+02  0.18091196633E+04  0.50400001928E-02 0.  1.
       -1    1    3    3    0  502 -0.17313944413E+04  0.51805763367E+03  0.13161558310E+04  0.22357049436E+04  0.50400001928E-02 0. -1.
</event>
<event>
 5   0  0.3889225E-08  0.3829347E+04  0.7818609E-02  0.8039886E-01
        1   -1    0    0  501    0  0.00000000000E+00  0.00000000000E+00  0.23217475143E+04  0.23217475143E+04  0.50400001928E-02 0.  1.
       -1   -1    0    0    0  501  0.00000000000E+00  0.00000000000E+00 -0.15789721850E+04  0.15789721850E+04  0.50400001928E-02 0. -1.
    10030    2    1    2    0    0  0.00000000000E+00  0.00000000000E+00  0.74277532933E+03  0.39007196993E+04  0.38293470700E+04 0.  0.
        5    1    3    3  502    0 -0.98744064324E+03 -0.29106593839E+02  0.20420993746E+04  0.22684968952E+04  0.46999998093E+01 0.  1.
       -5    1    3    3    0  502  0.98744064324E+03  0.29106593839E+02 -0.12993240453E+04  0.16322228041E+04  0.46999998093E+01 0. -1.
</event>
<event>
 5   0  0.3701250E-08  0.3805817E+04  0.7818609E-02  0.8044908E-01
       -1   -1    0    0    0  501  0.00000000000E+00  0.00000000000E+00  0.19729707562E+04  0.19729707562E+04  0.50400001928E-02 0.  1.
        1   -1    0    0  501    0  0.00000000000E+00  0.00000000000E+00 -0.18353343326E+04  0.18353343326E+04  0.50400001928E-02 0. -1.
    10030    2    1    2    0    0  0.00000000000E+00  0.00000000000E+00  0.13763642361E+03  0.38083050888E+04  0.38058171086E+04 0.  0.
        2    1    3    3  502    0 -0.17050097607E+04 -0.94947949612E+02 -0.77136606237E+03  0.18737873410E+04  0.25500000920E-02 0.  1.
       -2    1    3    3    0  502  0.17050097607E+04  0.94947949612E+02  0.90900248598E+03  0.19345177478E+04  0.25500000920E-02 0. -1.
</event>
<event>
 5   0  0.7858367E-08  0.3825599E+04  0.7818609E-02  0.8040684E-01
       -2   -1    0    0    0  501  0.00000000000E+00  0.00000000000E+00  0.20969724416E+04  0.20969724416E+04  0.25500000920E-02 0.  1.
        2   -1    0    0  501    0  0.00000000000E+00  0.00000000000E+00 -0.17448024502E+04  0.17448024502E+04  0.25500000920E-02 0. -1.
    10030    2    1    2    0    0  0.00000000000E+00  0.00000000000E+00  0.35216999143E+03  0.38417748919E+04  0.38255993801E+04 0.  0.
        2    1    3    3  502    0  0.46159014005E+03  0.68935151003E+03  0.19068954932E+04  0.20795483605E+04  0.25500000920E-02 0.  1.
       -2    1    3    3    0  502 -0.46159014005E+03 -0.68935151003E+03 -0.15547255018E+04  0.17622265313E+04  0.25500000920E-02 0. -1.
</event>
<event>
 5   0  0.7858367E-08  0.3802689E+04  0.7818609E-02  0.8045578E-01
        2   -1    0    0  501    0  0.00000000000E+00  0.00000000000E+00  0.21341888260E+04  0.21341888260E+04  0.25500000920E-02 0. -1.
       -2   -1    0    0    0  501  0.00000000000E+00  0.00000000000E+00 -0.16939043781E+04  0.16939043781E+04  0.25500000920E-02 0.  1.
    10030    2    1    2    0    0  0.00000000000E+00  0.00000000000E+00  0.44028444797E+03  0.38280932041E+04  0.38026894673E+04 0.  0.
        2    1    3    3  502    0 -0.50442892070E+03  0.17644584311E+03  0.20570320794E+04  0.21253147172E+04  0.25500000920E-02 0. -1.
       -2    1    3    3    0  502  0.50442892070E+03 -0.17644584311E+03 -0.16167476315E+04  0.17027784869E+04  0.25500000920E-02 0.  1.
</event>
<event>
 5   0  0.3701250E-08  0.3589477E+04  0.7818609E-02  0.8092906E-01
        1   -1    0    0  501    0  0.00000000000E+00  0.00000000000E+00  0.13443607307E+04  0.13443607307E+04  0.50400001928E-02 0.  1.
       -1   -1    0    0    0  501  0.00000000000E+00  0.00000000000E+00 -0.23959991501E+04  0.23959991501E+04  0.50400001928E-02 0. -1.
    10030    2    1    2    0    0  0.00000000000E+00  0.00000000000E+00 -0.10516384194E+04  0.37403598808E+04  0.35894774930E+04 0.  0.
        1    1    3    3  502    0 -0.11269378305E+04  0.26158113040E+03 -0.19556007072E+04  0.22721768610E+04  0.50400001928E-02 0. -1.
       -1    1    3    3    0  502  0.11269378305E+04 -0.26158113040E+03  0.90396228784E+03  0.14681830198E+04  0.50400001928E-02 0.  1.
</event>
<event>
 5   0  0.1174870E-07  0.3895733E+04  0.7818609E-02  0.8025917E-01
       -2   -1    0    0    0  501  0.00000000000E+00  0.00000000000E+00  0.22744185759E+04  0.22744185759E+04  0.25500000920E-02 0.  1.
        2   -1    0    0  501    0  0.00000000000E+00  0.00000000000E+00 -0.16681997893E+04  0.16681997893E+04  0.25500000920E-02 0. -1.
    10030    2    1    2    0    0  0.00000000000E+00  0.00000000000E+00  0.60621878658E+03  0.39426183652E+04  0.38957333529E+04 0.  0.
        5    1    3    3  502    0 -0.11819211520E+04 -0.22116628125E+03  0.18539717854E+04  0.22097704869E+04  0.46999998093E+01 0.  1.
       -5    1    3    3    0  502  0.11819211520E+04  0.22116628125E+03 -0.12477529988E+04  0.17328478784E+04  0.46999998093E+01 0. -1.
</event>
<event>
 5   0  0.1150235E-07  0.3791578E+04  0.7818609E-02  0.8047965E-01
        2   -1    0    0  501    0  0.00000000000E+00  0.00000000000E+00  0.12612133912E+04  0.12612133912E+04  0.25500000920E-02 0. -1.
       -2   -1    0    0    0  501  0.00000000000E+00  0.00000000000E+00 -0.28496495658E+04  0.28496495658E+04  0.25500000920E-02 0.  1.
    10030    2    1    2    0    0  0.00000000000E+00  0.00000000000E+00 -0.15884361746E+04  0.41108629571E+04  0.37915781373E+04 0.  0.
        4    1    3    3  502    0 -0.15151370424E+04  0.11382086814E+04 -0.85215300634E+03  0.20778175133E+04  0.12699999809E+01 0.  1.
       -4    1    3    3    0  502  0.15151370424E+04 -0.11382086814E+04 -0.73628316824E+03  0.20330454437E+04  0.12699999809E+01 0. -1.
</event>
<event>
 5   0  0.3701250E-08  0.3772735E+04  0.7818609E-02  0.8052031E-01
       -1   -1    0    0    0  501  0.00000000000E+00  0.00000000000E+00  0.24829815231E+04  0.24829815231E+04  0.50400001928E-02 0. -1.
        1   -1    0    0  501    0  0.00000000000E+00  0.00000000000E+00 -0.14331087821E+04  0.14331087821E+04  0.50400001928E-02 0.  1.
    10030    2    1    2    0    0  0.00000000000E+00  0.00000000000E+00  0.10498727410E+04  0.39160903052E+04  0.37727351492E+04 0.  0.
        4    1    3    3  502    0  0.70421065087E+03  0.17409180751E+04  0.34020594314E+03  0.19085203907E+04  0.12699999809E+01 0.  1.
       -4    1    3    3    0  502 -0.70421065087E+03 -0.17409180751E+04  0.70966679788E+03  0.20075699146E+04  0.12699999809E+01 0. -1.
</event>
<event>
 5   0  0.1150235E-07  0.3784865E+04  0.7818609E-02  0.8049411E-01
        2   -1    0    0  501    0  0.00000000000E+00  0.00000000000E+00  0.24532164802E+04  0.24532164802E+04  0.25500000920E-02 0.  1.
       -2   -1    0    0    0  501  0.00000000000E+00  0.00000000000E+00 -0.14598391168E+04  0.14598391168E+04  0.25500000920E-02 0. -1.
    10030    2    1    2    0    0  0.00000000000E+00  0.00000000000E+00  0.99337736343E+03  0.39130555971E+04  0.37848653238E+04 0.  0.
        4    1    3    3  502    0 -0.95944837991E+03  0.10623577630E+04  0.17764143363E+04  0.22814019193E+04  0.12699999809E+01 0.  1.
       -4    1    3    3    0  502  0.95944837991E+03 -0.10623577630E+04 -0.78303697289E+03  0.16316536777E+04  0.12699999809E+01 0. -1.
</event>
<event>
 5   0  0.3701250E-08  0.3799421E+04  0.7818609E-02  0.8046279E-01
       -1   -1    0    0    0  501  0.00000000000E+00  0.00000000000E+00  0.15173678280E+04  0.15173678280E+04  0.50400001928E-02 0.  1.
        1   -1    0    0  501    0  0.00000000000E+00  0.00000000000E+00 -0.23783944730E+04  0.23783944730E+04  0.50400001928E-02 0. -1.
    10030    2    1    2    0    0  0.00000000000E+00  0.00000000000E+00 -0.86102664498E+03  0.38957623010E+04  0.37994206167E+04 0.  0.
        1    1    3    3  502    0 -0.92710552046E+03  0.16576109008E+04 -0.38822793368E+03  0.19385353938E+04  0.50400001928E-02 0. -1.
       -1    1    3    3    0  502  0.92710552046E+03 -0.16576109008E+04 -0.47279871130E+03  0.19572269071E+04  0.50400001928E-02 0.  1.
</event>
<event>
 5   0  0.1150235E-07  0.3798863E+04  0.7818609E-02  0.8046399E-01
        2   -1    0    0  501    0  0.00000000000E+00  0.00000000000E+00  0.13435954102E+04  0.13435954102E+04  0.25500000920E-02 0. -1.
       -2   -1    0    0    0  501  0.00000000000E+00  0.00000000000E+00 -0.26852131425E+04  0.26852131425E+04  0.25500000920E-02 0.  1.
    10030    2    1    2    0    0  0.00000000000E+00  0.00000000000E+00 -0.13416177322E+04  0.40288085527E+04  0.37988630161E+04 0.  0.
        4    1    3    3  502    0 -0.12903208819E+04  0.13760134461E+04 -0.90675585955E+03  0.20929760591E+04  0.12699999809E+01 0. -1.
       -4    1    3    3    0  502  0.12903208819E+04 -0.13760134461E+04 -0.43486187268E+03  0.19358324936E+04  0.12699999809E+01 0.  1.
</event>
<event>
 5   0  0.3889225E-08  0.3819233E+04  0.7818609E-02  0.8042040E-01
       -1   -1    0    0    0  501  0.00000000000E+00  0.00000000000E+00  0.18685798994E+04  0.18685798995E+04  0.50400001928E-02 0.  1.
        1   -1    0    0  501    0  0.00000000000E+00  0.00000000000E+00 -0.19515538239E+04  0.19515538239E+04  0.50400001928E-02 0. -1.
    10030    2    1    2    0    0  0.00000000000E+00  0.00000000000E+00 -0.82973924457E+02  0.38201337234E+04  0.38192325135E+04 0.  0.
        5    1    3    3  502    0 -0.16748467724E+04  0.58455162730E+03 -0.74861901624E+03  0.19254258847E+04  0.46999998093E+01 0. -1.
       -5    1    3    3    0  502  0.16748467724E+04 -0.58455162730E+03  0.66564509179E+03  0.18947078387E+04  0.46999998093E+01 0.  1.
</event>
<event>
 5   0  0.1143283E-07  0.3798888E+04  0.7818609E-02  0.8046394E-01
       -2   -1    0    0    0  501  0.00000000000E+00  0.00000000000E+00  0.20011503111E+04  0.20011503111E+04  0.25500000920E-02 0.  1.
        2   -1    0    0  501    0  0.00000000000E+00  0.00000000000E+00 -0.18029066779E+04  0.18029066779E+04  0.25500000920E-02 0. -1.
    10030    2    1    2    0    0  0.00000000000E+00  0.00000000000E+00  0.19824363318E+03  0.38040569890E+04  0.37988878685E+04 0.  0.
        1    1    3    3  502    0 -0.17919201820E+04  0.33188876888E+01  0.72997770656E+03  0.19349047537E+04  0.50400001928E-02 0.  1.
       -1    1    3    3    0  502  0.17919201820E+04 -0.33188876888E+01 -0.53173407338E+03  0.18691522353E+04  0.50400001928E-02 0. -1.
</event>
<event>
 5   0  0.7858367E-08  0.3802950E+04  0.7818609E-02  0.8045522E-01
       -2   -1    0    0    0  501  0.00000000000E+00  0.00000000000E+00  0.18291705078E+04  0.18291705078E+04  0.25500000920E-02 0. -1.
        2   -1    0    0  501    0  0.00000000000E+00  0.00000000000E+00 -0.19766373517E+04  0.19766373517E+04  0.25500000920E-02 0.  1.
    10030    2    1    2    0    0  0.00000000000E+00  0.00000000000E+00 -0.14746684382E+03  0.38058078595E+04  0.38029497753E+04 0.  0.
        2    1    3    3  502    0  0.28948767508E+03  0.67573949254E+03 -0.18286703938E+04  0.19709039513E+04  0.25500000920E-02 0.  1.
       -2    1    3    3    0  502 -0.28948767508E+03 -0.67573949254E+03  0.16812035500E+04  0.18349039082E+04  0.25500000920E-02 0. -1.
</event>
<event>
 5   0  0.1150235E-07  0.3531985E+04  0.7818609E-02  0.8106251E-01
        2   -1    0    0  501    0  0.00000000000E+00  0.00000000000E+00  0.16320604421E+04  0.16320604421E+04  0.25500000920E-02 0.  1.
       -2   -1    0    0    0  501  0.00000000000E+00  0.00000000000E+00 -0.19109157844E+04  0.19109157844E+04  0.25500000920E-02 0. -1.
    10030    2    1    2    0    0  0.00000000000E+00  0.00000000000E+00 -0.27885534231E+03  0.35429762266E+04  0.35319853114E+04 0.  0.
        4    1    3    3  502    0 -0.69964474888E+03  0.93152633272E+03 -0.14707669511E+04  0.18762731999E+04  0.12699999809E+01 0. -1.
       -4    1    3    3    0  502  0.69964474888E+03 -0.93152633272E+03  0.11919116088E+04  0.16667030267E+04  0.12699999809E+01 0.  1.
</event>
<event>
 5   0  0.3701250E-08  0.3803850E+04  0.7818609E-02  0.8045329E-01
       -1   -1    0    0    0  501  0.00000000000E+00  0.00000000000E+00  0.23150423610E+04  0.23150423610E+04  0.50400001928E-02 0. -1.
        1   -1    0    0  501    0  0.00000000000E+00  0.00000000000E+00 -0.15625280860E+04  0.15625280861E+04  0.50400001928E-02 0.  1.
    10030    2    1    2    0    0  0.00000000000E+00  0.00000000000E+00  0.75251427495E+03  0.38775704471E+04  0.38038500020E+04 0.  0.
        2    1    3    3  502    0  0.65927700231E+03 -0.76810660095E+03  0.20176448350E+04  0.22573268696E+04  0.25500000920E-02 0. -1.
       -2    1    3    3    0  502 -0.65927700231E+03  0.76810660095E+03 -0.12651305600E+04  0.16202435774E+04  0.25500000920E-02 0.  1.
</event>
<event>
 5   0  0.7858367E-08  0.3594931E+04  0.7818609E-02  0.8091654E-01
        2   -1    0    0  501    0  0.00000000000E+00  0.00000000000E+00  0.19275956948E+04  0.19275956948E+04  0.25500000920E-02 0. -1.
       -2   -1    0    0    0  501  0.00000000000E+00  0.00000000000E+00 -0.16761201579E+04  0.16761201579E+04  0.25500000920E-02 0.  1.
    10030    2    1    2    0    0  0.00000000000E+00  0.00000000000E+00  0.25147553685E+03  0.36037158527E+04  0.35949308757E+04 0.  0.
        2    1    3    3  502    0 -0.14227213106E+04  0.61003187302E+01  0.12269252019E+04  0.18787013048E+04  0.25500000920E-02 0. -1.
       -2    1    3    3    0  502  0.14227213106E+04 -0.61003187302E+01 -0.97544966501E+03  0.17250145479E+04  0.25500000920E-02 0.  1.
</event>
<event>
 5   0  0.3701250E-08  0.3812636E+04  0.7818609E-02  0.8043449E-01
       -1   -1    0    0    0  501  0.00000000000E+00  0.00000000000E+00  0.22603609470E+04  0.22603609470E+04  0.50400001928E-02 0.  1.
        1   -1    0    0  501    0  0.00000000000E+00  0.00000000000E+00 -0.16077290119E+04  0.16077290119E+04  0.50400001928E-02 0. -1.
    10030    2    1    2    0    0  0.00000000000E+00  0.00000000000E+00  0.65263193509E+03  0.38680899589E+04  0.38126357664E+04 0.  0.
        3    1    3    3  502    0 -0.75382727169E+03 -0.13814321341E+04  0.14178066553E+04  0.21182034885E+04  0.10100000352E+00 0.  1.
       -3    1    3    3    0  502  0.75382727169E+03  0.13814321341E+04 -0.76517472017E+03  0.17498864704E+04  0.10100000352E+00 0. -1.
</event>
<event>
 5   0  0.3701250E-08  0.3795287E+04  0.7818609E-02  0.8047167E-01
       -1   -1    0    0    0  501  0.00000000000E+00  0.00000000000E+00  0.15654730536E+04  0.15654730537E+04  0.50400001928E-02 0. -1.
        1   -1    0    0  501    0  0.00000000000E+00  0.00000000000E+00 -0.23002960025E+04  0.23002960025E+04  0.50400001928E-02 0.  1.
    10030    2    1    2    0    0  0.00000000000E+00  0.00000000000E+00 -0.73482294890E+03  0.38657690562E+04  0.37952872921E+04 0.  0.
        2    1    3    3  502    0 -0.77912365158E+03  0.16046021085E+04 -0.10269467794E+04  0.20582519959E+04  0.25500000920E-02 0.  1.
       -2    1    3    3    0  502  0.77912365158E+03 -0.16046021085E+04  0.29212383045E+03  0.18075170603E+04  0.25500000920E-02 0. -1.
</event>
<event>
 5   0  0.3701250E-08  0.3807908E+04  0.7818609E-02  0.8044460E-01
        1   -1    0    0  501    0  0.00000000000E+00  0.00000000000E+00  0.27605247337E+04  0.27605247337E+04  0.50400001928E-02 0. -1.
       -1   -1    0    0    0  501  0.00000000000E+00  0.00000000000E+00 -0.13131709524E+04  0.13131709524E+04  0.50400001928E-02 0.  1.
    10030    2    1    2    0    0  0.00000000000E+00  0.00000000000E+00  0.14473537813E+04  0.40736956861E+04  0.38079080312E+04 0.  0.
        2    1    3    3  502    0  0.22172476960E+03  0.17501732841E+04 -0.42386121088E+02  0.17646713521E+04  0.25500000920E-02 0.  1.
       -2    1    3    3    0  502 -0.22172476960E+03 -0.17501732841E+04  0.14897399024E+04  0.23090243339E+04  0.25500000920E-02 0. -1.
</event>
<event>
 5   0  0.3889225E-08  0.3819276E+04  0.7818609E-02  0.8042031E-01
       -1   -1    0    0    0  501  0.00000000000E+00  0.00000000000E+00  0.15017638727E+04  0.15017638727E+04  0.50400001928E-02 0.  1.
        1   -1    0    0  501    0  0.00000000000E+00  0.00000000000E+00 -0.24282899897E+04  0.24282899897E+04  0.50400001928E-02 0. -1.
    10030    2    1    2    0    0  0.00000000000E+00  0.00000000000E+00 -0.92652611699E+03  0.39300538625E+04  0.38192764650E+04 0.  0.
        5    1    3    3  502    0  0.14598813541E+04  0.12198755773E+04 -0.29310007959E+03  0.19249103197E+04  0.46999998093E+01 0. -1.
       -5    1    3    3    0  502 -0.14598813541E+04 -0.12198755773E+04 -0.63342603740E+03  0.20051435428E+04  0.46999998093E+01 0.  1.
</event>
<event>
 5   0  0.1143283E-07  0.3741959E+04  0.7818609E-02  0.8058726E-01
        2   -1    0    0  501    0  0.00000000000E+00  0.00000000000E+00  0.23671140858E+04  0.23671140858E+04  0.25500000920E-02 0.  1.
       -2   -1    0    0    0  501  0.00000000000E+00  0.00000000000E+00 -0.14788323691E+04  0.14788323691E+04  0.25500000920E-02 0. -1.
    10030    2    1    2    0    0  0.00000000000E+00  0.00000000000E+00  0.88828171668E+03  0.38459464548E+04  0.37419593431E+04 0.  0.
        1    1    3    3  502    0 -0.23309445558E+03  0.11768838094E+04  0.19197174266E+04  0.22637808030E+04  0.50400001928E-02 0.  1.
       -1    1    3    3    0  502  0.23309445558E+03 -0.11768838094E+04 -0.10314357099E+04  0.15821656518E+04  0.50400001928E-02 0. -1.
</event>
<event>
 5   0  0.1150235E-07  0.3796324E+04  0.7818609E-02  0.8046944E-01
       -2   -1    0    0    0  501  0.00000000000E+00  0.00000000000E+00  0.12585057516E+04  0.12585057516E+04  0.25500000920E-02 0.  1.
        2   -1    0    0  501    0  0.00000000000E+00  0.00000000000E+00 -0.28629346748E+04  0.28629346748E+04  0.25500000920E-02 0. -1.
    10030    2    1    2    0    0  0.00000000000E+00  0.00000000000E+00 -0.16044289231E+04  0.41214404264E+04  0.37963244090E+04 0.  0.
        4    1    3    3  502    0  0.17797539522E+04  0.57064107194E+03 -0.11620557545E+04  0.22008022521E+04  0.12699999809E+01 0. -1.
       -4    1    3    3    0  502 -0.17797539522E+04 -0.57064107194E+03 -0.44237316864E+03  0.19206381743E+04  0.12699999809E+01 0.  1.
</event>
<event>
 5   0  0.1193861E-07  0.3830117E+04  0.7818609E-02  0.8039723E-01
        2   -1    0    0  501    0  0.00000000000E+00  0.00000000000E+00  0.32312355715E+04  0.32312355715E+04  0.25500000920E-02 0.  1.
       -2   -1    0    0    0  501  0.00000000000E+00  0.00000000000E+00 -0.11349986987E+04  0.11349986987E+04  0.25500000920E-02 0. -1.
    10030    2    1    2    0    0  0.00000000000E+00  0.00000000000E+00  0.20962368728E+04  0.43662342703E+04  0.38301165356E+04 0.  0.
        3    1    3    3  502    0 -0.17409052993E+03 -0.23668121413E+03  0.32053891301E+04  0.32188266488E+04  0.10100000352E+00 0.  1.
       -3    1    3    3    0  502  0.17409052993E+03  0.23668121413E+03 -0.11091522573E+04  0.11474076214E+04  0.10100000352E+00 0. -1.
</event>
<event>
 5   0  0.1174870E-07  0.3798885E+04  0.7818609E-02  0.8046394E-01
        2   -1    0    0  501    0  0.00000000000E+00  0.00000000000E+00  0.26581526159E+04  0.26581526159E+04  0.25500000920E-02 0.  1.
       -2   -1    0    0    0  501  0.00000000000E+00  0.00000000000E+00 -0.13572894171E+04  0.13572894171E+04  0.25500000920E-02 0. -1.
    10030    2    1    2    0    0  0.00000000000E+00  0.00000000000E+00  0.13008631987E+04  0.40154420330E+04  0.37988853179E+04 0.  0.
        5    1    3    3  502    0  0.89381693785E+03 -0.35702128765E+03  0.23813040219E+04  0.25684633252E+04  0.46999998093E+01 0.  1.
       -5    1    3    3    0  502 -0.89381693785E+03  0.35702128765E+03 -0.10804408232E+04  0.14469787078E+04  0.46999998093E+01 0. -1.
</event>
<event>
 5   0  0.1174870E-07  0.3792553E+04  0.7818609E-02  0.8047755E-01
        2   -1    0    0  501    0  0.00000000000E+00  0.00000000000E+00  0.14109211249E+04  0.14109211249E+04  0.25500000920E-02 0.  1.
       -2   -1    0    0    0  501  0.00000000000E+00  0.00000000000E+00 -0.25485940669E+04  0.25485940669E+04  0.25500000920E-02 0. -1.
    10030    2    1    2    0    0  0.00000000000E+00  0.00000000000E+00 -0.11376729420E+04  0.39595151917E+04  0.37925533392E+04 0.  0.
        5    1    3    3  502    0 -0.14216391047E+04  0.43277915499E+03 -0.17986092272E+04  0.23331036804E+04  0.46999998093E+01 0. -1.
       -5    1    3    3    0  502  0.14216391047E+04 -0.43277915499E+03  0.66093628523E+03  0.16264115114E+04  0.46999998093E+01 0.  1.
</event>
<event>
 5   0  0.3889225E-08  0.3788796E+04  0.7818609E-02  0.8048564E-01
       -1   -1    0    0    0  501  0.00000000000E+00  0.00000000000E+00  0.17223674570E+04  0.17223674570E+04  0.50400001928E-02 0.  1.
        1   -1    0    0  501    0  0.00000000000E+00  0.00000000000E+00 -0.20836109149E+04  0.20836109149E+04  0.50400001928E-02 0. -1.
    10030    2    1    2    0    0  0.00000000000E+00  0.00000000000E+00 -0.36124345792E+03  0.38059783719E+04  0.37887959211E+04 0.  0.
        5    1    3    3  502    0 -0.12188347958E+04  0.77503115920E+03  0.10506981640E+04  0.17861187751E+04  0.46999998093E+01 0.  1.
       -5    1    3    3    0  502  0.12188347958E+04 -0.77503115920E+03 -0.14119416219E+04  0.20198595968E+04  0.46999998093E+01 0. -1.
</event>
<event>
 5   0  0.3889225E-08  0.3817430E+04  0.7818609E-02  0.8042425E-01
        1   -1    0    0  501    0  0.00000000000E+00  0.00000000000E+00  0.24845230818E+04  0.24845230818E+04  0.50400001928E-02 0. -1.
       -1   -1    0    0    0  501  0.00000000000E+00  0.00000000000E+00 -0.14663552727E+04  0.14663552727E+04  0.50400001928E-02 0.  1.
    10030    2    1    2    0    0  0.00000000000E+00  0.00000000000E+00  0.10181678091E+04  0.39508783545E+04  0.38174302986E+04 0.  0.
        5    1    3    3  502    0  0.18716265882E+03 -0.10718718046E+04  0.21320981379E+04  0.23937008137E+04  0.46999998093E+01 0. -1.
       -5    1    3    3    0  502 -0.18716265882E+03  0.10718718046E+04 -0.11139303287E+04  0.15571775408E+04  0.46999998093E+01 0.  1.
</event>
<event>
 5   0  0.3701250E-08  0.3754026E+04  0.7818609E-02  0.8056093E-01
        1   -1    0    0  501    0  0.00000000000E+00  0.00000000000E+00  0.21755644749E+04  0.21755644750E+04  0.50400001928E-02 0. -1.
       -1   -1    0    0    0  501  0.00000000000E+00  0.00000000000E+00 -0.16194318608E+04  0.16194318608E+04  0.50400001928E-02 0.  1.
    10030    2    1    2    0    0  0.00000000000E+00  0.00000000000E+00  0.55613261418E+03  0.37949963357E+04  0.37540263323E+04 0.  0.
        4    1    3    3  502    0  0.10344639328E+04 -0.68519268877E+01  0.18613694745E+04  0.21295211928E+04  0.12699999809E+01 0. -1.
       -4    1    3    3    0  502 -0.10344639328E+04  0.68519268877E+01 -0.13052368604E+04  0.16654751429E+04  0.12699999809E+01 0.  1.
</event>
<event>
 5   0  0.3701250E-08  0.3804116E+04  0.7818609E-02  0.8045272E-01
        1   -1    0    0  501    0  0.00000000000E+00  0.00000000000E+00  0.13859043884E+04  0.13859043884E+04  0.50400001928E-02 0.  1.
       -1   -1    0    0    0  501  0.00000000000E+00  0.00000000000E+00 -0.26104428572E+04  0.26104428572E+04  0.50400001928E-02 0. -1.
    10030    2    1    2    0    0  0.00000000000E+00  0.00000000000E+00 -0.12245384688E+04  0.39963472456E+04  0.38041157771E+04 0.  0.
        1    1    3    3  502    0  0.24812748825E+03  0.15524351312E+03  0.13621049087E+04  0.13931968924E+04  0.50400001928E-02 0.  1.
       -1    1    3    3    0  502 -0.24812748825E+03 -0.15524351312E+03 -0.25866433775E+04  0.26031503532E+04  0.50400001928E-02 0. -1.
</event>
<event>
 5   0  0.1150235E-07  0.3774710E+04  0.7818609E-02  0.8051604E-01
       -2   -1    0    0    0  501  0.00000000000E+00  0.00000000000E+00  0.22000211626E+04  0.22000211626E+04  0.25500000920E-02 0. -1.
        2   -1    0    0  501    0  0.00000000000E+00  0.00000000000E+00 -0.16191246378E+04  0.16191246378E+04  0.25500000920E-02 0.  1.
    10030    2    1    2    0    0  0.00000000000E+00  0.00000000000E+00  0.58089652475E+03  0.38191458004E+04  0.37747097732E+04 0.  0.
        4    1    3    3  502    0 -0.10824223958E+04 -0.90808427558E+03 -0.97562246473E+03  0.17170020679E+04  0.12699999809E+01 0.  1.
       -4    1    3    3    0  502  0.10824223958E+04  0.90808427558E+03  0.15565189895E+04  0.21021437325E+04  0.12699999809E+01 0. -1.
</event>
<event>
 5   0  0.1193861E-07  0.3800786E+04  0.7818609E-02  0.8045986E-01
       -2   -1    0    0    0  501  0.00000000000E+00  0.00000000000E+00  0.27937901193E+04  0.27937901193E+04  0.25500000920E-02 0. -1.
        2   -1    0    0  501    0  0.00000000000E+00  0.00000000000E+00 -0.12926864036E+04  0.12926864036E+04  0.25500000920E-02 0.  1.
    10030    2    1    2    0    0  0.00000000000E+00  0.00000000000E+00  0.15011037157E+04  0.40864765229E+04  0.38007864985E+04 0.  0.
        3    1    3    3  502    0  0.66679772850E+03  0.75832309537E+03  0.24814761232E+04  0.26790664209E+04  0.10100000352E+00 0. -1.
       -3    1    3    3    0  502 -0.66679772850E+03 -0.75832309537E+03 -0.98037240745E+03  0.14074101020E+04  0.10100000352E+00 0.  1.
</event>
<event>
 5   0  0.3889225E-08  0.3800586E+04  0.7818609E-02  0.8046029E-01
        1   -1    0    0  501    0  0.00000000000E+00  0.00000000000E+00  0.22076433871E+04  0.22076433871E+04  0.50400001928E-02 0. -1.
       -1   -1    0    0    0  501  0.00000000000E+00  0.00000000000E+00 -0.16357321267E+04  0.16357321267E+04  0.50400001928E-02 0.  1.
    10030    2    1    2    0    0  0.00000000000E+00  0.00000000000E+00  0.57191126032E+03  0.38433755138E+04  0.38005858562E+04 0.  0.
        5    1    3    3  502    0 -0.12171496263E+03  0.17082794149E+04 -0.54675805729E+03  0.17977762804E+04  0.46999998093E+01 0. -1.
       -5    1    3    3    0  502  0.12171496263E+03 -0.17082794149E+04  0.11186693176E+04  0.20455992334E+04  0.46999998093E+01 0.  1.
</event>
<event>
 5   0  0.1150235E-07  0.3753817E+04  0.7818609E-02  0.8056139E-01
        2   -1    0    0  501    0  0.00000000000E+00  0.00000000000E+00  0.27908903511E+04  0.27908903511E+04  0.25500000920E-02 0. -1.
       -2   -1    0    0    0  501  0.00000000000E+00  0.00000000000E+00 -0.12622441261E+04  0.12622441261E+04  0.25500000920E-02 0.  1.
    10030    2    1    2    0    0  0.00000000000E+00  0.00000000000E+00  0.15286462249E+04  0.40531344772E+04  0.37538166990E+04 0.  0.
        4    1    3    3  502    0  0.80665852382E+03 -0.13460801965E+04 -0.34741455598E+03  0.16072735785E+04  0.12699999809E+01 0.  1.
       -4    1    3    3    0  502 -0.80665852382E+03  0.13460801965E+04  0.18760607809E+04  0.24458608988E+04  0.12699999809E+01 0. -1.
</event>
<event>
 5   0  0.7858367E-08  0.3817870E+04  0.7818609E-02  0.8042331E-01
        2   -1    0    0  501    0  0.00000000000E+00  0.00000000000E+00  0.23549168877E+04  0.23549168877E+04  0.25500000920E-02 0.  1.
       -2   -1    0    0    0  501  0.00000000000E+00  0.00000000000E+00 -0.15474150309E+04  0.15474150309E+04  0.25500000920E-02 0. -1.
    10030    2    1    2    0    0  0.00000000000E+00  0.00000000000E+00  0.80750185680E+03  0.39023319187E+04  0.38178705000E+04 0.  0.
        2    1    3    3  502    0 -0.17020420483E+04 -0.85842941000E+03  0.50690737503E+03  0.19725119196E+04  0.25500000920E-02 0.  1.
       -2    1    3    3    0  502  0.17020420483E+04  0.85842941000E+03  0.30059448177E+03  0.19298199990E+04  0.25500000920E-02 0. -1.
</event>
<event>
 5   0  0.7858367E-08  0.3871422E+04  0.7818609E-02  0.8030999E-01
       -2   -1    0    0    0  501  0.00000000000E+00  0.00000000000E+00  0.22191146449E+04  0.22191146449E+04  0.25500000920E-02 0. -1.
        2   -1    0    0  501    0  0.00000000000E+00  0.00000000000E+00 -0.16885005410E+04  0.16885005410E+04  0.25500000920E-02 0.  1.
    10030    2    1    2    0    0  0.00000000000E+00  0.00000000000E+00  0.53061410391E+03  0.39076151859E+04  0.38714215883E+04 0.  0.
        2    1    3    3  502    0  0.14922836170E+04 -0.74524942741E+03  0.12566650668E+04  0.20884238537E+04  0.25500000920E-02 0. -1.
       -2    1    3    3    0  502 -0.14922836170E+04  0.74524942741E+03 -0.72605096286E+03  0.18191913322E+04  0.25500000920E-02 0.  1.
</event>
<event>
 5   0  0.3701250E-08  0.3806443E+04  0.7818609E-02  0.8044774E-01
       -1   -1    0    0    0  501  0.00000000000E+00  0.00000000000E+00  0.19507436182E+04  0.19507436182E+04  0.50400001928E-02 0. -1.
        1   -1    0    0  501    0  0.00000000000E+00  0.00000000000E+00 -0.18568574419E+04  0.18568574419E+04  0.50400001928E-02 0.  1.
    10030    2    1    2    0    0  0.00000000000E+00  0.00000000000E+00  0.93886176360E+02  0.38076010601E+04  0.38064433818E+04 0.  0.
        4    1    3    3  502    0  0.14677253849E+04  0.10922627633E+04 -0.47761647948E+03  0.18908661676E+04  0.12699999809E+01 0.  1.
       -4    1    3    3    0  502 -0.14677253849E+04 -0.10922627633E+04  0.57150265584E+03  0.19167348925E+04  0.12699999809E+01 0. -1.
</event>
<event>
 5   0  0.3701250E-08  0.3801050E+04  0.7818609E-02  0.8045930E-01
        1   -1    0    0  501    0  0.00000000000E+00  0.00000000000E+00  0.14770359605E+04  0.14770359605E+04  0.50400001928E-02 0. -1.
       -1   -1    0    0    0  501  0.00000000000E+00  0.00000000000E+00 -0.24454348197E+04  0.24454348197E+04  0.50400001928E-02 0.  1.
    10030    2    1    2    0    0  0.00000000000E+00  0.00000000000E+00 -0.96839885922E+03  0.39224707802E+04  0.38010499433E+04 0.  0.
        1    1    3    3  502    0  0.12084759162E+04 -0.76762407827E+03  0.80566224555E+03  0.16427880020E+04  0.50400001928E-02 0. -1.
       -1    1    3    3    0  502 -0.12084759162E+04  0.76762407827E+03 -0.17740611048E+04  0.22796827782E+04  0.50400001928E-02 0.  1.
</event>
<event>
 5   0  0.1174870E-07  0.3585984E+04  0.7818609E-02  0.8093710E-01
        2   -1    0    0  501    0  0.00000000000E+00  0.00000000000E+00  0.20154968654E+04  0.20154968654E+04  0.25500000920E-02 0. -1.
       -2   -1    0    0    0  501  0.00000000000E+00  0.00000000000E+00 -0.15950512967E+04  0.15950512967E+04  0.25500000920E-02 0.  1.
    10030    2    1    2    0    0  0.00000000000E+00  0.00000000000E+00  0.42044556872E+03  0.36105481621E+04  0.35859843215E+04 0.  0.
        5    1    3    3  502    0 -0.68547894464E+03  0.16234102315E+04 -0.12288578323E+03  0.17664838434E+04  0.46999998093E+01 0. -1.
       -5    1    3    3    0  502  0.68547894464E+03 -0.16234102315E+04  0.54333135195E+03  0.18440643186E+04  0.46999998093E+01 0.  1.
</event>
<event>
 5   0  0.3889225E-08  0.3773603E+04  0.7818609E-02  0.8051843E-01
        1   -1    0    0  501    0  0.00000000000E+00  0.00000000000E+00  0.16165675209E+04  0.16165675209E+04  0.50400001928E-02 0.  1.
       -1   -1    0    0    0  501  0.00000000000E+00  0.00000000000E+00 -0.22022091305E+04  0.22022091305E+04  0.50400001928E-02 0. -1.
    10030    2    1    2    0    0  0.00000000000E+00  0.00000000000E+00 -0.58564160965E+03  0.38187766514E+04  0.37736029228E+04 0.  0.
        5    1    3    3  502    0  0.81919709065E+03 -0.14515697541E+04 -0.11876338153E+04  0.20466154483E+04  0.46999998093E+01 0. -1.
       -5    1    3    3    0  502 -0.81919709065E+03  0.14515697541E+04  0.60199220560E+03  0.17721612031E+04  0.46999998093E+01 0.  1.
</event>
<event>
 5   0  0.7858367E-08  0.3804860E+04  0.7818609E-02  0.8045113E-01
       -2   -1    0    0    0  501  0.00000000000E+00  0.00000000000E+00  0.24946769163E+04  0.24946769163E+04  0.25500000920E-02 0.  1.
        2   -1    0    0  501    0  0.00000000000E+00  0.00000000000E+00 -0.14507848321E+04  0.14507848321E+04  0.25500000920E-02 0. -1.
    10030    2    1    2    0    0  0.00000000000E+00  0.00000000000E+00  0.10438920842E+04  0.39454617483E+04  0.38048597509E+04 0.  0.
        2    1    3    3  502    0  0.14078667302E+04 -0.11799449025E+04  0.88053117552E+01  0.18369638637E+04  0.25500000920E-02 0. -1.
       -2    1    3    3    0  502 -0.14078667302E+04  0.11799449025E+04  0.10350867725E+04  0.21084978846E+04  0.25500000920E-02 0.  1.
</event>
<event>
 5   0  0.1150235E-07  0.3804209E+04  0.7818609E-02  0.8045252E-01
       -2   -1    0    0    0  501  0.00000000000E+00  0.00000000000E+00  0.17239406828E+04  0.17239406828E+04  0.25500000920E-02 0.  1.
        2   -1    0    0  501    0  0.00000000000E+00  0.00000000000E+00 -0.20986814900E+04  0.20986814900E+04  0.25500000920E-02 0. -1.
    10030    2    1    2    0    0  0.00000000000E+00  0.00000000000E+00 -0.37474080717E+03  0.38226221727E+04  0.38042094583E+04 0.  0.
        4    1    3    3  502    0  0.14273065992E+02 -0.19716879769E+03 -0.20883306808E+04  0.20976667753E+04  0.12699999809E+01 0. -1.
       -4    1    3    3    0  502 -0.14273065992E+02  0.19716879769E+03  0.17135898736E+04  0.17249553974E+04  0.12699999809E+01 0.  1.
</event>
<event>
 5   0  0.3701250E-08  0.3791133E+04  0.7818609E-02  0.8048060E-01
       -1   -1    0    0    0  501  0.00000000000E+00  0.00000000000E+00  0.10508261439E+04  0.10508261439E+04  0.50400001928E-02 0.  1.
        1   -1    0    0  501    0  0.00000000000E+00  0.00000000000E+00 -0.34193778702E+04  0.34193778702E+04  0.50400001928E-02 0. -1.
    10030    2    1    2    0    0  0.00000000000E+00  0.00000000000E+00 -0.23685517263E+04  0.44702040141E+04  0.37911326339E+04 0.  0.
        4    1    3    3  502    0  0.10526427137E+03 -0.13452848776E+04  0.38546060927E+03  0.14033721755E+04  0.12699999809E+01 0.  1.
       -4    1    3    3    0  502 -0.10526427137E+03  0.13452848776E+04 -0.27540123356E+04  0.30668318386E+04  0.12699999809E+01 0. -1.
</event>
<event>
 5   0  0.1174870E-07  0.3720822E+04  0.7818609E-02  0.8063363E-01
        2   -1    0    0  501    0  0.00000000000E+00  0.00000000000E+00  0.12289494007E+04  0.12289494007E+04  0.25500000920E-02 0. -1.
       -2   -1    0    0    0  501  0.00000000000E+00  0.00000000000E+00 -0.28163311361E+04  0.28163311361E+04  0.25500000920E-02 0.  1.
    10030    2    1    2    0    0  0.00000000000E+00  0.00000000000E+00 -0.15873817354E+04  0.40452805368E+04  0.37208216630E+04 0.  0.
        5    1    3    3  502    0  0.15285440408E+04  0.29113709933E+03 -0.19023685434E+04  0.24576891301E+04  0.46999998093E+01 0.  1.
       -5    1    3    3    0  502 -0.15285440408E+04 -0.29113709933E+03  0.31498680806E+03  0.15875914067E+04  0.46999998093E+01 0. -1.
</event>
<event>
 5   0  0.1193861E-07  0.3824432E+04  0.7818609E-02  0.8040932E-01
       -2   -1    0    0    0  501  0.00000000000E+00  0.00000000000E+00  0.16367298691E+04  0.16367298691E+04  0.25500000920E-02 0. -1.
        2   -1    0    0  501    0  0.00000000000E+00  0.00000000000E+00 -0.22340708942E+04  0.22340708942E+04  0.25500000920E-02 0.  1.
    10030    2    1    2    0    0  0.00000000000E+00  0.00000000000E+00 -0.59734102511E+03  0.38708007633E+04  0.38244322780E+04 0.  0.
        3    1    3    3  502    0 -0.13183375782E+04  0.11471878752E+04  0.48695999091E+03  0.18141620749E+04  0.10100000352E+00 0.  1.
       -3    1    3    3    0  502  0.13183375782E+04 -0.11471878752E+04 -0.10843010160E+04  0.20566386884E+04  0.10100000352E+00 0. -1.
</event>
<event>
 5   0  0.7858367E-08  0.3867031E+04  0.7818609E-02  0.8031921E-01
       -2   -1    0    0    0  501  0.00000000000E+00  0.00000000000E+00  0.14710175304E+04  0.14710175304E+04  0.25500000920E-02 0. -1.
        2   -1    0    0  501    0  0.00000000000E+00  0.00000000000E+00 -0.25414265877E+04  0.25414265877E+04  0.25500000920E-02 0.  1.
    10030    2    1    2    0    0  0.00000000000E+00  0.00000000000E+00 -0.10704090573E+04  0.40124441181E+04  0.38670314520E+04 0.  0.
        2    1    3    3  502    0 -0.11513132499E+04 -0.10383229384E+04  0.66359601152E+03  0.16864152485E+04  0.25500000920E-02 0. -1.
       -2    1    3    3    0  502  0.11513132499E+04  0.10383229384E+04 -0.17340050688E+04  0.23260288696E+04  0.25500000920E-02 0.  1.
</event>
<event>
 5   0  0.3701250E-08  0.3797040E+04  0.7818609E-02  0.8046790E-01
       -1   -1    0    0    0  501  0.00000000000E+00  0.00000000000E+00  0.17966161344E+04  0.17966161344E+04  0.50400001928E-02 0. -1.
        1   -1    0    0  501    0  0.00000000000E+00  0.00000000000E+00 -0.20062038362E+04  0.20062038362E+04  0.50400001928E-02 0.  1.
    10030    2    1    2    0    0  0.00000000000E+00  0.00000000000E+00 -0.20958770181E+03  0.38028199706E+04  0.37970399951E+04 0.  0.
        2    1    3    3  502    0  0.13957609476E+04  0.12869274416E+04 -0.97904554505E+02  0.19010302903E+04  0.25500000920E-02 0.  1.
       -2    1    3    3    0  502 -0.13957609476E+04 -0.12869274416E+04 -0.11168314731E+03  0.19017896803E+04  0.25500000920E-02 0. -1.
</event>
<event>
 5   0  0.1193861E-07  0.3801776E+04  0.7818609E-02  0.8045774E-01
       -2   -1    0    0    0  501  0.00000000000E+00  0.00000000000E+00  0.14784502158E+04  0.14784502158E+04  0.25500000920E-02 0. -1.
        2   -1    0    0  501    0  0.00000000000E+00  0.00000000000E+00 -0.24440294655E+04  0.24440294655E+04  0.25500000920E-02 0.  1.
    10030    2    1    2    0    0  0.00000000000E+00  0.00000000000E+00 -0.96557924970E+03  0.39224796813E+04  0.38017763694E+04 0.  0.
        3    1    3    3  502    0 -0.18900356345E+04  0.17046543967E+03 -0.59620094336E+03  0.19891577968E+04  0.10100000352E+00 0.  1.
       -3    1    3    3    0  502  0.18900356345E+04 -0.17046543967E+03 -0.36937830635E+03  0.19333218845E+04  0.10100000352E+00 0. -1.
</event>
<event>
 5   0  0.3701250E-08  0.3831498E+04  0.7818609E-02  0.8039429E-01
       -1   -1    0    0    0  501  0.00000000000E+00  0.00000000000E+00  0.16227407612E+04  0.16227407612E+04  0.50400001928E-02 0.  1.
        1   -1    0    0  501    0  0.00000000000E+00  0.00000000000E+00 -0.22616642172E+04  0.22616642172E+04  0.50400001928E-02 0. -1.
    10030    2    1    2    0    0  0.00000000000E+00  0.00000000000E+00 -0.63892345603E+03  0.38844049784E+04  0.38314982518E+04 0.  0.
        3    1    3    3  502    0  0.36183293181E+03 -0.10952130167E+04 -0.18701843025E+04  0.21972719354E+04  0.10100000352E+00 0. -1.
       -3    1    3    3    0  502 -0.36183293181E+03  0.10952130167E+04  0.12312608464E+04  0.16871330430E+04  0.10100000352E+00 0.  1.
</event>
<event>
 5   0  0.7858367E-08  0.3800328E+04  0.7818609E-02  0.8046085E-01
        2   -1    0    0  501    0  0.00000000000E+00  0.00000000000E+00  0.18043606055E+04  0.18043606055E+04  0.25500000920E-02 0.  1.
       -2   -1    0    0    0  501  0.00000000000E+00  0.00000000000E+00 -0.20010540106E+04  0.20010540106E+04  0.25500000920E-02 0. -1.
    10030    2    1    2    0    0  0.00000000000E+00  0.00000000000E+00 -0.19669340509E+03  0.38054146161E+04  0.38003278944E+04 0.  0.
        2    1    3    3  502    0 -0.30223308504E+03  0.15249938304E+04  0.99566865083E+03  0.18461600913E+04  0.25500000920E-02 0.  1.
       -2    1    3    3    0  502  0.30223308504E+03 -0.15249938304E+04 -0.11923620559E+04  0.19592545248E+04  0.25500000920E-02 0. -1.
</event>
<event>
 5   0  0.3701250E-08  0.3809222E+04  0.7818609E-02  0.8044179E-01
        1   -1    0    0  501    0  0.00000000000E+00  0.00000000000E+00  0.22378462939E+04  0.22378462939E+04  0.50400001928E-02 0.  1.
       -1   -1    0    0    0  501  0.00000000000E+00  0.00000000000E+00 -0.16209976667E+04  0.16209976668E+04  0.50400001928E-02 0. -1.
    10030    2    1    2    0    0  0.00000000000E+00  0.00000000000E+00  0.61684862717E+03  0.38588439607E+04  0.38092222939E+04 0.  0.
        1    1    3    3  502    0 -0.10877154106E+04  0.78482967313E+03 -0.10613965400E+04  0.17104517080E+04  0.50400001928E-02 0. -1.
       -1    1    3    3    0  502  0.10877154106E+04 -0.78482967313E+03  0.16782451672E+04  0.21483922527E+04  0.50400001928E-02 0.  1.
</event>
<event>
 5   0  0.1193861E-07  0.3794369E+04  0.7818609E-02  0.8047364E-01
       -2   -1    0    0    0  501  0.00000000000E+00  0.00000000000E+00  0.30257531544E+04  0.30257531544E+04  0.25500000920E-02 0.  1.
        2   -1    0    0  501    0  0.00000000000E+00  0.00000000000E+00 -0.11895577896E+04  0.11895577896E+04  0.25500000920E-02 0. -1.
    10030    2    1    2    0    0  0.00000000000E+00  0.00000000000E+00  0.18361953647E+04  0.42153109440E+04  0.37943685821E+04 0.  0.
        3    1    3    3  502    0  0.74373155524E+03  0.10573981527E+04 -0.62450012279E+03  0.14356977025E+04  0.10100000352E+00 0. -1.
       -3    1    3    3    0  502 -0.74373155524E+03 -0.10573981527E+04  0.24606954875E+04  0.27796132415E+04  0.10100000352E+00 0.  1.
</event>
<event>
 5   0  0.3889225E-08  0.3780263E+04  0.7818609E-02  0.8050404E-01
       -1   -1    0    0    0  501  0.00000000000E+00  0.00000000000E+00  0.16493899452E+04  0.16493899452E+04  0.50400001928E-02 0. -1.
        1   -1    0    0  501    0  0.00000000000E+00  0.00000000000E+00 -0.21660113292E+04  0.21660113292E+04  0.50400001928E-02 0.  1.
    10030    2    1    2    0    0  0.00000000000E+00  0.00000000000E+00 -0.51662138401E+03  0.38154012744E+04  0.37802631165E+04 0.  0.
        5    1    3    3  502    0  0.52174331059E+03  0.14206228715E+03  0.15696500325E+04  0.16601870648E+04  0.46999998093E+01 0. -1.
       -5    1    3    3    0  502 -0.52174331059E+03 -0.14206228715E+03 -0.20862714165E+04  0.21552142096E+04  0.46999998093E+01 0.  1.
</event>
<event>
 5   0  0.3889225E-08  0.3951813E+04  0.7818609E-02  0.8014339E-01
       -1   -1    0    0    0  501  0.00000000000E+00  0.00000000000E+00  0.14067627553E+04  0.14067627553E+04  0.50400001928E-02 0.  1.
        1   -1    0    0  501    0  0.00000000000E+00  0.00000000000E+00 -0.27753123492E+04  0.27753123492E+04  0.50400001928E-02 0. -1.
    10030    2    1    2    0    0  0.00000000000E+00  0.00000000000E+00 -0.13685495939E+04  0.41820751045E+04  0.39518127725E+04 0.  0.
        5    1    3    3  502    0 -0.84297083337E+03  0.16047637098E+04 -0.15164241119E+04  0.23633515539E+04  0.46999998093E+01 0. -1.
       -5    1    3    3    0  502  0.84297083337E+03 -0.16047637098E+04  0.14787451801E+03  0.18187235506E+04  0.46999998093E+01 0.  1.
</event>
<event>
 5   0  0.1174870E-07  0.3688781E+04  0.7818609E-02  0.8070453E-01
        2   -1    0    0  501    0  0.00000000000E+00  0.00000000000E+00  0.16656502665E+04  0.16656502665E+04  0.25500000920E-02 0. -1.
       -2   -1    0    0    0  501  0.00000000000E+00  0.00000000000E+00 -0.20423115535E+04  0.20423115535E+04  0.25500000920E-02 0.  1.
    10030    2    1    2    0    0  0.00000000000E+00  0.00000000000E+00 -0.37666128702E+03  0.37079618200E+04  0.36887812532E+04 0.  0.
        5    1    3    3  502    0  0.52851958352E+03 -0.17667618326E+04 -0.15695343318E+03  0.18507935578E+04  0.46999998093E+01 0. -1.
       -5    1    3    3    0  502 -0.52851958352E+03  0.17667618326E+04 -0.21970785385E+03  0.18571682623E+04  0.46999998093E+01 0.  1.
</event>
<event>
 5   0  0.3701250E-08  0.3809900E+04  0.7818609E-02  0.8044034E-01
       -1   -1    0    0    0  501  0.00000000000E+00  0.00000000000E+00  0.13298496113E+04  0.13298496113E+04  0.50400001928E-02 0.  1.
        1   -1    0    0  501    0  0.00000000000E+00  0.00000000000E+00 -0.27287550862E+04  0.27287550862E+04  0.50400001928E-02 0. -1.
    10030    2    1    2    0    0  0.00000000000E+00  0.00000000000E+00 -0.13989054749E+04  0.40586046975E+04  0.38098996788E+04 0.  0.
        4    1    3    3  502    0  0.49521127273E+03 -0.12420382104E+04 -0.21448357003E+04  0.25274918229E+04  0.12699999809E+01 0. -1.
       -4    1    3    3    0  502 -0.49521127273E+03  0.12420382104E+04  0.74593022532E+03  0.15311128746E+04  0.12699999809E+01 0.  1.
</event>
<event>
 5   0  0.3701250E-08  0.3784831E+04  0.7818609E-02  0.8049418E-01
        1   -1    0    0  501    0  0.00000000000E+00  0.00000000000E+00  0.21410669774E+04  0.21410669774E+04  0.50400001928E-02 0.  1.
       -1   -1    0    0    0  501  0.00000000000E+00  0.00000000000E+00 -0.16726409996E+04  0.16726409996E+04  0.50400001928E-02 0. -1.
    10030    2    1    2    0    0  0.00000000000E+00  0.00000000000E+00  0.46842597779E+03  0.38137079771E+04  0.37848309919E+04 0.  0.
        4    1    3    3  502    0 -0.84192972605E+03 -0.61139317844E+03  0.18269652367E+04  0.21024868303E+04  0.12699999809E+01 0.  1.
       -4    1    3    3    0  502  0.84192972605E+03  0.61139317844E+03 -0.13585392589E+04  0.17112211468E+04  0.12699999809E+01 0. -1.
</event>
<event>
 5   0  0.3701250E-08  0.3821813E+04  0.7818609E-02  0.8041490E-01
        1   -1    0    0  501    0  0.00000000000E+00  0.00000000000E+00  0.24535815395E+04  0.24535815395E+04  0.50400001928E-02 0. -1.
       -1   -1    0    0    0  501  0.00000000000E+00  0.00000000000E+00 -0.14882583301E+04  0.14882583302E+04  0.50400001928E-02 0.  1.
    10030    2    1    2    0    0  0.00000000000E+00  0.00000000000E+00  0.96532320939E+03  0.39418398697E+04  0.38218127452E+04 0.  0.
        3    1    3    3  502    0 -0.16550644149E+03 -0.92091836105E+01 -0.14808289604E+04  0.14900777199E+04  0.10100000352E+00 0.  1.
       -3    1    3    3    0  502  0.16550644149E+03  0.92091836105E+01  0.24461521698E+04  0.24517621498E+04  0.10100000352E+00 0. -1.
</event>
<event>
 5   0  0.3701250E-08  0.3819831E+04  0.7818609E-02  0.8041913E-01
        1   -1    0    0  501    0  0.00000000000E+00  0.00000000000E+00  0.15111543912E+04  0.15111543913E+04  0.50400001928E-02 0.  1.
       -1   -1    0    0    0  501  0.00000000000E+00  0.00000000000E+00 -0.24139010477E+04  0.24139010477E+04  0.50400001928E-02 0. -1.
    10030    2    1    2    0    0  0.00000000000E+00  0.00000000000E+00 -0.90274665646E+03  0.39250554390E+04  0.38198309744E+04 0.  0.
        2    1    3    3  502    0 -0.20718112007E+03  0.91341528987E+03 -0.21617144503E+04  0.23558991644E+04  0.25500000920E-02 0. -1.
       -2    1    3    3    0  502  0.20718112007E+03 -0.91341528987E+03  0.12589677938E+04  0.15691562746E+04  0.25500000920E-02 0.  1.
</event>
<event>
 5   0  0.3701250E-08  0.3759447E+04  0.7818609E-02  0.8054914E-01
       -1   -1    0    0    0  501  0.00000000000E+00  0.00000000000E+00  0.29477812950E+04  0.29477812950E+04  0.50400001928E-02 0. -1.
        1   -1    0    0  501    0  0.00000000000E+00  0.00000000000E+00 -0.11986506248E+04  0.11986506249E+04  0.50400001928E-02 0.  1.
    10030    2    1    2    0    0  0.00000000000E+00  0.00000000000E+00  0.17491306702E+04  0.41464319199E+04  0.37594467099E+04 0.  0.
        2    1    3    3  502    0  0.81980209454E+03  0.86982666634E+03 -0.72552411156E+03  0.13982342937E+04  0.25500000920E-02 0.  1.
       -2    1    3    3    0  502 -0.81980209454E+03 -0.86982666634E+03  0.24746547817E+04  0.27481976261E+04  0.25500000920E-02 0. -1.
</event>
<event>
 5   0  0.3701250E-08  0.3818667E+04  0.7818609E-02  0.8042161E-01
        1   -1    0    0  501    0  0.00000000000E+00  0.00000000000E+00  0.23086275585E+04  0.23086275585E+04  0.50400001928E-02 0. -1.
       -1   -1    0    0    0  501  0.00000000000E+00  0.00000000000E+00 -0.15790999348E+04  0.15790999348E+04  0.50400001928E-02 0.  1.
    10030    2    1    2    0    0  0.00000000000E+00  0.00000000000E+00  0.72952762369E+03  0.38877274933E+04  0.38186665877E+04 0.  0.
        4    1    3    3  502    0 -0.43804999577E+03 -0.12082718090E+04 -0.10727721286E+04  0.16741117693E+04  0.12699999809E+01 0.  1.
       -4    1    3    3    0  502  0.43804999577E+03  0.12082718090E+04  0.18022997523E+04  0.22136157240E+04  0.12699999809E+01 0. -1.
</event>
<event>
 5   0  0.3701250E-08  0.3796887E+04  0.7818609E-02  0.8046823E-01
       -1   -1    0    0    0  501  0.00000000000E+00  0.00000000000E+00  0.17004656385E+04  0.17004656385E+04  0.50400001928E-02 0. -1.
        1   -1    0    0  501    0  0.00000000000E+00  0.00000000000E+00 -0.21194714247E+04  0.21194714247E+04  0.50400001928E-02 0.  1.
    10030    2    1    2    0    0  0.00000000000E+00  0.00000000000E+00 -0.41900578624E+03  0.38199370632E+04  0.37968873196E+04 0.  0.
        1    1    3    3  502    0  0.16249867523E+04  0.52006495526E+03  0.62804043215E+03  0.18180990862E+04  0.50400001928E-02 0. -1.
       -1    1    3    3    0  502 -0.16249867523E+04 -0.52006495526E+03 -0.10470462184E+04  0.20018379770E+04  0.50400001928E-02 0.  1.
</event>
<event>
 5   0  0.7858367E-08  0.3797086E+04  0.7818609E-02  0.8046781E-01
        2   -1    0    0  501    0  0.00000000000E+00  0.00000000000E+00  0.20600176004E+04  0.20600176004E+04  0.25500000920E-02 0.  1.
       -2   -1    0    0    0  501  0.00000000000E+00  0.00000000000E+00 -0.17497254597E+04  0.17497254597E+04  0.25500000920E-02 0. -1.
    10030    2    1    2    0    0  0.00000000000E+00  0.00000000000E+00  0.31029214074E+03  0.38097430602E+04  0.37970858526E+04 0.  0.
        2    1    3    3  502    0  0.31661860776E+03  0.43096969146E+03 -0.16725966807E+04  0.17560073673E+04  0.25500000920E-02 0. -1.
       -2    1    3    3    0  502 -0.31661860776E+03 -0.43096969146E+03  0.19828888215E+04  0.20537356928E+04  0.25500000920E-02 0.  1.
</event>
<event>
 5   0  0.3701250E-08  0.3775348E+04  0.7818609E-02  0.8051466E-01
        1   -1    0    0  501    0  0.00000000000E+00  0.00000000000E+00  0.22619433087E+04  0.22619433087E+04  0.50400001928E-02 0.  1.
       -1   -1    0    0    0  501  0.00000000000E+00  0.00000000000E+00 -0.15753326920E+04  0.15753326920E+04  0.50400001928E-02 0. -1.
    10030    2    1    2    0    0  0.00000000000E+00  0.00000000000E+00  0.68661061671E+03  0.38372760007E+04  0.37753480590E+04 0.  0.
        1    1    3    3  502    0 -0.89654961304E+03  0.13868928706E+04  0.12726559878E+04  0.20849283696E+04  0.50400001928E-02 0.  1.
       -1    1    3    3    0  502  0.89654961304E+03 -0.13868928706E+04 -0.58604537112E+03  0.17523476311E+04  0.50400001928E-02 0. -1.
</event>
<event>
 5   0  0.3701250E-08  0.3809225E+04  0.7818609E-02  0.8044178E-01
       -1   -1    0    0    0  501  0.00000000000E+00  0.00000000000E+00  0.22667812715E+04  0.22667812715E+04  0.50400001928E-02 0. -1.
        1   -1    0    0  501    0  0.00000000000E+00  0.00000000000E+00 -0.16003086191E+04  0.16003086191E+04  0.50400001928E-02 0.  1.
    10030    2    1    2    0    0  0.00000000000E+00  0.00000000000E+00  0.66647265240E+03  0.38670898907E+04  0.38092254365E+04 0.  0.
        4    1    3    3  502    0  0.12448724449E+04 -0.14414043138E+04  0.34738335099E+03  0.19359831108E+04  0.12699999809E+01 0.  1.
       -4    1    3    3    0  502 -0.12448724449E+04  0.14414043138E+04  0.31908930141E+03  0.19311067798E+04  0.12699999809E+01 0. -1.
</event>
<event>
 5   0  0.1174870E-07  0.3799383E+04  0.7818609E-02  0.8046287E-01
        2   -1    0    0  501    0  0.00000000000E+00  0.00000000000E+00  0.22436583315E+04  0.22436583315E+04  0.25500000920E-02 0. -1.
       -2   -1    0    0    0  501  0.00000000000E+00  0.00000000000E+00 -0.16084572514E+04  0.16084572514E+04  0.25500000920E-02 0.  1.
    10030    2    1    2    0    0  0.00000000000E+00  0.00000000000E+00  0.63520108005E+03  0.38521155829E+04  0.37993833779E+04 0.  0.
        5    1    3    3  502    0 -0.11913713877E+04  0.76177602045E+03 -0.96852341643E+03  0.17139802178E+04  0.46999998093E+01 0.  1.
       -5    1    3    3    0  502  0.11913713877E+04 -0.76177602045E+03  0.16037244965E+04  0.21381353651E+04  0.46999998093E+01 0. -1.
</event>
<event>
 5   0  0.1174870E-07  0.3794527E+04  0.7818609E-02  0.8047330E-01
       -2   -1    0    0    0  501  0.00000000000E+00  0.00000000000E+00  0.20824120627E+04  0.20824120627E+04  0.25500000920E-02 0.  1.
        2   -1    0    0  501    0  0.00000000000E+00  0.00000000000E+00 -0.17285768086E+04  0.17285768086E+04  0.25500000920E-02 0. -1.
    10030    2    1    2    0    0  0.00000000000E+00  0.00000000000E+00  0.35383525409E+03  0.38109888712E+04  0.37945272155E+04 0.  0.
        5    1    3    3  502    0 -0.16734511254E+04  0.88256524537E+03  0.34078882624E+02  0.18922324227E+04  0.46999998093E+01 0. -1.
       -5    1    3    3    0  502  0.16734511254E+04 -0.88256524537E+03  0.31975637147E+03  0.19187564485E+04  0.46999998093E+01 0.  1.
</event>
<event>
 5   0  0.3701250E-08  0.3792402E+04  0.7818609E-02  0.8047787E-01
       -1   -1    0    0    0  501  0.00000000000E+00  0.00000000000E+00  0.16069047398E+04  0.16069047398E+04  0.50400001928E-02 0.  1.
        1   -1    0    0  501    0  0.00000000000E+00  0.00000000000E+00 -0.22375801374E+04  0.22375801374E+04  0.50400001928E-02 0. -1.
    10030    2    1    2    0    0  0.00000000000E+00  0.00000000000E+00 -0.63067539752E+03  0.38444848772E+04  0.37924019452E+04 0.  0.
        3    1    3    3  502    0 -0.13282652267E+04  0.51805576271E+03  0.95199453220E+03  0.17143406562E+04  0.10100000352E+00 0.  1.
       -3    1    3    3    0  502  0.13282652267E+04 -0.51805576271E+03 -0.15826699297E+04  0.21301442210E+04  0.10100000352E+00 0. -1.
</event>
<event>
 5   0  0.3701250E-08  0.3802715E+04  0.7818609E-02  0.8045573E-01
        1   -1    0    0  501    0  0.00000000000E+00  0.00000000000E+00  0.20979549541E+04  0.20979549541E+04  0.50400001928E-02 0. -1.
       -1   -1    0    0    0  501  0.00000000000E+00  0.00000000000E+00 -0.17231829177E+04  0.17231829177E+04  0.50400001928E-02 0.  1.
    10030    2    1    2    0    0  0.00000000000E+00  0.00000000000E+00  0.37477203633E+03  0.38211378718E+04  0.38027148928E+04 0.  0.
        4    1    3    3  502    0  0.10620108739E+04 -0.15318106114E+04 -0.18972896899E+03  0.18735820078E+04  0.12699999809E+01 0.  1.
       -4    1    3    3    0  502 -0.10620108739E+04  0.15318106114E+04  0.56450100533E+03  0.19475558640E+04  0.12699999809E+01 0. -1.
</event>
<event>
 5   0  0.3701250E-08  0.3793897E+04  0.7818609E-02  0.8047466E-01
       -1   -1    0    0    0  501  0.00000000000E+00  0.00000000000E+00  0.27015002299E+04  0.27015002299E+04  0.50400001928E-02 0. -1.
        1   -1    0    0  501    0  0.00000000000E+00  0.00000000000E+00 -0.13320056317E+04  0.13320056317E+04  0.50400001928E-02 0.  1.
    10030    2    1    2    0    0  0.00000000000E+00  0.00000000000E+00  0.13694945982E+04  0.40335058616E+04  0.37938969518E+04 0.  0.
        2    1    3    3  502    0  0.13417559585E+04 -0.14977215728E+03 -0.73195509915E+03  0.15357405440E+04  0.25500000920E-02 0.  1.
       -2    1    3    3    0  502 -0.13417559585E+04  0.14977215728E+03  0.21014496974E+04  0.24977653176E+04  0.25500000920E-02 0. -1.
</event>
<event>
 5   0  0.7858367E-08  0.3783628E+04  0.7818609E-02  0.8049677E-01
        2   -1    0    0  501    0  0.00000000000E+00  0.00000000000E+00  0.13693157424E+04  0.13693157424E+04  0.25500000920E-02 0. -1.
       -2   -1    0    0    0  501  0.00000000000E+00  0.00000000000E+00 -0.26136855880E+04  0.26136855880E+04  0.25500000920E-02 0.  1.
    10030    2    1    2    0    0  0.00000000000E+00  0.00000000000E+00 -0.12443698457E+04  0.39830013304E+04  0.37836283228E+04 0.  0.
        2    1    3    3  502    0 -0.98280179181E+03  0.91130585991E+03 -0.20276720581E+04  0.24306031571E+04  0.25500000920E-02 0.  1.
       -2    1    3    3    0  502  0.98280179181E+03 -0.91130585991E+03  0.78330221243E+03  0.15523981732E+04  0.25500000920E-02 0. -1.
</event>
<event>
 5   0  0.3889225E-08  0.3886346E+04  0.7818609E-02  0.8027875E-01
       -1   -1    0    0    0  501  0.00000000000E+00  0.00000000000E+00  0.13021411966E+04  0.13021411966E+04  0.50400001928E-02 0. -1.
        1   -1    0    0  501    0  0.00000000000E+00  0.00000000000E+00 -0.28997782416E+04  0.28997782416E+04  0.50400001928E-02 0.  1.
    10030    2    1    2    0    0  0.00000000000E+00  0.00000000000E+00 -0.15976370450E+04  0.42019194381E+04  0.38863456919E+04 0.  0.
        5    1    3    3  502    0 -0.83725173813E+02  0.16498459368E+04 -0.19050812778E+04  0.25215785304E+04  0.46999998093E+01 0.  1.
       -5    1    3    3    0  502  0.83725173813E+02 -0.16498459368E+04  0.30744423277E+03  0.16803409078E+04  0.46999998093E+01 0. -1.
</event>
<event>
 5   0  0.3701250E-08  0.3825432E+04  0.7818609E-02  0.8040719E-01
        1   -1    0    0  501    0  0.00000000000E+00  0.00000000000E+00  0.35113020390E+04  0.35113020390E+04  0.50400001928E-02 0. -1.
       -1   -1    0    0    0  501  0.00000000000E+00  0.00000000000E+00 -0.10419163616E+04  0.10419163616E+04  0.50400001928E-02 0.  1.
    10030    2    1    2    0    0  0.00000000000E+00  0.00000000000E+00  0.24693856774E+04  0.45532184006E+04  0.38254322866E+04 0.  0.
        3    1    3    3  502    0  0.16410899699E+03  0.78734969323E+02  0.35009701872E+04  0.35056986779E+04  0.10100000352E+00 0. -1.
       -3    1    3    3    0  502 -0.16410899699E+03 -0.78734969323E+02 -0.10315845098E+04  0.10475197227E+04  0.10100000352E+00 0.  1.
</event>
<event>
 5   0  0.7858367E-08  0.3801913E+04  0.7818609E-02  0.8045744E-01
        2   -1    0    0  501    0  0.00000000000E+00  0.00000000000E+00  0.13285639783E+04  0.13285639783E+04  0.25500000920E-02 0. -1.
       -2   -1    0    0    0  501  0.00000000000E+00  0.00000000000E+00 -0.27199562786E+04  0.27199562786E+04  0.25500000920E-02 0.  1.
    10030    2    1    2    0    0  0.00000000000E+00  0.00000000000E+00 -0.13913923003E+04  0.40485202570E+04  0.38019131681E+04 0.  0.
        2    1    3    3  502    0 -0.14939823502E+04 -0.10711288677E+04 -0.12111778803E+04  0.22014204895E+04  0.25500000920E-02 0.  1.
       -2    1    3    3    0  502  0.14939823502E+04  0.10711288677E+04 -0.18021442000E+03  0.18470997675E+04  0.25500000920E-02 0. -1.
</event>
<event>
 5   0  0.1193861E-07  0.3792897E+04  0.7818609E-02  0.8047681E-01
       -2   -1    0    0    0  501  0.00000000000E+00  0.00000000000E+00  0.32053893448E+04  0.32053893448E+04  0.25500000920E-02 0. -1.
        2   -1    0    0  501    0  0.00000000000E+00  0.00000000000E+00 -0.11220218015E+04  0.11220218015E+04  0.25500000920E-02 0.  1.
    10030    2    1    2    0    0  0.00000000000E+00  0.00000000000E+00  0.20833675432E+04  0.43274111463E+04  0.37928969020E+04 0.  0.
        3    1    3    3  502    0 -0.68279263880E+03 -0.93668456956E+03 -0.67081888748E+03  0.13392467138E+04  0.10100000352E+00 0.  1.
       -3    1    3    3    0  502  0.68279263880E+03  0.93668456956E+03  0.27541864307E+04  0.29881644325E+04  0.10100000352E+00 0. -1.
</event>
<event>
 5   0  0.1193861E-07  0.3871372E+04  0.7818609E-02  0.8031010E-01
        2   -1    0    0  501    0  0.00000000000E+00  0.00000000000E+00  0.17797430670E+04  0.17797430670E+04  0.25500000920E-02 0.  1.
       -2   -1    0    0    0  501  0.00000000000E+00  0.00000000000E+00 -0.21052922857E+04  0.21052922857E+04  0.25500000920E-02 0. -1.
    10030    2    1    2    0    0  0.00000000000E+00  0.00000000000E+00 -0.32554921867E+03  0.38850353528E+04  0.38713715139E+04 0.  0.
        3    1    3    3  502    0  0.11025260851E+04  0.11231613620E+04  0.96806734399E+03  0.18477579944E+04  0.10100000352E+00 0.  1.
       -3    1    3    3    0  502 -0.11025260851E+04 -0.11231613620E+04 -0.12936165627E+04  0.20372773583E+04  0.10100000352E+00 0. -1.
</event>
<event>
 5   0  0.1174870E-07  0.3843459E+04  0.7818609E-02  0.8036893E-01
       -2   -1    0    0    0  501  0.00000000000E+00  0.00000000000E+00  0.11721095342E+04  0.11721095342E+04  0.25500000920E-02 0.  1.
        2   -1    0    0  501    0  0.00000000000E+00  0.00000000000E+00 -0.31507669888E+04  0.31507669888E+04  0.25500000920E-02 0. -1.
    10030    2    1    2    0    0  0.00000000000E+00  0.00000000000E+00 -0.19786574546E+04  0.43228765230E+04  0.38434588732E+04 0.  0.
        5    1    3    3  502    0 -0.76755123518E+03 -0.16759360313E+04 -0.16003466220E+04  0.24411120171E+04  0.46999998093E+01 0.  1.
       -5    1    3    3    0  502  0.76755123518E+03  0.16759360313E+04 -0.37831083266E+03  0.18817645059E+04  0.46999998093E+01 0. -1.
</event>
<event>
 5   0  0.1143283E-07  0.3786020E+04  0.7818609E-02  0.8049162E-01
       -2   -1    0    0    0  501  0.00000000000E+00  0.00000000000E+00  0.27416960012E+04  0.27416960012E+04  0.25500000920E-02 0. -1.
        2   -1    0    0  501    0  0.00000000000E+00  0.00000000000E+00 -0.13070329349E+04  0.13070329349E+04  0.25500000920E-02 0.  1.
    10030    2    1    2    0    0  0.00000000000E+00  0.00000000000E+00  0.14346630663E+04  0.40487289361E+04  0.37860200587E+04 0.  0.
        1    1    3    3  502    0  0.96836175458E+03  0.74668243145E+03  0.22626739689E+04  0.25719550211E+04  0.50400001928E-02 0. -1.
       -1    1    3    3    0  502 -0.96836175458E+03 -0.74668243145E+03 -0.82801090261E+03  0.14767739150E+04  0.50400001928E-02 0.  1.
</event>
<event>
 5   0  0.3889225E-08  0.3909816E+04  0.7818609E-02  0.8022991E-01
        1   -1    0    0  501    0  0.00000000000E+00  0.00000000000E+00  0.22588798882E+04  0.22588798882E+04  0.50400001928E-02 0.  1.
       -1   -1    0    0    0  501  0.00000000000E+00  0.00000000000E+00 -0.16918408632E+04  0.16918408632E+04  0.50400001928E-02 0. -1.
    10030    2    1    2    0    0  0.00000000000E+00  0.00000000000E+00  0.56703902494E+03  0.39507207514E+04  0.39098160059E+04 0.  0.
        5    1    3    3  502    0  0.81448498812E+03  0.15531182589E+04 -0.58927705389E+03  0.18500896352E+04  0.46999998093E+01 0. -1.
       -5    1    3    3    0  502 -0.81448498812E+03 -0.15531182589E+04  0.11563160788E+04  0.21006311162E+04  0.46999998093E+01 0.  1.
</event>
<event>
 5   0  0.3701250E-08  0.3811831E+04  0.7818609E-02  0.8043621E-01
        1   -1    0    0  501    0  0.00000000000E+00  0.00000000000E+00  0.21206184411E+04  0.21206184411E+04  0.50400001928E-02 0.  1.
       -1   -1    0    0    0  501  0.00000000000E+00  0.00000000000E+00 -0.17129505949E+04  0.17129505949E+04  0.50400001928E-02 0. -1.
    10030    2    1    2    0    0  0.00000000000E+00  0.00000000000E+00  0.40766784618E+03  0.38335690360E+04  0.38118313815E+04 0.  0.
        3    1    3    3  502    0  0.82377456077E+03 -0.16213258278E+04  0.77736019670E+03  0.19777742168E+04  0.10100000352E+00 0. -1.
       -3    1    3    3    0  502 -0.82377456077E+03  0.16213258278E+04 -0.36969235052E+03  0.18557948192E+04  0.10100000352E+00 0.  1.
</event>
<event>
 5   0  0.3701250E-08  0.3804509E+04  0.7818609E-02  0.8045188E-01
       -3   -1    0    0    0  501  0.00000000000E+00  0.00000000000E+00  0.13107786268E+04  0.13107786307E+04  0.10100000352E+00 0.  1.
        3   -1    0    0  501    0  0.00000000000E+00  0.00000000000E+00 -0.27606278465E+04  0.27606278484E+04  0.10100000352E+00 0. -1.
    10030    2    1    2    0    0  0.00000000000E+00  0.00000000000E+00 -0.14498492197E+04  0.40714064791E+04  0.38045088984E+04 0.  0.
        5    1    3    3  502    0 -0.90513200913E+03 -0.15209223546E+04 -0.14710301129E+04  0.23013953258E+04  0.46999998093E+01 0. -1.
       -5    1    3    3    0  502  0.90513200913E+03  0.15209223546E+04  0.21180893141E+02  0.17700111533E+04  0.46999998093E+01 0.  1.
</event>
<event>
 5   0  0.3701250E-08  0.3805164E+04  0.7818609E-02  0.8045048E-01
       -1   -1    0    0    0  501  0.00000000000E+00  0.00000000000E+00  0.18224652528E+04  0.18224652528E+04  0.50400001928E-02 0.  1.
        1   -1    0    0  501    0  0.00000000000E+00  0.00000000000E+00 -0.19862202148E+04  0.19862202148E+04  0.50400001928E-02 0. -1.
    10030    2    1    2    0    0  0.00000000000E+00  0.00000000000E+00 -0.16375496198E+03  0.38086854676E+04  0.38051635055E+04 0.  0.
        4    1    3    3  502    0 -0.12227968756E+04 -0.68756792918E+03  0.12045489888E+04  0.18490326486E+04  0.12699999809E+01 0.  1.
       -4    1    3    3    0  502  0.12227968756E+04  0.68756792918E+03 -0.13683039508E+04  0.19596528190E+04  0.12699999809E+01 0. -1.
</event>
<event>
 5   0  0.7858367E-08  0.3835739E+04  0.7818609E-02  0.8038529E-01
        2   -1    0    0  501    0  0.00000000000E+00  0.00000000000E+00  0.19434903221E+04  0.19434903221E+04  0.25500000920E-02 0. -1.
       -2   -1    0    0    0  501  0.00000000000E+00  0.00000000000E+00 -0.18925865414E+04  0.18925865414E+04  0.25500000920E-02 0.  1.
    10030    2    1    2    0    0  0.00000000000E+00  0.00000000000E+00  0.50903780738E+02  0.38360768635E+04  0.38357391084E+04 0.  0.
        2    1    3    3  502    0  0.40692627502E+03  0.17826308290E+04 -0.55327164986E+03  0.19103589151E+04  0.25500000920E-02 0.  1.
       -2    1    3    3    0  502 -0.40692627502E+03 -0.17826308290E+04  0.60417543060E+03  0.19257179484E+04  0.25500000920E-02 0. -1.
</event>
<event>
 5   0  0.3701250E-08  0.3810982E+04  0.7818609E-02  0.8043802E-01
        1   -1    0    0  501    0  0.00000000000E+00  0.00000000000E+00  0.21701809510E+04  0.21701809510E+04  0.50400001928E-02 0.  1.
       -1   -1    0    0    0  501  0.00000000000E+00  0.00000000000E+00 -0.16730845010E+04  0.16730845010E+04  0.50400001928E-02 0. -1.
    10030    2    1    2    0    0  0.00000000000E+00  0.00000000000E+00  0.49709644992E+03  0.38432654520E+04  0.38109820852E+04 0.  0.
        4    1    3    3  502    0  0.12259553947E+04  0.13811556005E+04  0.72192534995E+03  0.19828603698E+04  0.12699999809E+01 0. -1.
       -4    1    3    3    0  502 -0.12259553947E+04 -0.13811556005E+04 -0.22482890003E+03  0.18604050822E+04  0.12699999809E+01 0.  1.
</event>
<event>
 5   0  0.1174870E-07  0.3789583E+04  0.7818609E-02  0.8048394E-01
        2   -1    0    0  501    0  0.00000000000E+00  0.00000000000E+00  0.19382029305E+04  0.19382029305E+04  0.25500000920E-02 0.  1.
       -2   -1    0    0    0  501  0.00000000000E+00  0.00000000000E+00 -0.18523526403E+04  0.18523526403E+04  0.25500000920E-02 0. -1.
    10030    2    1    2    0    0  0.00000000000E+00  0.00000000000E+00  0.85850290236E+02  0.37905555708E+04  0.37895832572E+04 0.  0.
        5    1    3    3  502    0 -0.82764666860E+03 -0.16700255396E+04 -0.29808594774E+03  0.18875544054E+04  0.46999998093E+01 0. -1.
       -5    1    3    3    0  502  0.82764666860E+03  0.16700255396E+04  0.38393623798E+03  0.19030011655E+04  0.46999998093E+01 0.  1.
</event>
<event>
 5   0  0.3701250E-08  0.3798914E+04  0.7818609E-02  0.8046388E-01
       -1   -1    0    0    0  501  0.00000000000E+00  0.00000000000E+00  0.32611515452E+04  0.32611515452E+04  0.50400001928E-02 0.  1.
        1   -1    0    0  501    0  0.00000000000E+00  0.00000000000E+00 -0.11063384544E+04  0.11063384544E+04  0.50400001928E-02 0. -1.
    10030    2    1    2    0    0  0.00000000000E+00  0.00000000000E+00  0.21548130907E+04  0.43674899996E+04  0.37989142450E+04 0.  0.
        3    1    3    3  502    0  0.69009178755E+02 -0.38153580496E+03 -0.10603593786E+04  0.11290234095E+04  0.10100000352E+00 0. -1.
       -3    1    3    3    0  502 -0.69009178755E+02  0.38153580496E+03  0.32151724693E+04  0.32384665901E+04  0.10100000352E+00 0.  1.
</event>
<event>
 5   0  0.7858367E-08  0.3776617E+04  0.7818609E-02  0.8051191E-01
       -2   -1    0    0    0  501  0.00000000000E+00  0.00000000000E+00  0.19707270687E+04  0.19707270687E+04  0.25500000920E-02 0.  1.
        2   -1    0    0  501    0  0.00000000000E+00  0.00000000000E+00 -0.18093370278E+04  0.18093370278E+04  0.25500000920E-02 0. -1.
    10030    2    1    2    0    0  0.00000000000E+00  0.00000000000E+00  0.16139004092E+03  0.37800640965E+04  0.37766172468E+04 0.  0.
        2    1    3    3  502    0  0.11439425511E+04  0.90895296132E+03 -0.11166029930E+04  0.18389133449E+04  0.25500000920E-02 0. -1.
       -2    1    3    3    0  502 -0.11439425511E+04 -0.90895296132E+03  0.12779930339E+04  0.19411507517E+04  0.25500000920E-02 0.  1.
</event>
<event>
 5   0  0.7858367E-08  0.3792034E+04  0.7818609E-02  0.8047866E-01
       -2   -1    0    0    0  501  0.00000000000E+00  0.00000000000E+00  0.24176973480E+04  0.24176973480E+04  0.25500000920E-02 0. -1.
        2   -1    0    0  501    0  0.00000000000E+00  0.00000000000E+00 -0.14869028305E+04  0.14869028305E+04  0.25500000920E-02 0.  1.
    10030    2    1    2    0    0  0.00000000000E+00  0.00000000000E+00  0.93079451747E+03  0.39046001786E+04  0.37920342984E+04 0.  0.
        2    1    3    3  502    0  0.64781954765E+03 -0.25762351998E+03  0.22809278347E+04  0.23850936736E+04  0.25500000920E-02 0. -1.
       -2    1    3    3    0  502 -0.64781954765E+03  0.25762351998E+03 -0.13501333173E+04  0.15195065050E+04  0.25500000920E-02 0.  1.
</event>
<event>
 5   0  0.7858367E-08  0.3790055E+04  0.7818609E-02  0.8048292E-01
        2   -1    0    0  501    0  0.00000000000E+00  0.00000000000E+00  0.10394850242E+04  0.10394850242E+04  0.25500000920E-02 0. -1.
       -2   -1    0    0    0  501  0.00000000000E+00  0.00000000000E+00 -0.34547199399E+04  0.34547199399E+04  0.25500000920E-02 0.  1.
    10030    2    1    2    0    0  0.00000000000E+00  0.00000000000E+00 -0.24152349157E+04  0.44942049641E+04  0.37900552187E+04 0.  0.
        2    1    3    3  502    0  0.46148849295E+03  0.64241277734E+03  0.83437274304E+03  0.11497146080E+04  0.25500000920E-02 0. -1.
       -2    1    3    3    0  502 -0.46148849295E+03 -0.64241277734E+03 -0.32496076588E+04  0.33444903560E+04  0.25500000920E-02 0.  1.
</event>
<event>
 5   0  0.3701250E-08  0.3800951E+04  0.7818609E-02  0.8045951E-01
        1   -1    0    0  501    0  0.00000000000E+00  0.00000000000E+00  0.13870024362E+04  0.13870024362E+04  0.50400001928E-02 0. -1.
       -1   -1    0    0    0  501  0.00000000000E+00  0.00000000000E+00 -0.26040375315E+04  0.26040375315E+04  0.50400001928E-02 0.  1.
    10030    2    1    2    0    0  0.00000000000E+00  0.00000000000E+00 -0.12170350953E+04  0.39910399677E+04  0.38009506180E+04 0.  0.
        4    1    3    3  502    0  0.16346856474E+04 -0.79438713895E+03 -0.25258698300E+02  0.18176599536E+04  0.12699999809E+01 0.  1.
       -4    1    3    3    0  502 -0.16346856474E+04  0.79438713895E+03 -0.11917763970E+04  0.21733800141E+04  0.12699999809E+01 0. -1.
</event>
<event>
 5   0  0.1174870E-07  0.3769602E+04  0.7818609E-02  0.8052710E-01
        2   -1    0    0  501    0  0.00000000000E+00  0.00000000000E+00  0.16602505168E+04  0.16602505168E+04  0.25500000920E-02 0.  1.
       -2   -1    0    0    0  501  0.00000000000E+00  0.00000000000E+00 -0.21397223457E+04  0.21397223457E+04  0.25500000920E-02 0. -1.
    10030    2    1    2    0    0  0.00000000000E+00  0.00000000000E+00 -0.47947182891E+03  0.37999728625E+04  0.37696021702E+04 0.  0.
        5    1    3    3  502    0 -0.69395362842E+03 -0.96928624100E+03  0.12319459931E+04  0.17142929957E+04  0.46999998093E+01 0.  1.
       -5    1    3    3    0  502  0.69395362842E+03  0.96928624100E+03 -0.17114178220E+04  0.20856798668E+04  0.46999998093E+01 0. -1.
</event>
<event>
 5   0  0.1174870E-07  0.3810491E+04  0.7818609E-02  0.8043907E-01
        2   -1    0    0  501    0  0.00000000000E+00  0.00000000000E+00  0.21898374808E+04  0.21898374808E+04  0.25500000920E-02 0. -1.
       -2   -1    0    0    0  501  0.00000000000E+00  0.00000000000E+00 -0.16576392671E+04  0.16576392671E+04  0.25500000920E-02 0.  1.
    10030    2    1    2    0    0  0.00000000000E+00  0.00000000000E+00  0.53219821368E+03  0.38474767479E+04  0.38104910953E+04 0.  0.
        5    1    3    3  502    0 -0.10808593113E+04 -0.32451539422E+03 -0.12838481708E+04  0.17093435312E+04  0.46999998093E+01 0.  1.
       -5    1    3    3    0  502  0.10808593113E+04  0.32451539422E+03  0.18160463845E+04  0.21381332167E+04  0.46999998093E+01 0. -1.
</event>
<event>
 5   0  0.3701250E-08  0.3749203E+04  0.7818609E-02  0.8057145E-01
       -1   -1    0    0    0  501  0.00000000000E+00  0.00000000000E+00  0.27445294683E+04  0.27445294683E+04  0.50400001928E-02 0. -1.
        1   -1    0    0  501    0  0.00000000000E+00  0.00000000000E+00 -0.12804126407E+04  0.12804126407E+04  0.50400001928E-02 0.  1.
    10030    2    1    2    0    0  0.00000000000E+00  0.00000000000E+00  0.14641168276E+04  0.40249421090E+04  0.37492027014E+04 0.  0.
        4    1    3    3  502    0 -0.11750142047E+04 -0.14339754478E+04  0.10303123423E+04  0.21209641915E+04  0.12699999809E+01 0. -1.
       -4    1    3    3    0  502  0.11750142047E+04  0.14339754478E+04  0.43380448528E+03  0.19039779175E+04  0.12699999809E+01 0.  1.
</event>
<event>
 5   0  0.3701250E-08  0.3796715E+04  0.7818609E-02  0.8046860E-01
       -1   -1    0    0    0  501  0.00000000000E+00  0.00000000000E+00  0.14213958249E+04  0.14213958249E+04  0.50400001928E-02 0. -1.
        1   -1    0    0  501    0  0.00000000000E+00  0.00000000000E+00 -0.25353681263E+04  0.25353681263E+04  0.50400001928E-02 0.  1.
    10030    2    1    2    0    0  0.00000000000E+00  0.00000000000E+00 -0.11139723014E+04  0.39567639512E+04  0.37967152483E+04 0.  0.
        3    1    3    3  502    0  0.91234731552E+03  0.15758446272E+04  0.23875525906E+01  0.18208980267E+04  0.10100000352E+00 0.  1.
       -3    1    3    3    0  502 -0.91234731552E+03 -0.15758446272E+04 -0.11163598540E+04  0.21358659244E+04  0.10100000352E+00 0. -1.
</event>
<event>
 5   0  0.3701250E-08  0.3808862E+04  0.7818609E-02  0.8044256E-01
       -1   -1    0    0    0  501  0.00000000000E+00  0.00000000000E+00  0.14845871237E+04  0.14845871238E+04  0.50400001928E-02 0.  1.
        1   -1    0    0  501    0  0.00000000000E+00  0.00000000000E+00 -0.24430071812E+04  0.24430071812E+04  0.50400001928E-02 0. -1.
    10030    2    1    2    0    0  0.00000000000E+00  0.00000000000E+00 -0.95842005744E+03  0.39275943049E+04  0.38088617746E+04 0.  0.
        2    1    3    3  502    0 -0.45208213422E+03 -0.24263367963E+03  0.14119752341E+04  0.15023060341E+04  0.25500000920E-02 0.  1.
       -2    1    3    3    0  502  0.45208213422E+03  0.24263367963E+03 -0.23703952915E+04  0.24252882708E+04  0.25500000920E-02 0. -1.
</event>
<event>
 5   0  0.1143283E-07  0.3738446E+04  0.7818609E-02  0.8059495E-01
       -2   -1    0    0    0  501  0.00000000000E+00  0.00000000000E+00  0.16404367714E+04  0.16404367714E+04  0.25500000920E-02 0.  1.
        2   -1    0    0  501    0  0.00000000000E+00  0.00000000000E+00 -0.21299170867E+04  0.21299170867E+04  0.25500000920E-02 0. -1.
    10030    2    1    2    0    0  0.00000000000E+00  0.00000000000E+00 -0.48948031530E+03  0.37703538582E+04  0.37384458317E+04 0.  0.
        1    1    3    3  502    0  0.12310331723E+04 -0.11229988963E+04  0.60949867121E+03  0.17742767041E+04  0.50400001928E-02 0.  1.
       -1    1    3    3    0  502 -0.12310331723E+04  0.11229988963E+04 -0.10989789865E+04  0.19960771541E+04  0.50400001928E-02 0. -1.
</event>
<event>
 5   0  0.3701250E-08  0.3800336E+04  0.7818609E-02  0.8046083E-01
       -1   -1    0    0    0  501  0.00000000000E+00  0.00000000000E+00  0.12209799803E+04  0.12209799804E+04  0.50400001928E-02 0.  1.
        1   -1    0    0  501    0  0.00000000000E+00  0.00000000000E+00 -0.29571645874E+04  0.29571645874E+04  0.50400001928E-02 0. -1.
    10030    2    1    2    0    0  0.00000000000E+00  0.00000000000E+00 -0.17361846070E+04  0.41781445677E+04  0.38003361745E+04 0.  0.
        4    1    3    3  502    0  0.17723997684E+04 -0.61332782996E+03 -0.12034861269E+04  0.22284417059E+04  0.12699999809E+01 0.  1.
       -4    1    3    3    0  502 -0.17723997684E+04  0.61332782996E+03 -0.53269848007E+03  0.19497028618E+04  0.12699999809E+01 0. -1.
</event>
<event>
 5   0  0.1143283E-07  0.3799911E+04  0.7818609E-02  0.8046174E-01
        2   -1    0    0  501    0  0.00000000000E+00  0.00000000000E+00  0.23771554354E+04  0.23771554354E+04  0.25500000920E-02 0.  1.
       -2   -1    0    0    0  501  0.00000000000E+00  0.00000000000E+00 -0.15185504895E+04  0.15185504895E+04  0.25500000920E-02 0. -1.
    10030    2    1    2    0    0  0.00000000000E+00  0.00000000000E+00  0.85860494582E+03  0.38957059249E+04  0.37999108148E+04 0.  0.
        1    1    3    3  502    0  0.11738733728E+04 -0.14655340007E+04  0.13205889127E+03  0.18823411363E+04  0.50400001928E-02 0. -1.
       -1    1    3    3    0  502 -0.11738733728E+04  0.14655340007E+04  0.72654605455E+03  0.20133647886E+04  0.50400001928E-02 0.  1.
</event>
<event>
 5   0  0.1143283E-07  0.3798188E+04  0.7818609E-02  0.8046544E-01
        2   -1    0    0  501    0  0.00000000000E+00  0.00000000000E+00  0.25315255420E+04  0.25315255420E+04  0.25500000920E-02 0. -1.
       -2   -1    0    0    0  501  0.00000000000E+00  0.00000000000E+00 -0.14246579751E+04  0.14246579751E+04  0.25500000920E-02 0.  1.
    10030    2    1    2    0    0  0.00000000000E+00  0.00000000000E+00  0.11068675669E+04  0.39561835171E+04  0.37981880168E+04 0.  0.
        1    1    3    3  502    0  0.10262100465E+04  0.71128950671E+03  0.20438715908E+04  0.23950889131E+04  0.50400001928E-02 0. -1.
       -1    1    3    3    0  502 -0.10262100465E+04 -0.71128950671E+03 -0.93700402388E+03  0.15610946040E+04  0.50400001928E-02 0.  1.
</event>
<event>
 5   0  0.1150235E-07  0.3794369E+04  0.7818609E-02  0.8047364E-01
       -2   -1    0    0    0  501  0.00000000000E+00  0.00000000000E+00  0.21873372419E+04  0.21873372419E+04  0.25500000920E-02 0.  1.
        2   -1    0    0  501    0  0.00000000000E+00  0.00000000000E+00 -0.16455206845E+04  0.16455206845E+04  0.25500000920E-02 0. -1.
    10030    2    1    2    0    0  0.00000000000E+00  0.00000000000E+00  0.54181655744E+03  0.38328579263E+04  0.37943688147E+04 0.  0.
        4    1    3    3  502    0  0.97362374961E+03 -0.11890122773E+04 -0.85285730274E+03  0.17575723579E+04  0.12699999809E+01 0. -1.
       -4    1    3    3    0  502 -0.97362374961E+03  0.11890122773E+04  0.13946738602E+04  0.20752855685E+04  0.12699999809E+01 0.  1.
</event>
<event>
 5   0  0.1193861E-07  0.3812275E+04  0.7818609E-02  0.8043526E-01
       -2   -1    0    0    0  501  0.00000000000E+00  0.00000000000E+00  0.15944697223E+04  0.15944697223E+04  0.25500000920E-02 0.  1.
        2   -1    0    0  501    0  0.00000000000E+00  0.00000000000E+00 -0.22787258139E+04  0.22787258139E+04  0.25500000920E-02 0. -1.
    10030    2    1    2    0    0  0.00000000000E+00  0.00000000000E+00 -0.68425609162E+03  0.38731955362E+04  0.38122745523E+04 0.  0.
        3    1    3    3  502    0  0.11729483405E+04  0.80501748343E+03 -0.16310615717E+04  0.21643065446E+04  0.10100000352E+00 0. -1.
       -3    1    3    3    0  502 -0.11729483405E+04 -0.80501748343E+03  0.94680548011E+03  0.17088889916E+04  0.10100000352E+00 0.  1.
</event>
<event>
 5   0  0.3889225E-08  0.3786069E+04  0.7818609E-02  0.8049151E-01
       -1   -1    0    0    0  501  0.00000000000E+00  0.00000000000E+00  0.14149335445E+04  0.14149335446E+04  0.50400001928E-02 0. -1.
        1   -1    0    0  501    0  0.00000000000E+00  0.00000000000E+00 -0.25326843429E+04  0.25326843429E+04  0.50400001928E-02 0.  1.
    10030    2    1    2    0    0  0.00000000000E+00  0.00000000000E+00 -0.11177507983E+04  0.39476178874E+04  0.37860692199E+04 0.  0.
        5    1    3    3  502    0 -0.75729600218E+03 -0.12781923720E+04  0.66433380944E+03  0.16274625879E+04  0.46999998093E+01 0. -1.
       -5    1    3    3    0  502  0.75729600218E+03  0.12781923720E+04 -0.17820846078E+04  0.23201552995E+04  0.46999998093E+01 0.  1.
</event>
<event>
 5   0  0.1143283E-07  0.3803645E+04  0.7818609E-02  0.8045373E-01
        2   -1    0    0  501    0  0.00000000000E+00  0.00000000000E+00  0.14601305445E+04  0.14601305445E+04  0.25500000920E-02 0.  1.
       -2   -1    0    0    0  501  0.00000000000E+00  0.00000000000E+00 -0.24771273732E+04  0.24771273733E+04  0.25500000920E-02 0. -1.
    10030    2    1    2    0    0  0.00000000000E+00  0.00000000000E+00 -0.10169968288E+04  0.39372579177E+04  0.38036452727E+04 0.  0.
        1    1    3    3  502    0  0.13191177156E+04  0.36463422795E+03 -0.18754546333E+04  0.23217148295E+04  0.50400001928E-02 0. -1.
       -1    1    3    3    0  502 -0.13191177156E+04 -0.36463422795E+03  0.85845780451E+03  0.16155430882E+04  0.50400001928E-02 0.  1.
</event>
<event>
 5   0  0.3701250E-08  0.3770483E+04  0.7818609E-02  0.8052519E-01
       -1   -1    0    0    0  501  0.00000000000E+00  0.00000000000E+00  0.14696008880E+04  0.14696008880E+04  0.50400001928E-02 0.  1.
        1   -1    0    0  501    0  0.00000000000E+00  0.00000000000E+00 -0.24184361837E+04  0.24184361837E+04  0.50400001928E-02 0. -1.
    10030    2    1    2    0    0  0.00000000000E+00  0.00000000000E+00 -0.94883529573E+03  0.38880370717E+04  0.37704832386E+04 0.  0.
        2    1    3    3  502    0 -0.17916105648E+04  0.39702678294E+03 -0.28933164197E+02  0.18353026481E+04  0.25500000920E-02 0.  1.
       -2    1    3    3    0  502  0.17916105648E+04 -0.39702678294E+03 -0.91990213153E+03  0.20527344236E+04  0.25500000920E-02 0. -1.
</event>
<event>
 5   0  0.3701250E-08  0.3795464E+04  0.7818609E-02  0.8047129E-01
       -1   -1    0    0    0  501  0.00000000000E+00  0.00000000000E+00  0.14946336932E+04  0.14946336932E+04  0.50400001928E-02 0.  1.
        1   -1    0    0  501    0  0.00000000000E+00  0.00000000000E+00 -0.24095444663E+04  0.24095444663E+04  0.50400001928E-02 0. -1.
    10030    2    1    2    0    0  0.00000000000E+00  0.00000000000E+00 -0.91491077307E+03  0.39041781596E+04  0.37954637897E+04 0.  0.
        1    1    3    3  502    0  0.60297425688E+02  0.19215103929E+03 -0.23985214043E+04  0.24069613060E+04  0.50400001928E-02 0. -1.
       -1    1    3    3    0  502 -0.60297425688E+02 -0.19215103929E+03  0.14836106313E+04  0.14972168536E+04  0.50400001928E-02 0.  1.
</event>
<event>
 5   0  0.3701250E-08  0.3796021E+04  0.7818609E-02  0.8047009E-01
        1   -1    0    0  501    0  0.00000000000E+00  0.00000000000E+00  0.17673653718E+04  0.17673653718E+04  0.50400001928E-02 0. -1.
       -1   -1    0    0    0  501  0.00000000000E+00  0.00000000000E+00 -0.20383127642E+04  0.20383127642E+04  0.50400001928E-02 0.  1.
    10030    2    1    2    0    0  0.00000000000E+00  0.00000000000E+00 -0.27094739242E+03  0.38056781360E+04  0.37960207567E+04 0.  0.
        1    1    3    3  502    0 -0.45522501207E+03 -0.90027117384E+03 -0.17472719535E+04  0.20175919502E+04  0.50400001928E-02 0.  1.
       -1    1    3    3    0  502  0.45522501207E+03  0.90027117384E+03  0.14763245611E+04  0.17880861858E+04  0.50400001928E-02 0. -1.
</event>
<event>
 5   0  0.3701250E-08  0.3830474E+04  0.7818609E-02  0.8039647E-01
       -1   -1    0    0    0  501  0.00000000000E+00  0.00000000000E+00  0.13890142745E+04  0.13890142745E+04  0.50400001928E-02 0. -1.
        1   -1    0    0  501    0  0.00000000000E+00  0.00000000000E+00 -0.26408170001E+04  0.26408170001E+04  0.50400001928E-02 0.  1.
    10030    2    1    2    0    0  0.00000000000E+00  0.00000000000E+00 -0.12518027256E+04  0.40298312747E+04  0.38304738660E+04 0.  0.
        3    1    3    3  502    0 -0.45133000401E+02 -0.15956220082E+04 -0.17393239520E+04  0.23607825824E+04  0.10100000352E+00 0.  1.
       -3    1    3    3    0  502  0.45133000401E+02  0.15956220082E+04  0.48752122641E+03  0.16690486923E+04  0.10100000352E+00 0. -1.
</event>
<event>
 5   0  0.7858367E-08  0.3813324E+04  0.7818609E-02  0.8043302E-01
        2   -1    0    0  501    0  0.00000000000E+00  0.00000000000E+00  0.16335777420E+04  0.16335777420E+04  0.25500000920E-02 0.  1.
       -2   -1    0    0    0  501  0.00000000000E+00  0.00000000000E+00 -0.22253981760E+04  0.22253981760E+04  0.25500000920E-02 0. -1.
    10030    2    1    2    0    0  0.00000000000E+00  0.00000000000E+00 -0.59182043396E+03  0.38589759180E+04  0.38133244957E+04 0.  0.
        2    1    3    3  502    0  0.95190556710E+03  0.15871706088E+04 -0.75979313973E+03  0.20006299921E+04  0.25500000920E-02 0. -1.
       -2    1    3    3    0  502 -0.95190556710E+03 -0.15871706088E+04  0.16797270578E+03  0.18583459258E+04  0.25500000920E-02 0.  1.
</event>
<event>
 5   0  0.3889225E-08  0.3800302E+04  0.7818609E-02  0.8046090E-01
       -1   -1    0    0    0  501  0.00000000000E+00  0.00000000000E+00  0.29794001048E+04  0.29794001048E+04  0.50400001928E-02 0.  1.
        1   -1    0    0  501    0  0.00000000000E+00  0.00000000000E+00 -0.12118460585E+04  0.12118460585E+04  0.50400001928E-02 0. -1.
    10030    2    1    2    0    0  0.00000000000E+00  0.00000000000E+00  0.17675540463E+04  0.41912461633E+04  0.38003022373E+04 0.  0.
        5    1    3    3  502    0 -0.14458832867E+03  0.31555229853E+03  0.29441331625E+04  0.29645271472E+04  0.46999998093E+01 0.  1.
       -5    1    3    3    0  502  0.14458832867E+03 -0.31555229853E+03 -0.11765791162E+04  0.12267190161E+04  0.46999998093E+01 0. -1.
</event>
<event>
 5   0  0.1174870E-07  0.3809784E+04  0.7818609E-02  0.8044058E-01
       -2   -1    0    0    0  501  0.00000000000E+00  0.00000000000E+00  0.16862002733E+04  0.16862002733E+04  0.25500000920E-02 0.  1.
        2   -1    0    0  501    0  0.00000000000E+00  0.00000000000E+00 -0.21519473563E+04  0.21519473563E+04  0.25500000920E-02 0. -1.
    10030    2    1    2    0    0  0.00000000000E+00  0.00000000000E+00 -0.46574708302E+03  0.38381476297E+04  0.38097843616E+04 0.  0.
        5    1    3    3  502    0 -0.47457766030E+03 -0.10763873998E+04  0.12765324774E+04  0.17359121654E+04  0.46999998093E+01 0.  1.
       -5    1    3    3    0  502  0.47457766030E+03  0.10763873998E+04 -0.17422795605E+04  0.21022354642E+04  0.46999998093E+01 0. -1.
</event>
<event>
 5   0  0.1174870E-07  0.3820289E+04  0.7818609E-02  0.8041815E-01
       -2   -1    0    0    0  501  0.00000000000E+00  0.00000000000E+00  0.15342285140E+04  0.15342285140E+04  0.25500000920E-02 0.  1.
        2   -1    0    0  501    0  0.00000000000E+00  0.00000000000E+00 -0.23781669834E+04  0.23781669834E+04  0.25500000920E-02 0. -1.
    10030    2    1    2    0    0  0.00000000000E+00  0.00000000000E+00 -0.84393846934E+03  0.39123954974E+04  0.38202887833E+04 0.  0.
        5    1    3    3  502    0 -0.18827721621E+03  0.11252988677E+04 -0.19908586653E+04  0.22946211380E+04  0.46999998093E+01 0. -1.
       -5    1    3    3    0  502  0.18827721621E+03 -0.11252988677E+04  0.11469201960E+04  0.16177743593E+04  0.46999998093E+01 0.  1.
</event>
<event>
 5   0  0.1174870E-07  0.3796081E+04  0.7818609E-02  0.8046996E-01
        2   -1    0    0  501    0  0.00000000000E+00  0.00000000000E+00  0.25224707674E+04  0.25224707674E+04  0.25500000920E-02 0. -1.
       -2   -1    0    0    0  501  0.00000000000E+00  0.00000000000E+00 -0.14281862632E+04  0.14281862632E+04  0.25500000920E-02 0.  1.
    10030    2    1    2    0    0  0.00000000000E+00  0.00000000000E+00  0.10942845043E+04  0.39506570306E+04  0.37960811895E+04 0.  0.
        5    1    3    3  502    0  0.17693499285E+04  0.42638873444E+03  0.11077121482E+04  0.21305996376E+04  0.46999998093E+01 0.  1.
       -5    1    3    3    0  502 -0.17693499285E+04 -0.42638873444E+03 -0.13427643918E+02  0.18200573930E+04  0.46999998093E+01 0. -1.
</event>
<event>
 5   0  0.3701250E-08  0.3798927E+04  0.7818609E-02  0.8046385E-01
       -1   -1    0    0    0  501  0.00000000000E+00  0.00000000000E+00  0.15967557864E+04  0.15967557864E+04  0.50400001928E-02 0. -1.
        1   -1    0    0  501    0  0.00000000000E+00  0.00000000000E+00 -0.22595574074E+04  0.22595574074E+04  0.50400001928E-02 0.  1.
    10030    2    1    2    0    0  0.00000000000E+00  0.00000000000E+00 -0.66280162093E+03  0.38563131938E+04  0.37989268827E+04 0.  0.
        1    1    3    3  502    0  0.55183422219E+03  0.65412700674E+03  0.13899621174E+04  0.16322983298E+04  0.50400001928E-02 0. -1.
       -1    1    3    3    0  502 -0.55183422219E+03 -0.65412700674E+03 -0.20527637383E+04  0.22240148640E+04  0.50400001928E-02 0.  1.
</event>
<event>
 5   0  0.3701250E-08  0.3809799E+04  0.7818609E-02  0.8044055E-01
        1   -1    0    0  501    0  0.00000000000E+00  0.00000000000E+00  0.17882911338E+04  0.17882911339E+04  0.50400001928E-02 0. -1.
       -1   -1    0    0    0  501  0.00000000000E+00  0.00000000000E+00 -0.20291109990E+04  0.20291109990E+04  0.50400001928E-02 0.  1.
    10030    2    1    2    0    0  0.00000000000E+00  0.00000000000E+00 -0.24081986515E+03  0.38174021329E+04  0.38097985296E+04 0.  0.
        2    1    3    3  502    0 -0.17173089648E+04  0.76777147196E+03 -0.42103889102E+03  0.19276661696E+04  0.25500000920E-02 0.  1.
       -2    1    3    3    0  502  0.17173089648E+04 -0.76777147196E+03  0.18021902588E+03  0.18897359633E+04  0.25500000920E-02 0. -1.
</event>
<event>
 5   0  0.1150235E-07  0.3806459E+04  0.7818609E-02  0.8044770E-01
        2   -1    0    0  501    0  0.00000000000E+00  0.00000000000E+00  0.25571515441E+04  0.25571515441E+04  0.25500000920E-02 0.  1.
       -2   -1    0    0    0  501  0.00000000000E+00  0.00000000000E+00 -0.14165302078E+04  0.14165302078E+04  0.25500000920E-02 0. -1.
    10030    2    1    2    0    0  0.00000000000E+00  0.00000000000E+00  0.11406213364E+04  0.39736817519E+04  0.38064589361E+04 0.  0.
        4    1    3    3  502    0  0.10833674603E+04 -0.15154944403E+04  0.97713908312E+03  0.21036185142E+04  0.12699999809E+01 0. -1.
       -4    1    3    3    0  502 -0.10833674603E+04  0.15154944403E+04  0.16348225324E+03  0.18700632376E+04  0.12699999809E+01 0.  1.
</event>
<event>
 5   0  0.1143283E-07  0.3805191E+04  0.7818609E-02  0.8045042E-01
        2   -1    0    0  501    0  0.00000000000E+00  0.00000000000E+00  0.14362749962E+04  0.14362749962E+04  0.25500000920E-02 0. -1.
       -2   -1    0    0    0  501  0.00000000000E+00  0.00000000000E+00 -0.25203175045E+04  0.25203175045E+04  0.25500000920E-02 0.  1.
    10030    2    1    2    0    0  0.00000000000E+00  0.00000000000E+00 -0.10840425083E+04  0.39565925007E+04  0.38051906729E+04 0.  0.
        1    1    3    3  502    0 -0.58837314294E+03 -0.15599934442E+03 -0.24163387721E+04  0.24918290095E+04  0.50400001928E-02 0.  1.
       -1    1    3    3    0  502  0.58837314294E+03  0.15599934442E+03  0.13322962638E+04  0.14647634912E+04  0.50400001928E-02 0. -1.
</event>
<event>
 5   0  0.3889225E-08  0.3804717E+04  0.7818609E-02  0.8045143E-01
       -1   -1    0    0    0  501  0.00000000000E+00  0.00000000000E+00  0.14945966537E+04  0.14945966537E+04  0.50400001928E-02 0.  1.
        1   -1    0    0  501    0  0.00000000000E+00  0.00000000000E+00 -0.24213680043E+04  0.24213680043E+04  0.50400001928E-02 0. -1.
    10030    2    1    2    0    0  0.00000000000E+00  0.00000000000E+00 -0.92677135065E+03  0.39159646580E+04  0.38047173438E+04 0.  0.
        5    1    3    3  502    0  0.17697098857E+04 -0.55190537365E+03 -0.23726004493E+02  0.18539303207E+04  0.46999998093E+01 0. -1.
       -5    1    3    3    0  502 -0.17697098857E+04  0.55190537365E+03 -0.90304534616E+03  0.20620343373E+04  0.46999998093E+01 0.  1.
</event>
<event>
 5   0  0.3701250E-08  0.3799926E+04  0.7818609E-02  0.8046171E-01
        1   -1    0    0  501    0  0.00000000000E+00  0.00000000000E+00  0.17057255825E+04  0.17057255825E+04  0.50400001928E-02 0. -1.
       -1   -1    0    0    0  501  0.00000000000E+00  0.00000000000E+00 -0.21163185045E+04  0.21163185045E+04  0.50400001928E-02 0.  1.
    10030    2    1    2    0    0  0.00000000000E+00  0.00000000000E+00 -0.41059292201E+03  0.38220440871E+04  0.37999255856E+04 0.  0.
        2    1    3    3  502    0 -0.12478649078E+04  0.93561519712E+02  0.12326888918E+04  0.17565427664E+04  0.25500000920E-02 0. -1.
       -2    1    3    3    0  502  0.12478649078E+04 -0.93561519712E+02 -0.16432818138E+04  0.20655013207E+04  0.25500000920E-02 0.  1.
</event>
<event>
 5   0  0.1193861E-07  0.3701725E+04  0.7818609E-02  0.8067580E-01
       -2   -1    0    0    0  501  0.00000000000E+00  0.00000000000E+00  0.20917493719E+04  0.20917493719E+04  0.25500000920E-02 0. -1.
        2   -1    0    0  501    0  0.00000000000E+00  0.00000000000E+00 -0.16377167046E+04  0.16377167046E+04  0.25500000920E-02 0.  1.
    10030    2    1    2    0    0  0.00000000000E+00  0.00000000000E+00  0.45403266734E+03  0.37294660766E+04  0.37017254832E+04 0.  0.
        3    1    3    3  502    0 -0.21588186573E+03 -0.18280103336E+04  0.42202854333E+03  0.18884742151E+04  0.10100000352E+00 0. -1.
       -3    1    3    3    0  502  0.21588186573E+03  0.18280103336E+04  0.32004124012E+02  0.18409918614E+04  0.10100000352E+00 0.  1.
</event>
<event>
 5   0  0.3889225E-08  0.3758199E+04  0.7818609E-02  0.8055185E-01
       -1   -1    0    0    0  501  0.00000000000E+00  0.00000000000E+00  0.17009740366E+04  0.17009740366E+04  0.50400001928E-02 0.  1.
        1   -1    0    0  501    0  0.00000000000E+00  0.00000000000E+00 -0.20758780523E+04  0.20758780524E+04  0.50400001928E-02 0. -1.
    10030    2    1    2    0    0  0.00000000000E+00  0.00000000000E+00 -0.37490401575E+03  0.37768520890E+04  0.37581988613E+04 0.  0.
        5    1    3    3  502    0 -0.54710539718E+03  0.16099401465E+04 -0.99127254471E+03  0.19682161819E+04  0.46999998093E+01 0.  1.
       -5    1    3    3    0  502  0.54710539718E+03 -0.16099401465E+04  0.61636852896E+03  0.18086359071E+04  0.46999998093E+01 0. -1.
</event>
<event>
 5   0  0.1174870E-07  0.3800852E+04  0.7818609E-02  0.8045972E-01
       -2   -1    0    0    0  501  0.00000000000E+00  0.00000000000E+00  0.16457408888E+04  0.16457408888E+04  0.25500000920E-02 0. -1.
        2   -1    0    0  501    0  0.00000000000E+00  0.00000000000E+00 -0.21945252427E+04  0.21945252427E+04  0.25500000920E-02 0.  1.
    10030    2    1    2    0    0  0.00000000000E+00  0.00000000000E+00 -0.54878435386E+03  0.38402661315E+04  0.38008524956E+04 0.  0.
        5    1    3    3  502    0  0.76381506294E+03  0.65804505101E+02  0.14825631795E+04  0.16690594221E+04  0.46999998093E+01 0. -1.
       -5    1    3    3    0  502 -0.76381506294E+03 -0.65804505101E+02 -0.20313475334E+04  0.21712067094E+04  0.46999998093E+01 0.  1.
</event>
<event>
 5   0  0.1174870E-07  0.3683815E+04  0.7818609E-02  0.8071558E-01
       -2   -1    0    0    0  501  0.00000000000E+00  0.00000000000E+00  0.15062475561E+04  0.15062475561E+04  0.25500000920E-02 0.  1.
        2   -1    0    0  501    0  0.00000000000E+00  0.00000000000E+00 -0.22523679291E+04  0.22523679291E+04  0.25500000920E-02 0. -1.
    10030    2    1    2    0    0  0.00000000000E+00  0.00000000000E+00 -0.74612037301E+03  0.37586154852E+04  0.36838152443E+04 0.  0.
        5    1    3    3  502    0  0.88756609036E+02 -0.73373058607E+03  0.13483137490E+04  0.15375988958E+04  0.46999998093E+01 0.  1.
       -5    1    3    3    0  502 -0.88756609036E+02  0.73373058607E+03 -0.20944341220E+04  0.22210165893E+04  0.46999998093E+01 0. -1.
</event>
<event>
 5   0  0.1143283E-07  0.3801935E+04  0.7818609E-02  0.8045740E-01
       -2   -1    0    0    0  501  0.00000000000E+00  0.00000000000E+00  0.14362385649E+04  0.14362385649E+04  0.25500000920E-02 0. -1.
        2   -1    0    0  501    0  0.00000000000E+00  0.00000000000E+00 -0.25160702704E+04  0.25160702704E+04  0.25500000920E-02 0.  1.
    10030    2    1    2    0    0  0.00000000000E+00  0.00000000000E+00 -0.10798317055E+04  0.39523088353E+04  0.38019348519E+04 0.  0.
        1    1    3    3  502    0 -0.92610936745E+03  0.95645091683E+03  0.87066087248E+03  0.15907631099E+04  0.50400001928E-02 0. -1.
       -1    1    3    3    0  502  0.92610936745E+03 -0.95645091683E+03 -0.19504925780E+04  0.23615457255E+04  0.50400001928E-02 0.  1.
</event>
<event>
 5   0  0.3701250E-08  0.3810366E+04  0.7818609E-02  0.8043934E-01
       -1   -1    0    0    0  501  0.00000000000E+00  0.00000000000E+00  0.21693327543E+04  0.21693327543E+04  0.50400001928E-02 0. -1.
        1   -1    0    0  501    0  0.00000000000E+00  0.00000000000E+00 -0.16731977672E+04  0.16731977672E+04  0.50400001928E-02 0.  1.
    10030    2    1    2    0    0  0.00000000000E+00  0.00000000000E+00  0.49613498708E+03  0.38425305216E+04  0.38103662401E+04 0.  0.
        2    1    3    3  502    0  0.13663524616E+04 -0.12661609041E+04 -0.15485525399E+03  0.18692411920E+04  0.25500000920E-02 0.  1.
       -2    1    3    3    0  502 -0.13663524616E+04  0.12661609041E+04  0.65099024107E+03  0.19732893296E+04  0.25500000920E-02 0. -1.
</event>
<event>
 5   0  0.3889225E-08  0.3793538E+04  0.7818609E-02  0.8047543E-01
        1   -1    0    0  501    0  0.00000000000E+00  0.00000000000E+00  0.27838161093E+04  0.27838161093E+04  0.50400001928E-02 0. -1.
       -1   -1    0    0    0  501  0.00000000000E+00  0.00000000000E+00 -0.12923745455E+04  0.12923745455E+04  0.50400001928E-02 0.  1.
    10030    2    1    2    0    0  0.00000000000E+00  0.00000000000E+00  0.14914415638E+04  0.40761906549E+04  0.37935382318E+04 0.  0.
        5    1    3    3  502    0 -0.48338417724E+03  0.84972985990E+03  0.24922555813E+04  0.26771367298E+04  0.46999998093E+01 0. -1.
       -5    1    3    3    0  502  0.48338417724E+03 -0.84972985990E+03 -0.10008140175E+04  0.13990539250E+04  0.46999998093E+01 0.  1.
</event>
<event>
 5   0  0.3701250E-08  0.3800185E+04  0.7818609E-02  0.8046115E-01
        1   -1    0    0  501    0  0.00000000000E+00  0.00000000000E+00  0.20487028432E+04  0.20487028432E+04  0.50400001928E-02 0.  1.
       -1   -1    0    0    0  501  0.00000000000E+00  0.00000000000E+00 -0.17622623582E+04  0.17622623582E+04  0.50400001928E-02 0. -1.
    10030    2    1    2    0    0  0.00000000000E+00  0.00000000000E+00  0.28644048499E+03  0.38109652014E+04  0.38001852079E+04 0.  0.
        3    1    3    3  502    0  0.90113352371E+03  0.16428094316E+04  0.45953127688E+03  0.19292572303E+04  0.10100000352E+00 0.  1.
       -3    1    3    3    0  502 -0.90113352371E+03 -0.16428094316E+04 -0.17309079189E+03  0.18817079711E+04  0.10100000352E+00 0. -1.
</event>
<event>
 5   0  0.3701250E-08  0.3804695E+04  0.7818609E-02  0.8045148E-01
        1   -1    0    0  501    0  0.00000000000E+00  0.00000000000E+00  0.17623688298E+04  0.17623688298E+04  0.50400001928E-02 0. -1.
       -1   -1    0    0    0  501  0.00000000000E+00  0.00000000000E+00 -0.20534438169E+04  0.20534438169E+04  0.50400001928E-02 0.  1.
    10030    2    1    2    0    0  0.00000000000E+00  0.00000000000E+00 -0.29107498702E+03  0.38158126467E+04  0.38046946667E+04 0.  0.
        1    1    3    3  502    0  0.40316648257E+03 -0.86101629110E+03  0.15070132298E+04  0.17818476761E+04  0.50400001928E-02 0. -1.
       -1    1    3    3    0  502 -0.40316648257E+03  0.86101629110E+03 -0.17980882168E+04  0.20339649706E+04  0.50400001928E-02 0.  1.
</event>
<event>
 5   0  0.3889225E-08  0.3799896E+04  0.7818609E-02  0.8046177E-01
       -1   -1    0    0    0  501  0.00000000000E+00  0.00000000000E+00  0.25397231028E+04  0.25397231028E+04  0.50400001928E-02 0.  1.
        1   -1    0    0  501    0  0.00000000000E+00  0.00000000000E+00 -0.14213371103E+04  0.14213371103E+04  0.50400001928E-02 0. -1.
    10030    2    1    2    0    0  0.00000000000E+00  0.00000000000E+00  0.11183859924E+04  0.39610602131E+04  0.37998961543E+04 0.  0.
        5    1    3    3  502    0 -0.16196655836E+03 -0.15562190354E+04  0.16827426556E+04  0.22977588618E+04  0.46999998093E+01 0.  1.
       -5    1    3    3    0  502  0.16196655836E+03  0.15562190354E+04 -0.56435666315E+03  0.16633013513E+04  0.46999998093E+01 0. -1.
</event>
<event>
 5   0  0.3701250E-08  0.3795033E+04  0.7818609E-02  0.8047222E-01
        1   -1    0    0  501    0  0.00000000000E+00  0.00000000000E+00  0.13482515976E+04  0.13482515976E+04  0.50400001928E-02 0. -1.
       -1   -1    0    0    0  501  0.00000000000E+00  0.00000000000E+00 -0.26705473284E+04  0.26705473284E+04  0.50400001928E-02 0.  1.
    10030    2    1    2    0    0  0.00000000000E+00  0.00000000000E+00 -0.13222957308E+04  0.40187989260E+04  0.37950334397E+04 0.  0.
        2    1    3    3  502    0  0.12980269615E+02  0.38826205297E+03  0.13056893912E+04  0.13622557379E+04  0.25500000920E-02 0. -1.
       -2    1    3    3    0  502 -0.12980269615E+02 -0.38826205297E+03 -0.26279851220E+04  0.26565431881E+04  0.25500000920E-02 0.  1.
</event>
<event>
 5   0  0.3701250E-08  0.3800094E+04  0.7818609E-02  0.8046135E-01
       -1   -1    0    0    0  501  0.00000000000E+00  0.00000000000E+00  0.25726041990E+04  0.25726041990E+04  0.50400001928E-02 0. -1.
        1   -1    0    0  501    0  0.00000000000E+00  0.00000000000E+00 -0.14033167403E+04  0.14033167403E+04  0.50400001928E-02 0.  1.
    10030    2    1    2    0    0  0.00000000000E+00  0.00000000000E+00  0.11692874587E+04  0.39759209394E+04  0.38000939666E+04 0.  0.
        3    1    3    3  502    0  0.91577560428E+03  0.38797161498E+03 -0.11092176867E+04  0.14898089871E+04  0.10100000352E+00 0.  1.
       -3    1    3    3    0  502 -0.91577560428E+03 -0.38797161498E+03  0.22785051454E+04  0.24861119523E+04  0.10100000352E+00 0. -1.
</event>
<event>
 5   0  0.1150235E-07  0.3800796E+04  0.7818609E-02  0.8045984E-01
        2   -1    0    0  501    0  0.00000000000E+00  0.00000000000E+00  0.18717760197E+04  0.18717760197E+04  0.25500000920E-02 0.  1.
       -2   -1    0    0    0  501  0.00000000000E+00  0.00000000000E+00 -0.19294578988E+04  0.19294578988E+04  0.25500000920E-02 0. -1.
    10030    2    1    2    0    0  0.00000000000E+00  0.00000000000E+00 -0.57681879119E+02  0.38012339184E+04  0.38007962460E+04 0.  0.
        4    1    3    3  502    0  0.10778635103E+04 -0.10421248680E+04  0.11390680942E+04  0.18828945067E+04  0.12699999809E+01 0.  1.
       -4    1    3    3    0  502 -0.10778635103E+04  0.10421248680E+04 -0.11967499733E+04  0.19183394118E+04  0.12699999809E+01 0. -1.
</event>
<event>
 5   0  0.3701250E-08  0.3797477E+04  0.7818609E-02  0.8046697E-01
        1   -1    0    0  501    0  0.00000000000E+00  0.00000000000E+00  0.16398618449E+04  0.16398618449E+04  0.50400001928E-02 0.  1.
       -1   -1    0    0    0  501  0.00000000000E+00  0.00000000000E+00 -0.21984827216E+04  0.21984827216E+04  0.50400001928E-02 0. -1.
    10030    2    1    2    0    0  0.00000000000E+00  0.00000000000E+00 -0.55862087670E+03  0.38383445665E+04  0.37974770213E+04 0.  0.
        3    1    3    3  502    0 -0.85691446043E+03 -0.75311054806E+03  0.12548281569E+04  0.16958984650E+04  0.10100000352E+00 0.  1.
       -3    1    3    3    0  502  0.85691446043E+03  0.75311054806E+03 -0.18134490336E+04  0.21424461015E+04  0.10100000352E+00 0. -1.
</event>
<event>
 5   0  0.1193861E-07  0.3790230E+04  0.7818609E-02  0.8048255E-01
       -2   -1    0    0    0  501  0.00000000000E+00  0.00000000000E+00  0.15985561167E+04  0.15985561167E+04  0.25500000920E-02 0.  1.
        2   -1    0    0  501    0  0.00000000000E+00  0.00000000000E+00 -0.22466901579E+04  0.22466901579E+04  0.25500000920E-02 0. -1.
    10030    2    1    2    0    0  0.00000000000E+00  0.00000000000E+00 -0.64813404126E+03  0.38452462746E+04  0.37902296998E+04 0.  0.
        3    1    3    3  502    0 -0.46925014581E+03 -0.60366527883E+03  0.14351309475E+04  0.16261021847E+04  0.10100000352E+00 0.  1.
       -3    1    3    3    0  502  0.46925014581E+03  0.60366527883E+03 -0.20832649888E+04  0.22191440899E+04  0.10100000352E+00 0. -1.
</event>
<event>
 5   0  0.1193861E-07  0.3800907E+04  0.7818609E-02  0.8045960E-01
        2   -1    0    0  501    0  0.00000000000E+00  0.00000000000E+00  0.29444174919E+04  0.29444174919E+04  0.25500000920E-02 0.  1.
       -2   -1    0    0    0  501  0.00000000000E+00  0.00000000000E+00 -0.12266343009E+04  0.12266343009E+04  0.25500000920E-02 0. -1.
    10030    2    1    2    0    0  0.00000000000E+00  0.00000000000E+00  0.17177831910E+04  0.41710517927E+04  0.38009069926E+04 0.  0.
        3    1    3    3  502    0 -0.18030760918E+04 -0.30429905321E+03  0.14270375339E+04  0.23195080168E+04  0.10100000352E+00 0.  1.
       -3    1    3    3    0  502  0.18030760918E+04  0.30429905321E+03  0.29074565710E+03  0.18515437759E+04  0.10100000352E+00 0. -1.
</event>
<event>
 5   0  0.1174870E-07  0.3741929E+04  0.7818609E-02  0.8058733E-01
        2   -1    0    0  501    0  0.00000000000E+00  0.00000000000E+00  0.11218240897E+04  0.11218240897E+04  0.25500000920E-02 0.  1.
       -2   -1    0    0    0  501  0.00000000000E+00  0.00000000000E+00 -0.31203721082E+04  0.31203721082E+04  0.25500000920E-02 0. -1.
    10030    2    1    2    0    0  0.00000000000E+00  0.00000000000E+00 -0.19985480185E+04  0.42421961979E+04  0.37419292349E+04 0.  0.
        5    1    3    3  502    0  0.51862534418E+03  0.97128739917E+03  0.71560746665E+03  0.13131974702E+04  0.46999998093E+01 0.  1.
       -5    1    3    3    0  502 -0.51862534418E+03 -0.97128739917E+03 -0.27141554851E+04  0.29289987277E+04  0.46999998093E+01 0. -1.
</event>
<event>
 5   0  0.1174870E-07  0.3800053E+04  0.7818609E-02  0.8046143E-01
        2   -1    0    0  501    0  0.00000000000E+00  0.00000000000E+00  0.13362654381E+04  0.13362654381E+04  0.25500000920E-02 0.  1.
       -2   -1    0    0    0  501  0.00000000000E+00  0.00000000000E+00 -0.27016349483E+04  0.27016349483E+04  0.25500000920E-02 0. -1.
    10030    2    1    2    0    0  0.00000000000E+00  0.00000000000E+00 -0.13653695102E+04  0.40379003864E+04  0.38000533722E+04 0.  0.
        5    1    3    3  502    0  0.31848877985E+03  0.13904254939E+04  0.65100855133E+03  0.15679771621E+04  0.46999998093E+01 0.  1.
       -5    1    3    3    0  502 -0.31848877985E+03 -0.13904254939E+04 -0.20163780616E+04  0.24699232243E+04  0.46999998093E+01 0. -1.
</event>
<event>
 5   0  0.3889225E-08  0.3807949E+04  0.7818609E-02  0.8044451E-01
        1   -1    0    0  501    0  0.00000000000E+00  0.00000000000E+00  0.25091614874E+04  0.25091614874E+04  0.50400001928E-02 0.  1.
       -1   -1    0    0    0  501  0.00000000000E+00  0.00000000000E+00 -0.14447529157E+04  0.14447529157E+04  0.50400001928E-02 0. -1.
    10030    2    1    2    0    0  0.00000000000E+00  0.00000000000E+00  0.10644085717E+04  0.39539144030E+04  0.38079487259E+04 0.  0.
        5    1    3    3  502    0 -0.18216041979E+04  0.60964855748E+02  0.11038884459E+04  0.21308567194E+04  0.46999998093E+01 0. -1.
       -5    1    3    3    0  502  0.18216041979E+04 -0.60964855748E+02 -0.39479874225E+02  0.18230576837E+04  0.46999998093E+01 0.  1.
</event>
<event>
 5   0  0.3701250E-08  0.3808386E+04  0.7818609E-02  0.8044358E-01
       -1   -1    0    0    0  501  0.00000000000E+00  0.00000000000E+00  0.26384150304E+04  0.26384150304E+04  0.50400001928E-02 0.  1.
        1   -1    0    0  501    0  0.00000000000E+00  0.00000000000E+00 -0.13742910527E+04  0.13742910527E+04  0.50400001928E-02 0. -1.
    10030    2    1    2    0    0  0.00000000000E+00  0.00000000000E+00  0.12641239777E+04  0.40127060831E+04  0.38083855738E+04 0.  0.
        2    1    3    3  502    0  0.58507009299E+02 -0.17934632044E+04 -0.39318102885E+02  0.17948479738E+04  0.25500000920E-02 0. -1.
       -2    1    3    3    0  502 -0.58507009299E+02  0.17934632044E+04  0.13034420806E+04  0.22178581093E+04  0.25500000920E-02 0.  1.
</event>
<event>
 5   0  0.1174870E-07  0.3806935E+04  0.7818609E-02  0.8044668E-01
       -2   -1    0    0    0  501  0.00000000000E+00  0.00000000000E+00  0.14230534330E+04  0.14230534330E+04  0.25500000920E-02 0. -1.
        2   -1    0    0  501    0  0.00000000000E+00  0.00000000000E+00 -0.25460659823E+04  0.25460659823E+04  0.25500000920E-02 0.  1.
    10030    2    1    2    0    0  0.00000000000E+00  0.00000000000E+00 -0.11230125494E+04  0.39691194153E+04  0.38069346917E+04 0.  0.
        5    1    3    3  502    0  0.51074225714E+03 -0.44545430328E+03 -0.24160140061E+04  0.25092694070E+04  0.46999998093E+01 0.  1.
       -5    1    3    3    0  502 -0.51074225714E+03  0.44545430328E+03  0.12930014567E+04  0.14598500083E+04  0.46999998093E+01 0. -1.
</event>
<event>
 5   0  0.1150235E-07  0.3819156E+04  0.7818609E-02  0.8042057E-01
       -2   -1    0    0    0  501  0.00000000000E+00  0.00000000000E+00  0.20174643091E+04  0.20174643091E+04  0.25500000920E-02 0. -1.
        2   -1    0    0  501    0  0.00000000000E+00  0.00000000000E+00 -0.18074606094E+04  0.18074606094E+04  0.25500000920E-02 0.  1.
    10030    2    1    2    0    0  0.00000000000E+00  0.00000000000E+00  0.21000369967E+03  0.38249249186E+04  0.38191555453E+04 0.  0.
        4    1    3    3  502    0  0.16311416385E+03 -0.13179752278E+04  0.14792338370E+04  0.19879133002E+04  0.12699999809E+01 0. -1.
       -4    1    3    3    0  502 -0.16311416385E+03  0.13179752278E+04 -0.12692301374E+04  0.18370116184E+04  0.12699999809E+01 0.  1.
</event>
<event>
 5   0  0.3701250E-08  0.3674432E+04  0.7818609E-02  0.8073652E-01
        1   -1    0    0  501    0  0.00000000000E+00  0.00000000000E+00  0.15375612176E+04  0.15375612176E+04  0.50400001928E-02 0.  1.
       -1   -1    0    0    0  501  0.00000000000E+00  0.00000000000E+00 -0.21952699956E+04  0.21952699957E+04  0.50400001928E-02 0. -1.
    10030    2    1    2    0    0  0.00000000000E+00  0.00000000000E+00 -0.65770877802E+03  0.37328312133E+04  0.36744316608E+04 0.  0.
        2    1    3    3  502    0  0.12914529665E+04  0.79293535488E+03 -0.13839979550E+04  0.20523273572E+04  0.25500000920E-02 0. -1.
       -2    1    3    3    0  502 -0.12914529665E+04 -0.79293535488E+03  0.72628917694E+03  0.16805038561E+04  0.25500000920E-02 0.  1.
</event>
<event>
 5   0  0.1143283E-07  0.3801852E+04  0.7818609E-02  0.8045758E-01
       -2   -1    0    0    0  501  0.00000000000E+00  0.00000000000E+00  0.10204156684E+04  0.10204156684E+04  0.25500000920E-02 0. -1.
        2   -1    0    0  501    0  0.00000000000E+00  0.00000000000E+00 -0.35412234094E+04  0.35412234094E+04  0.25500000920E-02 0.  1.
    10030    2    1    2    0    0  0.00000000000E+00  0.00000000000E+00 -0.25208077410E+04  0.45616390778E+04  0.38018521025E+04 0.  0.
        1    1    3    3  502    0 -0.44651282338E+03 -0.23554722604E+03 -0.34593214919E+04  0.34959635841E+04  0.50400001928E-02 0.  1.
       -1    1    3    3    0  502  0.44651282338E+03  0.23554722604E+03  0.93851375094E+03  0.10656754937E+04  0.50400001928E-02 0. -1.
</event>
<event>
 5   0  0.3701250E-08  0.3791838E+04  0.7818609E-02  0.8047909E-01
       -1   -1    0    0    0  501  0.00000000000E+00  0.00000000000E+00  0.31235032870E+04  0.31235032870E+04  0.50400001928E-02 0.  1.
        1   -1    0    0  501    0  0.00000000000E+00  0.00000000000E+00 -0.11507942432E+04  0.11507942432E+04  0.50400001928E-02 0. -1.
    10030    2    1    2    0    0  0.00000000000E+00  0.00000000000E+00  0.19727090438E+04  0.42742975303E+04  0.37918383940E+04 0.  0.
        4    1    3    3  502    0  0.97981449830E+03  0.38123122146E+03  0.27647940158E+04  0.29579488261E+04  0.12699999809E+01 0.  1.
       -4    1    3    3    0  502 -0.97981449830E+03 -0.38123122146E+03 -0.79208497197E+03  0.13163487042E+04  0.12699999809E+01 0. -1.
</event>
<event>
 5   0  0.1193861E-07  0.3784488E+04  0.7818609E-02  0.8049492E-01
       -2   -1    0    0    0  501  0.00000000000E+00  0.00000000000E+00  0.15567503934E+04  0.15567503934E+04  0.25500000920E-02 0.  1.
        2   -1    0    0  501    0  0.00000000000E+00  0.00000000000E+00 -0.23000399905E+04  0.23000399905E+04  0.25500000920E-02 0. -1.
    10030    2    1    2    0    0  0.00000000000E+00  0.00000000000E+00 -0.74328959708E+03  0.38567903839E+04  0.37844884252E+04 0.  0.
        3    1    3    3  502    0  0.29571785030E+03  0.18677168948E+04 -0.44204940825E+03  0.19419637318E+04  0.10100000352E+00 0.  1.
       -3    1    3    3    0  502 -0.29571785030E+03 -0.18677168948E+04 -0.30124018882E+03  0.19148266521E+04  0.10100000352E+00 0. -1.
</event>
<event>
 5   0  0.3701250E-08  0.3817043E+04  0.7818609E-02  0.8042507E-01
       -1   -1    0    0    0  501  0.00000000000E+00  0.00000000000E+00  0.16590414716E+04  0.16590414716E+04  0.50400001928E-02 0.  1.
        1   -1    0    0  501    0  0.00000000000E+00  0.00000000000E+00 -0.21955176312E+04  0.21955176312E+04  0.50400001928E-02 0. -1.
    10030    2    1    2    0    0  0.00000000000E+00  0.00000000000E+00 -0.53647615960E+03  0.38545591027E+04  0.38170432545E+04 0.  0.
        4    1    3    3  502    0 -0.16326089496E+04 -0.11042560749E+03  0.72368259253E+03  0.17892243864E+04  0.12699999809E+01 0.  1.
       -4    1    3    3    0  502  0.16326089496E+04  0.11042560749E+03 -0.12601587521E+04  0.20653347164E+04  0.12699999809E+01 0. -1.
</event>
<event>
 5   0  0.1193861E-07  0.3801549E+04  0.7818609E-02  0.8045822E-01
       -2   -1    0    0    0  501  0.00000000000E+00  0.00000000000E+00  0.16884339315E+04  0.16884339315E+04  0.25500000920E-02 0.  1.
        2   -1    0    0  501    0  0.00000000000E+00  0.00000000000E+00 -0.21398197784E+04  0.21398197784E+04  0.25500000920E-02 0. -1.
    10030    2    1    2    0    0  0.00000000000E+00  0.00000000000E+00 -0.45138584684E+03  0.38282537099E+04  0.38015493269E+04 0.  0.
        3    1    3    3  502    0 -0.16769108794E+04  0.52002087297E+03 -0.95915845292E+03  0.20006090957E+04  0.10100000352E+00 0. -1.
       -3    1    3    3    0  502  0.16769108794E+04 -0.52002087297E+03  0.50777260609E+03  0.18276446141E+04  0.10100000352E+00 0.  1.
</event>
<event>
 5   0  0.7858367E-08  0.3791801E+04  0.7818609E-02  0.8047917E-01
       -2   -1    0    0    0  501  0.00000000000E+00  0.00000000000E+00  0.32074177866E+04  0.32074177866E+04  0.25500000920E-02 0.  1.
        2   -1    0    0  501    0  0.00000000000E+00  0.00000000000E+00 -0.11206640740E+04  0.11206640740E+04  0.25500000920E-02 0. -1.
    10030    2    1    2    0    0  0.00000000000E+00  0.00000000000E+00  0.20867537126E+04  0.43280818606E+04  0.37918005663E+04 0.  0.
        2    1    3    3  502    0  0.15187768051E+03 -0.14793172735E+04 -0.29895447798E+03  0.15168454784E+04  0.25500000920E-02 0. -1.
       -2    1    3    3    0  502 -0.15187768051E+03  0.14793172735E+04  0.23857081906E+04  0.28112363821E+04  0.25500000920E-02 0.  1.
</event>
<event>
 5   0  0.7858367E-08  0.3785130E+04  0.7818609E-02  0.8049354E-01
       -2   -1    0    0    0  501  0.00000000000E+00  0.00000000000E+00  0.16386681092E+04  0.16386681092E+04  0.25500000920E-02 0.  1.
        2   -1    0    0  501    0  0.00000000000E+00  0.00000000000E+00 -0.21858007227E+04  0.21858007227E+04  0.25500000920E-02 0. -1.
    10030    2    1    2    0    0  0.00000000000E+00  0.00000000000E+00 -0.54713261357E+03  0.38244688319E+04  0.37851298194E+04 0.  0.
        2    1    3    3  502    0  0.18270551137E+04  0.32070494175E+02  0.22414127786E+03  0.18410318350E+04  0.25500000920E-02 0.  1.
       -2    1    3    3    0  502 -0.18270551137E+04 -0.32070494175E+02 -0.77127389143E+03  0.19834369969E+04  0.25500000920E-02 0. -1.
</event>
<event>
 5   0  0.7858367E-08  0.3789100E+04  0.7818609E-02  0.8048498E-01
       -2   -1    0    0    0  501  0.00000000000E+00  0.00000000000E+00  0.25764643574E+04  0.25764643574E+04  0.25500000920E-02 0. -1.
        2   -1    0    0  501    0  0.00000000000E+00  0.00000000000E+00 -0.13931185730E+04  0.13931185730E+04  0.25500000920E-02 0.  1.
    10030    2    1    2    0    0  0.00000000000E+00  0.00000000000E+00  0.11833457844E+04  0.39695829304E+04  0.37891003412E+04 0.  0.
        2    1    3    3  502    0  0.10372364299E+04 -0.44567190287E+03  0.21856020935E+04  0.24599470254E+04  0.25500000920E-02 0. -1.
       -2    1    3    3    0  502 -0.10372364299E+04  0.44567190287E+03 -0.10022563091E+04  0.15096359050E+04  0.25500000920E-02 0.  1.
</event>
<event>
 5   0  0.3701250E-08  0.3793655E+04  0.7818609E-02  0.8047518E-01
       -1   -1    0    0    0  501  0.00000000000E+00  0.00000000000E+00  0.12722399710E+04  0.12722399710E+04  0.50400001928E-02 0.  1.
        1   -1    0    0  501    0  0.00000000000E+00  0.00000000000E+00 -0.28280463659E+04  0.28280463659E+04  0.50400001928E-02 0. -1.
    10030    2    1    2    0    0  0.00000000000E+00  0.00000000000E+00 -0.15558063949E+04  0.41002863369E+04  0.37936545054E+04 0.  0.
        2    1    3    3  502    0 -0.15126862316E+04 -0.10908932241E+04 -0.11518226184E+04  0.21920225833E+04  0.25500000920E-02 0. -1.
       -2    1    3    3    0  502  0.15126862316E+04  0.10908932241E+04 -0.40398377647E+03  0.19082637536E+04  0.25500000920E-02 0.  1.
</event>
<event>
 5   0  0.7858367E-08  0.3794467E+04  0.7818609E-02  0.8047343E-01
       -2   -1    0    0    0  501  0.00000000000E+00  0.00000000000E+00  0.19367102555E+04  0.19367102555E+04  0.25500000920E-02 0. -1.
        2   -1    0    0  501    0  0.00000000000E+00  0.00000000000E+00 -0.18585613848E+04  0.18585613848E+04  0.25500000920E-02 0.  1.
    10030    2    1    2    0    0  0.00000000000E+00  0.00000000000E+00  0.78148870753E+02  0.37952716403E+04  0.37944669689E+04 0.  0.
        2    1    3    3  502    0  0.30632658305E+03  0.31488406998E+03 -0.18069894564E+04  0.18596233082E+04  0.25500000920E-02 0.  1.
       -2    1    3    3    0  502 -0.30632658305E+03 -0.31488406998E+03  0.18851383272E+04  0.19356483321E+04  0.25500000920E-02 0. -1.
</event>
<event>
 5   0  0.1174870E-07  0.3803157E+04  0.7818609E-02  0.8045478E-01
        2   -1    0    0  501    0  0.00000000000E+00  0.00000000000E+00  0.24970488149E+04  0.24970488149E+04  0.25500000920E-02 0.  1.
       -2   -1    0    0    0  501  0.00000000000E+00  0.00000000000E+00 -0.14481095913E+04  0.14481095913E+04  0.25500000920E-02 0. -1.
    10030    2    1    2    0    0  0.00000000000E+00  0.00000000000E+00  0.10489392236E+04  0.39451584062E+04  0.38031567618E+04 0.  0.
        5    1    3    3  502    0  0.74968167073E+03  0.20307788073E+03  0.23249949806E+04  0.24513031193E+04  0.46999998093E+01 0.  1.
       -5    1    3    3    0  502 -0.74968167073E+03 -0.20307788073E+03 -0.12760557570E+04  0.14938552868E+04  0.46999998093E+01 0. -1.
</event>
<event>
 5   0  0.1193861E-07  0.3780371E+04  0.7818609E-02  0.8050380E-01
       -2   -1    0    0    0  501  0.00000000000E+00  0.00000000000E+00  0.13153669340E+04  0.13153669340E+04  0.25500000920E-02 0. -1.
        2   -1    0    0  501    0  0.00000000000E+00  0.00000000000E+00 -0.27162011013E+04  0.27162011013E+04  0.25500000920E-02 0.  1.
    10030    2    1    2    0    0  0.00000000000E+00  0.00000000000E+00 -0.14008341673E+04  0.40315680353E+04  0.37803709420E+04 0.  0.
        3    1    3    3  502    0  0.55552172638E+03 -0.18056332294E+04 -0.76689157828E+03  0.20388816666E+04  0.10100000352E+00 0.  1.
       -3    1    3    3    0  502 -0.55552172638E+03  0.18056332294E+04 -0.63394258903E+03  0.19926863687E+04  0.10100000352E+00 0. -1.
</event>
<event>
 5   0  0.1143283E-07  0.3798668E+04  0.7818609E-02  0.8046441E-01
       -2   -1    0    0    0  501  0.00000000000E+00  0.00000000000E+00  0.12449932621E+04  0.12449932622E+04  0.25500000920E-02 0.  1.
        2   -1    0    0  501    0  0.00000000000E+00  0.00000000000E+00 -0.28975820352E+04  0.28975820352E+04  0.25500000920E-02 0. -1.
    10030    2    1    2    0    0  0.00000000000E+00  0.00000000000E+00 -0.16525887730E+04  0.41425752973E+04  0.37986682457E+04 0.  0.
        1    1    3    3  502    0 -0.25308183564E+03  0.87534886275E+03 -0.26436561101E+04  0.27962839047E+04  0.50400001928E-02 0. -1.
       -1    1    3    3    0  502  0.25308183564E+03 -0.87534886275E+03  0.99106733712E+03  0.13462913926E+04  0.50400001928E-02 0.  1.
</event>
<event>
 5   0  0.3701250E-08  0.3790569E+04  0.7818609E-02  0.8048182E-01
       -1   -1    0    0    0  501  0.00000000000E+00  0.00000000000E+00  0.12864729494E+04  0.12864729494E+04  0.50400001928E-02 0.  1.
        1   -1    0    0  501    0  0.00000000000E+00  0.00000000000E+00 -0.27922106116E+04  0.27922106116E+04  0.50400001928E-02 0. -1.
    10030    2    1    2    0    0  0.00000000000E+00  0.00000000000E+00 -0.15057376622E+04  0.40786835611E+04  0.37905690449E+04 0.  0.
        3    1    3    3  502    0  0.84008134235E+03 -0.15026043119E+04 -0.16059384797E+04  0.23542716051E+04  0.10100000352E+00 0. -1.
       -3    1    3    3    0  502 -0.84008134235E+03  0.15026043119E+04  0.10020081749E+03  0.17244119560E+04  0.10100000352E+00 0.  1.
</event>
<event>
 5   0  0.3701250E-08  0.3811222E+04  0.7818609E-02  0.8043751E-01
        1   -1    0    0  501    0  0.00000000000E+00  0.00000000000E+00  0.25385399555E+04  0.25385399555E+04  0.50400001928E-02 0. -1.
       -1   -1    0    0    0  501  0.00000000000E+00  0.00000000000E+00 -0.14304888998E+04  0.14304888998E+04  0.50400001928E-02 0.  1.
    10030    2    1    2    0    0  0.00000000000E+00  0.00000000000E+00  0.11080510557E+04  0.39690288553E+04  0.38112219710E+04 0.  0.
        1    1    3    3  502    0 -0.59681546928E+03 -0.17153532599E+04 -0.46683976190E+02  0.18168117416E+04  0.50400001928E-02 0.  1.
       -1    1    3    3    0  502  0.59681546928E+03  0.17153532599E+04  0.11547350319E+04  0.21522171137E+04  0.50400001928E-02 0. -1.
</event>
<event>
 5   0  0.1143283E-07  0.3773887E+04  0.7818609E-02  0.8051782E-01
        2   -1    0    0  501    0  0.00000000000E+00  0.00000000000E+00  0.21913556651E+04  0.21913556651E+04  0.25500000920E-02 0. -1.
       -2   -1    0    0    0  501  0.00000000000E+00  0.00000000000E+00 -0.16248187966E+04  0.16248187966E+04  0.25500000920E-02 0.  1.
    10030    2    1    2    0    0  0.00000000000E+00  0.00000000000E+00  0.56653686844E+03  0.38161744617E+04  0.37738870543E+04 0.  0.
        1    1    3    3  502    0 -0.17251667650E+04 -0.30560970653E+03 -0.42526702221E+03  0.18029003578E+04  0.50400001928E-02 0.  1.
       -1    1    3    3    0  502  0.17251667650E+04  0.30560970653E+03  0.99180389065E+03  0.20132741039E+04  0.50400001928E-02 0. -1.
</event>
<event>
 5   0  0.1174870E-07  0.3807649E+04  0.7818609E-02  0.8044516E-01
       -2   -1    0    0    0  501  0.00000000000E+00  0.00000000000E+00  0.25377557022E+04  0.25377557022E+04  0.25500000920E-02 0. -1.
        2   -1    0    0  501    0  0.00000000000E+00  0.00000000000E+00 -0.14282489395E+04  0.14282489395E+04  0.25500000920E-02 0.  1.
    10030    2    1    2    0    0  0.00000000000E+00  0.00000000000E+00  0.11095067628E+04  0.39660046417E+04  0.38076485606E+04 0.  0.
        5    1    3    3  502    0 -0.37810881496E+03  0.12973136223E+04 -0.84211637813E+03  0.15922220306E+04  0.46999998093E+01 0.  1.
       -5    1    3    3    0  502  0.37810881496E+03 -0.12973136223E+04  0.19516231409E+04  0.23737826111E+04  0.46999998093E+01 0. -1.
</event>
<event>
 5   0  0.7858367E-08  0.3788210E+04  0.7818609E-02  0.8048690E-01
        2   -1    0    0  501    0  0.00000000000E+00  0.00000000000E+00  0.26335785498E+04  0.26335785498E+04  0.25500000920E-02 0.  1.
       -2   -1    0    0    0  501  0.00000000000E+00  0.00000000000E+00 -0.13622656201E+04  0.13622656201E+04  0.25500000920E-02 0. -1.
    10030    2    1    2    0    0  0.00000000000E+00  0.00000000000E+00  0.12713129297E+04  0.39958441699E+04  0.37882098760E+04 0.  0.
        2    1    3    3  502    0 -0.16272236280E+04  0.90233212749E+03  0.26187003362E+03  0.18789986478E+04  0.25500000920E-02 0. -1.
       -2    1    3    3    0  502  0.16272236280E+04 -0.90233212749E+03  0.10094428961E+04  0.21168455221E+04  0.25500000920E-02 0.  1.
</event>
<event>
 5   0  0.3701250E-08  0.3811998E+04  0.7818609E-02  0.8043585E-01
       -3   -1    0    0    0  501  0.00000000000E+00  0.00000000000E+00  0.32702152022E+04  0.32702152038E+04  0.10100000352E+00 0.  1.
        3   -1    0    0  501    0  0.00000000000E+00  0.00000000000E+00 -0.11108846001E+04  0.11108846047E+04  0.10100000352E+00 0. -1.
    10030    2    1    2    0    0  0.00000000000E+00  0.00000000000E+00  0.21593306021E+04  0.43810998085E+04  0.38119977549E+04 0.  0.
        4    1    3    3  502    0 -0.14375447851E+04 -0.81983431750E+03 -0.71100484936E+01  0.16549064877E+04  0.12699999809E+01 0. -1.
       -4    1    3    3    0  502  0.14375447851E+04  0.81983431750E+03  0.21664406506E+04  0.27261933208E+04  0.12699999809E+01 0.  1.
</event>
<event>
 5   0  0.3701250E-08  0.3789578E+04  0.7818609E-02  0.8048395E-01
       -1   -1    0    0    0  501  0.00000000000E+00  0.00000000000E+00  0.28265090379E+04  0.28265090379E+04  0.50400001928E-02 0.  1.
        1   -1    0    0  501    0  0.00000000000E+00  0.00000000000E+00 -0.12701974952E+04  0.12701974952E+04  0.50400001928E-02 0. -1.
    10030    2    1    2    0    0  0.00000000000E+00  0.00000000000E+00  0.15563115427E+04  0.40967065331E+04  0.37895776546E+04 0.  0.
        4    1    3    3  502    0 -0.24652246898E+03 -0.20529852461E+03 -0.12406235156E+04  0.12814324532E+04  0.12699999809E+01 0. -1.
       -4    1    3    3    0  502  0.24652246898E+03  0.20529852461E+03  0.27969350582E+04  0.28152740799E+04  0.12699999809E+01 0.  1.
</event>
<event>
 5   0  0.7858367E-08  0.3791732E+04  0.7818609E-02  0.8047932E-01
        2   -1    0    0  501    0  0.00000000000E+00  0.00000000000E+00  0.17756381667E+04  0.17756381667E+04  0.25500000920E-02 0.  1.
       -2   -1    0    0    0  501  0.00000000000E+00  0.00000000000E+00 -0.20242343942E+04  0.20242343943E+04  0.25500000920E-02 0. -1.
    10030    2    1    2    0    0  0.00000000000E+00  0.00000000000E+00 -0.24859622752E+03  0.37998725610E+04  0.37917319783E+04 0.  0.
        2    1    3    3  502    0  0.89485989068E+03 -0.16210424569E+04  0.28370613907E+03  0.18732437227E+04  0.25500000920E-02 0.  1.
       -2    1    3    3    0  502 -0.89485989068E+03  0.16210424569E+04 -0.53230236659E+03  0.19266288383E+04  0.25500000920E-02 0. -1.
</event>
<event>
 5   0  0.1150235E-07  0.3805142E+04  0.7818609E-02  0.8045052E-01
       -2   -1    0    0    0  501  0.00000000000E+00  0.00000000000E+00  0.22324305500E+04  0.22324305500E+04  0.25500000920E-02 0.  1.
        2   -1    0    0  501    0  0.00000000000E+00  0.00000000000E+00 -0.16214511687E+04  0.16214511687E+04  0.25500000920E-02 0. -1.
    10030    2    1    2    0    0  0.00000000000E+00  0.00000000000E+00  0.61097938131E+03  0.38538817187E+04  0.38051423755E+04 0.  0.
        4    1    3    3  502    0 -0.87606331691E+03  0.10255747758E+04  0.16644983331E+04  0.21423927907E+04  0.12699999809E+01 0.  1.
       -4    1    3    3    0  502  0.87606331691E+03 -0.10255747758E+04 -0.10535189518E+04  0.17114889280E+04  0.12699999809E+01 0. -1.
</event>
<event>
 5   0  0.7858367E-08  0.3805545E+04  0.7818609E-02  0.8044966E-01
       -2   -1    0    0    0  501  0.00000000000E+00  0.00000000000E+00  0.20209503029E+04  0.20209503029E+04  0.25500000920E-02 0. -1.
        2   -1    0    0  501    0  0.00000000000E+00  0.00000000000E+00 -0.17915055786E+04  0.17915055786E+04  0.25500000920E-02 0.  1.
    10030    2    1    2    0    0  0.00000000000E+00  0.00000000000E+00  0.22944472430E+03  0.38124558816E+04  0.38055452917E+04 0.  0.
        2    1    3    3  502    0  0.18559801909E+04 -0.23262818963E+02  0.53421908669E+03  0.19314744783E+04  0.25500000920E-02 0. -1.
       -2    1    3    3    0  502 -0.18559801909E+04  0.23262818963E+02 -0.30477436239E+03  0.18809814033E+04  0.25500000920E-02 0.  1.
</event>
<event>
 5   0  0.3701250E-08  0.3761459E+04  0.7818609E-02  0.8054477E-01
       -1   -1    0    0    0  501  0.00000000000E+00  0.00000000000E+00  0.17465408771E+04  0.17465408771E+04  0.50400001928E-02 0. -1.
        1   -1    0    0  501    0  0.00000000000E+00  0.00000000000E+00 -0.20252278152E+04  0.20252278152E+04  0.50400001928E-02 0.  1.
    10030    2    1    2    0    0  0.00000000000E+00  0.00000000000E+00 -0.27868693809E+03  0.37717686923E+04  0.37614588472E+04 0.  0.
        3    1    3    3  502    0  0.17027850537E+04  0.79797737691E+03 -0.10928930663E+03  0.18836637162E+04  0.10100000352E+00 0. -1.
       -3    1    3    3    0  502 -0.17027850537E+04 -0.79797737691E+03 -0.16939763146E+03  0.18881049761E+04  0.10100000352E+00 0.  1.
</event>
<event>
 5   0  0.3701250E-08  0.3790345E+04  0.7818609E-02  0.8048230E-01
        3   -1    0    0  501    0  0.00000000000E+00  0.00000000000E+00  0.22226471132E+04  0.22226471155E+04  0.10100000352E+00 0.  1.
       -3   -1    0    0    0  501  0.00000000000E+00  0.00000000000E+00 -0.16159465289E+04  0.16159465320E+04  0.10100000352E+00 0. -1.
    10030    2    1    2    0    0  0.00000000000E+00  0.00000000000E+00  0.60670058430E+03  0.38385936475E+04  0.37903450492E+04 0.  0.
        2    1    3    3  502    0 -0.22672411397E+03 -0.18366978342E+04  0.71698067003E+03  0.19846722750E+04  0.25500000920E-02 0.  1.
       -2    1    3    3    0  502  0.22672411397E+03  0.18366978342E+04 -0.11028008573E+03  0.18539213725E+04  0.25500000920E-02 0. -1.
</event>
<event>
 5   0  0.3701250E-08  0.3810643E+04  0.7818609E-02  0.8043875E-01
        1   -1    0    0  501    0  0.00000000000E+00  0.00000000000E+00  0.21556401460E+04  0.21556401460E+04  0.50400001928E-02 0. -1.
       -1   -1    0    0    0  501  0.00000000000E+00  0.00000000000E+00 -0.16840707773E+04  0.16840707773E+04  0.50400001928E-02 0.  1.
    10030    2    1    2    0    0  0.00000000000E+00  0.00000000000E+00  0.47156936863E+03  0.38397109233E+04  0.38106432928E+04 0.  0.
        4    1    3    3  502    0  0.85433507761E+03  0.16897194814E+04  0.21539621469E+02  0.18935432181E+04  0.12699999809E+01 0. -1.
       -4    1    3    3    0  502 -0.85433507761E+03 -0.16897194814E+04  0.45002974716E+03  0.19461677052E+04  0.12699999809E+01 0.  1.
</event>
<event>
 5   0  0.3701250E-08  0.3802026E+04  0.7818609E-02  0.8045720E-01
       -1   -1    0    0    0  501  0.00000000000E+00  0.00000000000E+00  0.11826668339E+04  0.11826668339E+04  0.50400001928E-02 0.  1.
        1   -1    0    0  501    0  0.00000000000E+00  0.00000000000E+00 -0.30556796902E+04  0.30556796902E+04  0.50400001928E-02 0. -1.
    10030    2    1    2    0    0  0.00000000000E+00  0.00000000000E+00 -0.18730128563E+04  0.42383465242E+04  0.38020263149E+04 0.  0.
        2    1    3    3  502    0  0.41109978907E+03 -0.75810381584E+03  0.95205827822E+03  0.12845775170E+04  0.25500000920E-02 0.  1.
       -2    1    3    3    0  502 -0.41109978907E+03  0.75810381584E+03 -0.28250711345E+04  0.29537690071E+04  0.25500000920E-02 0. -1.
</event>
<event>
 5   0  0.7858367E-08  0.3799881E+04  0.7818609E-02  0.8046180E-01
        2   -1    0    0  501    0  0.00000000000E+00  0.00000000000E+00  0.16848915010E+04  0.16848915010E+04  0.25500000920E-02 0.  1.
       -2   -1    0    0    0  501  0.00000000000E+00  0.00000000000E+00 -0.21424371184E+04  0.21424371184E+04  0.25500000920E-02 0. -1.
    10030    2    1    2    0    0  0.00000000000E+00  0.00000000000E+00 -0.45754561741E+03  0.38273286193E+04  0.37998810992E+04 0.  0.
        2    1    3    3  502    0  0.16460710949E+04 -0.68246788300E+03  0.43512534317E+03  0.18342972837E+04  0.25500000920E-02 0.  1.
       -2    1    3    3    0  502 -0.16460710949E+04  0.68246788300E+03 -0.89267096058E+03  0.19930313356E+04  0.25500000920E-02 0. -1.
</event>
<event>
 5   0  0.1174870E-07  0.3800705E+04  0.7818609E-02  0.8046004E-01
        2   -1    0    0  501    0  0.00000000000E+00  0.00000000000E+00  0.16852298760E+04  0.16852298760E+04  0.25500000920E-02 0. -1.
       -2   -1    0    0    0  501  0.00000000000E+00  0.00000000000E+00 -0.21429357543E+04  0.21429357543E+04  0.25500000920E-02 0.  1.
    10030    2    1    2    0    0  0.00000000000E+00  0.00000000000E+00 -0.45770587829E+03  0.38281656304E+04  0.38007048587E+04 0.  0.
        5    1    3    3  502    0  0.10953253696E+04  0.13680594359E+04  0.51129857318E+03  0.18255882905E+04  0.46999998093E+01 0. -1.
       -5    1    3    3    0  502 -0.10953253696E+04 -0.13680594359E+04 -0.96900445147E+03  0.20025773399E+04  0.46999998093E+01 0.  1.
</event>
<event>
 5   0  0.3701250E-08  0.3792305E+04  0.7818609E-02  0.8047808E-01
       -1   -1    0    0    0  501  0.00000000000E+00  0.00000000000E+00  0.21249214401E+04  0.21249214401E+04  0.50400001928E-02 0.  1.
        1   -1    0    0  501    0  0.00000000000E+00  0.00000000000E+00 -0.16920132339E+04  0.16920132339E+04  0.50400001928E-02 0. -1.
    10030    2    1    2    0    0  0.00000000000E+00  0.00000000000E+00  0.43290820612E+03  0.38169346740E+04  0.37923054717E+04 0.  0.
        1    1    3    3  502    0  0.17614235844E+02 -0.47636623210E+03 -0.16307197866E+04  0.16989649999E+04  0.50400001928E-02 0. -1.
       -1    1    3    3    0  502 -0.17614235844E+02  0.47636623210E+03  0.20636279927E+04  0.21179696742E+04  0.50400001928E-02 0.  1.
</event>
<event>
 5   0  0.1150235E-07  0.3665613E+04  0.7818609E-02  0.8075625E-01
       -2   -1    0    0    0  501  0.00000000000E+00  0.00000000000E+00  0.13198408431E+04  0.13198408431E+04  0.25500000920E-02 0.  1.
        2   -1    0    0  501    0  0.00000000000E+00  0.00000000000E+00 -0.25451396982E+04  0.25451396982E+04  0.25500000920E-02 0. -1.
    10030    2    1    2    0    0  0.00000000000E+00  0.00000000000E+00 -0.12252988551E+04  0.38649805413E+04  0.36656128138E+04 0.  0.
        4    1    3    3  502    0  0.13982128516E+04 -0.75761425188E+03 -0.15733584549E+04  0.22370598950E+04  0.12699999809E+01 0. -1.
       -4    1    3    3    0  502 -0.13982128516E+04  0.75761425188E+03  0.34805959979E+03  0.16279206464E+04  0.12699999809E+01 0.  1.
</event>
<event>
 5   0  0.3701250E-08  0.3807115E+04  0.7818609E-02  0.8044630E-01
        1   -1    0    0  501    0  0.00000000000E+00  0.00000000000E+00  0.15926658311E+04  0.15926658311E+04  0.50400001928E-02 0.  1.
       -1   -1    0    0    0  501  0.00000000000E+00  0.00000000000E+00 -0.22751362200E+04  0.22751362200E+04  0.50400001928E-02 0. -1.
    10030    2    1    2    0    0  0.00000000000E+00  0.00000000000E+00 -0.68247038889E+03  0.38678020512E+04  0.38071152958E+04 0.  0.
        4    1    3    3  502    0 -0.10391776422E+04 -0.15062123237E+04  0.19149390563E+03  0.18399014281E+04  0.12699999809E+01 0.  1.
       -4    1    3    3    0  502  0.10391776422E+04  0.15062123237E+04 -0.87396429452E+03  0.20279006231E+04  0.12699999809E+01 0. -1.
</event>
<event>
 5   0  0.1193861E-07  0.3785662E+04  0.7818609E-02  0.8049239E-01
       -2   -1    0    0    0  501  0.00000000000E+00  0.00000000000E+00  0.12297733078E+04  0.12297733078E+04  0.25500000920E-02 0. -1.
        2   -1    0    0  501    0  0.00000000000E+00  0.00000000000E+00 -0.29133898524E+04  0.29133898524E+04  0.25500000920E-02 0.  1.
    10030    2    1    2    0    0  0.00000000000E+00  0.00000000000E+00 -0.16836165446E+04  0.41431631602E+04  0.37856619372E+04 0.  0.
        3    1    3    3  502    0 -0.67345816699E+03  0.11313005588E+04  0.64655259269E+03  0.14667709850E+04  0.10100000352E+00 0. -1.
       -3    1    3    3    0  502  0.67345816699E+03 -0.11313005588E+04 -0.23301691373E+04  0.26763921752E+04  0.10100000352E+00 0.  1.
</event>
<event>
 5   0  0.1150235E-07  0.3773829E+04  0.7818609E-02  0.8051795E-01
        2   -1    0    0  501    0  0.00000000000E+00  0.00000000000E+00  0.23041136251E+04  0.23041136251E+04  0.25500000920E-02 0.  1.
       -2   -1    0    0    0  501  0.00000000000E+00  0.00000000000E+00 -0.15452560778E+04  0.15452560778E+04  0.25500000920E-02 0. -1.
    10030    2    1    2    0    0  0.00000000000E+00  0.00000000000E+00  0.75885754724E+03  0.38493697029E+04  0.37738286040E+04 0.  0.
        4    1    3    3  502    0  0.12145656030E+04 -0.98155750304E+03 -0.70093221330E+03  0.17117045061E+04  0.12699999809E+01 0. -1.
       -4    1    3    3    0  502 -0.12145656030E+04  0.98155750304E+03  0.14597897605E+04  0.21376651968E+04  0.12699999809E+01 0.  1.
</event>
<event>
 5   0  0.1193861E-07  0.3788800E+04  0.7818609E-02  0.8048563E-01
        2   -1    0    0  501    0  0.00000000000E+00  0.00000000000E+00  0.21248962150E+04  0.21248962150E+04  0.25500000920E-02 0. -1.
       -2   -1    0    0    0  501  0.00000000000E+00  0.00000000000E+00 -0.16889062684E+04  0.16889062684E+04  0.25500000920E-02 0.  1.
    10030    2    1    2    0    0  0.00000000000E+00  0.00000000000E+00  0.43598994660E+03  0.38138024835E+04  0.37887995658E+04 0.  0.
        3    1    3    3  502    0  0.14454547405E+04 -0.99573195701E+03  0.93538951299E+03  0.19889130419E+04  0.10100000352E+00 0. -1.
       -3    1    3    3    0  502 -0.14454547405E+04  0.99573195701E+03 -0.49939956639E+03  0.18248894416E+04  0.10100000352E+00 0.  1.
</event>
<event>
 5   0  0.1174870E-07  0.3796872E+04  0.7818609E-02  0.8046826E-01
        2   -1    0    0  501    0  0.00000000000E+00  0.00000000000E+00  0.21763331768E+04  0.21763331768E+04  0.25500000920E-02 0. -1.
       -2   -1    0    0    0  501  0.00000000000E+00  0.00000000000E+00 -0.16560236123E+04  0.16560236123E+04  0.25500000920E-02 0.  1.
    10030    2    1    2    0    0  0.00000000000E+00  0.00000000000E+00  0.52030956450E+03  0.38323567891E+04  0.37968719384E+04 0.  0.
        5    1    3    3  502    0  0.11580143575E+04 -0.41205507605E+03  0.17204833354E+04  0.21144435758E+04  0.46999998093E+01 0. -1.
       -5    1    3    3    0  502 -0.11580143575E+04  0.41205507605E+03 -0.12001737709E+04  0.17179132133E+04  0.46999998093E+01 0.  1.
</event>
<event>
 5   0  0.1174870E-07  0.3809543E+04  0.7818609E-02  0.8044110E-01
        2   -1    0    0  501    0  0.00000000000E+00  0.00000000000E+00  0.26043024227E+04  0.26043024227E+04  0.25500000920E-02 0. -1.
       -2   -1    0    0    0  501  0.00000000000E+00  0.00000000000E+00 -0.13931388655E+04  0.13931388655E+04  0.25500000920E-02 0.  1.
    10030    2    1    2    0    0  0.00000000000E+00  0.00000000000E+00  0.12111635572E+04  0.39974412883E+04  0.38095432392E+04 0.  0.
        5    1    3    3  502    0 -0.40097501377E+03 -0.10128593175E+03 -0.13454516919E+04  0.14075873496E+04  0.46999998093E+01 0.  1.
       -5    1    3    3    0  502  0.40097501377E+03  0.10128593175E+03  0.25566152491E+04  0.25898539387E+04  0.46999998093E+01 0. -1.
</event>
<event>
 5   0  0.1143283E-07  0.3776980E+04  0.7818609E-02  0.8051113E-01
        2   -1    0    0  501    0  0.00000000000E+00  0.00000000000E+00  0.17307692151E+04  0.17307692151E+04  0.25500000920E-02 0.  1.
       -2   -1    0    0    0  501  0.00000000000E+00  0.00000000000E+00 -0.20605838987E+04  0.20605838987E+04  0.25500000920E-02 0. -1.
    10030    2    1    2    0    0  0.00000000000E+00  0.00000000000E+00 -0.32981468358E+03  0.37913531138E+04  0.37769803690E+04 0.  0.
        1    1    3    3  502    0 -0.13368207254E+04  0.50518164712E+03 -0.14041484620E+04  0.20034797358E+04  0.50400001928E-02 0. -1.
       -1    1    3    3    0  502  0.13368207254E+04 -0.50518164712E+03  0.10743337784E+04  0.17878733780E+04  0.50400001928E-02 0.  1.
</event>
<event>
 5   0  0.3701250E-08  0.3800069E+04  0.7818609E-02  0.8046140E-01
       -1   -1    0    0    0  501  0.00000000000E+00  0.00000000000E+00  0.26965446239E+04  0.26965446239E+04  0.50400001928E-02 0.  1.
        1   -1    0    0  501    0  0.00000000000E+00  0.00000000000E+00 -0.13387992339E+04  0.13387992339E+04  0.50400001928E-02 0. -1.
    10030    2    1    2    0    0  0.00000000000E+00  0.00000000000E+00  0.13577453900E+04  0.40353438578E+04  0.38000694082E+04 0.  0.
        2    1    3    3  502    0 -0.17236379394E+04 -0.30693482382E+02 -0.16950360316E+03  0.17322243813E+04  0.25500000920E-02 0. -1.
       -2    1    3    3    0  502  0.17236379394E+04  0.30693482382E+02  0.15272489931E+04  0.23031194765E+04  0.25500000920E-02 0.  1.
</event>
<event>
 5   0  0.1150235E-07  0.3790313E+04  0.7818609E-02  0.8048237E-01
        2   -1    0    0  501    0  0.00000000000E+00  0.00000000000E+00  0.25974345266E+04  0.25974345266E+04  0.25500000920E-02 0.  1.
       -2   -1    0    0    0  501  0.00000000000E+00  0.00000000000E+00 -0.13827563021E+04  0.13827563021E+04  0.25500000920E-02 0. -1.
    10030    2    1    2    0    0  0.00000000000E+00  0.00000000000E+00  0.12146782245E+04  0.39801908287E+04  0.37903134228E+04 0.  0.
        4    1    3    3  502    0  0.99459250828E+03 -0.10618032842E+04 -0.66798736732E+03  0.16008901298E+04  0.12699999809E+01 0. -1.
       -4    1    3    3    0  502 -0.99459250828E+03  0.10618032842E+04  0.18826655919E+04  0.23793006989E+04  0.12699999809E+01 0.  1.
</event>
<event>
 5   0  0.3701250E-08  0.3760715E+04  0.7818609E-02  0.8054638E-01
        1   -1    0    0  501    0  0.00000000000E+00  0.00000000000E+00  0.23366323519E+04  0.23366323519E+04  0.50400001928E-02 0.  1.
       -1   -1    0    0    0  501  0.00000000000E+00  0.00000000000E+00 -0.15131793374E+04  0.15131793374E+04  0.50400001928E-02 0. -1.
    10030    2    1    2    0    0  0.00000000000E+00  0.00000000000E+00  0.82345301451E+03  0.38498116894E+04  0.37607147162E+04 0.  0.
        3    1    3    3  502    0 -0.10513863036E+03 -0.15773412157E+04  0.14540256168E+04  0.21478477476E+04  0.10100000352E+00 0.  1.
       -3    1    3    3    0  502  0.10513863036E+03  0.15773412157E+04 -0.63057260231E+03  0.17019639418E+04  0.10100000352E+00 0. -1.
</event>
<event>
 5   0  0.1193861E-07  0.3795680E+04  0.7818609E-02  0.8047083E-01
       -2   -1    0    0    0  501  0.00000000000E+00  0.00000000000E+00  0.14864528684E+04  0.14864528684E+04  0.25500000920E-02 0.  1.
        2   -1    0    0  501    0  0.00000000000E+00  0.00000000000E+00 -0.24230810466E+04  0.24230810466E+04  0.25500000920E-02 0. -1.
    10030    2    1    2    0    0  0.00000000000E+00  0.00000000000E+00 -0.93662817818E+03  0.39095339150E+04  0.37956795292E+04 0.  0.
        3    1    3    3  502    0  0.35894046567E+03 -0.44365244027E+03 -0.23326149998E+04  0.24014076066E+04  0.10100000352E+00 0. -1.
       -3    1    3    3    0  502 -0.35894046567E+03  0.44365244027E+03  0.13959868216E+04  0.15081263084E+04  0.10100000352E+00 0.  1.
</event>
<event>
 5   0  0.3701250E-08  0.3790948E+04  0.7818609E-02  0.8048100E-01
       -1   -1    0    0    0  501  0.00000000000E+00  0.00000000000E+00  0.32751230768E+04  0.32751230768E+04  0.50400001928E-02 0.  1.
        1   -1    0    0  501    0  0.00000000000E+00  0.00000000000E+00 -0.10970034711E+04  0.10970034711E+04  0.50400001928E-02 0. -1.
    10030    2    1    2    0    0  0.00000000000E+00  0.00000000000E+00  0.21781196058E+04  0.43721265479E+04  0.37909478411E+04 0.  0.
        4    1    3    3  502    0  0.13239759290E+04 -0.12201427215E+04  0.17724944165E+04  0.25265388560E+04  0.12699999809E+01 0.  1.
       -4    1    3    3    0  502 -0.13239759290E+04  0.12201427215E+04  0.40562518923E+03  0.18455876919E+04  0.12699999809E+01 0. -1.
</event>
<event>
 5   0  0.1143283E-07  0.3792688E+04  0.7818609E-02  0.8047726E-01
        2   -1    0    0  501    0  0.00000000000E+00  0.00000000000E+00  0.23952490903E+04  0.23952490903E+04  0.25500000920E-02 0. -1.
       -2   -1    0    0    0  501  0.00000000000E+00  0.00000000000E+00 -0.15013557441E+04  0.15013557441E+04  0.25500000920E-02 0.  1.
    10030    2    1    2    0    0  0.00000000000E+00  0.00000000000E+00  0.89389334623E+03  0.38966048344E+04  0.37926882183E+04 0.  0.
        1    1    3    3  502    0 -0.16293961868E+04  0.93958818699E+03  0.69515042603E+03  0.20052411350E+04  0.50400001928E-02 0. -1.
       -1    1    3    3    0  502  0.16293961868E+04 -0.93958818699E+03  0.19874292020E+03  0.18913636993E+04  0.50400001928E-02 0.  1.
</event>
<event>
 5   0  0.3889225E-08  0.3796227E+04  0.7818609E-02  0.8046965E-01
       -1   -1    0    0    0  501  0.00000000000E+00  0.00000000000E+00  0.22065609115E+04  0.22065609116E+04  0.50400001928E-02 0. -1.
        1   -1    0    0  501    0  0.00000000000E+00  0.00000000000E+00 -0.16327831454E+04  0.16327831454E+04  0.50400001928E-02 0.  1.
    10030    2    1    2    0    0  0.00000000000E+00  0.00000000000E+00  0.57377776615E+03  0.38393440570E+04  0.37962273197E+04 0.  0.
        5    1    3    3  502    0 -0.15746663664E+04 -0.10352281088E+04  0.57281768070E+02  0.18853579749E+04  0.46999998093E+01 0.  1.
       -5    1    3    3    0  502  0.15746663664E+04  0.10352281088E+04  0.51649599808E+03  0.19539860820E+04  0.46999998093E+01 0. -1.
</event>
<event>
 5   0  0.3701250E-08  0.3799358E+04  0.7818609E-02  0.8046293E-01
       -1   -1    0    0    0  501  0.00000000000E+00  0.00000000000E+00  0.20845285989E+04  0.20845285989E+04  0.50400001928E-02 0. -1.
        1   -1    0    0  501    0  0.00000000000E+00  0.00000000000E+00 -0.17312210535E+04  0.17312210535E+04  0.50400001928E-02 0.  1.
    10030    2    1    2    0    0  0.00000000000E+00  0.00000000000E+00  0.35330754535E+03  0.38157496524E+04  0.37993577336E+04 0.  0.
        4    1    3    3  502    0 -0.13199416928E+04  0.10390381444E+04 -0.71426528037E+03  0.18253829301E+04  0.12699999809E+01 0.  1.
       -4    1    3    3    0  502  0.13199416928E+04 -0.10390381444E+04  0.10675728257E+04  0.19903667222E+04  0.12699999809E+01 0. -1.
</event>
<event>
 5   0  0.1193861E-07  0.3806789E+04  0.7818609E-02  0.8044699E-01
        2   -1    0    0  501    0  0.00000000000E+00  0.00000000000E+00  0.13428289489E+04  0.13428289490E+04  0.25500000920E-02 0.  1.
       -2   -1    0    0    0  501  0.00000000000E+00  0.00000000000E+00 -0.26979694958E+04  0.26979694958E+04  0.25500000920E-02 0. -1.
    10030    2    1    2    0    0  0.00000000000E+00  0.00000000000E+00 -0.13551405468E+04  0.40407984447E+04  0.38067894832E+04 0.  0.
        3    1    3    3  502    0 -0.17425056472E+04 -0.56859316763E+03 -0.13291291592E+03  0.18377404535E+04  0.10100000352E+00 0.  1.
       -3    1    3    3    0  502  0.17425056472E+04  0.56859316763E+03 -0.12222276309E+04  0.22030579913E+04  0.10100000352E+00 0. -1.
</event>
<event>
 5   0  0.3889225E-08  0.3792723E+04  0.7818609E-02  0.8047718E-01
        1   -1    0    0  501    0  0.00000000000E+00  0.00000000000E+00  0.19062176420E+04  0.19062176420E+04  0.50400001928E-02 0. -1.
       -1   -1    0    0    0  501  0.00000000000E+00  0.00000000000E+00 -0.18865564719E+04  0.18865564719E+04  0.50400001928E-02 0.  1.
    10030    2    1    2    0    0  0.00000000000E+00  0.00000000000E+00  0.19661170179E+02  0.37927741139E+04  0.37927231533E+04 0.  0.
        5    1    3    3  502    0  0.10128999558E+04 -0.57127292528E+03  0.15077979955E+04  0.19041522946E+04  0.46999998093E+01 0. -1.
       -5    1    3    3    0  502 -0.10128999558E+04  0.57127292528E+03 -0.14881368253E+04  0.18886218194E+04  0.46999998093E+01 0.  1.
</event>
<event>
 5   0  0.3701250E-08  0.3791535E+04  0.7818609E-02  0.8047974E-01
        1   -1    0    0  501    0  0.00000000000E+00  0.00000000000E+00  0.19819460655E+04  0.19819460655E+04  0.50400001928E-02 0.  1.
       -1   -1    0    0    0  501  0.00000000000E+00  0.00000000000E+00 -0.18133364368E+04  0.18133364368E+04  0.50400001928E-02 0. -1.
    10030    2    1    2    0    0  0.00000000000E+00  0.00000000000E+00  0.16860962864E+03  0.37952825023E+04  0.37915353177E+04 0.  0.
        3    1    3    3  502    0  0.11772096511E+04 -0.59011323328E+03 -0.12808167475E+04  0.18369942138E+04  0.10100000352E+00 0. -1.
       -3    1    3    3    0  502 -0.11772096511E+04  0.59011323328E+03  0.14494263762E+04  0.19582882885E+04  0.10100000352E+00 0.  1.
</event>
<event>
 5   0  0.3701250E-08  0.3801273E+04  0.7818609E-02  0.8045882E-01
        4   -1    0    0  501    0  0.00000000000E+00  0.00000000000E+00  0.18587567365E+04  0.18587571704E+04  0.12699999809E+01 0. -1.
       -4   -1    0    0    0  501  0.00000000000E+00  0.00000000000E+00 -0.19434587437E+04  0.19434591587E+04  0.12699999809E+01 0.  1.
    10030    2    1    2    0    0  0.00000000000E+00  0.00000000000E+00 -0.84702007193E+02  0.38022163290E+04  0.38012727583E+04 0.  0.
        4    1    3    3  502    0 -0.66643542124E+03  0.73141200958E+03  0.15808017331E+04  0.18649491765E+04  0.12699999809E+01 0. -1.
       -4    1    3    3    0  502  0.66643542124E+03 -0.73141200958E+03 -0.16655037403E+04  0.19372671526E+04  0.12699999809E+01 0.  1.
</event>
<event>
 5   0  0.7858367E-08  0.3820058E+04  0.7818609E-02  0.8041864E-01
        2   -1    0    0  501    0  0.00000000000E+00  0.00000000000E+00  0.20874382519E+04  0.20874382519E+04  0.25500000920E-02 0. -1.
       -2   -1    0    0    0  501  0.00000000000E+00  0.00000000000E+00 -0.17476976939E+04  0.17476976939E+04  0.25500000920E-02 0.  1.
    10030    2    1    2    0    0  0.00000000000E+00  0.00000000000E+00  0.33974055804E+03  0.38351359459E+04  0.38200581247E+04 0.  0.
        2    1    3    3  502    0 -0.13176464137E+04 -0.37433131537E+03  0.15062497181E+04  0.20359529019E+04  0.25500000920E-02 0. -1.
       -2    1    3    3    0  502  0.13176464137E+04  0.37433131537E+03 -0.11665091601E+04  0.17991830440E+04  0.25500000920E-02 0.  1.
</event>
<event>
 5   0  0.3701250E-08  0.3826261E+04  0.7818609E-02  0.8040543E-01
        1   -1    0    0  501    0  0.00000000000E+00  0.00000000000E+00  0.21429220672E+04  0.21429220672E+04  0.50400001928E-02 0. -1.
       -1   -1    0    0    0  501  0.00000000000E+00  0.00000000000E+00 -0.17079800762E+04  0.17079800762E+04  0.50400001928E-02 0.  1.
    10030    2    1    2    0    0  0.00000000000E+00  0.00000000000E+00  0.43494199100E+03  0.38509021434E+04  0.38262609402E+04 0.  0.
        2    1    3    3  502    0 -0.11555805713E+04  0.12546328375E+04 -0.65447914593E+03  0.18269682444E+04  0.25500000920E-02 0.  1.
       -2    1    3    3    0  502  0.11555805713E+04 -0.12546328375E+04  0.10894211369E+04  0.20239338989E+04  0.25500000920E-02 0. -1.
</event>
<event>
 5   0  0.3701250E-08  0.3809424E+04  0.7818609E-02  0.8044136E-01
        1   -1    0    0  501    0  0.00000000000E+00  0.00000000000E+00  0.22908990539E+04  0.22908990539E+04  0.50400001928E-02 0. -1.
       -1   -1    0    0    0  501  0.00000000000E+00  0.00000000000E+00 -0.15836259685E+04  0.15836259685E+04  0.50400001928E-02 0.  1.
    10030    2    1    2    0    0  0.00000000000E+00  0.00000000000E+00  0.70727308544E+03  0.38745250224E+04  0.38094237008E+04 0.  0.
        2    1    3    3  502    0  0.86982303978E+03  0.15938065765E+04  0.93889686652E+03  0.20440985421E+04  0.25500000920E-02 0. -1.
       -2    1    3    3    0  502 -0.86982303978E+03 -0.15938065765E+04 -0.23162378108E+03  0.18304264803E+04  0.25500000920E-02 0.  1.
</event>
<event>
 5   0  0.3701250E-08  0.3840497E+04  0.7818609E-02  0.8037520E-01
        1   -1    0    0  501    0  0.00000000000E+00  0.00000000000E+00  0.26001307828E+04  0.26001307828E+04  0.50400001928E-02 0.  1.
       -1   -1    0    0    0  501  0.00000000000E+00  0.00000000000E+00 -0.14181418861E+04  0.14181418862E+04  0.50400001928E-02 0. -1.
    10030    2    1    2    0    0  0.00000000000E+00  0.00000000000E+00  0.11819888966E+04  0.40182726689E+04  0.38404970368E+04 0.  0.
        3    1    3    3  502    0 -0.50138508291E+03  0.15757040680E+04  0.16124669584E+04  0.23096060299E+04  0.10100000352E+00 0.  1.
       -3    1    3    3    0  502  0.50138508291E+03 -0.15757040680E+04 -0.43047806180E+03  0.17086666390E+04  0.10100000352E+00 0. -1.
</event>
<event>
 5   0  0.1143283E-07  0.3812747E+04  0.7818609E-02  0.8043425E-01
       -2   -1    0    0    0  501  0.00000000000E+00  0.00000000000E+00  0.18899482686E+04  0.18899482686E+04  0.25500000920E-02 0. -1.
        2   -1    0    0  501    0  0.00000000000E+00  0.00000000000E+00 -0.19229413923E+04  0.19229413923E+04  0.25500000920E-02 0.  1.
    10030    2    1    2    0    0  0.00000000000E+00  0.00000000000E+00 -0.32993123736E+02  0.38128896609E+04  0.38127469126E+04 0.  0.
        1    1    3    3  502    0  0.17900348167E+04 -0.27857534537E+03  0.57718456247E+03  0.19013076782E+04  0.50400001928E-02 0. -1.
       -1    1    3    3    0  502 -0.17900348167E+04  0.27857534537E+03 -0.61017768620E+03  0.19115819827E+04  0.50400001928E-02 0.  1.
</event>
<event>
 5   0  0.1150235E-07  0.3801310E+04  0.7818609E-02  0.8045874E-01
        2   -1    0    0  501    0  0.00000000000E+00  0.00000000000E+00  0.16050741314E+04  0.16050741314E+04  0.25500000920E-02 0.  1.
       -2   -1    0    0    0  501  0.00000000000E+00  0.00000000000E+00 -0.22506684739E+04  0.22506684739E+04  0.25500000920E-02 0. -1.
    10030    2    1    2    0    0  0.00000000000E+00  0.00000000000E+00 -0.64559434259E+03  0.38557426053E+04  0.38013101667E+04 0.  0.
        4    1    3    3  502    0  0.15907381234E+04  0.95689495773E+03 -0.73655046508E+03  0.19971489524E+04  0.12699999809E+01 0. -1.
       -4    1    3    3    0  502 -0.15907381234E+04 -0.95689495773E+03  0.90956122494E+02  0.18585936529E+04  0.12699999809E+01 0.  1.
</event>
<event>
 5   0  0.3701250E-08  0.3805173E+04  0.7818609E-02  0.8045046E-01
        1   -1    0    0  501    0  0.00000000000E+00  0.00000000000E+00  0.19784165352E+04  0.19784165352E+04  0.50400001928E-02 0.  1.
       -1   -1    0    0    0  501  0.00000000000E+00  0.00000000000E+00 -0.18296626793E+04  0.18296626793E+04  0.50400001928E-02 0. -1.
    10030    2    1    2    0    0  0.00000000000E+00  0.00000000000E+00  0.14875385595E+03  0.38080792145E+04  0.38051727418E+04 0.  0.
        1    1    3    3  502    0 -0.26134508378E+03 -0.75222819205E+02 -0.18101108203E+04  0.18304264277E+04  0.50400001928E-02 0. -1.
       -1    1    3    3    0  502  0.26134508378E+03  0.75222819205E+02  0.19588646763E+04  0.19776527868E+04  0.50400001928E-02 0.  1.
</event>
<event>
 5   0  0.1150235E-07  0.3800110E+04  0.7818609E-02  0.8046131E-01
       -2   -1    0    0    0  501  0.00000000000E+00  0.00000000000E+00  0.20637079350E+04  0.20637079350E+04  0.25500000920E-02 0.  1.
        2   -1    0    0  501    0  0.00000000000E+00  0.00000000000E+00 -0.17493802368E+04  0.17493802368E+04  0.25500000920E-02 0. -1.
    10030    2    1    2    0    0  0.00000000000E+00  0.00000000000E+00  0.31432769822E+03  0.38130881718E+04  0.38001104595E+04 0.  0.
        4    1    3    3  502    0 -0.98012501283E+02 -0.14591797808E+04 -0.10599898948E+04  0.18062093657E+04  0.12699999809E+01 0. -1.
       -4    1    3    3    0  502  0.98012501283E+02  0.14591797808E+04  0.13743175930E+04  0.20068788061E+04  0.12699999809E+01 0.  1.
</event>
<event>
 5   0  0.1150235E-07  0.3806948E+04  0.7818609E-02  0.8044665E-01
        2   -1    0    0  501    0  0.00000000000E+00  0.00000000000E+00  0.13919668289E+04  0.13919668289E+04  0.25500000920E-02 0. -1.
       -2   -1    0    0    0  501  0.00000000000E+00  0.00000000000E+00 -0.26029454080E+04  0.26029454080E+04  0.25500000920E-02 0.  1.
    10030    2    1    2    0    0  0.00000000000E+00  0.00000000000E+00 -0.12109785791E+04  0.39949122369E+04  0.38069482084E+04 0.  0.
        4    1    3    3  502    0  0.27232666503E+03  0.16223506915E+04  0.39940802300E+03  0.16928413866E+04  0.12699999809E+01 0. -1.
       -4    1    3    3    0  502 -0.27232666503E+03 -0.16223506915E+04 -0.16103866021E+04  0.23020708502E+04  0.12699999809E+01 0.  1.
</event>
<event>
 5   0  0.1174870E-07  0.3869190E+04  0.7818609E-02  0.8031468E-01
       -2   -1    0    0    0  501  0.00000000000E+00  0.00000000000E+00  0.11789797418E+04  0.11789797418E+04  0.25500000920E-02 0.  1.
        2   -1    0    0  501    0  0.00000000000E+00  0.00000000000E+00 -0.31744888142E+04  0.31744888142E+04  0.25500000920E-02 0. -1.
    10030    2    1    2    0    0  0.00000000000E+00  0.00000000000E+00 -0.19955090724E+04  0.43534685561E+04  0.38691900975E+04 0.  0.
        5    1    3    3  502    0  0.14833595146E+04  0.18334664056E+03 -0.23797660971E+04  0.28102099934E+04  0.46999998093E+01 0. -1.
       -5    1    3    3    0  502 -0.14833595146E+04 -0.18334664056E+03  0.38425702468E+03  0.15432585626E+04  0.46999998093E+01 0.  1.
</event>
<event>
 5   0  0.1143283E-07  0.3804629E+04  0.7818609E-02  0.8045162E-01
        2   -1    0    0  501    0  0.00000000000E+00  0.00000000000E+00  0.15960118583E+04  0.15960118583E+04  0.25500000920E-02 0. -1.
       -2   -1    0    0    0  501  0.00000000000E+00  0.00000000000E+00 -0.22674017596E+04  0.22674017596E+04  0.25500000920E-02 0.  1.
    10030    2    1    2    0    0  0.00000000000E+00  0.00000000000E+00 -0.67138990128E+03  0.38634136179E+04  0.38046288102E+04 0.  0.
        1    1    3    3  502    0  0.92584112005E+03 -0.11268159256E+04  0.90461257932E+03  0.17161642778E+04  0.50400001928E-02 0. -1.
       -1    1    3    3    0  502 -0.92584112005E+03  0.11268159256E+04 -0.15760024806E+04  0.21472493401E+04  0.50400001928E-02 0.  1.
</event>
<event>
 5   0  0.1174870E-07  0.3809771E+04  0.7818609E-02  0.8044061E-01
       -2   -1    0    0    0  501  0.00000000000E+00  0.00000000000E+00  0.28429782797E+04  0.28429782797E+04  0.25500000920E-02 0. -1.
        2   -1    0    0  501    0  0.00000000000E+00  0.00000000000E+00 -0.12763333331E+04  0.12763333331E+04  0.25500000920E-02 0.  1.
    10030    2    1    2    0    0  0.00000000000E+00  0.00000000000E+00  0.15666449466E+04  0.41193116128E+04  0.38097705672E+04 0.  0.
        5    1    3    3  502    0 -0.67531278079E+03 -0.58818087737E+02  0.27081462813E+04  0.27916993552E+04  0.46999998093E+01 0. -1.
       -5    1    3    3    0  502  0.67531278079E+03  0.58818087737E+02 -0.11415013347E+04  0.13276122575E+04  0.46999998093E+01 0.  1.
</event>
<event>
 5   0  0.1143283E-07  0.3800753E+04  0.7818609E-02  0.8045993E-01
       -2   -1    0    0    0  501  0.00000000000E+00  0.00000000000E+00  0.16617002280E+04  0.16617002280E+04  0.25500000920E-02 0. -1.
        2   -1    0    0  501    0  0.00000000000E+00  0.00000000000E+00 -0.21733349599E+04  0.21733349599E+04  0.25500000920E-02 0.  1.
    10030    2    1    2    0    0  0.00000000000E+00  0.00000000000E+00 -0.51163473195E+03  0.38350351879E+04  0.38007531877E+04 0.  0.
        1    1    3    3  502    0 -0.47633545092E+03  0.16389669572E+04 -0.10990120761E+04  0.20300087912E+04  0.50400001928E-02 0.  1.
       -1    1    3    3    0  502  0.47633545092E+03 -0.16389669572E+04  0.58737734418E+03  0.18050263968E+04  0.50400001928E-02 0. -1.
</event>
<event>
 5   0  0.3701250E-08  0.3799970E+04  0.7818609E-02  0.8046161E-01
       -1   -1    0    0    0  501  0.00000000000E+00  0.00000000000E+00  0.29536854251E+04  0.29536854251E+04  0.50400001928E-02 0.  1.
        1   -1    0    0  501    0  0.00000000000E+00  0.00000000000E+00 -0.12221828367E+04  0.12221828367E+04  0.50400001928E-02 0. -1.
    10030    2    1    2    0    0  0.00000000000E+00  0.00000000000E+00  0.17315025884E+04  0.41758682617E+04  0.37999703322E+04 0.  0.
        4    1    3    3  502    0  0.17920955578E+03  0.76381428150E+03 -0.10358632208E+04  0.12994393201E+04  0.12699999809E+01 0. -1.
       -4    1    3    3    0  502 -0.17920955578E+03 -0.76381428150E+03  0.27673658092E+04  0.28764289416E+04  0.12699999809E+01 0.  1.
</event>
<event>
 5   0  0.3701250E-08  0.3793420E+04  0.7818609E-02  0.8047568E-01
       -1   -1    0    0    0  501  0.00000000000E+00  0.00000000000E+00  0.27613209394E+04  0.27613209394E+04  0.50400001928E-02 0. -1.
        1   -1    0    0  501    0  0.00000000000E+00  0.00000000000E+00 -0.13028214673E+04  0.13028214673E+04  0.50400001928E-02 0.  1.
    10030    2    1    2    0    0  0.00000000000E+00  0.00000000000E+00  0.14584994721E+04  0.40641424068E+04  0.37934196699E+04 0.  0.
        1    1    3    3  502    0  0.17414264170E+04 -0.41416594190E+03  0.14012354852E+04  0.22732268427E+04  0.50400001928E-02 0. -1.
       -1    1    3    3    0  502 -0.17414264170E+04  0.41416594190E+03  0.57263986970E+02  0.17909155641E+04  0.50400001928E-02 0.  1.
</event>
<event>
 5   0  0.1143283E-07  0.3797941E+04  0.7818609E-02  0.8046597E-01
        2   -1    0    0  501    0  0.00000000000E+00  0.00000000000E+00  0.16259620287E+04  0.16259620287E+04  0.25500000920E-02 0. -1.
       -2   -1    0    0    0  501  0.00000000000E+00  0.00000000000E+00 -0.22178191686E+04  0.22178191686E+04  0.25500000920E-02 0.  1.
    10030    2    1    2    0    0  0.00000000000E+00  0.00000000000E+00 -0.59185713994E+03  0.38437811972E+04  0.37979414185E+04 0.  0.
        1    1    3    3  502    0  0.18202002556E+03 -0.14659177313E+04 -0.15036646764E+04  0.21078551999E+04  0.50400001928E-02 0.  1.
       -1    1    3    3    0  502 -0.18202002556E+03  0.14659177313E+04  0.91180753643E+03  0.17359259973E+04  0.50400001928E-02 0. -1.
</event>
<event>
 5   0  0.3701250E-08  0.3784556E+04  0.7818609E-02  0.8049477E-01
        1   -1    0    0  501    0  0.00000000000E+00  0.00000000000E+00  0.17361640279E+04  0.17361640279E+04  0.50400001928E-02 0.  1.
       -1   -1    0    0    0  501  0.00000000000E+00  0.00000000000E+00 -0.20624293067E+04  0.20624293067E+04  0.50400001928E-02 0. -1.
    10030    2    1    2    0    0  0.00000000000E+00  0.00000000000E+00 -0.32626527876E+03  0.37985933346E+04  0.37845557585E+04 0.  0.
        2    1    3    3  502    0 -0.16853705255E+04  0.43442620122E+03  0.58226293510E+03  0.18352738374E+04  0.25500000920E-02 0.  1.
       -2    1    3    3    0  502  0.16853705255E+04 -0.43442620122E+03 -0.90852821387E+03  0.19633194972E+04  0.25500000920E-02 0. -1.
</event>
<event>
 5   0  0.7858367E-08  0.3811999E+04  0.7818609E-02  0.8043585E-01
        2   -1    0    0  501    0  0.00000000000E+00  0.00000000000E+00  0.18872427244E+04  0.18872427244E+04  0.25500000920E-02 0. -1.
       -2   -1    0    0    0  501  0.00000000000E+00  0.00000000000E+00 -0.19249430155E+04  0.19249430155E+04  0.25500000920E-02 0.  1.
    10030    2    1    2    0    0  0.00000000000E+00  0.00000000000E+00 -0.37700291127E+02  0.38121857399E+04  0.38119993184E+04 0.  0.
        2    1    3    3  502    0 -0.48935967940E+03  0.17956048016E+03 -0.18522755164E+04  0.19242243764E+04  0.25500000920E-02 0.  1.
       -2    1    3    3    0  502  0.48935967940E+03 -0.17956048016E+03  0.18145752253E+04  0.18879613635E+04  0.25500000920E-02 0. -1.
</event>
<event>
 5   0  0.3701250E-08  0.3807548E+04  0.7818609E-02  0.8044537E-01
        1   -1    0    0  501    0  0.00000000000E+00  0.00000000000E+00  0.23922112635E+04  0.23922112635E+04  0.50400001928E-02 0.  1.
       -1   -1    0    0    0  501  0.00000000000E+00  0.00000000000E+00 -0.15150651765E+04  0.15150651765E+04  0.50400001928E-02 0. -1.
    10030    2    1    2    0    0  0.00000000000E+00  0.00000000000E+00  0.87714608702E+03  0.39072764400E+04  0.38075482821E+04 0.  0.
        2    1    3    3  502    0  0.13711511822E+04 -0.27874871374E+03  0.17633548410E+04  0.22510390279E+04  0.25500000920E-02 0.  1.
       -2    1    3    3    0  502 -0.13711511822E+04  0.27874871374E+03 -0.88620875393E+03  0.16562374122E+04  0.25500000920E-02 0. -1.
</event>
<event>
 5   0  0.1193861E-07  0.3841820E+04  0.7818609E-02  0.8037239E-01
       -2   -1    0    0    0  501  0.00000000000E+00  0.00000000000E+00  0.17228430644E+04  0.17228430644E+04  0.25500000920E-02 0. -1.
        2   -1    0    0  501    0  0.00000000000E+00  0.00000000000E+00 -0.21417480132E+04  0.21417480132E+04  0.25500000920E-02 0.  1.
    10030    2    1    2    0    0  0.00000000000E+00  0.00000000000E+00 -0.41890494880E+03  0.38645910776E+04  0.38418202510E+04 0.  0.
        3    1    3    3  502    0 -0.91966065214E+03  0.12129362082E+04  0.96920296767E+03  0.18045343895E+04  0.10100000352E+00 0. -1.
       -3    1    3    3    0  502  0.91966065214E+03 -0.12129362082E+04 -0.13881079165E+04  0.20600566881E+04  0.10100000352E+00 0.  1.
</event>
<event>
 5   0  0.3701250E-08  0.3804370E+04  0.7818609E-02  0.8045218E-01
        1   -1    0    0  501    0  0.00000000000E+00  0.00000000000E+00  0.26467044103E+04  0.26467044103E+04  0.50400001928E-02 0.  1.
       -1   -1    0    0    0  501  0.00000000000E+00  0.00000000000E+00 -0.13670992653E+04  0.13670992653E+04  0.50400001928E-02 0. -1.
    10030    2    1    2    0    0  0.00000000000E+00  0.00000000000E+00  0.12796051450E+04  0.40138036756E+04  0.38043699372E+04 0.  0.
        4    1    3    3  502    0 -0.14050155273E+04 -0.11525778975E+04  0.12327013410E+04  0.21959186348E+04  0.12699999809E+01 0.  1.
       -4    1    3    3    0  502  0.14050155273E+04  0.11525778975E+04  0.46903803995E+02  0.18178850408E+04  0.12699999809E+01 0. -1.
</event>
<event>
 5   0  0.1143283E-07  0.3788317E+04  0.7818609E-02  0.8048667E-01
        2   -1    0    0  501    0  0.00000000000E+00  0.00000000000E+00  0.29579151880E+04  0.29579151880E+04  0.25500000920E-02 0. -1.
       -2   -1    0    0    0  501  0.00000000000E+00  0.00000000000E+00 -0.12129613322E+04  0.12129613322E+04  0.25500000920E-02 0.  1.
    10030    2    1    2    0    0  0.00000000000E+00  0.00000000000E+00  0.17449538557E+04  0.41708765202E+04  0.37883171710E+04 0.  0.
        1    1    3    3  502    0  0.12166223149E+04 -0.67218652631E+03 -0.54425981468E+03  0.14927234604E+04  0.50400001928E-02 0.  1.
       -1    1    3    3    0  502 -0.12166223149E+04  0.67218652631E+03  0.22892136704E+04  0.26781530599E+04  0.50400001928E-02 0. -1.
</event>
<event>
 5   0  0.1174870E-07  0.3724808E+04  0.7818609E-02  0.8062486E-01
        2   -1    0    0  501    0  0.00000000000E+00  0.00000000000E+00  0.10522451255E+04  0.10522451255E+04  0.25500000920E-02 0.  1.
       -2   -1    0    0    0  501  0.00000000000E+00  0.00000000000E+00 -0.32963307583E+04  0.32963307583E+04  0.25500000920E-02 0. -1.
    10030    2    1    2    0    0  0.00000000000E+00  0.00000000000E+00 -0.22440856328E+04  0.43485758838E+04  0.37248076312E+04 0.  0.
        5    1    3    3  502    0  0.22404645085E+03  0.40997003319E+03 -0.32267991809E+04  0.32604489390E+04  0.46999998093E+01 0. -1.
       -5    1    3    3    0  502 -0.22404645085E+03 -0.40997003319E+03  0.98271354810E+03  0.10881269447E+04  0.46999998093E+01 0.  1.
</event>
<event>
 5   0  0.1174870E-07  0.3801852E+04  0.7818609E-02  0.8045757E-01
       -2   -1    0    0    0  501  0.00000000000E+00  0.00000000000E+00  0.18593367298E+04  0.18593367298E+04  0.25500000920E-02 0. -1.
        2   -1    0    0  501    0  0.00000000000E+00  0.00000000000E+00 -0.19434459252E+04  0.19434459252E+04  0.25500000920E-02 0.  1.
    10030    2    1    2    0    0  0.00000000000E+00  0.00000000000E+00 -0.84109195338E+02  0.38027826550E+04  0.38018523859E+04 0.  0.
        5    1    3    3  502    0 -0.10979540294E+04  0.61293806977E+03 -0.14679917829E+04  0.19329299244E+04  0.46999998093E+01 0.  1.
       -5    1    3    3    0  502  0.10979540294E+04 -0.61293806977E+03  0.13838825876E+04  0.18698527306E+04  0.46999998093E+01 0. -1.
</event>
<event>
 5   0  0.3701250E-08  0.3688767E+04  0.7818609E-02  0.8070456E-01
       -1   -1    0    0    0  501  0.00000000000E+00  0.00000000000E+00  0.22354445239E+04  0.22354445239E+04  0.50400001928E-02 0.  1.
        1   -1    0    0  501    0  0.00000000000E+00  0.00000000000E+00 -0.15217332698E+04  0.15217332698E+04  0.50400001928E-02 0. -1.
    10030    2    1    2    0    0  0.00000000000E+00  0.00000000000E+00  0.71371125410E+03  0.37571777936E+04  0.36887668968E+04 0.  0.
        3    1    3    3  502    0 -0.11993604491E+04 -0.14003315522E+04  0.30741310992E+03  0.18691968257E+04  0.10100000352E+00 0. -1.
       -3    1    3    3    0  502  0.11993604491E+04  0.14003315522E+04  0.40629814419E+03  0.18879809679E+04  0.10100000352E+00 0.  1.
</event>
<event>
 5   0  0.3889225E-08  0.3924300E+04  0.7818609E-02  0.8019994E-01
       -1   -1    0    0    0  501  0.00000000000E+00  0.00000000000E+00  0.28264150313E+04  0.28264150313E+04  0.50400001928E-02 0.  1.
        1   -1    0    0  501    0  0.00000000000E+00  0.00000000000E+00 -0.13621608839E+04  0.13621608840E+04  0.50400001928E-02 0. -1.
    10030    2    1    2    0    0  0.00000000000E+00  0.00000000000E+00  0.14642541474E+04  0.41885759153E+04  0.39242996815E+04 0.  0.
        5    1    3    3  502    0 -0.10470996691E+04  0.70725992020E+03  0.23343429075E+04  0.26543950745E+04  0.46999998093E+01 0.  1.
       -5    1    3    3    0  502  0.10470996691E+04 -0.70725992020E+03 -0.87008876011E+03  0.15341808408E+04  0.46999998093E+01 0. -1.
</event>
<event>
 5   0  0.3701250E-08  0.3801785E+04  0.7818609E-02  0.8045772E-01
        1   -1    0    0  501    0  0.00000000000E+00  0.00000000000E+00  0.21880001003E+04  0.21880001003E+04  0.50400001928E-02 0. -1.
       -1   -1    0    0    0  501  0.00000000000E+00  0.00000000000E+00 -0.16514590422E+04  0.16514590422E+04  0.50400001928E-02 0.  1.
    10030    2    1    2    0    0  0.00000000000E+00  0.00000000000E+00  0.53654105817E+03  0.38394591425E+04  0.38017851333E+04 0.  0.
        2    1    3    3  502    0 -0.12720846894E+04 -0.10862274392E+04  0.11801596071E+04  0.20471605225E+04  0.25500000920E-02 0. -1.
       -2    1    3    3    0  502  0.12720846894E+04  0.10862274392E+04 -0.64361854889E+03  0.17922986200E+04  0.25500000920E-02 0.  1.
</event>
<event>
 5   0  0.7858367E-08  0.3557192E+04  0.7818609E-02  0.8100368E-01
       -2   -1    0    0    0  501  0.00000000000E+00  0.00000000000E+00  0.13516674784E+04  0.13516674784E+04  0.25500000920E-02 0. -1.
        2   -1    0    0  501    0  0.00000000000E+00  0.00000000000E+00 -0.23403706928E+04  0.23403706928E+04  0.25500000920E-02 0.  1.
    10030    2    1    2    0    0  0.00000000000E+00  0.00000000000E+00 -0.98870321437E+03  0.36920381712E+04  0.35571915624E+04 0.  0.
        2    1    3    3  502    0 -0.97695528449E+03  0.14859234987E+04 -0.52705281224E+03  0.18547762504E+04  0.25500000920E-02 0. -1.
       -2    1    3    3    0  502  0.97695528449E+03 -0.14859234987E+04 -0.46165040213E+03  0.18372619208E+04  0.25500000920E-02 0.  1.
</event>
<event>
 5   0  0.1150235E-07  0.3782362E+04  0.7818609E-02  0.8049951E-01
        2   -1    0    0  501    0  0.00000000000E+00  0.00000000000E+00  0.22674297832E+04  0.22674297832E+04  0.25500000920E-02 0. -1.
       -2   -1    0    0    0  501  0.00000000000E+00  0.00000000000E+00 -0.15773656479E+04  0.15773656479E+04  0.25500000920E-02 0.  1.
    10030    2    1    2    0    0  0.00000000000E+00  0.00000000000E+00  0.69006413531E+03  0.38447954311E+04  0.37823621450E+04 0.  0.
        4    1    3    3  502    0  0.15101889691E+04 -0.20235377624E+03  0.14837672228E+04  0.21267779756E+04  0.12699999809E+01 0. -1.
       -4    1    3    3    0  502 -0.15101889691E+04  0.20235377624E+03 -0.79370308754E+03  0.17180174554E+04  0.12699999809E+01 0.  1.
</event>
<event>
 5   0  0.1193861E-07  0.3790393E+04  0.7818609E-02  0.8048220E-01
       -2   -1    0    0    0  501  0.00000000000E+00  0.00000000000E+00  0.21673284950E+04  0.21673284950E+04  0.25500000920E-02 0. -1.
        2   -1    0    0  501    0  0.00000000000E+00  0.00000000000E+00 -0.16572334923E+04  0.16572334923E+04  0.25500000920E-02 0.  1.
    10030    2    1    2    0    0  0.00000000000E+00  0.00000000000E+00  0.51009500272E+03  0.38245619874E+04  0.37903927875E+04 0.  0.
        3    1    3    3  502    0  0.12133880316E+03 -0.16356964933E+04 -0.70300821661E+03  0.17845018034E+04  0.10100000352E+00 0.  1.
       -3    1    3    3    0  502 -0.12133880316E+03  0.16356964933E+04  0.12131032193E+04  0.20400601840E+04  0.10100000352E+00 0. -1.
</event>
<event>
 5   0  0.7858367E-08  0.3793041E+04  0.7818609E-02  0.8047650E-01
       -2   -1    0    0    0  501  0.00000000000E+00  0.00000000000E+00  0.15062301438E+04  0.15062301438E+04  0.25500000920E-02 0.  1.
        2   -1    0    0  501    0  0.00000000000E+00  0.00000000000E+00 -0.23879412632E+04  0.23879412632E+04  0.25500000920E-02 0. -1.
    10030    2    1    2    0    0  0.00000000000E+00  0.00000000000E+00 -0.88171111938E+03  0.38941714070E+04  0.37930405283E+04 0.  0.
        2    1    3    3  502    0  0.67909453005E+03  0.15326565312E+04  0.46968657798E+03  0.17409224293E+04  0.25500000920E-02 0.  1.
       -2    1    3    3    0  502 -0.67909453005E+03 -0.15326565312E+04 -0.13513976974E+04  0.21532489777E+04  0.25500000920E-02 0. -1.
</event>
<event>
 5   0  0.1174870E-07  0.3804689E+04  0.7818609E-02  0.8045149E-01
       -2   -1    0    0    0  501  0.00000000000E+00  0.00000000000E+00  0.21507905512E+04  0.21507905512E+04  0.25500000920E-02 0.  1.
        2   -1    0    0  501    0  0.00000000000E+00  0.00000000000E+00 -0.16825971976E+04  0.16825971976E+04  0.25500000920E-02 0. -1.
    10030    2    1    2    0    0  0.00000000000E+00  0.00000000000E+00  0.46819335362E+03  0.38333877488E+04  0.38046887673E+04 0.  0.
        5    1    3    3  502    0 -0.98072383105E+03 -0.56359686235E+03  0.17751539249E+04  0.21049119229E+04  0.46999998093E+01 0.  1.
       -5    1    3    3    0  502  0.98072383105E+03  0.56359686235E+03 -0.13069605712E+04  0.17284758259E+04  0.46999998093E+01 0. -1.
</event>
<event>
 5   0  0.3701250E-08  0.3786865E+04  0.7818609E-02  0.8048979E-01
        1   -1    0    0  501    0  0.00000000000E+00  0.00000000000E+00  0.25052647326E+04  0.25052647326E+04  0.50400001928E-02 0.  1.
       -1   -1    0    0    0  501  0.00000000000E+00  0.00000000000E+00 -0.14310214342E+04  0.14310214342E+04  0.50400001928E-02 0. -1.
    10030    2    1    2    0    0  0.00000000000E+00  0.00000000000E+00  0.10742432984E+04  0.39362861668E+04  0.37868654746E+04 0.  0.
        1    1    3    3  502    0  0.14007859875E+03 -0.17977921280E+04  0.11373208792E+04  0.21319421501E+04  0.50400001928E-02 0.  1.
       -1    1    3    3    0  502 -0.14007859875E+03  0.17977921280E+04 -0.63077580854E+02  0.18043440166E+04  0.50400001928E-02 0. -1.
</event>
<event>
 5   0  0.1193861E-07  0.3861931E+04  0.7818609E-02  0.8032994E-01
        2   -1    0    0  501    0  0.00000000000E+00  0.00000000000E+00  0.16119677312E+04  0.16119677312E+04  0.25500000920E-02 0.  1.
       -2   -1    0    0    0  501  0.00000000000E+00  0.00000000000E+00 -0.23130906058E+04  0.23130906058E+04  0.25500000920E-02 0. -1.
    10030    2    1    2    0    0  0.00000000000E+00  0.00000000000E+00 -0.70112287460E+03  0.39250583370E+04  0.38619308206E+04 0.  0.
        3    1    3    3  502    0 -0.36593963481E+03  0.18507628387E+04  0.67739386647E+02  0.18878091896E+04  0.10100000352E+00 0.  1.
       -3    1    3    3    0  502  0.36593963481E+03 -0.18507628387E+04 -0.76886226125E+03  0.20372491474E+04  0.10100000352E+00 0. -1.
</event>
<event>
 5   0  0.1143283E-07  0.3810002E+04  0.7818609E-02  0.8044012E-01
       -2   -1    0    0    0  501  0.00000000000E+00  0.00000000000E+00  0.12858866138E+04  0.12858866138E+04  0.25500000920E-02 0.  1.
        2   -1    0    0  501    0  0.00000000000E+00  0.00000000000E+00 -0.28222001715E+04  0.28222001715E+04  0.25500000920E-02 0. -1.
    10030    2    1    2    0    0  0.00000000000E+00  0.00000000000E+00 -0.15363135577E+04  0.41080867853E+04  0.38100023212E+04 0.  0.
        1    1    3    3  502    0  0.71977713021E+03  0.25333845122E+03 -0.26502199660E+04  0.27578842173E+04  0.50400001928E-02 0. -1.
       -1    1    3    3    0  502 -0.71977713021E+03 -0.25333845122E+03  0.11139064083E+04  0.13502025679E+04  0.50400001928E-02 0.  1.
</event>
<event>
 5   0  0.3889225E-08  0.3810933E+04  0.7818609E-02  0.8043813E-01
        1   -1    0    0  501    0  0.00000000000E+00  0.00000000000E+00  0.18039841018E+04  0.18039841018E+04  0.50400001928E-02 0. -1.
       -1   -1    0    0    0  501  0.00000000000E+00  0.00000000000E+00 -0.20126581584E+04  0.20126581584E+04  0.50400001928E-02 0.  1.
    10030    2    1    2    0    0  0.00000000000E+00  0.00000000000E+00 -0.20867405656E+03  0.38166422602E+04  0.38109333870E+04 0.  0.
        5    1    3    3  502    0  0.16018772621E+04 -0.81562918694E+03  0.52868538333E+03  0.18737107722E+04  0.46999998093E+01 0.  1.
       -5    1    3    3    0  502 -0.16018772621E+04  0.81562918694E+03 -0.73735943989E+03  0.19429314880E+04  0.46999998093E+01 0. -1.
</event>
<event>
 5   0  0.3701250E-08  0.3807317E+04  0.7818609E-02  0.8044586E-01
        1   -1    0    0  501    0  0.00000000000E+00  0.00000000000E+00  0.23855292412E+04  0.23855292412E+04  0.50400001928E-02 0. -1.
       -1   -1    0    0    0  501  0.00000000000E+00  0.00000000000E+00 -0.15191245227E+04  0.15191245227E+04  0.50400001928E-02 0.  1.
    10030    2    1    2    0    0  0.00000000000E+00  0.00000000000E+00  0.86640471847E+03  0.39046537639E+04  0.38073171499E+04 0.  0.
        1    1    3    3  502    0  0.15367438780E+04 -0.83369116007E+02 -0.71588153400E+03  0.16973563347E+04  0.50400001928E-02 0.  1.
       -1    1    3    3    0  502 -0.15367438780E+04  0.83369116007E+02  0.15822862525E+04  0.22072974292E+04  0.50400001928E-02 0. -1.
</event>
<event>
 5   0  0.1174870E-07  0.3785847E+04  0.7818609E-02  0.8049199E-01
        2   -1    0    0  501    0  0.00000000000E+00  0.00000000000E+00  0.11242305001E+04  0.11242305001E+04  0.25500000920E-02 0. -1.
       -2   -1    0    0    0  501  0.00000000000E+00  0.00000000000E+00 -0.31872106411E+04  0.31872106411E+04  0.25500000920E-02 0.  1.
    10030    2    1    2    0    0  0.00000000000E+00  0.00000000000E+00 -0.20629801409E+04  0.43114411412E+04  0.37858470191E+04 0.  0.
        5    1    3    3  502    0 -0.10442329699E+04 -0.14302974961E+04 -0.17928598327E+04  0.25200281531E+04  0.46999998093E+01 0.  1.
       -5    1    3    3    0  502  0.10442329699E+04  0.14302974961E+04 -0.27012030823E+03  0.17914129881E+04  0.46999998093E+01 0. -1.
</event>
<event>
 5   0  0.3701250E-08  0.3777983E+04  0.7818609E-02  0.8050896E-01
        1   -1    0    0  501    0  0.00000000000E+00  0.00000000000E+00  0.30949939868E+04  0.30949939868E+04  0.50400001928E-02 0.  1.
       -1   -1    0    0    0  501  0.00000000000E+00  0.00000000000E+00 -0.11529225396E+04  0.11529225396E+04  0.50400001928E-02 0. -1.
    10030    2    1    2    0    0  0.00000000000E+00  0.00000000000E+00  0.19420714472E+04  0.42479165263E+04  0.37779827036E+04 0.  0.
        1    1    3    3  502    0 -0.19930995124E+03  0.18750929810E+04  0.84487271738E+03  0.20662787936E+04  0.50400001928E-02 0.  1.
       -1    1    3    3    0  502  0.19930995124E+03 -0.18750929810E+04  0.10971987298E+04  0.21816377328E+04  0.50400001928E-02 0. -1.
</event>
<event>
 5   0  0.1193861E-07  0.3785883E+04  0.7818609E-02  0.8049191E-01
        2   -1    0    0  501    0  0.00000000000E+00  0.00000000000E+00  0.25378881011E+04  0.25378881012E+04  0.25500000920E-02 0. -1.
       -2   -1    0    0    0  501  0.00000000000E+00  0.00000000000E+00 -0.14118934482E+04  0.14118934482E+04  0.25500000920E-02 0.  1.
    10030    2    1    2    0    0  0.00000000000E+00  0.00000000000E+00  0.11259946529E+04  0.39497815494E+04  0.37858830317E+04 0.  0.
        3    1    3    3  502    0  0.47332445334E+03  0.17647549915E+04  0.10792227651E+04  0.21220551372E+04  0.10100000352E+00 0.  1.
       -3    1    3    3    0  502 -0.47332445334E+03 -0.17647549915E+04  0.46771887775E+02  0.18277264122E+04  0.10100000352E+00 0. -1.
</event>
<event>
 5   0  0.1174870E-07  0.3700168E+04  0.7818609E-02  0.8067925E-01
        2   -1    0    0  501    0  0.00000000000E+00  0.00000000000E+00  0.23244677388E+04  0.23244677388E+04  0.25500000920E-02 0.  1.
       -2   -1    0    0    0  501  0.00000000000E+00  0.00000000000E+00 -0.14725138514E+04  0.14725138514E+04  0.25500000920E-02 0. -1.
    10030    2    1    2    0    0  0.00000000000E+00  0.00000000000E+00  0.85195388740E+03  0.37969815902E+04  0.37001680732E+04 0.  0.
        5    1    3    3  502    0 -0.10796425153E+04  0.48233549113E+03 -0.10341054500E+04  0.15708824458E+04  0.46999998093E+01 0. -1.
       -5    1    3    3    0  502  0.10796425153E+04 -0.48233549113E+03  0.18860593374E+04  0.22260991444E+04  0.46999998093E+01 0.  1.
</event>
<event>
 5   0  0.1150235E-07  0.3800679E+04  0.7818609E-02  0.8046009E-01
       -2   -1    0    0    0  501  0.00000000000E+00  0.00000000000E+00  0.17530641938E+04  0.17530641938E+04  0.25500000920E-02 0. -1.
        2   -1    0    0  501    0  0.00000000000E+00  0.00000000000E+00 -0.20599872125E+04  0.20599872125E+04  0.25500000920E-02 0.  1.
    10030    2    1    2    0    0  0.00000000000E+00  0.00000000000E+00 -0.30692301868E+03  0.38130514063E+04  0.38006787931E+04 0.  0.
        4    1    3    3  502    0  0.65385129803E+03  0.21269535179E+03 -0.19308176269E+04  0.20495899965E+04  0.12699999809E+01 0.  1.
       -4    1    3    3    0  502 -0.65385129803E+03 -0.21269535179E+03  0.16238946082E+04  0.17634614098E+04  0.12699999809E+01 0. -1.
</event>
<event>
 5   0  0.1174870E-07  0.3824311E+04  0.7818609E-02  0.8040958E-01
        2   -1    0    0  501    0  0.00000000000E+00  0.00000000000E+00  0.27446610790E+04  0.27446610790E+04  0.25500000920E-02 0.  1.
       -2   -1    0    0    0  501  0.00000000000E+00  0.00000000000E+00 -0.13321638897E+04  0.13321638897E+04  0.25500000920E-02 0. -1.
    10030    2    1    2    0    0  0.00000000000E+00  0.00000000000E+00  0.14124971893E+04  0.40768249687E+04  0.38243108550E+04 0.  0.
        5    1    3    3  502    0  0.71410348649E+02  0.10332788845E+03  0.27402525607E+04  0.27431336601E+04  0.46999998093E+01 0.  1.
       -5    1    3    3    0  502 -0.71410348649E+02 -0.10332788845E+03 -0.13277553714E+04  0.13336913086E+04  0.46999998093E+01 0. -1.
</event>
<event>
 5   0  0.7858367E-08  0.3794014E+04  0.7818609E-02  0.8047441E-01
       -2   -1    0    0    0  501  0.00000000000E+00  0.00000000000E+00  0.32277079698E+04  0.32277079698E+04  0.25500000920E-02 0. -1.
        2   -1    0    0  501    0  0.00000000000E+00  0.00000000000E+00 -0.11149196080E+04  0.11149196080E+04  0.25500000920E-02 0.  1.
    10030    2    1    2    0    0  0.00000000000E+00  0.00000000000E+00  0.21127883618E+04  0.43426275779E+04  0.37940136556E+04 0.  0.
        2    1    3    3  502    0 -0.73691209559E+03  0.15035922634E+04  0.20768264948E+04  0.26677776183E+04  0.25500000920E-02 0. -1.
       -2    1    3    3    0  502  0.73691209559E+03 -0.15035922634E+04  0.35961867036E+02  0.16748499596E+04  0.25500000920E-02 0.  1.
</event>
<event>
 5   0  0.3701250E-08  0.4059661E+04  0.7818609E-02  0.7992618E-01
        1   -1    0    0  501    0  0.00000000000E+00  0.00000000000E+00  0.15283344639E+04  0.15283344639E+04  0.50400001928E-02 0.  1.
       -1   -1    0    0    0  501  0.00000000000E+00  0.00000000000E+00 -0.26958838577E+04  0.26958838577E+04  0.50400001928E-02 0. -1.
    10030    2    1    2    0    0  0.00000000000E+00  0.00000000000E+00 -0.11675493938E+04  0.42242183216E+04  0.40596611732E+04 0.  0.
        2    1    3    3  502    0 -0.19581458368E+04 -0.47104211370E+03 -0.32054528957E+03  0.20393540824E+04  0.25500000920E-02 0.  1.
       -2    1    3    3    0  502  0.19581458368E+04  0.47104211370E+03 -0.84700410421E+03  0.21848642391E+04  0.25500000920E-02 0. -1.
</event>
<event>
 5   0  0.1174870E-07  0.3825258E+04  0.7818609E-02  0.8040756E-01
       -2   -1    0    0    0  501  0.00000000000E+00  0.00000000000E+00  0.17698665355E+04  0.17698665355E+04  0.25500000920E-02 0. -1.
        2   -1    0    0  501    0  0.00000000000E+00  0.00000000000E+00 -0.20669073552E+04  0.20669073552E+04  0.25500000920E-02 0.  1.
    10030    2    1    2    0    0  0.00000000000E+00  0.00000000000E+00 -0.29704081964E+03  0.38367738907E+04  0.38252582448E+04 0.  0.
        5    1    3    3  502    0  0.13568445489E+04 -0.13369350286E+04 -0.32139259331E+03  0.19317706100E+04  0.46999998093E+01 0. -1.
       -5    1    3    3    0  502 -0.13568445489E+04  0.13369350286E+04  0.24351773671E+02  0.19050032807E+04  0.46999998093E+01 0.  1.
</event>
<event>
 5   0  0.3701250E-08  0.3788724E+04  0.7818609E-02  0.8048579E-01
       -1   -1    0    0    0  501  0.00000000000E+00  0.00000000000E+00  0.12897161622E+04  0.12897161622E+04  0.50400001928E-02 0. -1.
        1   -1    0    0  501    0  0.00000000000E+00  0.00000000000E+00 -0.27824778532E+04  0.27824778532E+04  0.50400001928E-02 0.  1.
    10030    2    1    2    0    0  0.00000000000E+00  0.00000000000E+00 -0.14927616910E+04  0.40721940155E+04  0.37887236153E+04 0.  0.
        3    1    3    3  502    0 -0.97448642004E+03  0.13511840309E+04 -0.17156777044E+04  0.23914163301E+04  0.10100000352E+00 0.  1.
       -3    1    3    3    0  502  0.97448642004E+03 -0.13511840309E+04  0.22291601342E+03  0.16807776853E+04  0.10100000352E+00 0. -1.
</event>
<event>
 5   0  0.3701250E-08  0.3731593E+04  0.7818609E-02  0.8060996E-01
        1   -1    0    0  501    0  0.00000000000E+00  0.00000000000E+00  0.15919265508E+04  0.15919265508E+04  0.50400001928E-02 0. -1.
       -1   -1    0    0    0  501  0.00000000000E+00  0.00000000000E+00 -0.21867816615E+04  0.21867816615E+04  0.50400001928E-02 0.  1.
    10030    2    1    2    0    0  0.00000000000E+00  0.00000000000E+00 -0.59485511069E+03  0.37787082124E+04  0.37315925758E+04 0.  0.
        2    1    3    3  502    0  0.10008516354E+04  0.10009527009E+04 -0.15283351317E+04  0.20831271158E+04  0.25500000920E-02 0.  1.
       -2    1    3    3    0  502 -0.10008516354E+04 -0.10009527009E+04  0.93348002099E+03  0.16955810966E+04  0.25500000920E-02 0. -1.
</event>
<event>
 5   0  0.3701250E-08  0.3801827E+04  0.7818609E-02  0.8045763E-01
        1   -1    0    0  501    0  0.00000000000E+00  0.00000000000E+00  0.23793161778E+04  0.23793161779E+04  0.50400001928E-02 0.  1.
       -1   -1    0    0    0  501  0.00000000000E+00  0.00000000000E+00 -0.15187020030E+04  0.15187020030E+04  0.50400001928E-02 0. -1.
    10030    2    1    2    0    0  0.00000000000E+00  0.00000000000E+00  0.86061417482E+03  0.38980181809E+04  0.38018270582E+04 0.  0.
        1    1    3    3  502    0 -0.12825931717E+04 -0.12160080111E+04  0.11478359883E+04  0.21074269106E+04  0.50400001928E-02 0. -1.
       -1    1    3    3    0  502  0.12825931717E+04  0.12160080111E+04 -0.28722181348E+03  0.17905912703E+04  0.50400001928E-02 0.  1.
</event>
<event>
 5   0  0.3701250E-08  0.3815043E+04  0.7818609E-02  0.8042934E-01
       -1   -1    0    0    0  501  0.00000000000E+00  0.00000000000E+00  0.21652953491E+04  0.21652953491E+04  0.50400001928E-02 0.  1.
        1   -1    0    0  501    0  0.00000000000E+00  0.00000000000E+00 -0.16804348821E+04  0.16804348821E+04  0.50400001928E-02 0. -1.
    10030    2    1    2    0    0  0.00000000000E+00  0.00000000000E+00  0.48486046703E+03  0.38457302312E+04  0.38150427703E+04 0.  0.
        3    1    3    3  502    0  0.11148981192E+04  0.19910222542E+03 -0.13048425721E+04  0.17277886620E+04  0.10100000352E+00 0. -1.
       -3    1    3    3    0  502 -0.11148981192E+04 -0.19910222542E+03  0.17897030391E+04  0.21179415693E+04  0.10100000352E+00 0.  1.
</event>
<event>
 5   0  0.3889225E-08  0.3807064E+04  0.7818609E-02  0.8044641E-01
        1   -1    0    0  501    0  0.00000000000E+00  0.00000000000E+00  0.17915696393E+04  0.17915696393E+04  0.50400001928E-02 0. -1.
       -1   -1    0    0    0  501  0.00000000000E+00  0.00000000000E+00 -0.20224917051E+04  0.20224917051E+04  0.50400001928E-02 0.  1.
    10030    2    1    2    0    0  0.00000000000E+00  0.00000000000E+00 -0.23092206580E+03  0.38140613443E+04  0.38070643464E+04 0.  0.
        5    1    3    3  502    0 -0.10239522391E+04  0.90764824092E+03  0.12102658485E+04  0.18267646349E+04  0.46999998093E+01 0. -1.
       -5    1    3    3    0  502  0.10239522391E+04 -0.90764824092E+03 -0.14411879143E+04  0.19872967095E+04  0.46999998093E+01 0.  1.
</event>
<event>
 5   0  0.3889225E-08  0.3799277E+04  0.7818609E-02  0.8046310E-01
        1   -1    0    0  501    0  0.00000000000E+00  0.00000000000E+00  0.22886244916E+04  0.22886244916E+04  0.50400001928E-02 0.  1.
       -1   -1    0    0    0  501  0.00000000000E+00  0.00000000000E+00 -0.15767664263E+04  0.15767664263E+04  0.50400001928E-02 0. -1.
    10030    2    1    2    0    0  0.00000000000E+00  0.00000000000E+00  0.71185806521E+03  0.38653909179E+04  0.37992769106E+04 0.  0.
        5    1    3    3  502    0 -0.10938778084E+04 -0.12119475178E+04 -0.63216591951E+03  0.17507259310E+04  0.46999998093E+01 0. -1.
       -5    1    3    3    0  502  0.10938778084E+04  0.12119475178E+04  0.13440239847E+04  0.21146649870E+04  0.46999998093E+01 0.  1.
</event>
<event>
 5   0  0.7858367E-08  0.3795833E+04  0.7818609E-02  0.8047050E-01
        2   -1    0    0  501    0  0.00000000000E+00  0.00000000000E+00  0.15433821551E+04  0.15433821551E+04  0.25500000920E-02 0. -1.
       -2   -1    0    0    0  501  0.00000000000E+00  0.00000000000E+00 -0.23338915519E+04  0.23338915519E+04  0.25500000920E-02 0.  1.
    10030    2    1    2    0    0  0.00000000000E+00  0.00000000000E+00 -0.79050939689E+03  0.38772737070E+04  0.37958327535E+04 0.  0.
        2    1    3    3  502    0 -0.36442025545E+03  0.88132796310E+03 -0.20713585127E+04  0.22803655824E+04  0.25500000920E-02 0.  1.
       -2    1    3    3    0  502  0.36442025545E+03 -0.88132796310E+03  0.12808491158E+04  0.15969081246E+04  0.25500000920E-02 0. -1.
</event>
<event>
 5   0  0.3701250E-08  0.3551539E+04  0.7818609E-02  0.8101683E-01
        1   -1    0    0  501    0  0.00000000000E+00  0.00000000000E+00  0.14187503425E+04  0.14187503425E+04  0.50400001928E-02 0.  1.
       -1   -1    0    0    0  501  0.00000000000E+00  0.00000000000E+00 -0.22226296773E+04  0.22226296773E+04  0.50400001928E-02 0. -1.
    10030    2    1    2    0    0  0.00000000000E+00  0.00000000000E+00 -0.80387933480E+03  0.36413800197E+04  0.35515386051E+04 0.  0.
        4    1    3    3  502    0 -0.24965176334E+03 -0.17373786344E+04 -0.12578546730E+03  0.17597255806E+04  0.12699999809E+01 0. -1.
       -4    1    3    3    0  502  0.24965176334E+03  0.17373786344E+04 -0.67809386750E+03  0.18816544391E+04  0.12699999809E+01 0.  1.
</event>
<event>
 5   0  0.1143283E-07  0.3764105E+04  0.7818609E-02  0.8053902E-01
        2   -1    0    0  501    0  0.00000000000E+00  0.00000000000E+00  0.29300414755E+04  0.29300414755E+04  0.25500000920E-02 0. -1.
       -2   -1    0    0    0  501  0.00000000000E+00  0.00000000000E+00 -0.12088982410E+04  0.12088982410E+04  0.25500000920E-02 0.  1.
    10030    2    1    2    0    0  0.00000000000E+00  0.00000000000E+00  0.17211432345E+04  0.41389397165E+04  0.37641051982E+04 0.  0.
        1    1    3    3  502    0  0.94107152330E+03  0.19286847606E+03  0.26401644318E+04  0.28094985474E+04  0.50400001928E-02 0. -1.
       -1    1    3    3    0  502 -0.94107152330E+03 -0.19286847606E+03 -0.91902119727E+03  0.13294411691E+04  0.50400001928E-02 0.  1.
</event>
<event>
 5   0  0.1143283E-07  0.3819385E+04  0.7818609E-02  0.8042008E-01
       -2   -1    0    0    0  501  0.00000000000E+00  0.00000000000E+00  0.18823464775E+04  0.18823464775E+04  0.25500000920E-02 0. -1.
        2   -1    0    0  501    0  0.00000000000E+00  0.00000000000E+00 -0.19374359180E+04  0.19374359180E+04  0.25500000920E-02 0.  1.
    10030    2    1    2    0    0  0.00000000000E+00  0.00000000000E+00 -0.55089440562E+02  0.38197823955E+04  0.38193851210E+04 0.  0.
        1    1    3    3  502    0 -0.68156732664E+03  0.17450404852E+04  0.34293322594E+03  0.19045481126E+04  0.50400001928E-02 0. -1.
       -1    1    3    3    0  502  0.68156732664E+03 -0.17450404852E+04 -0.39802266651E+03  0.19152342830E+04  0.50400001928E-02 0.  1.
</event>
<event>
 5   0  0.3701250E-08  0.3681603E+04  0.7818609E-02  0.8072051E-01
        1   -1    0    0  501    0  0.00000000000E+00  0.00000000000E+00  0.24182227629E+04  0.24182227629E+04  0.50400001928E-02 0. -1.
       -1   -1    0    0    0  501  0.00000000000E+00  0.00000000000E+00 -0.14012566024E+04  0.14012566024E+04  0.50400001928E-02 0.  1.
    10030    2    1    2    0    0  0.00000000000E+00  0.00000000000E+00  0.10169661605E+04  0.38194793653E+04  0.36816032446E+04 0.  0.
        2    1    3    3  502    0 -0.82494220212E+02 -0.33610815730E+03  0.23841676500E+04  0.24091553236E+04  0.25500000920E-02 0. -1.
       -2    1    3    3    0  502  0.82494220212E+02  0.33610815730E+03 -0.13672014895E+04  0.14103240417E+04  0.25500000920E-02 0.  1.
</event>
<event>
 5   0  0.1150235E-07  0.3796301E+04  0.7818609E-02  0.8046949E-01
        2   -1    0    0  501    0  0.00000000000E+00  0.00000000000E+00  0.13266524243E+04  0.13266524243E+04  0.25500000920E-02 0. -1.
       -2   -1    0    0    0  501  0.00000000000E+00  0.00000000000E+00 -0.27158394195E+04  0.27158394195E+04  0.25500000920E-02 0.  1.
    10030    2    1    2    0    0  0.00000000000E+00  0.00000000000E+00 -0.13891869952E+04  0.40424918438E+04  0.37963008047E+04 0.  0.
        4    1    3    3  502    0 -0.17238683690E+04  0.48216949758E+03 -0.13670224061E+04  0.22523235668E+04  0.12699999809E+01 0.  1.
       -4    1    3    3    0  502  0.17238683690E+04 -0.48216949758E+03 -0.22164589092E+02  0.17901682770E+04  0.12699999809E+01 0. -1.
</event>
<event>
 5   0  0.1143283E-07  0.3799732E+04  0.7818609E-02  0.8046212E-01
       -2   -1    0    0    0  501  0.00000000000E+00  0.00000000000E+00  0.19603617912E+04  0.19603617912E+04  0.25500000920E-02 0. -1.
        2   -1    0    0  501    0  0.00000000000E+00  0.00000000000E+00 -0.18412367695E+04  0.18412367695E+04  0.25500000920E-02 0.  1.
    10030    2    1    2    0    0  0.00000000000E+00  0.00000000000E+00  0.11912502170E+03  0.38015985606E+04  0.37997316807E+04 0.  0.
        1    1    3    3  502    0  0.10746842948E+04  0.11846030788E+04  0.10853756929E+04  0.19329436574E+04  0.50400001928E-02 0. -1.
       -1    1    3    3    0  502 -0.10746842948E+04 -0.11846030788E+04 -0.96625067123E+03  0.18686549032E+04  0.50400001928E-02 0.  1.
</event>
<event>
 5   0  0.3701250E-08  0.3791470E+04  0.7818609E-02  0.8047988E-01
        1   -1    0    0  501    0  0.00000000000E+00  0.00000000000E+00  0.21185826046E+04  0.21185826046E+04  0.50400001928E-02 0. -1.
       -1   -1    0    0    0  501  0.00000000000E+00  0.00000000000E+00 -0.16963279873E+04  0.16963279873E+04  0.50400001928E-02 0.  1.
    10030    2    1    2    0    0  0.00000000000E+00  0.00000000000E+00  0.42225461736E+03  0.38149105919E+04  0.37914698815E+04 0.  0.
        2    1    3    3  502    0  0.93030183024E+03 -0.16499572411E+04  0.28900461674E+03  0.19160751711E+04  0.25500000920E-02 0.  1.
       -2    1    3    3    0  502 -0.93030183024E+03  0.16499572411E+04  0.13325000062E+03  0.18988354208E+04  0.25500000920E-02 0. -1.
</event>
<event>
 5   0  0.1143283E-07  0.3792271E+04  0.7818609E-02  0.8047816E-01
        2   -1    0    0  501    0  0.00000000000E+00  0.00000000000E+00  0.23684457751E+04  0.23684457751E+04  0.25500000920E-02 0.  1.
       -2   -1    0    0    0  501  0.00000000000E+00  0.00000000000E+00 -0.15180123631E+04  0.15180123631E+04  0.25500000920E-02 0. -1.
    10030    2    1    2    0    0  0.00000000000E+00  0.00000000000E+00  0.85043341192E+03  0.38864581382E+04  0.37922710705E+04 0.  0.
        1    1    3    3  502    0 -0.99867779976E+03 -0.78495922029E+03  0.18679491853E+04  0.22589272862E+04  0.50400001928E-02 0.  1.
       -1    1    3    3    0  502  0.99867779976E+03  0.78495922029E+03 -0.10175157734E+04  0.16275308521E+04  0.50400001928E-02 0. -1.
</event>
<event>
 5   0  0.3701250E-08  0.3833296E+04  0.7818609E-02  0.8039047E-01
       -1   -1    0    0    0  501  0.00000000000E+00  0.00000000000E+00  0.15701991890E+04  0.15701991890E+04  0.50400001928E-02 0.  1.
        1   -1    0    0  501    0  0.00000000000E+00  0.00000000000E+00 -0.23395370042E+04  0.23395370042E+04  0.50400001928E-02 0. -1.
    10030    2    1    2    0    0  0.00000000000E+00  0.00000000000E+00 -0.76933781515E+03  0.39097361932E+04  0.38332957656E+04 0.  0.
        4    1    3    3  502    0 -0.56140034841E+03  0.23506668145E+03  0.14690193383E+04  0.15901088406E+04  0.12699999809E+01 0.  1.
       -4    1    3    3    0  502  0.56140034841E+03 -0.23506668145E+03 -0.22383571534E+04  0.23196273526E+04  0.12699999809E+01 0. -1.
</event>
<event>
 5   0  0.1174870E-07  0.3798646E+04  0.7818609E-02  0.8046446E-01
        2   -1    0    0  501    0  0.00000000000E+00  0.00000000000E+00  0.24267412205E+04  0.24267412205E+04  0.25500000920E-02 0. -1.
       -2   -1    0    0    0  501  0.00000000000E+00  0.00000000000E+00 -0.14865315155E+04  0.14865315155E+04  0.25500000920E-02 0.  1.
    10030    2    1    2    0    0  0.00000000000E+00  0.00000000000E+00  0.94020970507E+03  0.39132727360E+04  0.37986457083E+04 0.  0.
        5    1    3    3  502    0 -0.97491889888E+03 -0.14520874279E+04  0.12329779710E+04  0.21399255886E+04  0.46999998093E+01 0. -1.
       -5    1    3    3    0  502  0.97491889888E+03  0.14520874279E+04 -0.29276826593E+03  0.17733471474E+04  0.46999998093E+01 0.  1.
</event>
<event>
 5   0  0.3701250E-08  0.3791704E+04  0.7818609E-02  0.8047938E-01
        1   -1    0    0  501    0  0.00000000000E+00  0.00000000000E+00  0.11917194557E+04  0.11917194557E+04  0.50400001928E-02 0.  1.
       -1   -1    0    0    0  501  0.00000000000E+00  0.00000000000E+00 -0.30160237755E+04  0.30160237755E+04  0.50400001928E-02 0. -1.
    10030    2    1    2    0    0  0.00000000000E+00  0.00000000000E+00 -0.18243043199E+04  0.42077432312E+04  0.37917036868E+04 0.  0.
        4    1    3    3  502    0  0.30217450933E+03  0.14429779043E+04 -0.22348933693E+04  0.26773577743E+04  0.12699999809E+01 0. -1.
       -4    1    3    3    0  502 -0.30217450933E+03 -0.14429779043E+04  0.41058904947E+03  0.15303854569E+04  0.12699999809E+01 0.  1.
</event>
<event>
 5   0  0.1150235E-07  0.3802023E+04  0.7818609E-02  0.8045721E-01
       -2   -1    0    0    0  501  0.00000000000E+00  0.00000000000E+00  0.21394716495E+04  0.21394716495E+04  0.25500000920E-02 0. -1.
        2   -1    0    0  501    0  0.00000000000E+00  0.00000000000E+00 -0.16891297916E+04  0.16891297916E+04  0.25500000920E-02 0.  1.
    10030    2    1    2    0    0  0.00000000000E+00  0.00000000000E+00  0.45034185785E+03  0.38286014411E+04  0.38020233042E+04 0.  0.
        4    1    3    3  502    0 -0.48740278061E+03 -0.18288627113E+04  0.46324759002E+02  0.18932638177E+04  0.12699999809E+01 0.  1.
       -4    1    3    3    0  502  0.48740278061E+03  0.18288627113E+04  0.40401709885E+03  0.19353376234E+04  0.12699999809E+01 0. -1.
</event>
<event>
 5   0  0.3701250E-08  0.3796433E+04  0.7818609E-02  0.8046921E-01
       -1   -1    0    0    0  501  0.00000000000E+00  0.00000000000E+00  0.18324184312E+04  0.18324184312E+04  0.50400001928E-02 0.  1.
        1   -1    0    0  501    0  0.00000000000E+00  0.00000000000E+00 -0.19663777225E+04  0.19663777225E+04  0.50400001928E-02 0. -1.
    10030    2    1    2    0    0  0.00000000000E+00  0.00000000000E+00 -0.13395929134E+03  0.37987961537E+04  0.37964334744E+04 0.  0.
        4    1    3    3  502    0 -0.18257258595E+04 -0.51727092387E+03 -0.11580597194E+03  0.19011198697E+04  0.12699999809E+01 0.  1.
       -4    1    3    3    0  502  0.18257258595E+04  0.51727092387E+03 -0.18153319398E+02  0.18976762840E+04  0.12699999809E+01 0. -1.
</event>
<event>
 5   0  0.3701250E-08  0.3746930E+04  0.7818609E-02  0.8057640E-01
        1   -1    0    0  501    0  0.00000000000E+00  0.00000000000E+00  0.25796967889E+04  0.25796967889E+04  0.50400001928E-02 0. -1.
       -1   -1    0    0    0  501  0.00000000000E+00  0.00000000000E+00 -0.13605751006E+04  0.13605751007E+04  0.50400001928E-02 0.  1.
    10030    2    1    2    0    0  0.00000000000E+00  0.00000000000E+00  0.12191216882E+04  0.39402718895E+04  0.37469300597E+04 0.  0.
        2    1    3    3  502    0  0.11832883609E+04 -0.14775106151E+03 -0.90994466316E+03  0.15000003371E+04  0.25500000920E-02 0.  1.
       -2    1    3    3    0  502 -0.11832883609E+04  0.14775106151E+03  0.21290663514E+04  0.24402715525E+04  0.25500000920E-02 0. -1.
</event>
<event>
 5   0  0.7858367E-08  0.3812230E+04  0.7818609E-02  0.8043536E-01
       -2   -1    0    0    0  501  0.00000000000E+00  0.00000000000E+00  0.22751977058E+04  0.22751977058E+04  0.25500000920E-02 0. -1.
        2   -1    0    0  501    0  0.00000000000E+00  0.00000000000E+00 -0.15969045152E+04  0.15969045152E+04  0.25500000920E-02 0.  1.
    10030    2    1    2    0    0  0.00000000000E+00  0.00000000000E+00  0.67829319062E+03  0.38721022211E+04  0.38122295259E+04 0.  0.
        2    1    3    3  502    0 -0.34211255216E+03  0.88223418591E+03 -0.13414992024E+04  0.16416449881E+04  0.25500000920E-02 0.  1.
       -2    1    3    3    0  502  0.34211255216E+03 -0.88223418591E+03  0.20197923930E+04  0.22304572329E+04  0.25500000920E-02 0. -1.
</event>
<event>
 5   0  0.7858367E-08  0.3787871E+04  0.7818609E-02  0.8048763E-01
       -2   -1    0    0    0  501  0.00000000000E+00  0.00000000000E+00  0.32172924577E+04  0.32172924577E+04  0.25500000920E-02 0.  1.
        2   -1    0    0  501    0  0.00000000000E+00  0.00000000000E+00 -0.11149099422E+04  0.11149099422E+04  0.25500000920E-02 0. -1.
    10030    2    1    2    0    0  0.00000000000E+00  0.00000000000E+00  0.21023825155E+04  0.43322023999E+04  0.37878708257E+04 0.  0.
        2    1    3    3  502    0 -0.41659916726E+03  0.11060094084E+04 -0.64140528745E+03  0.13446978919E+04  0.25500000920E-02 0. -1.
       -2    1    3    3    0  502  0.41659916726E+03 -0.11060094084E+04  0.27437878029E+04  0.29875045080E+04  0.25500000920E-02 0.  1.
</event>
<event>
 5   0  0.1174870E-07  0.3800225E+04  0.7818609E-02  0.8046107E-01
        2   -1    0    0  501    0  0.00000000000E+00  0.00000000000E+00  0.24808798945E+04  0.24808798945E+04  0.25500000920E-02 0.  1.
       -2   -1    0    0    0  501  0.00000000000E+00  0.00000000000E+00 -0.14553009053E+04  0.14553009053E+04  0.25500000920E-02 0. -1.
    10030    2    1    2    0    0  0.00000000000E+00  0.00000000000E+00  0.10255789891E+04  0.39361807998E+04  0.38002246020E+04 0.  0.
        5    1    3    3  502    0  0.77080212489E+03  0.31164035245E+03  0.22824660929E+04  0.24291828215E+04  0.46999998093E+01 0.  1.
       -5    1    3    3    0  502 -0.77080212489E+03 -0.31164035245E+03 -0.12568871038E+04  0.15069979783E+04  0.46999998093E+01 0. -1.
</event>
<event>
 5   0  0.1150235E-07  0.3809351E+04  0.7818609E-02  0.8044151E-01
       -2   -1    0    0    0  501  0.00000000000E+00  0.00000000000E+00  0.17989580469E+04  0.17989580469E+04  0.25500000920E-02 0. -1.
        2   -1    0    0  501    0  0.00000000000E+00  0.00000000000E+00 -0.20166058031E+04  0.20166058031E+04  0.25500000920E-02 0.  1.
    10030    2    1    2    0    0  0.00000000000E+00  0.00000000000E+00 -0.21764775614E+03  0.38155638500E+04  0.38093512502E+04 0.  0.
        4    1    3    3  502    0 -0.42573243745E+03 -0.16654729376E+03 -0.19608395170E+04  0.20134247773E+04  0.12699999809E+01 0.  1.
       -4    1    3    3    0  502  0.42573243745E+03  0.16654729376E+03  0.17431917609E+04  0.18021390727E+04  0.12699999809E+01 0. -1.
</event>
<event>
 5   0  0.3701250E-08  0.3797854E+04  0.7818609E-02  0.8046616E-01
       -1   -1    0    0    0  501  0.00000000000E+00  0.00000000000E+00  0.30126242807E+04  0.30126242807E+04  0.50400001928E-02 0. -1.
        1   -1    0    0  501    0  0.00000000000E+00  0.00000000000E+00 -0.11969377583E+04  0.11969377583E+04  0.50400001928E-02 0.  1.
    10030    2    1    2    0    0  0.00000000000E+00  0.00000000000E+00  0.18156865224E+04  0.42095620389E+04  0.37978540009E+04 0.  0.
        1    1    3    3  502    0 -0.18514984867E+04  0.22372103837E+03  0.13041288280E+04  0.22757086257E+04  0.50400001928E-02 0. -1.
       -1    1    3    3    0  502  0.18514984867E+04 -0.22372103837E+03  0.51155769440E+03  0.19338534132E+04  0.50400001928E-02 0.  1.
</event>
<event>
 5   0  0.7858367E-08  0.3800172E+04  0.7818609E-02  0.8046118E-01
        2   -1    0    0  501    0  0.00000000000E+00  0.00000000000E+00  0.21100816877E+04  0.21100816877E+04  0.25500000920E-02 0.  1.
       -2   -1    0    0    0  501  0.00000000000E+00  0.00000000000E+00 -0.17109888135E+04  0.17109888135E+04  0.25500000920E-02 0. -1.
    10030    2    1    2    0    0  0.00000000000E+00  0.00000000000E+00  0.39909287415E+03  0.38210705012E+04  0.38001716610E+04 0.  0.
        2    1    3    3  502    0 -0.12017386971E+04  0.14439234991E+04 -0.87038890383E+02  0.18806027587E+04  0.25500000920E-02 0. -1.
       -2    1    3    3    0  502  0.12017386971E+04 -0.14439234991E+04  0.48613176453E+03  0.19404677426E+04  0.25500000920E-02 0.  1.
</event>
<event>
 5   0  0.1174870E-07  0.3819626E+04  0.7818609E-02  0.8041956E-01
        2   -1    0    0  501    0  0.00000000000E+00  0.00000000000E+00  0.23492073776E+04  0.23492073776E+04  0.25500000920E-02 0.  1.
       -2   -1    0    0    0  501  0.00000000000E+00  0.00000000000E+00 -0.15526030429E+04  0.15526030429E+04  0.25500000920E-02 0. -1.
    10030    2    1    2    0    0  0.00000000000E+00  0.00000000000E+00  0.79660433468E+03  0.39018104204E+04  0.38196264334E+04 0.  0.
        5    1    3    3  502    0  0.18486663712E+03 -0.15574020553E+04  0.15115616029E+04  0.21781913150E+04  0.46999998093E+01 0.  1.
       -5    1    3    3    0  502 -0.18486663712E+03  0.15574020553E+04 -0.71495726818E+03  0.17236191055E+04  0.46999998093E+01 0. -1.
</event>
<event>
 5   0  0.1143283E-07  0.3808589E+04  0.7818609E-02  0.8044314E-01
        2   -1    0    0  501    0  0.00000000000E+00  0.00000000000E+00  0.21572519124E+04  0.21572519124E+04  0.25500000920E-02 0. -1.
       -2   -1    0    0    0  501  0.00000000000E+00  0.00000000000E+00 -0.16809984202E+04  0.16809984202E+04  0.25500000920E-02 0.  1.
    10030    2    1    2    0    0  0.00000000000E+00  0.00000000000E+00  0.47625349222E+03  0.38382503327E+04  0.38085887448E+04 0.  0.
        1    1    3    3  502    0 -0.61445157146E+03 -0.61040726873E+03 -0.14710144762E+04  0.17070534135E+04  0.50400001928E-02 0.  1.
       -1    1    3    3    0  502  0.61445157146E+03  0.61040726873E+03  0.19472679684E+04  0.21311969192E+04  0.50400001928E-02 0. -1.
</event>
<event>
 5   0  0.3701250E-08  0.3815586E+04  0.7818609E-02  0.8042819E-01
       -1   -1    0    0    0  501  0.00000000000E+00  0.00000000000E+00  0.14393024546E+04  0.14393024546E+04  0.50400001928E-02 0.  1.
        1   -1    0    0  501    0  0.00000000000E+00  0.00000000000E+00 -0.25287759430E+04  0.25287759430E+04  0.50400001928E-02 0. -1.
    10030    2    1    2    0    0  0.00000000000E+00  0.00000000000E+00 -0.10894734884E+04  0.39680783977E+04  0.38155856285E+04 0.  0.
        1    1    3    3  502    0 -0.11149945355E+04 -0.41520958700E+03  0.10061941466E+04  0.15582164407E+04  0.50400001928E-02 0.  1.
       -1    1    3    3    0  502  0.11149945355E+04  0.41520958700E+03 -0.20956676350E+04  0.24098619570E+04  0.50400001928E-02 0. -1.
</event>
<event>
 5   0  0.1174870E-07  0.3810774E+04  0.7818609E-02  0.8043847E-01
        2   -1    0    0  501    0  0.00000000000E+00  0.00000000000E+00  0.17625411122E+04  0.17625411122E+04  0.25500000920E-02 0. -1.
       -2   -1    0    0    0  501  0.00000000000E+00  0.00000000000E+00 -0.20598095297E+04  0.20598095297E+04  0.25500000920E-02 0.  1.
    10030    2    1    2    0    0  0.00000000000E+00  0.00000000000E+00 -0.29726841747E+03  0.38223506419E+04  0.38107736639E+04 0.  0.
        5    1    3    3  502    0 -0.39828841650E+03 -0.43703792515E+03 -0.19654461104E+04  0.20524707827E+04  0.46999998093E+01 0.  1.
       -5    1    3    3    0  502  0.39828841650E+03  0.43703792515E+03  0.16681776930E+04  0.17698798592E+04  0.46999998093E+01 0. -1.
</event>
<event>
 5   0  0.3701250E-08  0.3811560E+04  0.7818609E-02  0.8043679E-01
        1   -1    0    0  501    0  0.00000000000E+00  0.00000000000E+00  0.20940133255E+04  0.20940133255E+04  0.50400001928E-02 0.  1.
       -1   -1    0    0    0  501  0.00000000000E+00  0.00000000000E+00 -0.17344671443E+04  0.17344671443E+04  0.50400001928E-02 0. -1.
    10030    2    1    2    0    0  0.00000000000E+00  0.00000000000E+00  0.35954618123E+03  0.38284804698E+04  0.38115599498E+04 0.  0.
        2    1    3    3  502    0  0.37905715363E+03  0.18200570467E+03 -0.16872919790E+04  0.17388975314E+04  0.25500000920E-02 0. -1.
       -2    1    3    3    0  502 -0.37905715363E+03 -0.18200570467E+03  0.20468381602E+04  0.20895829384E+04  0.25500000920E-02 0.  1.
</event>
<event>
 5   0  0.7858367E-08  0.3749561E+04  0.7818609E-02  0.8057067E-01
       -2   -1    0    0    0  501  0.00000000000E+00  0.00000000000E+00  0.25799421728E+04  0.25799421728E+04  0.25500000920E-02 0.  1.
        2   -1    0    0  501    0  0.00000000000E+00  0.00000000000E+00 -0.13623565070E+04  0.13623565070E+04  0.25500000920E-02 0. -1.
    10030    2    1    2    0    0  0.00000000000E+00  0.00000000000E+00  0.12175856658E+04  0.39422986798E+04  0.37495605112E+04 0.  0.
        2    1    3    3  502    0 -0.68095270811E+03  0.33668362010E+03  0.24108827992E+04  0.25277278972E+04  0.25500000920E-02 0.  1.
       -2    1    3    3    0  502  0.68095270811E+03 -0.33668362010E+03 -0.11932971333E+04  0.14145707827E+04  0.25500000920E-02 0. -1.
</event>
<event>
 5   0  0.7858367E-08  0.3799636E+04  0.7818609E-02  0.8046233E-01
        2   -1    0    0  501    0  0.00000000000E+00  0.00000000000E+00  0.17922496140E+04  0.17922496140E+04  0.25500000920E-02 0.  1.
       -2   -1    0    0    0  501  0.00000000000E+00  0.00000000000E+00 -0.20138421191E+04  0.20138421191E+04  0.25500000920E-02 0. -1.
    10030    2    1    2    0    0  0.00000000000E+00  0.00000000000E+00 -0.22159250505E+03  0.38060917331E+04  0.37996356460E+04 0.  0.
        2    1    3    3  502    0  0.12132201817E+04  0.91540479859E+03  0.10310698500E+04  0.18365658687E+04  0.25500000920E-02 0.  1.
       -2    1    3    3    0  502 -0.12132201817E+04 -0.91540479859E+03 -0.12526623551E+04  0.19695258643E+04  0.25500000920E-02 0. -1.
</event>
<event>
 5   0  0.1174870E-07  0.3803817E+04  0.7818609E-02  0.8045336E-01
        2   -1    0    0  501    0  0.00000000000E+00  0.00000000000E+00  0.22820162508E+04  0.22820162508E+04  0.25500000920E-02 0. -1.
       -2   -1    0    0    0  501  0.00000000000E+00  0.00000000000E+00 -0.15851136253E+04  0.15851136253E+04  0.25500000920E-02 0.  1.
    10030    2    1    2    0    0  0.00000000000E+00  0.00000000000E+00  0.69690262547E+03  0.38671298762E+04  0.38038165321E+04 0.  0.
        5    1    3    3  502    0 -0.62329477300E+03  0.11511162304E+04 -0.10542487052E+04  0.16807817742E+04  0.46999998093E+01 0.  1.
       -5    1    3    3    0  502  0.62329477300E+03 -0.11511162304E+04  0.17511513307E+04  0.21863481020E+04  0.46999998093E+01 0. -1.
</event>
<event>
 5   0  0.3701250E-08  0.3810313E+04  0.7818609E-02  0.8043945E-01
       -1   -1    0    0    0  501  0.00000000000E+00  0.00000000000E+00  0.16512236047E+04  0.16512236047E+04  0.50400001928E-02 0.  1.
        1   -1    0    0  501    0  0.00000000000E+00  0.00000000000E+00 -0.21981409351E+04  0.21981409351E+04  0.50400001928E-02 0. -1.
    10030    2    1    2    0    0  0.00000000000E+00  0.00000000000E+00 -0.54691733045E+03  0.38493645398E+04  0.38103134771E+04 0.  0.
        4    1    3    3  502    0 -0.57782045907E+03  0.15682908499E+04  0.65035731598E+03  0.17934265873E+04  0.12699999809E+01 0.  1.
       -4    1    3    3    0  502  0.57782045907E+03 -0.15682908499E+04 -0.11972746464E+04  0.20559379525E+04  0.12699999809E+01 0. -1.
</event>
<event>
 5   0  0.3701250E-08  0.3802923E+04  0.7818609E-02  0.8045528E-01
        1   -1    0    0  501    0  0.00000000000E+00  0.00000000000E+00  0.19337568658E+04  0.19337568658E+04  0.50400001928E-02 0. -1.
       -1   -1    0    0    0  501  0.00000000000E+00  0.00000000000E+00 -0.18697054265E+04  0.18697054265E+04  0.50400001928E-02 0.  1.
    10030    2    1    2    0    0  0.00000000000E+00  0.00000000000E+00  0.64051439360E+02  0.38034622923E+04  0.38029229314E+04 0.  0.
        4    1    3    3  502    0 -0.42398419020E+03  0.10067591693E+04 -0.15245457056E+04  0.18755180191E+04  0.12699999809E+01 0.  1.
       -4    1    3    3    0  502  0.42398419020E+03 -0.10067591693E+04  0.15885971450E+04  0.19279442732E+04  0.12699999809E+01 0. -1.
</event>
<event>
 5   0  0.7858367E-08  0.3796644E+04  0.7818609E-02  0.8046875E-01
        2   -1    0    0  501    0  0.00000000000E+00  0.00000000000E+00  0.20552878229E+04  0.20552878229E+04  0.25500000920E-02 0. -1.
       -2   -1    0    0    0  501  0.00000000000E+00  0.00000000000E+00 -0.17533439132E+04  0.17533439132E+04  0.25500000920E-02 0.  1.
    10030    2    1    2    0    0  0.00000000000E+00  0.00000000000E+00  0.30194390970E+03  0.38086317360E+04  0.37966439886E+04 0.  0.
        2    1    3    3  502    0  0.97095308042E+03  0.49718922047E+03 -0.14075355488E+04  0.17807591995E+04  0.25500000920E-02 0.  1.
       -2    1    3    3    0  502 -0.97095308042E+03 -0.49718922047E+03  0.17094794585E+04  0.20278725365E+04  0.25500000920E-02 0. -1.
</event>
<event>
 5   0  0.1143283E-07  0.3800517E+04  0.7818609E-02  0.8046044E-01
        2   -1    0    0  501    0  0.00000000000E+00  0.00000000000E+00  0.31180486785E+04  0.31180486785E+04  0.25500000920E-02 0. -1.
       -2   -1    0    0    0  501  0.00000000000E+00  0.00000000000E+00 -0.11580905734E+04  0.11580905734E+04  0.25500000920E-02 0.  1.
    10030    2    1    2    0    0  0.00000000000E+00  0.00000000000E+00  0.19599581051E+04  0.42761392519E+04  0.38005172185E+04 0.  0.
        1    1    3    3  502    0  0.38859671613E+03 -0.10447357619E+04 -0.75161491617E+03  0.13443977098E+04  0.50400001928E-02 0.  1.
       -1    1    3    3    0  502 -0.38859671613E+03  0.10447357619E+04  0.27115730213E+04  0.29317415421E+04  0.50400001928E-02 0. -1.
</event>
<event>
 5   0  0.1150235E-07  0.3869233E+04  0.7818609E-02  0.8031459E-01
        2   -1    0    0  501    0  0.00000000000E+00  0.00000000000E+00  0.28548173758E+04  0.28548173758E+04  0.25500000920E-02 0.  1.
       -2   -1    0    0    0  501  0.00000000000E+00  0.00000000000E+00 -0.13110261268E+04  0.13110261268E+04  0.25500000920E-02 0. -1.
    10030    2    1    2    0    0  0.00000000000E+00  0.00000000000E+00  0.15437912490E+04  0.41658435026E+04  0.38692325683E+04 0.  0.
        4    1    3    3  502    0 -0.12376179687E+04  0.14819082999E+04  0.64008466330E+03  0.20340748351E+04  0.12699999809E+01 0. -1.
       -4    1    3    3    0  502  0.12376179687E+04 -0.14819082999E+04  0.90370658566E+03  0.21317686675E+04  0.12699999809E+01 0.  1.
</event>
<event>
 5   0  0.1174870E-07  0.3802829E+04  0.7818609E-02  0.8045548E-01
        2   -1    0    0  501    0  0.00000000000E+00  0.00000000000E+00  0.31438557054E+04  0.31438557054E+04  0.25500000920E-02 0.  1.
       -2   -1    0    0    0  501  0.00000000000E+00  0.00000000000E+00 -0.11499819556E+04  0.11499819556E+04  0.25500000920E-02 0. -1.
    10030    2    1    2    0    0  0.00000000000E+00  0.00000000000E+00  0.19938737499E+04  0.42938376610E+04  0.38028291217E+04 0.  0.
        5    1    3    3  502    0 -0.13081358842E+04  0.31619573925E+03 -0.51967989513E+03  0.14426671551E+04  0.46999998093E+01 0. -1.
       -5    1    3    3    0  502  0.13081358842E+04 -0.31619573925E+03  0.25135536450E+04  0.28511705059E+04  0.46999998093E+01 0.  1.
</event>
<event>
 5   0  0.1193861E-07  0.3779330E+04  0.7818609E-02  0.8050605E-01
       -2   -1    0    0    0  501  0.00000000000E+00  0.00000000000E+00  0.17580026654E+04  0.17580026654E+04  0.25500000920E-02 0.  1.
        2   -1    0    0  501    0  0.00000000000E+00  0.00000000000E+00 -0.20311876225E+04  0.20311876225E+04  0.25500000920E-02 0. -1.
    10030    2    1    2    0    0  0.00000000000E+00  0.00000000000E+00 -0.27318495710E+03  0.37891902879E+04  0.37793297047E+04 0.  0.
        3    1    3    3  502    0 -0.16105099461E+04 -0.94583448154E+03  0.15136427043E+03  0.18738346526E+04  0.10100000352E+00 0. -1.
       -3    1    3    3    0  502  0.16105099461E+04  0.94583448154E+03 -0.42454922753E+03  0.19153556353E+04  0.10100000352E+00 0.  1.
</event>
<event>
 5   0  0.3701250E-08  0.3806540E+04  0.7818609E-02  0.8044753E-01
        1   -1    0    0  501    0  0.00000000000E+00  0.00000000000E+00  0.17242698858E+04  0.17242698858E+04  0.50400001928E-02 0. -1.
       -1   -1    0    0    0  501  0.00000000000E+00  0.00000000000E+00 -0.21008523509E+04  0.21008523509E+04  0.50400001928E-02 0.  1.
    10030    2    1    2    0    0  0.00000000000E+00  0.00000000000E+00 -0.37658246516E+03  0.38251222367E+04  0.38065398688E+04 0.  0.
        4    1    3    3  502    0  0.14842109348E+03  0.18123785178E+04  0.37631468913E+03  0.18569757863E+04  0.12699999809E+01 0.  1.
       -4    1    3    3    0  502 -0.14842109348E+03 -0.18123785178E+04 -0.75289715428E+03  0.19681464505E+04  0.12699999809E+01 0. -1.
</event>
<event>
 5   0  0.3701250E-08  0.3790605E+04  0.7818609E-02  0.8048174E-01
       -1   -1    0    0    0  501  0.00000000000E+00  0.00000000000E+00  0.16943196822E+04  0.16943196822E+04  0.50400001928E-02 0.  1.
        1   -1    0    0  501    0  0.00000000000E+00  0.00000000000E+00 -0.21201258246E+04  0.21201258246E+04  0.50400001928E-02 0. -1.
    10030    2    1    2    0    0  0.00000000000E+00  0.00000000000E+00 -0.42580614242E+03  0.38144455068E+04  0.37906046554E+04 0.  0.
        1    1    3    3  502    0 -0.97060609637E+01  0.48270899300E+03  0.16314003359E+04  0.17013433621E+04  0.50400001928E-02 0.  1.
       -1    1    3    3    0  502  0.97060609637E+01 -0.48270899300E+03 -0.20572064784E+04  0.21131021448E+04  0.50400001928E-02 0. -1.
</event>
<event>
 5   0  0.3701250E-08  0.3793944E+04  0.7818609E-02  0.8047456E-01
        1   -1    0    0  501    0  0.00000000000E+00  0.00000000000E+00  0.19604477845E+04  0.19604477845E+04  0.50400001928E-02 0. -1.
       -1   -1    0    0    0  501  0.00000000000E+00  0.00000000000E+00 -0.18355518962E+04  0.18355518963E+04  0.50400001928E-02 0.  1.
    10030    2    1    2    0    0  0.00000000000E+00  0.00000000000E+00  0.12489588829E+03  0.37959996808E+04  0.37939444637E+04 0.  0.
        1    1    3    3  502    0 -0.65287193539E+03 -0.66145751654E+02 -0.17183720087E+04  0.18394073460E+04  0.50400001928E-02 0.  1.
       -1    1    3    3    0  502  0.65287193539E+03  0.66145751654E+02  0.18432678970E+04  0.19565923348E+04  0.50400001928E-02 0. -1.
</event>
<event>
 5   0  0.1174870E-07  0.3796164E+04  0.7818609E-02  0.8046979E-01
       -2   -1    0    0    0  501  0.00000000000E+00  0.00000000000E+00  0.18925979748E+04  0.18925979748E+04  0.25500000920E-02 0.  1.
        2   -1    0    0  501    0  0.00000000000E+00  0.00000000000E+00 -0.19035815498E+04  0.19035815498E+04  0.25500000920E-02 0. -1.
    10030    2    1    2    0    0  0.00000000000E+00  0.00000000000E+00 -0.10983574932E+02  0.37961795246E+04  0.37961636351E+04 0.  0.
        5    1    3    3  502    0  0.56142891544E+03  0.44379696481E+03  0.17525071303E+04  0.18930033030E+04  0.46999998093E+01 0.  1.
       -5    1    3    3    0  502 -0.56142891544E+03 -0.44379696481E+03 -0.17634907053E+04  0.19031762217E+04  0.46999998093E+01 0. -1.
</event>
<event>
 5   0  0.3701250E-08  0.3811893E+04  0.7818609E-02  0.8043608E-01
        1   -1    0    0  501    0  0.00000000000E+00  0.00000000000E+00  0.19345940072E+04  0.19345940072E+04  0.50400001928E-02 0. -1.
       -1   -1    0    0    0  501  0.00000000000E+00  0.00000000000E+00 -0.18777228150E+04  0.18777228150E+04  0.50400001928E-02 0.  1.
    10030    2    1    2    0    0  0.00000000000E+00  0.00000000000E+00  0.56871192214E+02  0.38123168221E+04  0.38118926034E+04 0.  0.
        1    1    3    3  502    0 -0.55204159751E+02 -0.18696905405E+04  0.39431929361E+03  0.19116165729E+04  0.50400001928E-02 0. -1.
       -1    1    3    3    0  502  0.55204159751E+02  0.18696905405E+04 -0.33744810140E+03  0.19007002493E+04  0.50400001928E-02 0.  1.
</event>
<event>
 5   0  0.1143283E-07  0.3797745E+04  0.7818609E-02  0.8046639E-01
       -2   -1    0    0    0  501  0.00000000000E+00  0.00000000000E+00  0.14983592697E+04  0.14983592697E+04  0.25500000920E-02 0.  1.
        2   -1    0    0  501    0  0.00000000000E+00  0.00000000000E+00 -0.24064438395E+04  0.24064438395E+04  0.25500000920E-02 0. -1.
    10030    2    1    2    0    0  0.00000000000E+00  0.00000000000E+00 -0.90808456983E+03  0.39048031092E+04  0.37977453489E+04 0.  0.
        1    1    3    3  502    0 -0.13739638927E+03  0.86973532352E+03  0.12757629931E+04  0.15501253225E+04  0.50400001928E-02 0.  1.
       -1    1    3    3    0  502  0.13739638927E+03 -0.86973532352E+03 -0.21838475630E+04  0.23546777867E+04  0.50400001928E-02 0. -1.
</event>
<event>
 5   0  0.3701250E-08  0.3809492E+04  0.7818609E-02  0.8044121E-01
        1   -1    0    0  501    0  0.00000000000E+00  0.00000000000E+00  0.14672992122E+04  0.14672992122E+04  0.50400001928E-02 0.  1.
       -1   -1    0    0    0  501  0.00000000000E+00  0.00000000000E+00 -0.24726085638E+04  0.24726085638E+04  0.50400001928E-02 0. -1.
    10030    2    1    2    0    0  0.00000000000E+00  0.00000000000E+00 -0.10053093516E+04  0.39399077760E+04  0.38094916185E+04 0.  0.
        1    1    3    3  502    0  0.63468778942E+03  0.15674277817E+04  0.40393796836E+03  0.17386271375E+04  0.50400001928E-02 0.  1.
       -1    1    3    3    0  502 -0.63468778942E+03 -0.15674277817E+04 -0.14092473200E+04  0.22012806386E+04  0.50400001928E-02 0. -1.
</event>
<event>
 5   0  0.1150235E-07  0.3810993E+04  0.7818609E-02  0.8043800E-01
        2   -1    0    0  501    0  0.00000000000E+00  0.00000000000E+00  0.18595445884E+04  0.18595445884E+04  0.25500000920E-02 0.  1.
       -2   -1    0    0    0  501  0.00000000000E+00  0.00000000000E+00 -0.19525835074E+04  0.19525835074E+04  0.25500000920E-02 0. -1.
    10030    2    1    2    0    0  0.00000000000E+00  0.00000000000E+00 -0.93038918942E+02  0.38121280958E+04  0.38109925713E+04 0.  0.
        4    1    3    3  502    0 -0.13632482504E+04 -0.13209024068E+04 -0.21295870387E+03  0.19101261694E+04  0.12699999809E+01 0. -1.
       -4    1    3    3    0  502  0.13632482504E+04  0.13209024068E+04  0.11991978493E+03  0.19020019264E+04  0.12699999809E+01 0.  1.
</event>
<event>
 5   0  0.1193861E-07  0.3775256E+04  0.7818609E-02  0.8051486E-01
       -2   -1    0    0    0  501  0.00000000000E+00  0.00000000000E+00  0.24539128351E+04  0.24539128351E+04  0.25500000920E-02 0. -1.
        2   -1    0    0  501    0  0.00000000000E+00  0.00000000000E+00 -0.14520238287E+04  0.14520238288E+04  0.25500000920E-02 0.  1.
    10030    2    1    2    0    0  0.00000000000E+00  0.00000000000E+00  0.10018890064E+04  0.39059366639E+04  0.37752562352E+04 0.  0.
        3    1    3    3  502    0 -0.27696317822E+03 -0.17878356198E+04  0.10581738548E+04  0.20958999792E+04  0.10100000352E+00 0. -1.
       -3    1    3    3    0  502  0.27696317822E+03  0.17878356198E+04 -0.56284848467E+02  0.18100366847E+04  0.10100000352E+00 0.  1.
</event>
<event>
 5   0  0.7858367E-08  0.3790584E+04  0.7818609E-02  0.8048179E-01
       -2   -1    0    0    0  501  0.00000000000E+00  0.00000000000E+00  0.16956286170E+04  0.16956286170E+04  0.25500000920E-02 0.  1.
        2   -1    0    0  501    0  0.00000000000E+00  0.00000000000E+00 -0.21184663190E+04  0.21184663190E+04  0.25500000920E-02 0. -1.
    10030    2    1    2    0    0  0.00000000000E+00  0.00000000000E+00 -0.42283770206E+03  0.38140949360E+04  0.37905841843E+04 0.  0.
        2    1    3    3  502    0  0.10016454895E+04  0.40368354807E+03  0.13557645835E+04  0.17333065797E+04  0.25500000920E-02 0.  1.
       -2    1    3    3    0  502 -0.10016454895E+04 -0.40368354807E+03 -0.17786022855E+04  0.20807883563E+04  0.25500000920E-02 0. -1.
</event>
<event>
 5   0  0.3889225E-08  0.3802096E+04  0.7818609E-02  0.8045705E-01
       -1   -1    0    0    0  501  0.00000000000E+00  0.00000000000E+00  0.15354075296E+04  0.15354075297E+04  0.50400001928E-02 0.  1.
        1   -1    0    0  501    0  0.00000000000E+00  0.00000000000E+00 -0.23537612324E+04  0.23537612324E+04  0.50400001928E-02 0. -1.
    10030    2    1    2    0    0  0.00000000000E+00  0.00000000000E+00 -0.81835370276E+03  0.38891687621E+04  0.38020955902E+04 0.  0.
        5    1    3    3  502    0 -0.10949819526E+04 -0.84491799277E+03  0.92495035932E+03  0.16638591131E+04  0.46999998093E+01 0.  1.
       -5    1    3    3    0  502  0.10949819526E+04  0.84491799277E+03 -0.17433040621E+04  0.22253096490E+04  0.46999998093E+01 0. -1.
</event>
<event>
 5   0  0.3701250E-08  0.3799480E+04  0.7818609E-02  0.8046266E-01
       -1   -1    0    0    0  501  0.00000000000E+00  0.00000000000E+00  0.28664327044E+04  0.28664327044E+04  0.50400001928E-02 0. -1.
        1   -1    0    0  501    0  0.00000000000E+00  0.00000000000E+00 -0.12590604595E+04  0.12590604595E+04  0.50400001928E-02 0.  1.
    10030    2    1    2    0    0  0.00000000000E+00  0.00000000000E+00  0.16073722449E+04  0.41254931640E+04  0.37994800055E+04 0.  0.
        1    1    3    3  502    0 -0.50468809387E+02 -0.15046945130E+03 -0.12518496557E+04  0.12618699287E+04  0.50400001928E-02 0.  1.
       -1    1    3    3    0  502  0.50468809387E+02  0.15046945130E+03  0.28592219006E+04  0.28636232353E+04  0.50400001928E-02 0. -1.
</event>
<event>
 5   0  0.1150235E-07  0.3788082E+04  0.7818609E-02  0.8048717E-01
       -2   -1    0    0    0  501  0.00000000000E+00  0.00000000000E+00  0.15068612339E+04  0.15068612339E+04  0.25500000920E-02 0. -1.
        2   -1    0    0  501    0  0.00000000000E+00  0.00000000000E+00 -0.23807042808E+04  0.23807042808E+04  0.25500000920E-02 0.  1.
    10030    2    1    2    0    0  0.00000000000E+00  0.00000000000E+00 -0.87384304687E+03  0.38875655147E+04  0.37880818313E+04 0.  0.
        4    1    3    3  502    0  0.79971003497E+03 -0.12606800235E+04  0.75925270818E+03  0.16749079227E+04  0.12699999809E+01 0. -1.
       -4    1    3    3    0  502 -0.79971003497E+03  0.12606800235E+04 -0.16330957550E+04  0.22126575921E+04  0.12699999809E+01 0.  1.
</event>
<event>
 5   0  0.7858367E-08  0.3815287E+04  0.7818609E-02  0.8042882E-01
       -2   -1    0    0    0  501  0.00000000000E+00  0.00000000000E+00  0.17702651887E+04  0.17702651887E+04  0.25500000920E-02 0.  1.
        2   -1    0    0  501    0  0.00000000000E+00  0.00000000000E+00 -0.20556825182E+04  0.20556825182E+04  0.25500000920E-02 0. -1.
    10030    2    1    2    0    0  0.00000000000E+00  0.00000000000E+00 -0.28541732948E+03  0.38259477068E+04  0.38152867263E+04 0.  0.
        2    1    3    3  502    0 -0.10351455588E+04 -0.15836869053E+04  0.10192517140E+03  0.18947240650E+04  0.25500000920E-02 0. -1.
       -2    1    3    3    0  502  0.10351455588E+04  0.15836869053E+04 -0.38734250088E+03  0.19312236419E+04  0.25500000920E-02 0.  1.
</event>
<event>
 5   0  0.1174870E-07  0.3796137E+04  0.7818609E-02  0.8046984E-01
        2   -1    0    0  501    0  0.00000000000E+00  0.00000000000E+00  0.30505196721E+04  0.30505196721E+04  0.25500000920E-02 0. -1.
       -2   -1    0    0    0  501  0.00000000000E+00  0.00000000000E+00 -0.11810000894E+04  0.11810000894E+04  0.25500000920E-02 0.  1.
    10030    2    1    2    0    0  0.00000000000E+00  0.00000000000E+00  0.18695195828E+04  0.42315197615E+04  0.37961369867E+04 0.  0.
        5    1    3    3  502    0 -0.68358639272E+03  0.77879574278E+03 -0.83785434186E+03  0.13326046501E+04  0.46999998093E+01 0.  1.
       -5    1    3    3    0  502  0.68358639272E+03 -0.77879574278E+03  0.27073739246E+04  0.28989151114E+04  0.46999998093E+01 0. -1.
</event>
<event>
 5   0  0.1143283E-07  0.3762053E+04  0.7818609E-02  0.8054348E-01
        2   -1    0    0  501    0  0.00000000000E+00  0.00000000000E+00  0.18537978211E+04  0.18537978211E+04  0.25500000920E-02 0.  1.
       -2   -1    0    0    0  501  0.00000000000E+00  0.00000000000E+00 -0.19086547223E+04  0.19086547223E+04  0.25500000920E-02 0. -1.
    10030    2    1    2    0    0  0.00000000000E+00  0.00000000000E+00 -0.54856901177E+02  0.37624525433E+04  0.37620526128E+04 0.  0.
        1    1    3    3  502    0 -0.99784556924E+03 -0.88699636199E+03 -0.13526359683E+04  0.19005479181E+04  0.50400001928E-02 0. -1.
       -1    1    3    3    0  502  0.99784556924E+03  0.88699636199E+03  0.12977790672E+04  0.18619046252E+04  0.50400001928E-02 0.  1.
</event>
<event>
 5   0  0.1150235E-07  0.3810708E+04  0.7818609E-02  0.8043861E-01
        2   -1    0    0  501    0  0.00000000000E+00  0.00000000000E+00  0.23564130978E+04  0.23564130978E+04  0.25500000920E-02 0.  1.
       -2   -1    0    0    0  501  0.00000000000E+00  0.00000000000E+00 -0.15406353788E+04  0.15406353788E+04  0.25500000920E-02 0. -1.
    10030    2    1    2    0    0  0.00000000000E+00  0.00000000000E+00  0.81577771900E+03  0.38970484767E+04  0.38107077483E+04 0.  0.
        4    1    3    3  502    0  0.13218238778E+04  0.12687406699E+04  0.94266194684E+03  0.20604694635E+04  0.12699999809E+01 0.  1.
       -4    1    3    3    0  502 -0.13218238778E+04 -0.12687406699E+04 -0.12688422784E+03  0.18365790131E+04  0.12699999809E+01 0. -1.
</event>
<event>
 5   0  0.3701250E-08  0.3803109E+04  0.7818609E-02  0.8045488E-01
        1   -1    0    0  501    0  0.00000000000E+00  0.00000000000E+00  0.15753570012E+04  0.15753570012E+04  0.50400001928E-02 0.  1.
       -1   -1    0    0    0  501  0.00000000000E+00  0.00000000000E+00 -0.22952950151E+04  0.22952950151E+04  0.50400001928E-02 0. -1.
    10030    2    1    2    0    0  0.00000000000E+00  0.00000000000E+00 -0.71993801389E+03  0.38706520162E+04  0.38031087661E+04 0.  0.
        3    1    3    3  502    0 -0.69282761579E+03  0.49069018094E+03 -0.20916936016E+04  0.22574253237E+04  0.10100000352E+00 0. -1.
       -3    1    3    3    0  502  0.69282761579E+03 -0.49069018094E+03  0.13717555877E+04  0.16132266925E+04  0.10100000352E+00 0.  1.
</event>
<event>
 5   0  0.3701250E-08  0.3781379E+04  0.7818609E-02  0.8050163E-01
        1   -1    0    0  501    0  0.00000000000E+00  0.00000000000E+00  0.19547348964E+04  0.19547348964E+04  0.50400001928E-02 0.  1.
       -1   -1    0    0    0  501  0.00000000000E+00  0.00000000000E+00 -0.18287421033E+04  0.18287421033E+04  0.50400001928E-02 0. -1.
    10030    2    1    2    0    0  0.00000000000E+00  0.00000000000E+00  0.12599279302E+03  0.37834769997E+04  0.37813785877E+04 0.  0.
        2    1    3    3  502    0 -0.16023538348E+03  0.32320826570E+03 -0.17939880175E+04  0.18298994420E+04  0.25500000920E-02 0. -1.
       -2    1    3    3    0  502  0.16023538348E+03 -0.32320826570E+03  0.19199808105E+04  0.19535775577E+04  0.25500000920E-02 0.  1.
</event>
<event>
 5   0  0.3701250E-08  0.3800073E+04  0.7818609E-02  0.8046139E-01
        3   -1    0    0  501    0  0.00000000000E+00  0.00000000000E+00  0.15521351435E+04  0.15521351468E+04  0.10100000352E+00 0. -1.
       -3   -1    0    0    0  501  0.00000000000E+00  0.00000000000E+00 -0.23259178140E+04  0.23259178162E+04  0.10100000352E+00 0.  1.
    10030    2    1    2    0    0  0.00000000000E+00  0.00000000000E+00 -0.77378267046E+03  0.38780529630E+04  0.38000730470E+04 0.  0.
        3    1    3    3  502    0 -0.74011500198E+03  0.14587975030E+04 -0.13733069704E+04  0.21358446610E+04  0.10100000352E+00 0.  1.
       -3    1    3    3    0  502  0.74011500198E+03 -0.14587975030E+04  0.59952429993E+03  0.17422083019E+04  0.10100000352E+00 0. -1.
</event>
<event>
 5   0  0.1150235E-07  0.3808815E+04  0.7818609E-02  0.8044266E-01
       -2   -1    0    0    0  501  0.00000000000E+00  0.00000000000E+00  0.17484757503E+04  0.17484757503E+04  0.25500000920E-02 0.  1.
        2   -1    0    0  501    0  0.00000000000E+00  0.00000000000E+00 -0.20742451345E+04  0.20742451345E+04  0.25500000920E-02 0. -1.
    10030    2    1    2    0    0  0.00000000000E+00  0.00000000000E+00 -0.32576938422E+03  0.38227208848E+04  0.38088146806E+04 0.  0.
        4    1    3    3  502    0 -0.50534320720E+03 -0.57169826691E+03  0.15883512485E+04  0.17621214393E+04  0.12699999809E+01 0.  1.
       -4    1    3    3    0  502  0.50534320720E+03  0.57169826691E+03 -0.19141206327E+04  0.20605994455E+04  0.12699999809E+01 0. -1.
</event>
<event>
 5   0  0.1143283E-07  0.3792384E+04  0.7818609E-02  0.8047791E-01
        2   -1    0    0  501    0  0.00000000000E+00  0.00000000000E+00  0.20961106926E+04  0.20961106926E+04  0.25500000920E-02 0.  1.
       -2   -1    0    0    0  501  0.00000000000E+00  0.00000000000E+00 -0.17153407883E+04  0.17153407883E+04  0.25500000920E-02 0. -1.
    10030    2    1    2    0    0  0.00000000000E+00  0.00000000000E+00  0.38076990435E+03  0.38114514809E+04  0.37923840353E+04 0.  0.
        1    1    3    3  502    0  0.54385324445E+03  0.15495726796E+04 -0.76232222925E+03  0.18105488179E+04  0.50400001928E-02 0. -1.
       -1    1    3    3    0  502 -0.54385324445E+03 -0.15495726796E+04  0.11430921336E+04  0.20009026630E+04  0.50400001928E-02 0.  1.
</event>
<event>
 5   0  0.3889225E-08  0.3845063E+04  0.7818609E-02  0.8036553E-01
       -1   -1    0    0    0  501  0.00000000000E+00  0.00000000000E+00  0.20038571346E+04  0.20038571346E+04  0.50400001928E-02 0. -1.
        1   -1    0    0  501    0  0.00000000000E+00  0.00000000000E+00 -0.18445065216E+04  0.18445065216E+04  0.50400001928E-02 0.  1.
    10030    2    1    2    0    0  0.00000000000E+00  0.00000000000E+00  0.15935061305E+03  0.38483636562E+04  0.38450630961E+04 0.  0.
        5    1    3    3  502    0 -0.16212331263E+04 -0.10112322818E+04 -0.13291673541E+03  0.19153789510E+04  0.46999998093E+01 0. -1.
       -5    1    3    3    0  502  0.16212331263E+04  0.10112322818E+04  0.29226734847E+03  0.19329847052E+04  0.46999998093E+01 0.  1.
</event>
<event>
 5   0  0.7858367E-08  0.3817215E+04  0.7818609E-02  0.8042471E-01
        2   -1    0    0  501    0  0.00000000000E+00  0.00000000000E+00  0.19604622685E+04  0.19604622685E+04  0.25500000920E-02 0.  1.
       -2   -1    0    0    0  501  0.00000000000E+00  0.00000000000E+00 -0.18581246115E+04  0.18581246115E+04  0.25500000920E-02 0. -1.
    10030    2    1    2    0    0  0.00000000000E+00  0.00000000000E+00  0.10233765699E+03  0.38185868800E+04  0.38172153154E+04 0.  0.
        2    1    3    3  502    0 -0.18520647006E+04 -0.42516607040E+03  0.22976406182E+03  0.19140797702E+04  0.25500000920E-02 0.  1.
       -2    1    3    3    0  502  0.18520647006E+04  0.42516607040E+03 -0.12742640483E+03  0.19045071098E+04  0.25500000920E-02 0. -1.
</event>
<event>
 5   0  0.1150235E-07  0.3801113E+04  0.7818609E-02  0.8045916E-01
       -2   -1    0    0    0  501  0.00000000000E+00  0.00000000000E+00  0.14777924447E+04  0.14777924447E+04  0.25500000920E-02 0.  1.
        2   -1    0    0  501    0  0.00000000000E+00  0.00000000000E+00 -0.24442645028E+04  0.24442645028E+04  0.25500000920E-02 0. -1.
    10030    2    1    2    0    0  0.00000000000E+00  0.00000000000E+00 -0.96647205810E+03  0.39220569475E+04  0.38011133185E+04 0.  0.
        4    1    3    3  502    0  0.71859627740E+03  0.80873402819E+03  0.11290707802E+04  0.15637243292E+04  0.12699999809E+01 0.  1.
       -4    1    3    3    0  502 -0.71859627740E+03 -0.80873402819E+03 -0.20955428383E+04  0.23583326182E+04  0.12699999809E+01 0. -1.
</event>
<event>
 5   0  0.3701250E-08  0.3812291E+04  0.7818609E-02  0.8043522E-01
        1   -1    0    0  501    0  0.00000000000E+00  0.00000000000E+00  0.23883317085E+04  0.23883317085E+04  0.50400001928E-02 0.  1.
       -1   -1    0    0    0  501  0.00000000000E+00  0.00000000000E+00 -0.15213091549E+04  0.15213091549E+04  0.50400001928E-02 0. -1.
    10030    2    1    2    0    0  0.00000000000E+00  0.00000000000E+00  0.86702255363E+03  0.39096408634E+04  0.38122911185E+04 0.  0.
        4    1    3    3  502    0 -0.63056926268E+02  0.17927792283E+04  0.10944495748E+04  0.21013935905E+04  0.12699999809E+01 0.  1.
       -4    1    3    3    0  502  0.63056926268E+02 -0.17927792283E+04 -0.22742702120E+03  0.18082472729E+04  0.12699999809E+01 0. -1.
</event>
<event>
 5   0  0.7858367E-08  0.3802532E+04  0.7818609E-02  0.8045612E-01
       -2   -1    0    0    0  501  0.00000000000E+00  0.00000000000E+00  0.11930094680E+04  0.11930094680E+04  0.25500000920E-02 0.  1.
        2   -1    0    0  501    0  0.00000000000E+00  0.00000000000E+00 -0.30299951469E+04  0.30299951469E+04  0.25500000920E-02 0. -1.
    10030    2    1    2    0    0  0.00000000000E+00  0.00000000000E+00 -0.18369856790E+04  0.42230046149E+04  0.38025322606E+04 0.  0.
        2    1    3    3  502    0 -0.79220192485E+03  0.17068728594E+04 -0.12202226130E+04  0.22427532350E+04  0.25500000920E-02 0.  1.
       -2    1    3    3    0  502  0.79220192485E+03 -0.17068728594E+04 -0.61676306593E+03  0.19802513799E+04  0.25500000920E-02 0. -1.
</event>
<event>
 5   0  0.3701250E-08  0.3840664E+04  0.7818609E-02  0.8037484E-01
       -1   -1    0    0    0  501  0.00000000000E+00  0.00000000000E+00  0.14429107081E+04  0.14429107081E+04  0.50400001928E-02 0.  1.
        1   -1    0    0  501    0  0.00000000000E+00  0.00000000000E+00 -0.25557195078E+04  0.25557195078E+04  0.50400001928E-02 0. -1.
    10030    2    1    2    0    0  0.00000000000E+00  0.00000000000E+00 -0.11128087997E+04  0.39986302159E+04  0.38406640284E+04 0.  0.
        3    1    3    3  502    0 -0.10376171090E+04  0.47789925362E+03 -0.21634713294E+04  0.24465578197E+04  0.10100000352E+00 0. -1.
       -3    1    3    3    0  502  0.10376171090E+04 -0.47789925362E+03  0.10506625297E+04  0.15520723962E+04  0.10100000352E+00 0.  1.
</event>
<event>
 5   0  0.3701250E-08  0.3816261E+04  0.7818609E-02  0.8042674E-01
        3   -1    0    0  501    0  0.00000000000E+00  0.00000000000E+00  0.25310198246E+04  0.25310198266E+04  0.10100000352E+00 0.  1.
       -3   -1    0    0    0  501  0.00000000000E+00  0.00000000000E+00 -0.14385356346E+04  0.14385356382E+04  0.10100000352E+00 0. -1.
    10030    2    1    2    0    0  0.00000000000E+00  0.00000000000E+00  0.10924841900E+04  0.39695554648E+04  0.38162611130E+04 0.  0.
        4    1    3    3  502    0 -0.48172716668E+03 -0.87117333478E+03 -0.11470160383E+04  0.15187664229E+04  0.12699999809E+01 0. -1.
       -4    1    3    3    0  502  0.48172716668E+03  0.87117333478E+03  0.22395002283E+04  0.24507890419E+04  0.12699999809E+01 0.  1.
</event>
<event>
 5   0  0.3701250E-08  0.3784982E+04  0.7818609E-02  0.8049385E-01
       -1   -1    0    0    0  501  0.00000000000E+00  0.00000000000E+00  0.16262533529E+04  0.16262533529E+04  0.50400001928E-02 0.  1.
        1   -1    0    0  501    0  0.00000000000E+00  0.00000000000E+00 -0.22023145798E+04  0.22023145798E+04  0.50400001928E-02 0. -1.
    10030    2    1    2    0    0  0.00000000000E+00  0.00000000000E+00 -0.57606122693E+03  0.38285679328E+04  0.37849816220E+04 0.  0.
        1    1    3    3  502    0  0.62904786425E+03  0.28190460043E+03 -0.20708107207E+04  0.21825279976E+04  0.50400001928E-02 0. -1.
       -1    1    3    3    0  502 -0.62904786425E+03 -0.28190460043E+03  0.14947494937E+04  0.16460399352E+04  0.50400001928E-02 0.  1.
</event>
<event>
 5   0  0.1174870E-07  0.3797480E+04  0.7818609E-02  0.8046696E-01
       -2   -1    0    0    0  501  0.00000000000E+00  0.00000000000E+00  0.15878193372E+04  0.15878193372E+04  0.25500000920E-02 0. -1.
        2   -1    0    0  501    0  0.00000000000E+00  0.00000000000E+00 -0.22705438933E+04  0.22705438933E+04  0.25500000920E-02 0.  1.
    10030    2    1    2    0    0  0.00000000000E+00  0.00000000000E+00 -0.68272455609E+03  0.38583632305E+04  0.37974799537E+04 0.  0.
        5    1    3    3  502    0 -0.12765325137E+04  0.85885125630E+03  0.78914489480E+03  0.17291421266E+04  0.46999998093E+01 0. -1.
       -5    1    3    3    0  502  0.12765325137E+04 -0.85885125630E+03 -0.14718694509E+04  0.21292211039E+04  0.46999998093E+01 0.  1.
</event>
<event>
 5   0  0.3889225E-08  0.3798815E+04  0.7818609E-02  0.8046409E-01
        1   -1    0    0  501    0  0.00000000000E+00  0.00000000000E+00  0.13784893042E+04  0.13784893042E+04  0.50400001928E-02 0. -1.
       -1   -1    0    0    0  501  0.00000000000E+00  0.00000000000E+00 -0.26171755993E+04  0.26171755993E+04  0.50400001928E-02 0.  1.
    10030    2    1    2    0    0  0.00000000000E+00  0.00000000000E+00 -0.12386862951E+04  0.39956649036E+04  0.37988148526E+04 0.  0.
        5    1    3    3  502    0  0.10918897940E+04  0.93509933214E+03 -0.19250788247E+04  0.24026203725E+04  0.46999998093E+01 0.  1.
       -5    1    3    3    0  502 -0.10918897940E+04 -0.93509933214E+03  0.68639252957E+03  0.15930445311E+04  0.46999998093E+01 0. -1.
</event>
<event>
 5   0  0.1143283E-07  0.3760846E+04  0.7818609E-02  0.8054610E-01
        2   -1    0    0  501    0  0.00000000000E+00  0.00000000000E+00  0.28621286180E+04  0.28621286180E+04  0.25500000920E-02 0. -1.
       -2   -1    0    0    0  501  0.00000000000E+00  0.00000000000E+00 -0.12354405386E+04  0.12354405387E+04  0.25500000920E-02 0.  1.
    10030    2    1    2    0    0  0.00000000000E+00  0.00000000000E+00  0.16266880794E+04  0.40975691567E+04  0.37608455015E+04 0.  0.
        1    1    3    3  502    0 -0.14895218078E+04  0.10345404400E+04  0.27181100838E+03  0.18338021600E+04  0.50400001928E-02 0. -1.
       -1    1    3    3    0  502  0.14895218078E+04 -0.10345404400E+04  0.13548770710E+04  0.22637669967E+04  0.50400001928E-02 0.  1.
</event>
<event>
 5   0  0.3701250E-08  0.3804666E+04  0.7818609E-02  0.8045154E-01
       -1   -1    0    0    0  501  0.00000000000E+00  0.00000000000E+00  0.21691500556E+04  0.21691500556E+04  0.50400001928E-02 0.  1.
        1   -1    0    0  501    0  0.00000000000E+00  0.00000000000E+00 -0.16683361881E+04  0.16683361881E+04  0.50400001928E-02 0. -1.
    10030    2    1    2    0    0  0.00000000000E+00  0.00000000000E+00  0.50081386751E+03  0.38374862436E+04  0.38046663639E+04 0.  0.
        4    1    3    3  502    0  0.30805060240E+03 -0.65363103966E+03  0.20253429813E+04  0.21503824112E+04  0.12699999809E+01 0.  1.
       -4    1    3    3    0  502 -0.30805060240E+03  0.65363103966E+03 -0.15245291138E+04  0.16871038324E+04  0.12699999809E+01 0. -1.
</event>
<event>
 5   0  0.3701250E-08  0.3806191E+04  0.7818609E-02  0.8044828E-01
       -1   -1    0    0    0  501  0.00000000000E+00  0.00000000000E+00  0.15021817846E+04  0.15021817846E+04  0.50400001928E-02 0.  1.
        1   -1    0    0  501    0  0.00000000000E+00  0.00000000000E+00 -0.24110076551E+04  0.24110076551E+04  0.50400001928E-02 0. -1.
    10030    2    1    2    0    0  0.00000000000E+00  0.00000000000E+00 -0.90882587051E+03  0.39131894398E+04  0.38061906322E+04 0.  0.
        3    1    3    3  502    0  0.69896447339E+03 -0.98497559787E+03  0.10576607813E+04  0.16054203817E+04  0.10100000352E+00 0.  1.
       -3    1    3    3    0  502 -0.69896447339E+03  0.98497559787E+03 -0.19664866518E+04  0.23077690581E+04  0.10100000352E+00 0. -1.
</event>
<event>
 5   0  0.1193861E-07  0.3799969E+04  0.7818609E-02  0.8046162E-01
        2   -1    0    0  501    0  0.00000000000E+00  0.00000000000E+00  0.27482772576E+04  0.27482772577E+04  0.25500000920E-02 0. -1.
       -2   -1    0    0    0  501  0.00000000000E+00  0.00000000000E+00 -0.13135286460E+04  0.13135286460E+04  0.25500000920E-02 0.  1.
    10030    2    1    2    0    0  0.00000000000E+00  0.00000000000E+00  0.14347486116E+04  0.40618059037E+04  0.37999688973E+04 0.  0.
        3    1    3    3  502    0  0.58598689622E+03  0.17232255514E+04  0.12999559428E+04  0.22366878206E+04  0.10100000352E+00 0.  1.
       -3    1    3    3    0  502 -0.58598689622E+03 -0.17232255514E+04  0.13479266887E+03  0.18251180831E+04  0.10100000352E+00 0. -1.
</event>
<event>
 5   0  0.1193861E-07  0.3796526E+04  0.7818609E-02  0.8046901E-01
       -2   -1    0    0    0  501  0.00000000000E+00  0.00000000000E+00  0.25452809557E+04  0.25452809557E+04  0.25500000920E-02 0. -1.
        2   -1    0    0  501    0  0.00000000000E+00  0.00000000000E+00 -0.14157190906E+04  0.14157190906E+04  0.25500000920E-02 0.  1.
    10030    2    1    2    0    0  0.00000000000E+00  0.00000000000E+00  0.11295618651E+04  0.39610000464E+04  0.37965262228E+04 0.  0.
        3    1    3    3  502    0 -0.15298288012E+04 -0.45306211802E+03  0.16378120043E+04  0.22864972372E+04  0.10100000352E+00 0. -1.
       -3    1    3    3    0  502  0.15298288012E+04  0.45306211802E+03 -0.50825013923E+03  0.16745028092E+04  0.10100000352E+00 0.  1.
</event>
<event>
 5   0  0.1174870E-07  0.3802244E+04  0.7818609E-02  0.8045674E-01
       -2   -1    0    0    0  501  0.00000000000E+00  0.00000000000E+00  0.15059761765E+04  0.15059761765E+04  0.25500000920E-02 0. -1.
        2   -1    0    0  501    0  0.00000000000E+00  0.00000000000E+00 -0.23999479991E+04  0.23999479991E+04  0.25500000920E-02 0.  1.
    10030    2    1    2    0    0  0.00000000000E+00  0.00000000000E+00 -0.89397182265E+03  0.39059241756E+04  0.38022438173E+04 0.  0.
        5    1    3    3  502    0 -0.11602596788E+04 -0.29870440888E+03  0.10693453248E+04  0.16059104458E+04  0.46999998093E+01 0. -1.
       -5    1    3    3    0  502  0.11602596788E+04  0.29870440888E+03 -0.19633171475E+04  0.23000137299E+04  0.46999998093E+01 0.  1.
</event>
<event>
 5   0  0.3701250E-08  0.3791669E+04  0.7818609E-02  0.8047945E-01
       -1   -1    0    0    0  501  0.00000000000E+00  0.00000000000E+00  0.17750057650E+04  0.17750057650E+04  0.50400001928E-02 0. -1.
        1   -1    0    0  501    0  0.00000000000E+00  0.00000000000E+00 -0.20248880144E+04  0.20248880144E+04  0.50400001928E-02 0.  1.
    10030    2    1    2    0    0  0.00000000000E+00  0.00000000000E+00 -0.24988224933E+03  0.37998937794E+04  0.37916687087E+04 0.  0.
        4    1    3    3  502    0  0.66974414792E+03  0.13536154136E+04 -0.12734438622E+04  0.19754728028E+04  0.12699999809E+01 0.  1.
       -4    1    3    3    0  502 -0.66974414792E+03 -0.13536154136E+04  0.10235616129E+04  0.18244209766E+04  0.12699999809E+01 0. -1.
</event>
<event>
 5   0  0.3889225E-08  0.3791623E+04  0.7818609E-02  0.8047955E-01
       -1   -1    0    0    0  501  0.00000000000E+00  0.00000000000E+00  0.18243228894E+04  0.18243228894E+04  0.50400001928E-02 0.  1.
        1   -1    0    0  501    0  0.00000000000E+00  0.00000000000E+00 -0.19701014281E+04  0.19701014281E+04  0.50400001928E-02 0. -1.
    10030    2    1    2    0    0  0.00000000000E+00  0.00000000000E+00 -0.14577853873E+03  0.37944243175E+04  0.37916229399E+04 0.  0.
        5    1    3    3  502    0  0.18457090372E+04  0.46974726543E+02  0.35781291883E+03  0.18806649488E+04  0.46999998093E+01 0.  1.
       -5    1    3    3    0  502 -0.18457090372E+04 -0.46974726543E+02 -0.50359145756E+03  0.19137593686E+04  0.46999998093E+01 0. -1.
</event>
<event>
 5   0  0.3701250E-08  0.3792298E+04  0.7818609E-02  0.8047810E-01
       -1   -1    0    0    0  501  0.00000000000E+00  0.00000000000E+00  0.15936661475E+04  0.15936661475E+04  0.50400001928E-02 0.  1.
        1   -1    0    0  501    0  0.00000000000E+00  0.00000000000E+00 -0.22560435989E+04  0.22560435989E+04  0.50400001928E-02 0. -1.
    10030    2    1    2    0    0  0.00000000000E+00  0.00000000000E+00 -0.66237745145E+03  0.38497097464E+04  0.37922976206E+04 0.  0.
        2    1    3    3  502    0  0.11071287508E+04  0.13983735957E+04 -0.98451379586E+03  0.20372653725E+04  0.25500000920E-02 0.  1.
       -2    1    3    3    0  502 -0.11071287508E+04 -0.13983735957E+04  0.32213634441E+03  0.18124443738E+04  0.25500000920E-02 0. -1.
</event>
<event>
 5   0  0.3701250E-08  0.3672776E+04  0.7818609E-02  0.8074022E-01
       -1   -1    0    0    0  501  0.00000000000E+00  0.00000000000E+00  0.14659227908E+04  0.14659227908E+04  0.50400001928E-02 0.  1.
        1   -1    0    0  501    0  0.00000000000E+00  0.00000000000E+00 -0.23004766084E+04  0.23004766084E+04  0.50400001928E-02 0. -1.
    10030    2    1    2    0    0  0.00000000000E+00  0.00000000000E+00 -0.83455381760E+03  0.37663993991E+04  0.36727761107E+04 0.  0.
        1    1    3    3  502    0  0.31390384365E+03 -0.16762262026E+04  0.28130101922E+03  0.17284097225E+04  0.50400001928E-02 0. -1.
       -1    1    3    3    0  502 -0.31390384365E+03  0.16762262026E+04 -0.11158548368E+04  0.20379896767E+04  0.50400001928E-02 0.  1.
</event>
<event>
 5   0  0.3701250E-08  0.3816149E+04  0.7818609E-02  0.8042698E-01
        1   -1    0    0  501    0  0.00000000000E+00  0.00000000000E+00  0.19093961129E+04  0.19093961129E+04  0.50400001928E-02 0. -1.
       -1   -1    0    0    0  501  0.00000000000E+00  0.00000000000E+00 -0.19067538147E+04  0.19067538147E+04  0.50400001928E-02 0.  1.
    10030    2    1    2    0    0  0.00000000000E+00  0.00000000000E+00  0.26422981344E+01  0.38161499276E+04  0.38161490129E+04 0.  0.
        4    1    3    3  502    0  0.96223781403E+03  0.12481996786E+04 -0.10742453135E+04  0.19073302427E+04  0.12699999809E+01 0.  1.
       -4    1    3    3    0  502 -0.96223781403E+03 -0.12481996786E+04  0.10768876117E+04  0.19088196849E+04  0.12699999809E+01 0. -1.
</event>
<event>
 5   0  0.1193861E-07  0.3799506E+04  0.7818609E-02  0.8046261E-01
        2   -1    0    0  501    0  0.00000000000E+00  0.00000000000E+00  0.28836306472E+04  0.28836306472E+04  0.25500000920E-02 0. -1.
       -2   -1    0    0    0  501  0.00000000000E+00  0.00000000000E+00 -0.12515686856E+04  0.12515686856E+04  0.25500000920E-02 0.  1.
    10030    2    1    2    0    0  0.00000000000E+00  0.00000000000E+00  0.16320619616E+04  0.41351993328E+04  0.37995061884E+04 0.  0.
        3    1    3    3  502    0  0.12512753770E+03  0.14360080874E+04  0.21628132918E+04  0.25991416801E+04  0.10100000352E+00 0. -1.
       -3    1    3    3    0  502 -0.12512753770E+03 -0.14360080874E+04 -0.53075133023E+03  0.15360576527E+04  0.10100000352E+00 0.  1.
</event>
<event>
 5   0  0.1193861E-07  0.3796017E+04  0.7818609E-02  0.8047010E-01
        2   -1    0    0  501    0  0.00000000000E+00  0.00000000000E+00  0.18865603909E+04  0.18865603909E+04  0.25500000920E-02 0. -1.
       -2   -1    0    0    0  501  0.00000000000E+00  0.00000000000E+00 -0.19095265481E+04  0.19095265481E+04  0.25500000920E-02 0.  1.
    10030    2    1    2    0    0  0.00000000000E+00  0.00000000000E+00 -0.22966157217E+02  0.37960869389E+04  0.37960174662E+04 0.  0.
        3    1    3    3  502    0 -0.12833162422E+03 -0.18828654201E+04  0.19047592085E+03  0.18968216265E+04  0.10100000352E+00 0.  1.
       -3    1    3    3    0  502  0.12833162422E+03  0.18828654201E+04 -0.21344207807E+03  0.18992653124E+04  0.10100000352E+00 0. -1.
</event>
<event>
 5   0  0.1174870E-07  0.3812296E+04  0.7818609E-02  0.8043521E-01
        2   -1    0    0  501    0  0.00000000000E+00  0.00000000000E+00  0.17173628851E+04  0.17173628851E+04  0.25500000920E-02 0. -1.
       -2   -1    0    0    0  501  0.00000000000E+00  0.00000000000E+00 -0.21156860402E+04  0.21156860402E+04  0.25500000920E-02 0.  1.
    10030    2    1    2    0    0  0.00000000000E+00  0.00000000000E+00 -0.39832315517E+03  0.38330489253E+04  0.38122962539E+04 0.  0.
        5    1    3    3  502    0  0.10201799478E+04 -0.13914524280E+04  0.61547835318E+03  0.18318686302E+04  0.46999998093E+01 0. -1.
       -5    1    3    3    0  502 -0.10201799478E+04  0.13914524280E+04 -0.10138015083E+04  0.20011802951E+04  0.46999998093E+01 0.  1.
</event>
<event>
 5   0  0.3701250E-08  0.3792973E+04  0.7818609E-02  0.8047665E-01
       -1   -1    0    0    0  501  0.00000000000E+00  0.00000000000E+00  0.14999459741E+04  0.14999459741E+04  0.50400001928E-02 0.  1.
        1   -1    0    0  501    0  0.00000000000E+00  0.00000000000E+00 -0.23978600193E+04  0.23978600193E+04  0.50400001928E-02 0. -1.
    10030    2    1    2    0    0  0.00000000000E+00  0.00000000000E+00 -0.89791404516E+03  0.38978059934E+04  0.37929727035E+04 0.  0.
        1    1    3    3  502    0  0.10052913636E+04  0.49473477616E+03 -0.20213744645E+04  0.23111313140E+04  0.50400001928E-02 0. -1.
       -1    1    3    3    0  502 -0.10052913636E+04 -0.49473477616E+03  0.11234604194E+04  0.15866746794E+04  0.50400001928E-02 0.  1.
</event>
<event>
 5   0  0.1150235E-07  0.3805726E+04  0.7818609E-02  0.8044927E-01
       -2   -1    0    0    0  501  0.00000000000E+00  0.00000000000E+00  0.13782609717E+04  0.13782609717E+04  0.25500000920E-02 0. -1.
        2   -1    0    0  501    0  0.00000000000E+00  0.00000000000E+00 -0.26271428317E+04  0.26271428317E+04  0.25500000920E-02 0.  1.
    10030    2    1    2    0    0  0.00000000000E+00  0.00000000000E+00 -0.12488818601E+04  0.40054038034E+04  0.38057264389E+04 0.  0.
        4    1    3    3  502    0 -0.16083990323E+04 -0.91794337628E+03 -0.16409091241E+03  0.18591651163E+04  0.12699999809E+01 0. -1.
       -4    1    3    3    0  502  0.16083990323E+04  0.91794337628E+03 -0.10847909477E+04  0.21462386871E+04  0.12699999809E+01 0.  1.
</event>
<event>
 5   0  0.1143283E-07  0.3832542E+04  0.7818609E-02  0.8039207E-01
       -2   -1    0    0    0  501  0.00000000000E+00  0.00000000000E+00  0.14656846308E+04  0.14656846308E+04  0.25500000920E-02 0.  1.
        2   -1    0    0  501    0  0.00000000000E+00  0.00000000000E+00 -0.25053788988E+04  0.25053788988E+04  0.25500000920E-02 0. -1.
    10030    2    1    2    0    0  0.00000000000E+00  0.00000000000E+00 -0.10396942681E+04  0.39710635296E+04  0.38325424179E+04 0.  0.
        1    1    3    3  502    0  0.74771303464E+03  0.28576793898E+03 -0.23238549945E+04  0.24578527484E+04  0.50400001928E-02 0. -1.
       -1    1    3    3    0  502 -0.74771303464E+03 -0.28576793898E+03  0.12841607264E+04  0.15132107812E+04  0.50400001928E-02 0.  1.
</event>
<event>
 5   0  0.3701250E-08  0.3801458E+04  0.7818609E-02  0.8045842E-01
        1   -1    0    0  501    0  0.00000000000E+00  0.00000000000E+00  0.18802253365E+04  0.18802253365E+04  0.50400001928E-02 0.  1.
       -1   -1    0    0    0  501  0.00000000000E+00  0.00000000000E+00 -0.19214565648E+04  0.19214565648E+04  0.50400001928E-02 0. -1.
    10030    2    1    2    0    0  0.00000000000E+00  0.00000000000E+00 -0.41231228325E+02  0.38016819014E+04  0.38014583077E+04 0.  0.
        1    1    3    3  502    0 -0.95548032602E+03  0.84668451373E+03 -0.14288724338E+04  0.19161142324E+04  0.50400001928E-02 0. -1.
       -1    1    3    3    0  502  0.95548032602E+03 -0.84668451373E+03  0.13876412055E+04  0.18855676690E+04  0.50400001928E-02 0.  1.
</event>
<event>
 5   0  0.7858367E-08  0.3801156E+04  0.7818609E-02  0.8045907E-01
       -2   -1    0    0    0  501  0.00000000000E+00  0.00000000000E+00  0.26758196555E+04  0.26758196555E+04  0.25500000920E-02 0.  1.
        2   -1    0    0  501    0  0.00000000000E+00  0.00000000000E+00 -0.13499399890E+04  0.13499399890E+04  0.25500000920E-02 0. -1.
    10030    2    1    2    0    0  0.00000000000E+00  0.00000000000E+00  0.13258796665E+04  0.40257596445E+04  0.38011555908E+04 0.  0.
        2    1    3    3  502    0 -0.81990603755E+03 -0.11523805847E+04  0.20075938164E+04  0.24557401846E+04  0.25500000920E-02 0.  1.
       -2    1    3    3    0  502  0.81990603755E+03  0.11523805847E+04 -0.68171414992E+03  0.15700194600E+04  0.25500000920E-02 0. -1.
</event>
<event>
 5   0  0.3701250E-08  0.3718552E+04  0.7818609E-02  0.8063863E-01
        1   -1    0    0  501    0  0.00000000000E+00  0.00000000000E+00  0.27172345195E+04  0.27172345195E+04  0.50400001928E-02 0.  1.
       -1   -1    0    0    0  501  0.00000000000E+00  0.00000000000E+00 -0.12722155948E+04  0.12722155948E+04  0.50400001928E-02 0. -1.
    10030    2    1    2    0    0  0.00000000000E+00  0.00000000000E+00  0.14450189247E+04  0.39894501143E+04  0.37185524767E+04 0.  0.
        2    1    3    3  502    0 -0.24985529999E+02 -0.74076254323E+03 -0.11068669359E+04  0.13321065408E+04  0.25500000920E-02 0. -1.
       -2    1    3    3    0  502  0.24985529999E+02  0.74076254323E+03  0.25518858606E+04  0.26573435735E+04  0.25500000920E-02 0.  1.
</event>
<event>
 5   0  0.7858367E-08  0.3773957E+04  0.7818609E-02  0.8051767E-01
       -2   -1    0    0    0  501  0.00000000000E+00  0.00000000000E+00  0.17070670961E+04  0.17070670961E+04  0.25500000920E-02 0. -1.
        2   -1    0    0  501    0  0.00000000000E+00  0.00000000000E+00 -0.20858510523E+04  0.20858510523E+04  0.25500000920E-02 0.  1.
    10030    2    1    2    0    0  0.00000000000E+00  0.00000000000E+00 -0.37878395617E+03  0.37929181484E+04  0.37739569148E+04 0.  0.
        2    1    3    3  502    0 -0.16134114260E+04 -0.85996292592E+03  0.27991778906E+03  0.18495909364E+04  0.25500000920E-02 0. -1.
       -2    1    3    3    0  502  0.16134114260E+04  0.85996292592E+03 -0.65870174524E+03  0.19433272120E+04  0.25500000920E-02 0.  1.
</event>
<event>
 5   0  0.3701250E-08  0.3628122E+04  0.7818609E-02  0.8084080E-01
        1   -1    0    0  501    0  0.00000000000E+00  0.00000000000E+00  0.10743465941E+04  0.10743465941E+04  0.50400001928E-02 0. -1.
       -1   -1    0    0    0  501  0.00000000000E+00  0.00000000000E+00 -0.30630872670E+04  0.30630872670E+04  0.50400001928E-02 0.  1.
    10030    2    1    2    0    0  0.00000000000E+00  0.00000000000E+00 -0.19887406729E+04  0.41374338611E+04  0.36281220337E+04 0.  0.
        1    1    3    3  502    0 -0.46133668191E+02 -0.88901932564E+03  0.80812604214E+03  0.12023108486E+04  0.50400001928E-02 0. -1.
       -1    1    3    3    0  502  0.46133668191E+02  0.88901932564E+03 -0.27968667151E+04  0.29351230125E+04  0.50400001928E-02 0.  1.
</event>
<event>
 5   0  0.7858367E-08  0.3792491E+04  0.7818609E-02  0.8047768E-01
        2   -1    0    0  501    0  0.00000000000E+00  0.00000000000E+00  0.23788194937E+04  0.23788194937E+04  0.25500000920E-02 0.  1.
       -2   -1    0    0    0  501  0.00000000000E+00  0.00000000000E+00 -0.15115674662E+04  0.15115674662E+04  0.25500000920E-02 0. -1.
    10030    2    1    2    0    0  0.00000000000E+00  0.00000000000E+00  0.86725202751E+03  0.38903869599E+04  0.37924905562E+04 0.  0.
        2    1    3    3  502    0  0.15381799379E+04  0.11086440446E+04  0.40733204225E+03  0.19393319808E+04  0.25500000920E-02 0. -1.
       -2    1    3    3    0  502 -0.15381799379E+04 -0.11086440446E+04  0.45991998527E+03  0.19510549792E+04  0.25500000920E-02 0.  1.
</event>
<event>
 5   0  0.1193861E-07  0.3821741E+04  0.7818609E-02  0.8041505E-01
       -2   -1    0    0    0  501  0.00000000000E+00  0.00000000000E+00  0.15642275354E+04  0.15642275354E+04  0.25500000920E-02 0. -1.
        2   -1    0    0  501    0  0.00000000000E+00  0.00000000000E+00 -0.23343316451E+04  0.23343316451E+04  0.25500000920E-02 0.  1.
    10030    2    1    2    0    0  0.00000000000E+00  0.00000000000E+00 -0.77010410964E+03  0.38985591805E+04  0.38217408788E+04 0.  0.
        3    1    3    3  502    0  0.26931275499E+03 -0.18323900492E+04  0.94767378130E+02  0.18544981851E+04  0.10100000352E+00 0. -1.
       -3    1    3    3    0  502 -0.26931275499E+03  0.18323900492E+04 -0.86487148777E+03  0.20440609954E+04  0.10100000352E+00 0.  1.
</event>
<event>
 5   0  0.1193861E-07  0.3793133E+04  0.7818609E-02  0.8047630E-01
       -2   -1    0    0    0  501  0.00000000000E+00  0.00000000000E+00  0.23323467106E+04  0.23323467106E+04  0.25500000920E-02 0.  1.
        2   -1    0    0  501    0  0.00000000000E+00  0.00000000000E+00 -0.15422085247E+04  0.15422085247E+04  0.25500000920E-02 0. -1.
    10030    2    1    2    0    0  0.00000000000E+00  0.00000000000E+00  0.79013818596E+03  0.38745552353E+04  0.37931332587E+04 0.  0.
        3    1    3    3  502    0  0.12305083456E+04  0.11364352360E+04 -0.51359283956E+03  0.17519741577E+04  0.10100000352E+00 0.  1.
       -3    1    3    3    0  502 -0.12305083456E+04 -0.11364352360E+04  0.13037310255E+04  0.21225810776E+04  0.10100000352E+00 0. -1.
</event>
<event>
 5   0  0.1174870E-07  0.3757915E+04  0.7818609E-02  0.8055247E-01
        2   -1    0    0  501    0  0.00000000000E+00  0.00000000000E+00  0.16353468291E+04  0.16353468291E+04  0.25500000920E-02 0.  1.
       -2   -1    0    0    0  501  0.00000000000E+00  0.00000000000E+00 -0.21588579312E+04  0.21588579312E+04  0.25500000920E-02 0. -1.
    10030    2    1    2    0    0  0.00000000000E+00  0.00000000000E+00 -0.52351110210E+03  0.37942047603E+04  0.37579150987E+04 0.  0.
        5    1    3    3  502    0 -0.35761863851E+03 -0.10608191331E+04 -0.17853779539E+04  0.21073264702E+04  0.46999998093E+01 0.  1.
       -5    1    3    3    0  502  0.35761863851E+03  0.10608191331E+04  0.12618668518E+04  0.16868782901E+04  0.46999998093E+01 0. -1.
</event>
<event>
 5   0  0.3701250E-08  0.3783989E+04  0.7818609E-02  0.8049599E-01
        1   -1    0    0  501    0  0.00000000000E+00  0.00000000000E+00  0.21263050608E+04  0.21263050608E+04  0.50400001928E-02 0.  1.
       -1   -1    0    0    0  501  0.00000000000E+00  0.00000000000E+00 -0.16835043473E+04  0.16835043473E+04  0.50400001928E-02 0. -1.
    10030    2    1    2    0    0  0.00000000000E+00  0.00000000000E+00  0.44280071347E+03  0.38098094080E+04  0.37839893306E+04 0.  0.
        1    1    3    3  502    0  0.10885792865E+04 -0.41283369685E+02  0.17788670375E+04  0.20859235644E+04  0.50400001928E-02 0.  1.
       -1    1    3    3    0  502 -0.10885792865E+04  0.41283369685E+02 -0.13360663240E+04  0.17238858436E+04  0.50400001928E-02 0. -1.
</event>
<event>
 5   0  0.3701250E-08  0.3787425E+04  0.7818609E-02  0.8048859E-01
       -1   -1    0    0    0  501  0.00000000000E+00  0.00000000000E+00  0.16179797615E+04  0.16179797615E+04  0.50400001928E-02 0. -1.
        1   -1    0    0  501    0  0.00000000000E+00  0.00000000000E+00 -0.22164352137E+04  0.22164352137E+04  0.50400001928E-02 0.  1.
    10030    2    1    2    0    0  0.00000000000E+00  0.00000000000E+00 -0.59845545216E+03  0.38344149752E+04  0.37874251510E+04 0.  0.
        1    1    3    3  502    0  0.67052360755E+03 -0.90100217370E+03  0.12443990149E+04  0.16762862923E+04  0.50400001928E-02 0. -1.
       -1    1    3    3    0  502 -0.67052360755E+03  0.90100217370E+03 -0.18428544671E+04  0.21581286830E+04  0.50400001928E-02 0.  1.
</event>
<event>
 5   0  0.3701250E-08  0.3842448E+04  0.7818609E-02  0.8037107E-01
        1   -1    0    0  501    0  0.00000000000E+00  0.00000000000E+00  0.11488994236E+04  0.11488994236E+04  0.50400001928E-02 0.  1.
       -1   -1    0    0    0  501  0.00000000000E+00  0.00000000000E+00 -0.32127282136E+04  0.32127282136E+04  0.50400001928E-02 0. -1.
    10030    2    1    2    0    0  0.00000000000E+00  0.00000000000E+00 -0.20638287899E+04  0.43616276372E+04  0.38424479660E+04 0.  0.
        3    1    3    3  502    0  0.75554800287E+03 -0.16924834990E+03  0.96395678374E+03  0.12364103201E+04  0.10100000352E+00 0.  1.
       -3    1    3    3    0  502 -0.75554800287E+03  0.16924834990E+03 -0.30277855737E+04  0.31252173171E+04  0.10100000352E+00 0. -1.
</event>
<event>
 5   0  0.1143283E-07  0.3788004E+04  0.7818609E-02  0.8048734E-01
       -2   -1    0    0    0  501  0.00000000000E+00  0.00000000000E+00  0.20713918301E+04  0.20713918301E+04  0.25500000920E-02 0.  1.
        2   -1    0    0  501    0  0.00000000000E+00  0.00000000000E+00 -0.17318036922E+04  0.17318036922E+04  0.25500000920E-02 0. -1.
    10030    2    1    2    0    0  0.00000000000E+00  0.00000000000E+00  0.33958813790E+03  0.38031955223E+04  0.37880042341E+04 0.  0.
        1    1    3    3  502    0  0.13475523703E+04  0.69084451567E+03 -0.97234461461E+03  0.17996159549E+04  0.50400001928E-02 0. -1.
       -1    1    3    3    0  502 -0.13475523703E+04 -0.69084451567E+03  0.13119327525E+04  0.20035795674E+04  0.50400001928E-02 0.  1.
</event>
<event>
 5   0  0.3701250E-08  0.3956435E+04  0.7818609E-02  0.8013393E-01
       -1   -1    0    0    0  501  0.00000000000E+00  0.00000000000E+00  0.16006268631E+04  0.16006268632E+04  0.50400001928E-02 0.  1.
        1   -1    0    0  501    0  0.00000000000E+00  0.00000000000E+00 -0.24448818302E+04  0.24448818302E+04  0.50400001928E-02 0. -1.
    10030    2    1    2    0    0  0.00000000000E+00  0.00000000000E+00 -0.84425496705E+03  0.40455086934E+04  0.39564345235E+04 0.  0.
        3    1    3    3  502    0 -0.15038623898E+04  0.11418931303E+04 -0.10251692299E+04  0.21486027945E+04  0.10100000352E+00 0. -1.
       -3    1    3    3    0  502  0.15038623898E+04 -0.11418931303E+04  0.18091426282E+03  0.18969058989E+04  0.10100000352E+00 0.  1.
</event>
<event>
 5   0  0.1143283E-07  0.3587417E+04  0.7818609E-02  0.8093380E-01
        2   -1    0    0  501    0  0.00000000000E+00  0.00000000000E+00  0.18749483972E+04  0.18749483972E+04  0.25500000920E-02 0. -1.
       -2   -1    0    0    0  501  0.00000000000E+00  0.00000000000E+00 -0.17159889570E+04  0.17159889570E+04  0.25500000920E-02 0.  1.
    10030    2    1    2    0    0  0.00000000000E+00  0.00000000000E+00  0.15895944013E+03  0.35909373542E+04  0.35874173131E+04 0.  0.
        1    1    3    3  502    0  0.12910096980E+04 -0.41871117185E+03 -0.10944308608E+04  0.17435033682E+04  0.50400001928E-02 0.  1.
       -1    1    3    3    0  502 -0.12910096980E+04  0.41871117185E+03  0.12533903010E+04  0.18474339860E+04  0.50400001928E-02 0. -1.
</event>
<event>
 5   0  0.1143283E-07  0.3918780E+04  0.7818609E-02  0.8021135E-01
       -2   -1    0    0    0  501  0.00000000000E+00  0.00000000000E+00  0.16421509304E+04  0.16421509304E+04  0.25500000920E-02 0.  1.
        2   -1    0    0  501    0  0.00000000000E+00  0.00000000000E+00 -0.23379148161E+04  0.23379148161E+04  0.25500000920E-02 0. -1.
    10030    2    1    2    0    0  0.00000000000E+00  0.00000000000E+00 -0.69576388570E+03  0.39800657465E+04  0.39187799073E+04 0.  0.
        1    1    3    3  502    0 -0.13199694057E+04 -0.14218278864E+04 -0.62657302795E+03  0.20387514635E+04  0.50400001928E-02 0.  1.
       -1    1    3    3    0  502  0.13199694057E+04  0.14218278864E+04 -0.69190857751E+02  0.19413142830E+04  0.50400001928E-02 0. -1.
</event>
<event>
 5   0  0.7858367E-08  0.3801823E+04  0.7818609E-02  0.8045764E-01
       -2   -1    0    0    0  501  0.00000000000E+00  0.00000000000E+00  0.17560624610E+04  0.17560624610E+04  0.25500000920E-02 0. -1.
        2   -1    0    0  501    0  0.00000000000E+00  0.00000000000E+00 -0.20577088421E+04  0.20577088421E+04  0.25500000920E-02 0.  1.
    10030    2    1    2    0    0  0.00000000000E+00  0.00000000000E+00 -0.30164638109E+03  0.38137713031E+04  0.38018233800E+04 0.  0.
        2    1    3    3  502    0  0.19390666801E+03  0.65023214319E+03 -0.19320904116E+04  0.20477731795E+04  0.25500000920E-02 0.  1.
       -2    1    3    3    0  502 -0.19390666801E+03 -0.65023214319E+03  0.16304440305E+04  0.17659981236E+04  0.25500000920E-02 0. -1.
</event>
<event>
 5   0  0.3701250E-08  0.3793201E+04  0.7818609E-02  0.8047616E-01
       -1   -1    0    0    0  501  0.00000000000E+00  0.00000000000E+00  0.17970271095E+04  0.17970271095E+04  0.50400001928E-02 0. -1.
        1   -1    0    0  501    0  0.00000000000E+00  0.00000000000E+00 -0.20016908173E+04  0.20016908173E+04  0.50400001928E-02 0.  1.
    10030    2    1    2    0    0  0.00000000000E+00  0.00000000000E+00 -0.20466370781E+03  0.37987179268E+04  0.37932005818E+04 0.  0.
        2    1    3    3  502    0  0.62572606049E+03  0.11323032146E+04  0.12865700541E+04  0.18245290287E+04  0.25500000920E-02 0. -1.
       -2    1    3    3    0  502 -0.62572606049E+03 -0.11323032146E+04 -0.14912337619E+04  0.19741888980E+04  0.25500000920E-02 0.  1.
</event>
<event>
 5   0  0.1174870E-07  0.3806940E+04  0.7818609E-02  0.8044667E-01
       -2   -1    0    0    0  501  0.00000000000E+00  0.00000000000E+00  0.15166970009E+04  0.15166970009E+04  0.25500000920E-02 0.  1.
        2   -1    0    0  501    0  0.00000000000E+00  0.00000000000E+00 -0.23888745727E+04  0.23888745727E+04  0.25500000920E-02 0. -1.
    10030    2    1    2    0    0  0.00000000000E+00  0.00000000000E+00 -0.87217757175E+03  0.39055715736E+04  0.38069404513E+04 0.  0.
        5    1    3    3  502    0  0.85714551154E+02  0.11678432396E+03 -0.23832051237E+04  0.23876084926E+04  0.46999998093E+01 0. -1.
       -5    1    3    3    0  502 -0.85714551154E+02 -0.11678432396E+03  0.15110275519E+04  0.15179630810E+04  0.46999998093E+01 0.  1.
</event>
<event>
 5   0  0.3889225E-08  0.3788626E+04  0.7818609E-02  0.8048600E-01
       -1   -1    0    0    0  501  0.00000000000E+00  0.00000000000E+00  0.15054849717E+04  0.15054849717E+04  0.50400001928E-02 0. -1.
        1   -1    0    0  501    0  0.00000000000E+00  0.00000000000E+00 -0.23835655764E+04  0.23835655764E+04  0.50400001928E-02 0.  1.
    10030    2    1    2    0    0  0.00000000000E+00  0.00000000000E+00 -0.87808060471E+03  0.38890505482E+04  0.37886262177E+04 0.  0.
        5    1    3    3  502    0 -0.10618097213E+04 -0.11489755441E+04  0.65736092053E+03  0.16969767691E+04  0.46999998093E+01 0. -1.
       -5    1    3    3    0  502  0.10618097213E+04  0.11489755441E+04 -0.15354415252E+04  0.21920737790E+04  0.46999998093E+01 0.  1.
</event>
<event>
 5   0  0.1193861E-07  0.3779974E+04  0.7818609E-02  0.8050466E-01
        2   -1    0    0  501    0  0.00000000000E+00  0.00000000000E+00  0.13897961723E+04  0.13897961723E+04  0.25500000920E-02 0. -1.
       -2   -1    0    0    0  501  0.00000000000E+00  0.00000000000E+00 -0.25701976270E+04  0.25701976270E+04  0.25500000920E-02 0.  1.
    10030    2    1    2    0    0  0.00000000000E+00  0.00000000000E+00 -0.11804014548E+04  0.39599937993E+04  0.37799739809E+04 0.  0.
        3    1    3    3  502    0  0.18810153908E+04 -0.14281454645E+03 -0.46876698529E+03  0.19437997304E+04  0.10100000352E+00 0. -1.
       -3    1    3    3    0  502 -0.18810153908E+04  0.14281454645E+03 -0.71163446948E+03  0.20161940689E+04  0.10100000352E+00 0.  1.
</event>
<event>
 5   0  0.1143283E-07  0.3815086E+04  0.7818609E-02  0.8042925E-01
       -2   -1    0    0    0  501  0.00000000000E+00  0.00000000000E+00  0.22132563821E+04  0.22132563821E+04  0.25500000920E-02 0. -1.
        2   -1    0    0  501    0  0.00000000000E+00  0.00000000000E+00 -0.16440575239E+04  0.16440575239E+04  0.25500000920E-02 0.  1.
    10030    2    1    2    0    0  0.00000000000E+00  0.00000000000E+00  0.56919885814E+03  0.38573139060E+04  0.38150862676E+04 0.  0.
        1    1    3    3  502    0  0.89902097988E+03  0.99637907915E+03  0.16552261864E+04  0.21309114763E+04  0.50400001928E-02 0. -1.
       -1    1    3    3    0  502 -0.89902097988E+03 -0.99637907915E+03 -0.10860273282E+04  0.17264024297E+04  0.50400001928E-02 0.  1.
</event>
<event>
 5   0  0.7858367E-08  0.3802159E+04  0.7818609E-02  0.8045692E-01
        2   -1    0    0  501    0  0.00000000000E+00  0.00000000000E+00  0.21499615198E+04  0.21499615198E+04  0.25500000920E-02 0. -1.
       -2   -1    0    0    0  501  0.00000000000E+00  0.00000000000E+00 -0.16810082409E+04  0.16810082409E+04  0.25500000920E-02 0.  1.
    10030    2    1    2    0    0  0.00000000000E+00  0.00000000000E+00  0.46895327892E+03  0.38309697607E+04  0.38021588774E+04 0.  0.
        2    1    3    3  502    0 -0.19789952391E+03 -0.92507335450E+03 -0.14270116722E+04  0.17121002440E+04  0.25500000920E-02 0.  1.
       -2    1    3    3    0  502  0.19789952391E+03  0.92507335450E+03  0.18959649511E+04  0.21188695167E+04  0.25500000920E-02 0. -1.
</event>
<event>
 5   0  0.3701250E-08  0.3812280E+04  0.7818609E-02  0.8043525E-01
        1   -1    0    0  501    0  0.00000000000E+00  0.00000000000E+00  0.17967096888E+04  0.17967096888E+04  0.50400001928E-02 0.  1.
       -1   -1    0    0    0  501  0.00000000000E+00  0.00000000000E+00 -0.20222357706E+04  0.20222357706E+04  0.50400001928E-02 0. -1.
    10030    2    1    2    0    0  0.00000000000E+00  0.00000000000E+00 -0.22552608178E+03  0.38189454594E+04  0.38122804735E+04 0.  0.
        2    1    3    3  502    0 -0.51306301405E+03 -0.18258722436E+04 -0.30369399467E+03  0.19207480701E+04  0.25500000920E-02 0. -1.
       -2    1    3    3    0  502  0.51306301405E+03  0.18258722436E+04  0.78167912884E+02  0.18981973893E+04  0.25500000920E-02 0.  1.
</event>
<event>
 5   0  0.3701250E-08  0.3798017E+04  0.7818609E-02  0.8046581E-01
       -1   -1    0    0    0  501  0.00000000000E+00  0.00000000000E+00  0.24464390831E+04  0.24464390831E+04  0.50400001928E-02 0.  1.
        1   -1    0    0  501    0  0.00000000000E+00  0.00000000000E+00 -0.14740741544E+04  0.14740741544E+04  0.50400001928E-02 0. -1.
    10030    2    1    2    0    0  0.00000000000E+00  0.00000000000E+00  0.97236492878E+03  0.39205132375E+04  0.37980166523E+04 0.  0.
        2    1    3    3  502    0 -0.43921011518E+02  0.18140826228E+04  0.10640668554E+04  0.21035833927E+04  0.25500000920E-02 0.  1.
       -2    1    3    3    0  502  0.43921011518E+02 -0.18140826228E+04 -0.91701926624E+02  0.18169298448E+04  0.25500000920E-02 0. -1.
</event>
<event>
 5   0  0.1174870E-07  0.3773057E+04  0.7818609E-02  0.8051962E-01
       -2   -1    0    0    0  501  0.00000000000E+00  0.00000000000E+00  0.14499475252E+04  0.14499475252E+04  0.25500000920E-02 0.  1.
        2   -1    0    0  501    0  0.00000000000E+00  0.00000000000E+00 -0.24545645519E+04  0.24545645519E+04  0.25500000920E-02 0. -1.
    10030    2    1    2    0    0  0.00000000000E+00  0.00000000000E+00 -0.10046170268E+04  0.39045120771E+04  0.37730570086E+04 0.  0.
        5    1    3    3  502    0 -0.13589094667E+04 -0.95920846377E+03 -0.14234048304E+04  0.21892508346E+04  0.46999998093E+01 0. -1.
       -5    1    3    3    0  502  0.13589094667E+04  0.95920846377E+03  0.41878780357E+03  0.17152612425E+04  0.46999998093E+01 0.  1.
</event>
<event>
 5   0  0.1143283E-07  0.3814067E+04  0.7818609E-02  0.8043143E-01
        2   -1    0    0  501    0  0.00000000000E+00  0.00000000000E+00  0.14527064838E+04  0.14527064838E+04  0.25500000920E-02 0. -1.
       -2   -1    0    0    0  501  0.00000000000E+00  0.00000000000E+00 -0.25034485687E+04  0.25034485687E+04  0.25500000920E-02 0.  1.
    10030    2    1    2    0    0  0.00000000000E+00  0.00000000000E+00 -0.10507420849E+04  0.39561550526E+04  0.38140665792E+04 0.  0.
        1    1    3    3  502    0 -0.10617503921E+04  0.15915492237E+03 -0.21602001074E+04  0.24122828790E+04  0.50400001928E-02 0.  1.
       -1    1    3    3    0  502  0.10617503921E+04 -0.15915492237E+03  0.11094580225E+04  0.15438721735E+04  0.50400001928E-02 0. -1.
</event>
<event>
 5   0  0.1174870E-07  0.3800013E+04  0.7818609E-02  0.8046152E-01
       -2   -1    0    0    0  501  0.00000000000E+00  0.00000000000E+00  0.15776846456E+04  0.15776846456E+04  0.25500000920E-02 0.  1.
        2   -1    0    0  501    0  0.00000000000E+00  0.00000000000E+00 -0.22881785159E+04  0.22881785159E+04  0.25500000920E-02 0. -1.
    10030    2    1    2    0    0  0.00000000000E+00  0.00000000000E+00 -0.71049387029E+03  0.38658631614E+04  0.38000126899E+04 0.  0.
        5    1    3    3  502    0 -0.18382973140E+03 -0.78049347382E+03  0.13971118403E+04  0.16108715086E+04  0.46999998093E+01 0.  1.
       -5    1    3    3    0  502  0.18382973140E+03  0.78049347382E+03 -0.21076057106E+04  0.22549916528E+04  0.46999998093E+01 0. -1.
</event>
<event>
 5   0  0.7858367E-08  0.3826295E+04  0.7818609E-02  0.8040536E-01
       -2   -1    0    0    0  501  0.00000000000E+00  0.00000000000E+00  0.12156250642E+04  0.12156250642E+04  0.25500000920E-02 0.  1.
        2   -1    0    0  501    0  0.00000000000E+00  0.00000000000E+00 -0.30109063068E+04  0.30109063068E+04  0.25500000920E-02 0. -1.
    10030    2    1    2    0    0  0.00000000000E+00  0.00000000000E+00 -0.17952812425E+04  0.42265313710E+04  0.38262949037E+04 0.  0.
        2    1    3    3  502    0 -0.36516592133E+03  0.58313756056E+02 -0.29710535500E+04  0.29939782633E+04  0.25500000920E-02 0. -1.
       -2    1    3    3    0  502  0.36516592133E+03 -0.58313756056E+02  0.11757723075E+04  0.12325531077E+04  0.25500000920E-02 0.  1.
</event>
<event>
 5   0  0.3701250E-08  0.3818636E+04  0.7818609E-02  0.8042167E-01
        1   -1    0    0  501    0  0.00000000000E+00  0.00000000000E+00  0.16020795101E+04  0.16020795101E+04  0.50400001928E-02 0.  1.
       -1   -1    0    0    0  501  0.00000000000E+00  0.00000000000E+00 -0.22754772363E+04  0.22754772363E+04  0.50400001928E-02 0. -1.
    10030    2    1    2    0    0  0.00000000000E+00  0.00000000000E+00 -0.67339772620E+03  0.38775567463E+04  0.38186361208E+04 0.  0.
        2    1    3    3  502    0 -0.10499176724E+04  0.48117755149E+01  0.12826315143E+04  0.16575565973E+04  0.25500000920E-02 0.  1.
       -2    1    3    3    0  502  0.10499176724E+04 -0.48117755149E+01 -0.19560292405E+04  0.22200001490E+04  0.25500000920E-02 0. -1.
</event>
<event>
 5   0  0.3701250E-08  0.3814178E+04  0.7818609E-02  0.8043119E-01
       -1   -1    0    0    0  501  0.00000000000E+00  0.00000000000E+00  0.18041671011E+04  0.18041671011E+04  0.50400001928E-02 0.  1.
        1   -1    0    0  501    0  0.00000000000E+00  0.00000000000E+00 -0.20158819821E+04  0.20158819821E+04  0.50400001928E-02 0. -1.
    10030    2    1    2    0    0  0.00000000000E+00  0.00000000000E+00 -0.21171488098E+03  0.38200490832E+04  0.38141777367E+04 0.  0.
        3    1    3    3  502    0  0.43385667403E+03  0.16121650572E+04  0.81734247089E+03  0.18588589269E+04  0.10100000352E+00 0. -1.
       -3    1    3    3    0  502 -0.43385667403E+03 -0.16121650572E+04 -0.10290573519E+04  0.19611901562E+04  0.10100000352E+00 0.  1.
</event>
<event>
 5   0  0.1143283E-07  0.3796477E+04  0.7818609E-02  0.8046911E-01
       -2   -1    0    0    0  501  0.00000000000E+00  0.00000000000E+00  0.15839363708E+04  0.15839363708E+04  0.25500000920E-02 0. -1.
        2   -1    0    0  501    0  0.00000000000E+00  0.00000000000E+00 -0.22749078125E+04  0.22749078125E+04  0.25500000920E-02 0.  1.
    10030    2    1    2    0    0  0.00000000000E+00  0.00000000000E+00 -0.69097144172E+03  0.38588441833E+04  0.37964769060E+04 0.  0.
        1    1    3    3  502    0  0.10574895653E+04 -0.12206082625E+04  0.66846928509E+03  0.17478615209E+04  0.50400001928E-02 0.  1.
       -1    1    3    3    0  502 -0.10574895653E+04  0.12206082625E+04 -0.13594407268E+04  0.21109826624E+04  0.50400001928E-02 0. -1.
</event>
<event>
 5   0  0.3701250E-08  0.3793251E+04  0.7818609E-02  0.8047605E-01
        1   -1    0    0  501    0  0.00000000000E+00  0.00000000000E+00  0.14672700747E+04  0.14672700747E+04  0.50400001928E-02 0.  1.
       -1   -1    0    0    0  501  0.00000000000E+00  0.00000000000E+00 -0.24516195145E+04  0.24516195145E+04  0.50400001928E-02 0. -1.
    10030    2    1    2    0    0  0.00000000000E+00  0.00000000000E+00 -0.98434943984E+03  0.39188895892E+04  0.37932508212E+04 0.  0.
        2    1    3    3  502    0  0.13349862859E+04 -0.13420264766E+04 -0.37008919565E+03  0.19287792669E+04  0.25500000920E-02 0.  1.
       -2    1    3    3    0  502 -0.13349862859E+04  0.13420264766E+04 -0.61426024419E+03  0.19901103223E+04  0.25500000920E-02 0. -1.
</event>
<event>
 5   0  0.1143283E-07  0.3703721E+04  0.7818609E-02  0.8067138E-01
        2   -1    0    0  501    0  0.00000000000E+00  0.00000000000E+00  0.24481589885E+04  0.24481589885E+04  0.25500000920E-02 0. -1.
       -2   -1    0    0    0  501  0.00000000000E+00  0.00000000000E+00 -0.14008026372E+04  0.14008026372E+04  0.25500000920E-02 0.  1.
    10030    2    1    2    0    0  0.00000000000E+00  0.00000000000E+00  0.10473563513E+04  0.38489616257E+04  0.37037211381E+04 0.  0.
        1    1    3    3  502    0 -0.87423274967E+03  0.11748099858E+04 -0.65431937427E+03  0.16039311852E+04  0.50400001928E-02 0.  1.
       -1    1    3    3    0  502  0.87423274967E+03 -0.11748099858E+04  0.17016757256E+04  0.22450304404E+04  0.50400001928E-02 0. -1.
</event>
<event>
 5   0  0.1143283E-07  0.3800874E+04  0.7818609E-02  0.8045967E-01
        2   -1    0    0  501    0  0.00000000000E+00  0.00000000000E+00  0.20532902386E+04  0.20532902386E+04  0.25500000920E-02 0.  1.
       -2   -1    0    0    0  501  0.00000000000E+00  0.00000000000E+00 -0.17589627322E+04  0.17589627322E+04  0.25500000920E-02 0. -1.
    10030    2    1    2    0    0  0.00000000000E+00  0.00000000000E+00  0.29432750641E+03  0.38122529707E+04  0.38008741142E+04 0.  0.
        1    1    3    3  502    0  0.49224042458E+03 -0.12508573563E+04 -0.12002553168E+04  0.18020981069E+04  0.50400001928E-02 0. -1.
       -1    1    3    3    0  502 -0.49224042458E+03  0.12508573563E+04  0.14945828232E+04  0.20101548639E+04  0.50400001928E-02 0.  1.
</event>
<event>
 5   0  0.3701250E-08  0.3796282E+04  0.7818609E-02  0.8046953E-01
        1   -1    0    0  501    0  0.00000000000E+00  0.00000000000E+00  0.24817356829E+04  0.24817356829E+04  0.50400001928E-02 0.  1.
       -1   -1    0    0    0  501  0.00000000000E+00  0.00000000000E+00 -0.14517819167E+04  0.14517819167E+04  0.50400001928E-02 0. -1.
    10030    2    1    2    0    0  0.00000000000E+00  0.00000000000E+00  0.10299537662E+04  0.39335175996E+04  0.37962818580E+04 0.  0.
        1    1    3    3  502    0  0.93909393459E+01 -0.18547806406E+04  0.93284165513E+03  0.20761726729E+04  0.50400001928E-02 0.  1.
       -1    1    3    3    0  502 -0.93909393459E+01  0.18547806406E+04  0.97112111029E+02  0.18573449266E+04  0.50400001928E-02 0. -1.
</event>
<event>
 5   0  0.3701250E-08  0.3739994E+04  0.7818609E-02  0.8059156E-01
        1   -1    0    0  501    0  0.00000000000E+00  0.00000000000E+00  0.16298079216E+04  0.16298079216E+04  0.50400001928E-02 0. -1.
       -1   -1    0    0    0  501  0.00000000000E+00  0.00000000000E+00 -0.21455835709E+04  0.21455835709E+04  0.50400001928E-02 0.  1.
    10030    2    1    2    0    0  0.00000000000E+00  0.00000000000E+00 -0.51577564934E+03  0.37753914925E+04  0.37399941712E+04 0.  0.
        1    1    3    3  502    0  0.50861196152E+03 -0.17154061483E+04  0.29093486367E+03  0.18127182561E+04  0.50400001928E-02 0. -1.
       -1    1    3    3    0  502 -0.50861196152E+03  0.17154061483E+04 -0.80671051301E+03  0.19626732364E+04  0.50400001928E-02 0.  1.
</event>
<event>
 5   0  0.1143283E-07  0.3836499E+04  0.7818609E-02  0.8038367E-01
       -2   -1    0    0    0  501  0.00000000000E+00  0.00000000000E+00  0.12609067597E+04  0.12609067597E+04  0.25500000920E-02 0.  1.
        2   -1    0    0  501    0  0.00000000000E+00  0.00000000000E+00 -0.29182823820E+04  0.29182823820E+04  0.25500000920E-02 0. -1.
    10030    2    1    2    0    0  0.00000000000E+00  0.00000000000E+00 -0.16573756224E+04  0.41791891417E+04  0.38364994368E+04 0.  0.
        1    1    3    3  502    0 -0.95883301569E+03 -0.46975507551E+03  0.90728908978E+03  0.14011438454E+04  0.50400001928E-02 0.  1.
       -1    1    3    3    0  502  0.95883301569E+03  0.46975507551E+03 -0.25646647121E+04  0.27780452964E+04  0.50400001928E-02 0. -1.
</event>
<event>
 5   0  0.1174870E-07  0.3960209E+04  0.7818609E-02  0.8012622E-01
       -2   -1    0    0    0  501  0.00000000000E+00  0.00000000000E+00  0.17011359437E+04  0.17011359437E+04  0.25500000920E-02 0.  1.
        2   -1    0    0  501    0  0.00000000000E+00  0.00000000000E+00 -0.23048205680E+04  0.23048205680E+04  0.25500000920E-02 0. -1.
    10030    2    1    2    0    0  0.00000000000E+00  0.00000000000E+00 -0.60368462432E+03  0.40059565117E+04  0.39602086369E+04 0.  0.
        5    1    3    3  502    0  0.17655766226E+04  0.28879157619E+03 -0.11602498175E+04  0.21323374765E+04  0.46999998093E+01 0.  1.
       -5    1    3    3    0  502 -0.17655766226E+04 -0.28879157619E+03  0.55656519313E+03  0.18736190352E+04  0.46999998093E+01 0. -1.
</event>
<event>
 5   0  0.3701250E-08  0.3808261E+04  0.7818609E-02  0.8044384E-01
       -1   -1    0    0    0  501  0.00000000000E+00  0.00000000000E+00  0.11782875620E+04  0.11782875620E+04  0.50400001928E-02 0.  1.
        1   -1    0    0  501    0  0.00000000000E+00  0.00000000000E+00 -0.30771041720E+04  0.30771041720E+04  0.50400001928E-02 0. -1.
    10030    2    1    2    0    0  0.00000000000E+00  0.00000000000E+00 -0.18988166100E+04  0.42553917341E+04  0.38082613214E+04 0.  0.
        1    1    3    3  502    0 -0.66339926738E+03 -0.32994973910E+03  0.10106039111E+04  0.12531104036E+04  0.50400001928E-02 0.  1.
       -1    1    3    3    0  502  0.66339926738E+03  0.32994973910E+03 -0.29094205212E+04  0.30022813305E+04  0.50400001928E-02 0. -1.
</event>
<event>
 5   0  0.1143283E-07  0.3802357E+04  0.7818609E-02  0.8045649E-01
       -2   -1    0    0    0  501  0.00000000000E+00  0.00000000000E+00  0.16998567356E+04  0.16998567356E+04  0.25500000920E-02 0. -1.
        2   -1    0    0  501    0  0.00000000000E+00  0.00000000000E+00 -0.21263436255E+04  0.21263436255E+04  0.25500000920E-02 0.  1.
    10030    2    1    2    0    0  0.00000000000E+00  0.00000000000E+00 -0.42648688990E+03  0.38262003611E+04  0.38023569185E+04 0.  0.
        1    1    3    3  502    0  0.60081320106E+03 -0.40806816409E+03  0.15547553924E+04  0.17160304366E+04  0.50400001928E-02 0. -1.
       -1    1    3    3    0  502 -0.60081320106E+03  0.40806816409E+03 -0.19812422823E+04  0.21101699245E+04  0.50400001928E-02 0.  1.
</event>
<event>
 5   0  0.3701250E-08  0.3768237E+04  0.7818609E-02  0.8053006E-01
        1   -1    0    0  501    0  0.00000000000E+00  0.00000000000E+00  0.26732071050E+04  0.26732071050E+04  0.50400001928E-02 0.  1.
       -1   -1    0    0    0  501  0.00000000000E+00  0.00000000000E+00 -0.13279561341E+04  0.13279561341E+04  0.50400001928E-02 0. -1.
    10030    2    1    2    0    0  0.00000000000E+00  0.00000000000E+00  0.13452509709E+04  0.40011632391E+04  0.37682366024E+04 0.  0.
        4    1    3    3  502    0 -0.88695256979E+03 -0.13770581114E+04 -0.31601680646E+03  0.16681852829E+04  0.12699999809E+01 0.  1.
       -4    1    3    3    0  502  0.88695256979E+03  0.13770581114E+04  0.16612677774E+04  0.23329779562E+04  0.12699999809E+01 0. -1.
</event>
<event>
 5   0  0.3701250E-08  0.3821490E+04  0.7818609E-02  0.8041559E-01
        1   -1    0    0  501    0  0.00000000000E+00  0.00000000000E+00  0.15950354161E+04  0.15950354161E+04  0.50400001928E-02 0. -1.
       -1   -1    0    0    0  501  0.00000000000E+00  0.00000000000E+00 -0.22889437936E+04  0.22889437937E+04  0.50400001928E-02 0.  1.
    10030    2    1    2    0    0  0.00000000000E+00  0.00000000000E+00 -0.69390837757E+03  0.38839792097E+04  0.38214899797E+04 0.  0.
        4    1    3    3  502    0  0.16200415315E+04 -0.10055840339E+04 -0.22160459867E+03  0.19195947552E+04  0.12699999809E+01 0. -1.
       -4    1    3    3    0  502 -0.16200415315E+04  0.10055840339E+04 -0.47230377890E+03  0.19643844546E+04  0.12699999809E+01 0.  1.
</event>
<event>
 5   0  0.3701250E-08  0.3796042E+04  0.7818609E-02  0.8047005E-01
        1   -1    0    0  501    0  0.00000000000E+00  0.00000000000E+00  0.14883729429E+04  0.14883729429E+04  0.50400001928E-02 0.  1.
       -1   -1    0    0    0  501  0.00000000000E+00  0.00000000000E+00 -0.24204174153E+04  0.24204174153E+04  0.50400001928E-02 0. -1.
    10030    2    1    2    0    0  0.00000000000E+00  0.00000000000E+00 -0.93204447242E+03  0.39087903581E+04  0.37960420395E+04 0.  0.
        4    1    3    3  502    0  0.16630022796E+04  0.52892205602E+03 -0.12346149881E+04  0.21376648253E+04  0.12699999809E+01 0. -1.
       -4    1    3    3    0  502 -0.16630022796E+04 -0.52892205602E+03  0.30257051570E+03  0.17711255329E+04  0.12699999809E+01 0.  1.
</event>
<event>
 5   0  0.7858367E-08  0.3809233E+04  0.7818609E-02  0.8044176E-01
        2   -1    0    0  501    0  0.00000000000E+00  0.00000000000E+00  0.16137112393E+04  0.16137112393E+04  0.25500000920E-02 0.  1.
       -2   -1    0    0    0  501  0.00000000000E+00  0.00000000000E+00 -0.22479631882E+04  0.22479631882E+04  0.25500000920E-02 0. -1.
    10030    2    1    2    0    0  0.00000000000E+00  0.00000000000E+00 -0.63425194882E+03  0.38616744275E+04  0.38092327114E+04 0.  0.
        2    1    3    3  502    0 -0.59747627962E+03  0.11234372634E+04 -0.17538431631E+04  0.21668075665E+04  0.25500000920E-02 0. -1.
       -2    1    3    3    0  502  0.59747627962E+03 -0.11234372634E+04  0.11195912143E+04  0.16948668610E+04  0.25500000920E-02 0.  1.
</event>
<event>
 5   0  0.7858367E-08  0.3802317E+04  0.7818609E-02  0.8045658E-01
        2   -1    0    0  501    0  0.00000000000E+00  0.00000000000E+00  0.15974036950E+04  0.15974036950E+04  0.25500000920E-02 0.  1.
       -2   -1    0    0    0  501  0.00000000000E+00  0.00000000000E+00 -0.22626738665E+04  0.22626738665E+04  0.25500000920E-02 0. -1.
    10030    2    1    2    0    0  0.00000000000E+00  0.00000000000E+00 -0.66527017143E+03  0.38600775615E+04  0.38023169752E+04 0.  0.
        2    1    3    3  502    0  0.73776213811E+03 -0.15068630981E+04  0.57508082162E+03  0.17735972824E+04  0.25500000920E-02 0.  1.
       -2    1    3    3    0  502 -0.73776213811E+03  0.15068630981E+04 -0.12403509931E+04  0.20864802791E+04  0.25500000920E-02 0. -1.
</event>
<event>
 5   0  0.1193861E-07  0.3825543E+04  0.7818609E-02  0.8040695E-01
       -2   -1    0    0    0  501  0.00000000000E+00  0.00000000000E+00  0.13174959736E+04  0.13174959736E+04  0.25500000920E-02 0.  1.
        2   -1    0    0  501    0  0.00000000000E+00  0.00000000000E+00 -0.27770069164E+04  0.27770069164E+04  0.25500000920E-02 0. -1.
    10030    2    1    2    0    0  0.00000000000E+00  0.00000000000E+00 -0.14595109429E+04  0.40945028900E+04  0.38255433240E+04 0.  0.
        3    1    3    3  502    0 -0.68490627225E+02 -0.12221940712E+03  0.13119969317E+04  0.13194561411E+04  0.10100000352E+00 0.  1.
       -3    1    3    3    0  502  0.68490627225E+02  0.12221940712E+03 -0.27715078745E+04  0.27750467488E+04  0.10100000352E+00 0. -1.
</event>
<event>
 5   0  0.3701250E-08  0.3806043E+04  0.7818609E-02  0.8044859E-01
        1   -1    0    0  501    0  0.00000000000E+00  0.00000000000E+00  0.17342134681E+04  0.17342134681E+04  0.50400001928E-02 0. -1.
       -1   -1    0    0    0  501  0.00000000000E+00  0.00000000000E+00 -0.20882617615E+04  0.20882617615E+04  0.50400001928E-02 0.  1.
    10030    2    1    2    0    0  0.00000000000E+00  0.00000000000E+00 -0.35404829345E+03  0.38224752296E+04  0.38060434426E+04 0.  0.
        3    1    3    3  502    0  0.69776773666E+03  0.10197940503E+04 -0.16305568241E+04  0.20458678565E+04  0.10100000352E+00 0.  1.
       -3    1    3    3    0  502 -0.69776773666E+03 -0.10197940503E+04  0.12765085306E+04  0.17766073731E+04  0.10100000352E+00 0. -1.
</event>
<event>
 5   0  0.1193861E-07  0.3708791E+04  0.7818609E-02  0.8066016E-01
        2   -1    0    0  501    0  0.00000000000E+00  0.00000000000E+00  0.21258676063E+04  0.21258676063E+04  0.25500000920E-02 0.  1.
       -2   -1    0    0    0  501  0.00000000000E+00  0.00000000000E+00 -0.16175899535E+04  0.16175899535E+04  0.25500000920E-02 0. -1.
    10030    2    1    2    0    0  0.00000000000E+00  0.00000000000E+00  0.50827765280E+03  0.37434575597E+04  0.37087906828E+04 0.  0.
        3    1    3    3  502    0  0.25777411000E+03 -0.20946270302E+03 -0.15873210430E+04  0.16216997932E+04  0.10100000352E+00 0. -1.
       -3    1    3    3    0  502 -0.25777411000E+03  0.20946270302E+03  0.20955986958E+04  0.21217577665E+04  0.10100000352E+00 0.  1.
</event>
<event>
 5   0  0.7858367E-08  0.3825362E+04  0.7818609E-02  0.8040734E-01
       -2   -1    0    0    0  501  0.00000000000E+00  0.00000000000E+00  0.14839571442E+04  0.14839571442E+04  0.25500000920E-02 0.  1.
        2   -1    0    0  501    0  0.00000000000E+00  0.00000000000E+00 -0.24652651672E+04  0.24652651672E+04  0.25500000920E-02 0. -1.
    10030    2    1    2    0    0  0.00000000000E+00  0.00000000000E+00 -0.98130802308E+03  0.39492223114E+04  0.38253616076E+04 0.  0.
        2    1    3    3  502    0  0.18139318920E+04 -0.26606643113E+03 -0.10534733926E+04  0.21144612656E+04  0.25500000920E-02 0.  1.
       -2    1    3    3    0  502 -0.18139318920E+04  0.26606643113E+03  0.72165369519E+02  0.18347610458E+04  0.25500000920E-02 0. -1.
</event>
<event>
 5   0  0.3701250E-08  0.3789310E+04  0.7818609E-02  0.8048453E-01
       -1   -1    0    0    0  501  0.00000000000E+00  0.00000000000E+00  0.18878309971E+04  0.18878309971E+04  0.50400001928E-02 0.  1.
        1   -1    0    0  501    0  0.00000000000E+00  0.00000000000E+00 -0.19015040782E+04  0.19015040782E+04  0.50400001928E-02 0. -1.
    10030    2    1    2    0    0  0.00000000000E+00  0.00000000000E+00 -0.13673081092E+02  0.37893350752E+04  0.37893104068E+04 0.  0.
        3    1    3    3  502    0 -0.37663810493E+03  0.16845088213E+03  0.18423608231E+04  0.18879950674E+04  0.10100000352E+00 0.  1.
       -3    1    3    3    0  502  0.37663810493E+03 -0.16845088213E+03 -0.18560339042E+04  0.19013400079E+04  0.10100000352E+00 0. -1.
</event>
<event>
 5   0  0.1174870E-07  0.3786469E+04  0.7818609E-02  0.8049065E-01
       -2   -1    0    0    0  501  0.00000000000E+00  0.00000000000E+00  0.17341505100E+04  0.17341505100E+04  0.25500000920E-02 0. -1.
        2   -1    0    0  501    0  0.00000000000E+00  0.00000000000E+00 -0.20669118386E+04  0.20669118386E+04  0.25500000920E-02 0.  1.
    10030    2    1    2    0    0  0.00000000000E+00  0.00000000000E+00 -0.33276132859E+03  0.38010623487E+04  0.37864686552E+04 0.  0.
        5    1    3    3  502    0  0.10714067523E+04 -0.79314126630E+03 -0.15159313237E+04  0.20186766372E+04  0.46999998093E+01 0.  1.
       -5    1    3    3    0  502 -0.10714067523E+04  0.79314126630E+03  0.11831699951E+04  0.17823857115E+04  0.46999998093E+01 0. -1.
</event>
<event>
 5   0  0.3889225E-08  0.3798318E+04  0.7818609E-02  0.8046516E-01
        1   -1    0    0  501    0  0.00000000000E+00  0.00000000000E+00  0.22889990663E+04  0.22889990663E+04  0.50400001928E-02 0. -1.
       -1   -1    0    0    0  501  0.00000000000E+00  0.00000000000E+00 -0.15757128470E+04  0.15757128470E+04  0.50400001928E-02 0.  1.
    10030    2    1    2    0    0  0.00000000000E+00  0.00000000000E+00  0.71328621926E+03  0.38647119133E+04  0.37983181728E+04 0.  0.
        5    1    3    3  502    0  0.14036691303E+04  0.12434236321E+04  0.50732118727E+02  0.18758958377E+04  0.46999998093E+01 0.  1.
       -5    1    3    3    0  502 -0.14036691303E+04 -0.12434236321E+04  0.66255410053E+03  0.19888160755E+04  0.46999998093E+01 0. -1.
</event>
<event>
 5   0  0.1193861E-07  0.3817300E+04  0.7818609E-02  0.8042452E-01
        2   -1    0    0  501    0  0.00000000000E+00  0.00000000000E+00  0.24319091398E+04  0.24319091398E+04  0.25500000920E-02 0.  1.
       -2   -1    0    0    0  501  0.00000000000E+00  0.00000000000E+00 -0.14979776968E+04  0.14979776969E+04  0.25500000920E-02 0. -1.
    10030    2    1    2    0    0  0.00000000000E+00  0.00000000000E+00  0.93393144293E+03  0.39298868366E+04  0.38173004347E+04 0.  0.
        3    1    3    3  502    0  0.12166383467E+04  0.75611630631E+03  0.17655262333E+04  0.22735442872E+04  0.10100000352E+00 0.  1.
       -3    1    3    3    0  502 -0.12166383467E+04 -0.75611630631E+03 -0.83159479040E+03  0.16563425494E+04  0.10100000352E+00 0. -1.
</event>
<event>
 5   0  0.1150235E-07  0.3741132E+04  0.7818609E-02  0.8058907E-01
        2   -1    0    0  501    0  0.00000000000E+00  0.00000000000E+00  0.30679201808E+04  0.30679201808E+04  0.25500000920E-02 0.  1.
       -2   -1    0    0    0  501  0.00000000000E+00  0.00000000000E+00 -0.11405174615E+04  0.11405174615E+04  0.25500000920E-02 0. -1.
    10030    2    1    2    0    0  0.00000000000E+00  0.00000000000E+00  0.19274027193E+04  0.42084376423E+04  0.37411316665E+04 0.  0.
        4    1    3    3  502    0  0.32707000798E+03  0.42386977123E+02  0.30349553012E+04  0.30528227494E+04  0.12699999809E+01 0.  1.
       -4    1    3    3    0  502 -0.32707000798E+03 -0.42386977123E+02 -0.11075525819E+04  0.11556148928E+04  0.12699999809E+01 0. -1.
</event>
<event>
 5   0  0.7858367E-08  0.3771595E+04  0.7818609E-02  0.8052278E-01
        2   -1    0    0  501    0  0.00000000000E+00  0.00000000000E+00  0.19901033535E+04  0.19901033535E+04  0.25500000920E-02 0.  1.
       -2   -1    0    0    0  501  0.00000000000E+00  0.00000000000E+00 -0.17869581116E+04  0.17869581116E+04  0.25500000920E-02 0. -1.
    10030    2    1    2    0    0  0.00000000000E+00  0.00000000000E+00  0.20314524193E+03  0.37770614650E+04  0.37715945330E+04 0.  0.
        2    1    3    3  502    0 -0.78975344471E+03  0.11123980706E+04  0.14054165518E+04  0.19586565944E+04  0.25500000920E-02 0.  1.
       -2    1    3    3    0  502  0.78975344471E+03 -0.11123980706E+04 -0.12022713098E+04  0.18184048706E+04  0.25500000920E-02 0. -1.
</event>
<event>
 5   0  0.3701250E-08  0.3805916E+04  0.7818609E-02  0.8044887E-01
       -1   -1    0    0    0  501  0.00000000000E+00  0.00000000000E+00  0.16170310400E+04  0.16170310401E+04  0.50400001928E-02 0.  1.
        1   -1    0    0  501    0  0.00000000000E+00  0.00000000000E+00 -0.22394431645E+04  0.22394431645E+04  0.50400001928E-02 0. -1.
    10030    2    1    2    0    0  0.00000000000E+00  0.00000000000E+00 -0.62241212443E+03  0.38564742045E+04  0.38059159788E+04 0.  0.
        3    1    3    3  502    0 -0.23885973403E+03 -0.30850250891E+03 -0.21984790302E+04  0.22328317955E+04  0.10100000352E+00 0. -1.
       -3    1    3    3    0  502  0.23885973403E+03  0.30850250891E+03  0.15760669058E+04  0.16236424090E+04  0.10100000352E+00 0.  1.
</event>
<event>
 5   0  0.3701250E-08  0.3803147E+04  0.7818609E-02  0.8045480E-01
        1   -1    0    0  501    0  0.00000000000E+00  0.00000000000E+00  0.23266149894E+04  0.23266149894E+04  0.50400001928E-02 0. -1.
       -1   -1    0    0    0  501  0.00000000000E+00  0.00000000000E+00 -0.15541812994E+04  0.15541812994E+04  0.50400001928E-02 0.  1.
    10030    2    1    2    0    0  0.00000000000E+00  0.00000000000E+00  0.77243368997E+03  0.38807962887E+04  0.38031468588E+04 0.  0.
        4    1    3    3  502    0 -0.50655841841E+03 -0.17903551656E+04  0.78666634995E+03  0.20201036135E+04  0.12699999809E+01 0. -1.
       -4    1    3    3    0  502  0.50655841841E+03  0.17903551656E+04 -0.14232659973E+02  0.18606926753E+04  0.12699999809E+01 0.  1.
</event>
<event>
 5   0  0.1143283E-07  0.3810609E+04  0.7818609E-02  0.8043882E-01
       -2   -1    0    0    0  501  0.00000000000E+00  0.00000000000E+00  0.15990162914E+04  0.15990162915E+04  0.25500000920E-02 0. -1.
        2   -1    0    0  501    0  0.00000000000E+00  0.00000000000E+00 -0.22702610950E+04  0.22702610950E+04  0.25500000920E-02 0.  1.
    10030    2    1    2    0    0  0.00000000000E+00  0.00000000000E+00 -0.67124480351E+03  0.38692773864E+04  0.38106086006E+04 0.  0.
        1    1    3    3  502    0 -0.16340065125E+04  0.70496015482E+03  0.35547265409E+03  0.18147470652E+04  0.50400001928E-02 0. -1.
       -1    1    3    3    0  502  0.16340065125E+04 -0.70496015482E+03 -0.10267174576E+04  0.20545303212E+04  0.50400001928E-02 0.  1.
</event>
<event>
 5   0  0.3701250E-08  0.3772008E+04  0.7818609E-02  0.8052189E-01
       -1   -1    0    0    0  501  0.00000000000E+00  0.00000000000E+00  0.20518893715E+04  0.20518893715E+04  0.50400001928E-02 0.  1.
        1   -1    0    0  501    0  0.00000000000E+00  0.00000000000E+00 -0.17335299457E+04  0.17335299457E+04  0.50400001928E-02 0. -1.
    10030    2    1    2    0    0  0.00000000000E+00  0.00000000000E+00  0.31835942576E+03  0.37854193172E+04  0.37720083090E+04 0.  0.
        4    1    3    3  502    0  0.72266860245E+03 -0.12436680993E+04  0.13833732639E+04  0.19956661670E+04  0.12699999809E+01 0.  1.
       -4    1    3    3    0  502 -0.72266860245E+03  0.12436680993E+04 -0.10650138381E+04  0.17897531501E+04  0.12699999809E+01 0. -1.
</event>
<event>
 5   0  0.1150235E-07  0.3802765E+04  0.7818609E-02  0.8045562E-01
       -2   -1    0    0    0  501  0.00000000000E+00  0.00000000000E+00  0.19142940395E+04  0.19142940395E+04  0.25500000920E-02 0.  1.
        2   -1    0    0  501    0  0.00000000000E+00  0.00000000000E+00 -0.18885580335E+04  0.18885580335E+04  0.25500000920E-02 0. -1.
    10030    2    1    2    0    0  0.00000000000E+00  0.00000000000E+00  0.25736005935E+02  0.38028520730E+04  0.38027649871E+04 0.  0.
        4    1    3    3  502    0  0.90634366775E+03  0.14836889971E+04 -0.75686508426E+03  0.18962168264E+04  0.12699999809E+01 0. -1.
       -4    1    3    3    0  502 -0.90634366775E+03 -0.14836889971E+04  0.78260109019E+03  0.19066352466E+04  0.12699999809E+01 0.  1.
</event>
<event>
 5   0  0.1193861E-07  0.3814660E+04  0.7818609E-02  0.8043016E-01
       -2   -1    0    0    0  501  0.00000000000E+00  0.00000000000E+00  0.14730137311E+04  0.14730137312E+04  0.25500000920E-02 0.  1.
        2   -1    0    0  501    0  0.00000000000E+00  0.00000000000E+00 -0.24697040177E+04  0.24697040177E+04  0.25500000920E-02 0. -1.
    10030    2    1    2    0    0  0.00000000000E+00  0.00000000000E+00 -0.99669028656E+03  0.39427177489E+04  0.38146601054E+04 0.  0.
        3    1    3    3  502    0 -0.70593770610E+03  0.11946613065E+04  0.85414895534E+03  0.16294582321E+04  0.10100000352E+00 0.  1.
       -3    1    3    3    0  502  0.70593770610E+03 -0.11946613065E+04 -0.18508392419E+04  0.23132595167E+04  0.10100000352E+00 0. -1.
</event>
<event>
 5   0  0.1174870E-07  0.3780538E+04  0.7818609E-02  0.8050344E-01
       -2   -1    0    0    0  501  0.00000000000E+00  0.00000000000E+00  0.14919264348E+04  0.14919264348E+04  0.25500000920E-02 0.  1.
        2   -1    0    0  501    0  0.00000000000E+00  0.00000000000E+00 -0.23949681155E+04  0.23949681155E+04  0.25500000920E-02 0. -1.
    10030    2    1    2    0    0  0.00000000000E+00  0.00000000000E+00 -0.90304168076E+03  0.38868945503E+04  0.37805376559E+04 0.  0.
        5    1    3    3  502    0 -0.35606897756E+03 -0.16105007655E+04  0.49781727341E+03  0.17228876806E+04  0.46999998093E+01 0.  1.
       -5    1    3    3    0  502  0.35606897756E+03  0.16105007655E+04 -0.14008589542E+04  0.21640068696E+04  0.46999998093E+01 0. -1.
</event>
<event>
 5   0  0.3701250E-08  0.3884470E+04  0.7818609E-02  0.8028267E-01
       -1   -1    0    0    0  501  0.00000000000E+00  0.00000000000E+00  0.32553451512E+04  0.32553451512E+04  0.50400001928E-02 0. -1.
        1   -1    0    0  501    0  0.00000000000E+00  0.00000000000E+00 -0.11587947264E+04  0.11587947264E+04  0.50400001928E-02 0.  1.
    10030    2    1    2    0    0  0.00000000000E+00  0.00000000000E+00  0.20965504248E+04  0.44141398776E+04  0.38844699993E+04 0.  0.
        2    1    3    3  502    0  0.12906466719E+04  0.11793588203E+04  0.20095682071E+04  0.26636479568E+04  0.25500000920E-02 0. -1.
       -2    1    3    3    0  502 -0.12906466719E+04 -0.11793588203E+04  0.86982217693E+02  0.17504919208E+04  0.25500000920E-02 0.  1.
</event>
<event>
 5   0  0.3701250E-08  0.3814504E+04  0.7818609E-02  0.8043049E-01
        1   -1    0    0  501    0  0.00000000000E+00  0.00000000000E+00  0.22820442672E+04  0.22820442672E+04  0.50400001928E-02 0.  1.
       -1   -1    0    0    0  501  0.00000000000E+00  0.00000000000E+00 -0.15940140972E+04  0.15940140972E+04  0.50400001928E-02 0. -1.
    10030    2    1    2    0    0  0.00000000000E+00  0.00000000000E+00  0.68803016994E+03  0.38760583644E+04  0.38145042836E+04 0.  0.
        2    1    3    3  502    0  0.11379985322E+04 -0.38205913570E+03 -0.11619946478E+04  0.16707008721E+04  0.25500000920E-02 0. -1.
       -2    1    3    3    0  502 -0.11379985322E+04  0.38205913570E+03  0.18500248178E+04  0.22053574923E+04  0.25500000920E-02 0.  1.
</event>
<event>
 5   0  0.3701250E-08  0.3826134E+04  0.7818609E-02  0.8040570E-01
        3   -1    0    0  501    0  0.00000000000E+00  0.00000000000E+00  0.17902064326E+04  0.17902064355E+04  0.10100000352E+00 0. -1.
       -3   -1    0    0    0  501  0.00000000000E+00  0.00000000000E+00 -0.20443599226E+04  0.20443599251E+04  0.10100000352E+00 0.  1.
    10030    2    1    2    0    0  0.00000000000E+00  0.00000000000E+00 -0.25415349000E+03  0.38345663606E+04  0.38261344955E+04 0.  0.
        3    1    3    3  502    0  0.10444401483E+04 -0.32955076412E+03 -0.16990892767E+04  0.20214755279E+04  0.10100000352E+00 0.  1.
       -3    1    3    3    0  502 -0.10444401483E+04  0.32955076412E+03  0.14449357867E+04  0.18130908327E+04  0.10100000352E+00 0. -1.
</event>
<event>
 5   0  0.3701250E-08  0.3790769E+04  0.7818609E-02  0.8048139E-01
        1   -1    0    0  501    0  0.00000000000E+00  0.00000000000E+00  0.26421364027E+04  0.26421364027E+04  0.50400001928E-02 0.  1.
       -1   -1    0    0    0  501  0.00000000000E+00  0.00000000000E+00 -0.13596886040E+04  0.13596886040E+04  0.50400001928E-02 0. -1.
    10030    2    1    2    0    0  0.00000000000E+00  0.00000000000E+00  0.12824477987E+04  0.40018250068E+04  0.37907691869E+04 0.  0.
        1    1    3    3  502    0 -0.10462712402E+03  0.52286136184E+03  0.25613222497E+04  0.26162382357E+04  0.50400001928E-02 0.  1.
       -1    1    3    3    0  502  0.10462712402E+03 -0.52286136184E+03 -0.12788744510E+04  0.13855867711E+04  0.50400001928E-02 0. -1.
</event>
<event>
 5   0  0.1174870E-07  0.3848764E+04  0.7818609E-02  0.8035771E-01
        2   -1    0    0  501    0  0.00000000000E+00  0.00000000000E+00  0.35154394564E+04  0.35154394564E+04  0.25500000920E-02 0.  1.
       -2   -1    0    0    0  501  0.00000000000E+00  0.00000000000E+00 -0.10534231906E+04  0.10534231906E+04  0.25500000920E-02 0. -1.
    10030    2    1    2    0    0  0.00000000000E+00  0.00000000000E+00  0.24620162658E+04  0.45688626470E+04  0.38487636709E+04 0.  0.
        5    1    3    3  502    0 -0.10046105194E+04 -0.16301071353E+04  0.14585220175E+04  0.24070313944E+04  0.46999998093E+01 0. -1.
       -5    1    3    3    0  502  0.10046105194E+04  0.16301071353E+04  0.10034942483E+04  0.21618312526E+04  0.46999998093E+01 0.  1.
</event>
<event>
 5   0  0.1150235E-07  0.3809702E+04  0.7818609E-02  0.8044076E-01
       -2   -1    0    0    0  501  0.00000000000E+00  0.00000000000E+00  0.20676182447E+04  0.20676182447E+04  0.25500000920E-02 0.  1.
        2   -1    0    0  501    0  0.00000000000E+00  0.00000000000E+00 -0.17548975765E+04  0.17548975765E+04  0.25500000920E-02 0. -1.
    10030    2    1    2    0    0  0.00000000000E+00  0.00000000000E+00  0.31272066827E+03  0.38225158212E+04  0.38097024801E+04 0.  0.
        4    1    3    3  502    0  0.17870948583E+04  0.42862407287E+03  0.65907441377E+03  0.19523850348E+04  0.12699999809E+01 0. -1.
       -4    1    3    3    0  502 -0.17870948583E+04 -0.42862407287E+03 -0.34635374550E+03  0.18701307864E+04  0.12699999809E+01 0.  1.
</event>
<event>
 5   0  0.1143283E-07  0.3798224E+04  0.7818609E-02  0.8046536E-01
       -2   -1    0    0    0  501  0.00000000000E+00  0.00000000000E+00  0.17019776072E+04  0.17019776072E+04  0.25500000920E-02 0. -1.
        2   -1    0    0  501    0  0.00000000000E+00  0.00000000000E+00 -0.21190799643E+04  0.21190799643E+04  0.25500000920E-02 0.  1.
    10030    2    1    2    0    0  0.00000000000E+00  0.00000000000E+00 -0.41710235712E+03  0.38210575714E+04  0.37982241361E+04 0.  0.
        1    1    3    3  502    0  0.52857385851E+03  0.63694517725E+03 -0.19280769912E+04  0.20982302940E+04  0.50400001928E-02 0.  1.
       -1    1    3    3    0  502 -0.52857385851E+03 -0.63694517725E+03  0.15109746341E+04  0.17228272774E+04  0.50400001928E-02 0. -1.
</event>
<event>
 5   0  0.1143283E-07  0.3695509E+04  0.7818609E-02  0.8068958E-01
        2   -1    0    0  501    0  0.00000000000E+00  0.00000000000E+00  0.21961074913E+04  0.21961074913E+04  0.25500000920E-02 0.  1.
       -2   -1    0    0    0  501  0.00000000000E+00  0.00000000000E+00 -0.15546583057E+04  0.15546583057E+04  0.25500000920E-02 0. -1.
    10030    2    1    2    0    0  0.00000000000E+00  0.00000000000E+00  0.64144918567E+03  0.37507657970E+04  0.36955090321E+04 0.  0.
        1    1    3    3  502    0 -0.92087492441E+02 -0.75371261276E+03 -0.13889909670E+04  0.15829904344E+04  0.50400001928E-02 0. -1.
       -1    1    3    3    0  502  0.92087492441E+02  0.75371261276E+03  0.20304401527E+04  0.21677753626E+04  0.50400001928E-02 0.  1.
</event>
<event>
 5   0  0.3701250E-08  0.3808982E+04  0.7818609E-02  0.8044230E-01
       -1   -1    0    0    0  501  0.00000000000E+00  0.00000000000E+00  0.14485904826E+04  0.14485904826E+04  0.50400001928E-02 0.  1.
        1   -1    0    0  501    0  0.00000000000E+00  0.00000000000E+00 -0.25038722981E+04  0.25038722981E+04  0.50400001928E-02 0. -1.
    10030    2    1    2    0    0  0.00000000000E+00  0.00000000000E+00 -0.10552818155E+04  0.39524627807E+04  0.38089817961E+04 0.  0.
        2    1    3    3  502    0 -0.98731509117E+02 -0.15659038422E+04 -0.16477867339E+04  0.22753030291E+04  0.25500000920E-02 0. -1.
       -2    1    3    3    0  502  0.98731509117E+02  0.15659038422E+04  0.59250491840E+03  0.16771597516E+04  0.25500000920E-02 0.  1.
</event>
<event>
 5   0  0.3889225E-08  0.3779181E+04  0.7818609E-02  0.8050637E-01
       -1   -1    0    0    0  501  0.00000000000E+00  0.00000000000E+00  0.17318086652E+04  0.17318086652E+04  0.50400001928E-02 0. -1.
        1   -1    0    0  501    0  0.00000000000E+00  0.00000000000E+00 -0.20617478184E+04  0.20617478184E+04  0.50400001928E-02 0.  1.
    10030    2    1    2    0    0  0.00000000000E+00  0.00000000000E+00 -0.32993915323E+03  0.37935564836E+04  0.37791812538E+04 0.  0.
        5    1    3    3  502    0 -0.14895096988E+04 -0.10145387451E+04  0.40517210327E+03  0.18471909840E+04  0.46999998093E+01 0. -1.
       -5    1    3    3    0  502  0.14895096988E+04  0.10145387451E+04 -0.73511125650E+03  0.19463654995E+04  0.46999998093E+01 0.  1.
</event>
<event>
 5   0  0.1193861E-07  0.3799229E+04  0.7818609E-02  0.8046320E-01
        2   -1    0    0  501    0  0.00000000000E+00  0.00000000000E+00  0.28032586626E+04  0.28032586626E+04  0.25500000920E-02 0. -1.
       -2   -1    0    0    0  501  0.00000000000E+00  0.00000000000E+00 -0.12872644636E+04  0.12872644637E+04  0.25500000920E-02 0.  1.
    10030    2    1    2    0    0  0.00000000000E+00  0.00000000000E+00  0.15159941989E+04  0.40905231262E+04  0.37992290053E+04 0.  0.
        3    1    3    3  502    0 -0.36629334042E+03  0.29859039647E+03 -0.12229645734E+04  0.13110947312E+04  0.10100000352E+00 0.  1.
       -3    1    3    3    0  502  0.36629334042E+03 -0.29859039647E+03  0.27389587724E+04  0.27794283950E+04  0.10100000352E+00 0. -1.
</event>
<event>
 5   0  0.3701250E-08  0.3813305E+04  0.7818609E-02  0.8043306E-01
       -1   -1    0    0    0  501  0.00000000000E+00  0.00000000000E+00  0.13424857494E+04  0.13424857494E+04  0.50400001928E-02 0. -1.
        1   -1    0    0  501    0  0.00000000000E+00  0.00000000000E+00 -0.27079051776E+04  0.27079051776E+04  0.50400001928E-02 0.  1.
    10030    2    1    2    0    0  0.00000000000E+00  0.00000000000E+00 -0.13654194282E+04  0.40503909270E+04  0.38133051867E+04 0.  0.
        2    1    3    3  502    0  0.13504884494E+04 -0.38001562866E+03  0.68872555835E+03  0.15628735792E+04  0.25500000920E-02 0. -1.
       -2    1    3    3    0  502 -0.13504884494E+04  0.38001562866E+03 -0.20541449865E+04  0.24875173478E+04  0.25500000920E-02 0.  1.
</event>
<event>
 5   0  0.7858367E-08  0.3815980E+04  0.7818609E-02  0.8042734E-01
       -2   -1    0    0    0  501  0.00000000000E+00  0.00000000000E+00  0.20682729608E+04  0.20682729608E+04  0.25500000920E-02 0. -1.
        2   -1    0    0  501    0  0.00000000000E+00  0.00000000000E+00 -0.17601286692E+04  0.17601286692E+04  0.25500000920E-02 0.  1.
    10030    2    1    2    0    0  0.00000000000E+00  0.00000000000E+00  0.30814429162E+03  0.38284016300E+04  0.38159803637E+04 0.  0.
        2    1    3    3  502    0 -0.17269637123E+04  0.78096007731E+03  0.37415856719E+03  0.19319153551E+04  0.25500000920E-02 0. -1.
       -2    1    3    3    0  502  0.17269637123E+04 -0.78096007731E+03 -0.66014275573E+02  0.18964862748E+04  0.25500000920E-02 0.  1.
</event>
<event>
 5   0  0.3701250E-08  0.3790141E+04  0.7818609E-02  0.8048274E-01
        1   -1    0    0  501    0  0.00000000000E+00  0.00000000000E+00  0.25108804407E+04  0.25108804407E+04  0.50400001928E-02 0. -1.
       -1   -1    0    0    0  501  0.00000000000E+00  0.00000000000E+00 -0.14302916848E+04  0.14302916849E+04  0.50400001928E-02 0.  1.
    10030    2    1    2    0    0  0.00000000000E+00  0.00000000000E+00  0.10805887559E+04  0.39411721256E+04  0.37901405863E+04 0.  0.
        1    1    3    3  502    0 -0.39050316667E+03 -0.61930900070E+03  0.23578755645E+04  0.24689296343E+04  0.50400001928E-02 0. -1.
       -1    1    3    3    0  502  0.39050316667E+03  0.61930900070E+03 -0.12772868086E+04  0.14722424913E+04  0.50400001928E-02 0.  1.
</event>
<event>
 5   0  0.1193861E-07  0.3811799E+04  0.7818609E-02  0.8043628E-01
       -2   -1    0    0    0  501  0.00000000000E+00  0.00000000000E+00  0.17828816814E+04  0.17828816814E+04  0.25500000920E-02 0.  1.
        2   -1    0    0  501    0  0.00000000000E+00  0.00000000000E+00 -0.20374058587E+04  0.20374058587E+04  0.25500000920E-02 0. -1.
    10030    2    1    2    0    0  0.00000000000E+00  0.00000000000E+00 -0.25452417727E+03  0.38202875401E+04  0.38117993562E+04 0.  0.
        3    1    3    3  502    0 -0.12678351616E+04  0.12583494822E+04 -0.79327491929E+03  0.19545164425E+04  0.10100000352E+00 0.  1.
       -3    1    3    3    0  502  0.12678351616E+04 -0.12583494822E+04  0.53875074202E+03  0.18657710976E+04  0.10100000352E+00 0. -1.
</event>
<event>
 5   0  0.1174870E-07  0.3795866E+04  0.7818609E-02  0.8047043E-01
       -2   -1    0    0    0  501  0.00000000000E+00  0.00000000000E+00  0.21478501855E+04  0.21478501855E+04  0.25500000920E-02 0. -1.
        2   -1    0    0  501    0  0.00000000000E+00  0.00000000000E+00 -0.16770951636E+04  0.16770951636E+04  0.25500000920E-02 0.  1.
    10030    2    1    2    0    0  0.00000000000E+00  0.00000000000E+00  0.47075502197E+03  0.38249453491E+04  0.37958657290E+04 0.  0.
        5    1    3    3  502    0 -0.15583166504E+04  0.19382543785E+03  0.13094740349E+04  0.20446670686E+04  0.46999998093E+01 0. -1.
       -5    1    3    3    0  502  0.15583166504E+04 -0.19382543785E+03 -0.83871901294E+03  0.17802782805E+04  0.46999998093E+01 0.  1.
</event>
<event>
 5   0  0.3701250E-08  0.3809527E+04  0.7818609E-02  0.8044113E-01
       -1   -1    0    0    0  501  0.00000000000E+00  0.00000000000E+00  0.16112086366E+04  0.16112086366E+04  0.50400001928E-02 0. -1.
        1   -1    0    0  501    0  0.00000000000E+00  0.00000000000E+00 -0.22518031773E+04  0.22518031773E+04  0.50400001928E-02 0.  1.
    10030    2    1    2    0    0  0.00000000000E+00  0.00000000000E+00 -0.64059454073E+03  0.38630118139E+04  0.38095273865E+04 0.  0.
        1    1    3    3  502    0 -0.13788458152E+04 -0.11755976384E+04 -0.91580636487E+03  0.20302578376E+04  0.50400001928E-02 0. -1.
       -1    1    3    3    0  502  0.13788458152E+04  0.11755976384E+04  0.27521182414E+03  0.18327539762E+04  0.50400001928E-02 0.  1.
</event>
<event>
 5   0  0.3701250E-08  0.3803068E+04  0.7818609E-02  0.8045497E-01
       -1   -1    0    0    0  501  0.00000000000E+00  0.00000000000E+00  0.18001352075E+04  0.18001352075E+04  0.50400001928E-02 0.  1.
        1   -1    0    0  501    0  0.00000000000E+00  0.00000000000E+00 -0.20086447838E+04  0.20086447838E+04  0.50400001928E-02 0. -1.
    10030    2    1    2    0    0  0.00000000000E+00  0.00000000000E+00 -0.20850957625E+03  0.38087799913E+04  0.38030683373E+04 0.  0.
        4    1    3    3  502    0  0.54053319366E+03  0.17444649730E+04 -0.63466931316E+03  0.19334272485E+04  0.12699999809E+01 0. -1.
       -4    1    3    3    0  502 -0.54053319366E+03 -0.17444649730E+04  0.42615973691E+03  0.18753527427E+04  0.12699999809E+01 0.  1.
</event>
<event>
 5   0  0.3889225E-08  0.3804331E+04  0.7818609E-02  0.8045226E-01
       -1   -1    0    0    0  501  0.00000000000E+00  0.00000000000E+00  0.22980906808E+04  0.22980906808E+04  0.50400001928E-02 0. -1.
        1   -1    0    0  501    0  0.00000000000E+00  0.00000000000E+00 -0.15744524021E+04  0.15744524021E+04  0.50400001928E-02 0.  1.
    10030    2    1    2    0    0  0.00000000000E+00  0.00000000000E+00  0.72363827872E+03  0.38725430829E+04  0.38043314223E+04 0.  0.
        5    1    3    3  502    0  0.16947442881E+04  0.53866110411E+03  0.10491279442E+04  0.20647047054E+04  0.46999998093E+01 0.  1.
       -5    1    3    3    0  502 -0.16947442881E+04 -0.53866110411E+03 -0.32548966549E+03  0.18078383776E+04  0.46999998093E+01 0. -1.
</event>
<event>
 5   0  0.3889225E-08  0.3776882E+04  0.7818609E-02  0.8051134E-01
        1   -1    0    0  501    0  0.00000000000E+00  0.00000000000E+00  0.18704580444E+04  0.18704580444E+04  0.50400001928E-02 0.  1.
       -1   -1    0    0    0  501  0.00000000000E+00  0.00000000000E+00 -0.19065964419E+04  0.19065964420E+04  0.50400001928E-02 0. -1.
    10030    2    1    2    0    0  0.00000000000E+00  0.00000000000E+00 -0.36138397511E+02  0.37770544864E+04  0.37768815985E+04 0.  0.
        5    1    3    3  502    0  0.15091576016E+04  0.10584417052E+04 -0.42836965427E+03  0.18924529480E+04  0.46999998093E+01 0.  1.
       -5    1    3    3    0  502 -0.15091576016E+04 -0.10584417052E+04  0.39223125676E+03  0.18846015384E+04  0.46999998093E+01 0. -1.
</event>
<event>
 5   0  0.1174870E-07  0.3799251E+04  0.7818609E-02  0.8046316E-01
        2   -1    0    0  501    0  0.00000000000E+00  0.00000000000E+00  0.27127504459E+04  0.27127504459E+04  0.25500000920E-02 0.  1.
       -2   -1    0    0    0  501  0.00000000000E+00  0.00000000000E+00 -0.13302281666E+04  0.13302281666E+04  0.25500000920E-02 0. -1.
    10030    2    1    2    0    0  0.00000000000E+00  0.00000000000E+00  0.13825222793E+04  0.40429786125E+04  0.37992510062E+04 0.  0.
        5    1    3    3  502    0 -0.16211821413E+03 -0.10886917225E+04  0.23388147515E+04  0.25848807543E+04  0.46999998093E+01 0.  1.
       -5    1    3    3    0  502  0.16211821413E+03  0.10886917225E+04 -0.95629247217E+03  0.14580978582E+04  0.46999998093E+01 0. -1.
</event>
<event>
 5   0  0.1193861E-07  0.3628185E+04  0.7818609E-02  0.8084066E-01
        2   -1    0    0  501    0  0.00000000000E+00  0.00000000000E+00  0.21719000692E+04  0.21719000692E+04  0.25500000920E-02 0.  1.
       -2   -1    0    0    0  501  0.00000000000E+00  0.00000000000E+00 -0.15152313969E+04  0.15152313969E+04  0.25500000920E-02 0. -1.
    10030    2    1    2    0    0  0.00000000000E+00  0.00000000000E+00  0.65666867238E+03  0.36871314661E+04  0.36281847669E+04 0.  0.
        3    1    3    3  502    0 -0.41725037393E+03  0.37262598579E+03  0.20820547060E+04  0.21558988401E+04  0.10100000352E+00 0.  1.
       -3    1    3    3    0  502  0.41725037393E+03 -0.37262598579E+03 -0.14253860336E+04  0.15312326260E+04  0.10100000352E+00 0. -1.
</event>
<event>
 5   0  0.1193861E-07  0.3799472E+04  0.7818609E-02  0.8046268E-01
       -2   -1    0    0    0  501  0.00000000000E+00  0.00000000000E+00  0.18787565680E+04  0.18787565680E+04  0.25500000920E-02 0. -1.
        2   -1    0    0  501    0  0.00000000000E+00  0.00000000000E+00 -0.19209493914E+04  0.19209493914E+04  0.25500000920E-02 0.  1.
    10030    2    1    2    0    0  0.00000000000E+00  0.00000000000E+00 -0.42192823342E+02  0.37997059594E+04  0.37994716927E+04 0.  0.
        3    1    3    3  502    0 -0.12293927119E+04  0.60120992272E+03 -0.13388029660E+04  0.19144851014E+04  0.10100000352E+00 0.  1.
       -3    1    3    3    0  502  0.12293927119E+04 -0.60120992272E+03  0.12966101427E+04  0.18852208580E+04  0.10100000352E+00 0. -1.
</event>
<event>
 5   0  0.1193861E-07  0.3857318E+04  0.7818609E-02  0.8033965E-01
       -2   -1    0    0    0  501  0.00000000000E+00  0.00000000000E+00  0.18714481406E+04  0.18714481406E+04  0.25500000920E-02 0. -1.
        2   -1    0    0  501    0  0.00000000000E+00  0.00000000000E+00 -0.19876183136E+04  0.19876183136E+04  0.25500000920E-02 0.  1.
    10030    2    1    2    0    0  0.00000000000E+00  0.00000000000E+00 -0.11617017306E+03  0.38590664542E+04  0.38573175121E+04 0.  0.
        3    1    3    3  502    0  0.24879927236E+03  0.11801637143E+04  0.14476013211E+04  0.18842072778E+04  0.10100000352E+00 0. -1.
       -3    1    3    3    0  502 -0.24879927236E+03 -0.11801637143E+04 -0.15637714942E+04  0.19748591764E+04  0.10100000352E+00 0.  1.
</event>
<event>
 5   0  0.3701250E-08  0.3776116E+04  0.7818609E-02  0.8051300E-01
        1   -1    0    0  501    0  0.00000000000E+00  0.00000000000E+00  0.20501019913E+04  0.20501019913E+04  0.50400001928E-02 0. -1.
       -1   -1    0    0    0  501  0.00000000000E+00  0.00000000000E+00 -0.17388226825E+04  0.17388226825E+04  0.50400001928E-02 0.  1.
    10030    2    1    2    0    0  0.00000000000E+00  0.00000000000E+00  0.31127930887E+03  0.37889246738E+04  0.37761164409E+04 0.  0.
        2    1    3    3  502    0 -0.16992867529E+04 -0.23002718003E+03 -0.63715163234E+03  0.18293305264E+04  0.25500000920E-02 0.  1.
       -2    1    3    3    0  502  0.16992867529E+04  0.23002718003E+03  0.94843094121E+03  0.19595941474E+04  0.25500000920E-02 0. -1.
</event>
<event>
 5   0  0.1193861E-07  0.3828735E+04  0.7818609E-02  0.8040016E-01
       -2   -1    0    0    0  501  0.00000000000E+00  0.00000000000E+00  0.20336445049E+04  0.20336445049E+04  0.25500000920E-02 0.  1.
        2   -1    0    0  501    0  0.00000000000E+00  0.00000000000E+00 -0.18020865621E+04  0.18020865621E+04  0.25500000920E-02 0. -1.
    10030    2    1    2    0    0  0.00000000000E+00  0.00000000000E+00  0.23155794285E+03  0.38357310670E+04  0.38287352661E+04 0.  0.
        3    1    3    3  502    0 -0.82025908461E+03  0.54704963229E+03  0.17597267553E+04  0.20171084576E+04  0.10100000352E+00 0.  1.
       -3    1    3    3    0  502  0.82025908461E+03 -0.54704963229E+03 -0.15281688125E+04  0.18186226095E+04  0.10100000352E+00 0. -1.
</event>
<event>
 5   0  0.7858367E-08  0.3818833E+04  0.7818609E-02  0.8042125E-01
        2   -1    0    0  501    0  0.00000000000E+00  0.00000000000E+00  0.20543285652E+04  0.20543285652E+04  0.25500000920E-02 0. -1.
       -2   -1    0    0    0  501  0.00000000000E+00  0.00000000000E+00 -0.17747264722E+04  0.17747264722E+04  0.25500000920E-02 0.  1.
    10030    2    1    2    0    0  0.00000000000E+00  0.00000000000E+00  0.27960209295E+03  0.38290550374E+04  0.38188329564E+04 0.  0.
        2    1    3    3  502    0  0.11182866033E+04 -0.97603389569E+03 -0.10645235979E+04  0.18265863197E+04  0.25500000920E-02 0.  1.
       -2    1    3    3    0  502 -0.11182866033E+04  0.97603389569E+03  0.13441256908E+04  0.20024687177E+04  0.25500000920E-02 0. -1.
</event>
<event>
 5   0  0.1193861E-07  0.3799068E+04  0.7818609E-02  0.8046355E-01
        2   -1    0    0  501    0  0.00000000000E+00  0.00000000000E+00  0.23071413684E+04  0.23071413684E+04  0.25500000920E-02 0.  1.
       -2   -1    0    0    0  501  0.00000000000E+00  0.00000000000E+00 -0.15639395621E+04  0.15639395621E+04  0.25500000920E-02 0. -1.
    10030    2    1    2    0    0  0.00000000000E+00  0.00000000000E+00  0.74320180631E+03  0.38710809305E+04  0.37990681285E+04 0.  0.
        3    1    3    3  502    0  0.99632972584E+03  0.56028004017E+03 -0.11742733035E+04  0.16387508803E+04  0.10100000352E+00 0. -1.
       -3    1    3    3    0  502 -0.99632972584E+03 -0.56028004017E+03  0.19174751098E+04  0.22323300502E+04  0.10100000352E+00 0.  1.
</event>
<event>
 5   0  0.1174870E-07  0.3786512E+04  0.7818609E-02  0.8049056E-01
       -2   -1    0    0    0  501  0.00000000000E+00  0.00000000000E+00  0.20206382190E+04  0.20206382190E+04  0.25500000920E-02 0. -1.
        2   -1    0    0  501    0  0.00000000000E+00  0.00000000000E+00 -0.17739040176E+04  0.17739040176E+04  0.25500000920E-02 0.  1.
    10030    2    1    2    0    0  0.00000000000E+00  0.00000000000E+00  0.24673420145E+03  0.37945422366E+04  0.37865119859E+04 0.  0.
        5    1    3    3  502    0  0.72151343750E+03 -0.10545831298E+04 -0.12766170899E+04  0.18062393258E+04  0.46999998093E+01 0.  1.
       -5    1    3    3    0  502 -0.72151343750E+03  0.10545831298E+04  0.15233512913E+04  0.19883029107E+04  0.46999998093E+01 0. -1.
</event>
<event>
 5   0  0.7858367E-08  0.3812305E+04  0.7818609E-02  0.8043519E-01
       -2   -1    0    0    0  501  0.00000000000E+00  0.00000000000E+00  0.16120250132E+04  0.16120250132E+04  0.25500000920E-02 0. -1.
        2   -1    0    0  501    0  0.00000000000E+00  0.00000000000E+00 -0.22539461861E+04  0.22539461861E+04  0.25500000920E-02 0.  1.
    10030    2    1    2    0    0  0.00000000000E+00  0.00000000000E+00 -0.64192117298E+03  0.38659711993E+04  0.38123051454E+04 0.  0.
        2    1    3    3  502    0 -0.13556673746E+04 -0.12935726579E+04  0.33608928878E+02  0.18741114727E+04  0.25500000920E-02 0. -1.
       -2    1    3    3    0  502  0.13556673746E+04  0.12935726579E+04 -0.67553010185E+03  0.19918597266E+04  0.25500000920E-02 0.  1.
</event>
<event>
 5   0  0.3701250E-08  0.3784597E+04  0.7818609E-02  0.8049468E-01
       -1   -1    0    0    0  501  0.00000000000E+00  0.00000000000E+00  0.19903903649E+04  0.19903903649E+04  0.50400001928E-02 0. -1.
        1   -1    0    0  501    0  0.00000000000E+00  0.00000000000E+00 -0.17990409904E+04  0.17990409904E+04  0.50400001928E-02 0.  1.
    10030    2    1    2    0    0  0.00000000000E+00  0.00000000000E+00  0.19134937455E+03  0.37894313553E+04  0.37845971269E+04 0.  0.
        2    1    3    3  502    0  0.37214482587E+03 -0.15337267747E+04  0.11410313768E+04  0.19475015259E+04  0.25500000920E-02 0.  1.
       -2    1    3    3    0  502 -0.37214482587E+03  0.15337267747E+04 -0.94968200225E+03  0.18419298293E+04  0.25500000920E-02 0. -1.
</event>
<event>
 5   0  0.3701250E-08  0.3772379E+04  0.7818609E-02  0.8052108E-01
        1   -1    0    0  501    0  0.00000000000E+00  0.00000000000E+00  0.16585919496E+04  0.16585919496E+04  0.50400001928E-02 0. -1.
       -1   -1    0    0    0  501  0.00000000000E+00  0.00000000000E+00 -0.21450190860E+04  0.21450190860E+04  0.50400001928E-02 0.  1.
    10030    2    1    2    0    0  0.00000000000E+00  0.00000000000E+00 -0.48642713641E+03  0.38036110356E+04  0.37723792957E+04 0.  0.
        2    1    3    3  502    0  0.73910456785E+03 -0.13862109785E+03  0.15009110336E+04  0.16787570705E+04  0.25500000920E-02 0. -1.
       -2    1    3    3    0  502 -0.73910456785E+03  0.13862109785E+03 -0.19873381700E+04  0.21248539651E+04  0.25500000920E-02 0.  1.
</event>
<event>
 5   0  0.1150235E-07  0.3826515E+04  0.7818609E-02  0.8040489E-01
        2   -1    0    0  501    0  0.00000000000E+00  0.00000000000E+00  0.25744582538E+04  0.25744582538E+04  0.25500000920E-02 0. -1.
       -2   -1    0    0    0  501  0.00000000000E+00  0.00000000000E+00 -0.14218736708E+04  0.14218736708E+04  0.25500000920E-02 0.  1.
    10030    2    1    2    0    0  0.00000000000E+00  0.00000000000E+00  0.11525845830E+04  0.39963319246E+04  0.38265150765E+04 0.  0.
        4    1    3    3  502    0  0.17846482371E+04 -0.68789514446E+03  0.52530204752E+03  0.19834598342E+04  0.12699999809E+01 0. -1.
       -4    1    3    3    0  502 -0.17846482371E+04  0.68789514446E+03  0.62728253545E+03  0.20128720903E+04  0.12699999809E+01 0.  1.
</event>
<event>
 5   0  0.3701250E-08  0.3803915E+04  0.7818609E-02  0.8045315E-01
       -1   -1    0    0    0  501  0.00000000000E+00  0.00000000000E+00  0.12983496781E+04  0.12983496781E+04  0.50400001928E-02 0.  1.
        1   -1    0    0  501    0  0.00000000000E+00  0.00000000000E+00 -0.27861842543E+04  0.27861842543E+04  0.50400001928E-02 0. -1.
    10030    2    1    2    0    0  0.00000000000E+00  0.00000000000E+00 -0.14878345762E+04  0.40845339324E+04  0.38039145257E+04 0.  0.
        3    1    3    3  502    0  0.17720796961E+04  0.17786873744E+03 -0.27189934751E+02  0.17811914664E+04  0.10100000352E+00 0.  1.
       -3    1    3    3    0  502 -0.17720796961E+04 -0.17786873744E+03 -0.14606446414E+04  0.23033424660E+04  0.10100000352E+00 0. -1.
</event>
<event>
 5   0  0.1174870E-07  0.3793179E+04  0.7818609E-02  0.8047620E-01
        2   -1    0    0  501    0  0.00000000000E+00  0.00000000000E+00  0.29738776034E+04  0.29738776034E+04  0.25500000920E-02 0. -1.
       -2   -1    0    0    0  501  0.00000000000E+00  0.00000000000E+00 -0.12095493292E+04  0.12095493292E+04  0.25500000920E-02 0.  1.
    10030    2    1    2    0    0  0.00000000000E+00  0.00000000000E+00  0.17643282741E+04  0.41834269326E+04  0.37931789625E+04 0.  0.
        5    1    3    3  502    0 -0.29406759981E+03 -0.18266553360E+04  0.42226902761E+03  0.18977562256E+04  0.46999998093E+01 0.  1.
       -5    1    3    3    0  502  0.29406759981E+03  0.18266553360E+04  0.13420592465E+04  0.22856707071E+04  0.46999998093E+01 0. -1.
</event>
<event>
 5   0  0.1143283E-07  0.3807442E+04  0.7818609E-02  0.8044560E-01
       -2   -1    0    0    0  501  0.00000000000E+00  0.00000000000E+00  0.12005333918E+04  0.12005333918E+04  0.25500000920E-02 0.  1.
        2   -1    0    0  501    0  0.00000000000E+00  0.00000000000E+00 -0.30187868060E+04  0.30187868060E+04  0.25500000920E-02 0. -1.
    10030    2    1    2    0    0  0.00000000000E+00  0.00000000000E+00 -0.18182534143E+04  0.42193201978E+04  0.38074423769E+04 0.  0.
        1    1    3    3  502    0  0.21692706396E+03 -0.55936151640E+03  0.10930310968E+04  0.12468599102E+04  0.50400001928E-02 0.  1.
       -1    1    3    3    0  502 -0.21692706396E+03  0.55936151640E+03 -0.29112845111E+04  0.29724602876E+04  0.50400001928E-02 0. -1.
</event>
<event>
 5   0  0.1193861E-07  0.3796479E+04  0.7818609E-02  0.8046911E-01
       -2   -1    0    0    0  501  0.00000000000E+00  0.00000000000E+00  0.12328208435E+04  0.12328208435E+04  0.25500000920E-02 0.  1.
        2   -1    0    0  501    0  0.00000000000E+00  0.00000000000E+00 -0.29228196322E+04  0.29228196322E+04  0.25500000920E-02 0. -1.
    10030    2    1    2    0    0  0.00000000000E+00  0.00000000000E+00 -0.16899987886E+04  0.41556404757E+04  0.37964788763E+04 0.  0.
        3    1    3    3  502    0  0.62260539691E+03 -0.93532894989E+03  0.82972135951E+03  0.13967516849E+04  0.10100000352E+00 0.  1.
       -3    1    3    3    0  502 -0.62260539691E+03  0.93532894989E+03 -0.25197201481E+04  0.27588887908E+04  0.10100000352E+00 0. -1.
</event>
<event>
 5   0  0.7858367E-08  0.3789881E+04  0.7818609E-02  0.8048330E-01
        2   -1    0    0  501    0  0.00000000000E+00  0.00000000000E+00  0.22064674603E+04  0.22064674603E+04  0.25500000920E-02 0. -1.
       -2   -1    0    0    0  501  0.00000000000E+00  0.00000000000E+00 -0.16273973948E+04  0.16273973948E+04  0.25500000920E-02 0.  1.
    10030    2    1    2    0    0  0.00000000000E+00  0.00000000000E+00  0.57907006551E+03  0.38338648550E+04  0.37898809461E+04 0.  0.
        2    1    3    3  502    0 -0.84200674246E+03  0.23274612348E+03 -0.14115432920E+04  0.16600001740E+04  0.25500000920E-02 0.  1.
       -2    1    3    3    0  502  0.84200674246E+03 -0.23274612348E+03  0.19906133575E+04  0.21738646811E+04  0.25500000920E-02 0. -1.
</event>
<event>
 5   0  0.3701250E-08  0.3715394E+04  0.7818609E-02  0.8064559E-01
        1   -1    0    0  501    0  0.00000000000E+00  0.00000000000E+00  0.24624543203E+04  0.24624543203E+04  0.50400001928E-02 0.  1.
       -1   -1    0    0    0  501  0.00000000000E+00  0.00000000000E+00 -0.14014629666E+04  0.14014629666E+04  0.50400001928E-02 0. -1.
    10030    2    1    2    0    0  0.00000000000E+00  0.00000000000E+00  0.10609913536E+04  0.38639172869E+04  0.37153942116E+04 0.  0.
        1    1    3    3  502    0 -0.11757704175E+04  0.82086207565E+03 -0.69772670952E+03  0.15947015969E+04  0.50400001928E-02 0. -1.
       -1    1    3    3    0  502  0.11757704175E+04 -0.82086207565E+03  0.17587180632E+04  0.22692156900E+04  0.50400001928E-02 0.  1.
</event>
<event>
 5   0  0.1150235E-07  0.3802754E+04  0.7818609E-02  0.8045564E-01
        2   -1    0    0  501    0  0.00000000000E+00  0.00000000000E+00  0.16998621706E+04  0.16998621706E+04  0.25500000920E-02 0. -1.
       -2   -1    0    0    0  501  0.00000000000E+00  0.00000000000E+00 -0.21267807543E+04  0.21267807543E+04  0.25500000920E-02 0.  1.
    10030    2    1    2    0    0  0.00000000000E+00  0.00000000000E+00 -0.42691858373E+03  0.38266429249E+04  0.38027538176E+04 0.  0.
        4    1    3    3  502    0 -0.86290150044E+03 -0.12303737088E+03 -0.19138959381E+04  0.21030303062E+04  0.12699999809E+01 0.  1.
       -4    1    3    3    0  502  0.86290150044E+03  0.12303737088E+03  0.14869773543E+04  0.17236126187E+04  0.12699999809E+01 0. -1.
</event>
<event>
 5   0  0.3701250E-08  0.3802215E+04  0.7818609E-02  0.8045680E-01
       -1   -1    0    0    0  501  0.00000000000E+00  0.00000000000E+00  0.35665217030E+04  0.35665217030E+04  0.50400001928E-02 0.  1.
        1   -1    0    0  501    0  0.00000000000E+00  0.00000000000E+00 -0.10133710701E+04  0.10133710701E+04  0.50400001928E-02 0. -1.
    10030    2    1    2    0    0  0.00000000000E+00  0.00000000000E+00  0.25531506329E+04  0.45798927731E+04  0.38022150989E+04 0.  0.
        1    1    3    3  502    0  0.15728102285E+03  0.16138539183E+04  0.24720084996E+04  0.29563639512E+04  0.50400001928E-02 0.  1.
       -1    1    3    3    0  502 -0.15728102285E+03 -0.16138539183E+04  0.81142133339E+02  0.16235288219E+04  0.50400001928E-02 0. -1.
</event>
<event>
 5   0  0.1193861E-07  0.3777777E+04  0.7818609E-02  0.8050941E-01
        2   -1    0    0  501    0  0.00000000000E+00  0.00000000000E+00  0.18665059409E+04  0.18665059409E+04  0.25500000920E-02 0. -1.
       -2   -1    0    0    0  501  0.00000000000E+00  0.00000000000E+00 -0.19115391783E+04  0.19115391783E+04  0.25500000920E-02 0.  1.
    10030    2    1    2    0    0  0.00000000000E+00  0.00000000000E+00 -0.45033237333E+02  0.37780451192E+04  0.37777767179E+04 0.  0.
        3    1    3    3  502    0  0.21909283830E+03 -0.15914061704E+02 -0.18987214141E+04  0.19113863941E+04  0.10100000352E+00 0.  1.
       -3    1    3    3    0  502 -0.21909283830E+03  0.15914061704E+02  0.18536881767E+04  0.18666587251E+04  0.10100000352E+00 0. -1.
</event>
<event>
 5   0  0.1193861E-07  0.3802327E+04  0.7818609E-02  0.8045656E-01
       -2   -1    0    0    0  501  0.00000000000E+00  0.00000000000E+00  0.15029136955E+04  0.15029136955E+04  0.25500000920E-02 0. -1.
        2   -1    0    0  501    0  0.00000000000E+00  0.00000000000E+00 -0.24049435562E+04  0.24049435562E+04  0.25500000920E-02 0.  1.
    10030    2    1    2    0    0  0.00000000000E+00  0.00000000000E+00 -0.90202986070E+03  0.39078572517E+04  0.38023269757E+04 0.  0.
        3    1    3    3  502    0 -0.18802639315E+04  0.26597742836E+03 -0.35746021004E+03  0.19323338884E+04  0.10100000352E+00 0.  1.
       -3    1    3    3    0  502  0.18802639315E+04 -0.26597742836E+03 -0.54456965067E+03  0.19755233633E+04  0.10100000352E+00 0. -1.
</event>
<event>
 5   0  0.3701250E-08  0.3819721E+04  0.7818609E-02  0.8041936E-01
       -1   -1    0    0    0  501  0.00000000000E+00  0.00000000000E+00  0.27357909294E+04  0.27357909294E+04  0.50400001928E-02 0. -1.
        1   -1    0    0  501    0  0.00000000000E+00  0.00000000000E+00 -0.13332767286E+04  0.13332767286E+04  0.50400001928E-02 0.  1.
    10030    2    1    2    0    0  0.00000000000E+00  0.00000000000E+00  0.14025142008E+04  0.40690676580E+04  0.38197206079E+04 0.  0.
        4    1    3    3  502    0 -0.13234505326E+04 -0.83136926936E+03 -0.46806230036E+03  0.16314962777E+04  0.12699999809E+01 0.  1.
       -4    1    3    3    0  502  0.13234505326E+04  0.83136926936E+03  0.18705765012E+04  0.24375713803E+04  0.12699999809E+01 0. -1.
</event>
<event>
 5   0  0.3701250E-08  0.3796199E+04  0.7818609E-02  0.8046971E-01
        1   -1    0    0  501    0  0.00000000000E+00  0.00000000000E+00  0.24193687430E+04  0.24193687430E+04  0.50400001928E-02 0.  1.
       -1   -1    0    0    0  501  0.00000000000E+00  0.00000000000E+00 -0.14891415642E+04  0.14891415642E+04  0.50400001928E-02 0. -1.
    10030    2    1    2    0    0  0.00000000000E+00  0.00000000000E+00  0.93022717877E+03  0.39085103071E+04  0.37961994438E+04 0.  0.
        1    1    3    3  502    0 -0.45035882345E+03 -0.12649875133E+04 -0.91612998618E+03  0.16255185727E+04  0.50400001928E-02 0. -1.
       -1    1    3    3    0  502  0.45035882345E+03  0.12649875133E+04  0.18463571650E+04  0.22829917344E+04  0.50400001928E-02 0.  1.
</event>
<event>
 5   0  0.1143283E-07  0.3809713E+04  0.7818609E-02  0.8044074E-01
        2   -1    0    0  501    0  0.00000000000E+00  0.00000000000E+00  0.13492599059E+04  0.13492599059E+04  0.25500000920E-02 0. -1.
       -2   -1    0    0    0  501  0.00000000000E+00  0.00000000000E+00 -0.26892354653E+04  0.26892354653E+04  0.25500000920E-02 0.  1.
    10030    2    1    2    0    0  0.00000000000E+00  0.00000000000E+00 -0.13399755593E+04  0.40384953712E+04  0.38097126353E+04 0.  0.
        1    1    3    3  502    0  0.46241163387E+03 -0.37563123082E+02 -0.26284306937E+04  0.26690604000E+04  0.50400001928E-02 0.  1.
       -1    1    3    3    0  502 -0.46241163387E+03  0.37563123082E+02  0.12884551343E+04  0.13694349713E+04  0.50400001928E-02 0. -1.
</event>
<event>
 5   0  0.3701250E-08  0.3797413E+04  0.7818609E-02  0.8046710E-01
       -1   -1    0    0    0  501  0.00000000000E+00  0.00000000000E+00  0.18150157501E+04  0.18150157501E+04  0.50400001928E-02 0. -1.
        1   -1    0    0  501    0  0.00000000000E+00  0.00000000000E+00 -0.19862557248E+04  0.19862557249E+04  0.50400001928E-02 0.  1.
    10030    2    1    2    0    0  0.00000000000E+00  0.00000000000E+00 -0.17123997479E+03  0.38012714749E+04  0.37974125002E+04 0.  0.
        2    1    3    3  502    0  0.11226415369E+04 -0.15309758797E+04 -0.56022056989E+02  0.18993024076E+04  0.25500000920E-02 0.  1.
       -2    1    3    3    0  502 -0.11226415369E+04  0.15309758797E+04 -0.11521791780E+03  0.19019690673E+04  0.25500000920E-02 0. -1.
</event>
<event>
 5   0  0.1193861E-07  0.3806974E+04  0.7818609E-02  0.8044660E-01
       -2   -1    0    0    0  501  0.00000000000E+00  0.00000000000E+00  0.20722804839E+04  0.20722804839E+04  0.25500000920E-02 0.  1.
        2   -1    0    0  501    0  0.00000000000E+00  0.00000000000E+00 -0.17484420460E+04  0.17484420460E+04  0.25500000920E-02 0. -1.
    10030    2    1    2    0    0  0.00000000000E+00  0.00000000000E+00  0.32383843788E+03  0.38207225299E+04  0.38069737741E+04 0.  0.
        3    1    3    3  502    0  0.11218577727E+04  0.94766590980E+03  0.13773365358E+04  0.20133781268E+04  0.10100000352E+00 0.  1.
       -3    1    3    3    0  502 -0.11218577727E+04 -0.94766590980E+03 -0.10534980979E+04  0.18073444030E+04  0.10100000352E+00 0. -1.
</event>
<event>
 5   0  0.1174870E-07  0.3760367E+04  0.7818609E-02  0.8054714E-01
        2   -1    0    0  501    0  0.00000000000E+00  0.00000000000E+00  0.23800238208E+04  0.23800238208E+04  0.25500000920E-02 0.  1.
       -2   -1    0    0    0  501  0.00000000000E+00  0.00000000000E+00 -0.14853172092E+04  0.14853172092E+04  0.25500000920E-02 0. -1.
    10030    2    1    2    0    0  0.00000000000E+00  0.00000000000E+00  0.89470661159E+03  0.38653410300E+04  0.37603671839E+04 0.  0.
        5    1    3    3  502    0  0.44986724495E+03 -0.14942532346E+04 -0.63068246868E+03  0.16831386555E+04  0.46999998093E+01 0. -1.
       -5    1    3    3    0  502 -0.44986724495E+03  0.14942532346E+04  0.15253890803E+04  0.21822023745E+04  0.46999998093E+01 0.  1.
</event>
<event>
 5   0  0.3889225E-08  0.3796739E+04  0.7818609E-02  0.8046855E-01
        1   -1    0    0  501    0  0.00000000000E+00  0.00000000000E+00  0.19064768535E+04  0.19064768535E+04  0.50400001928E-02 0. -1.
       -1   -1    0    0    0  501  0.00000000000E+00  0.00000000000E+00 -0.18902962176E+04  0.18902962176E+04  0.50400001928E-02 0.  1.
    10030    2    1    2    0    0  0.00000000000E+00  0.00000000000E+00  0.16180635906E+02  0.37967730710E+04  0.37967385925E+04 0.  0.
        5    1    3    3  502    0  0.19961526361E+03 -0.16040213598E+04 -0.98743523105E+03  0.18941439231E+04  0.46999998093E+01 0.  1.
       -5    1    3    3    0  502 -0.19961526361E+03  0.16040213598E+04  0.10036158670E+04  0.19026291479E+04  0.46999998093E+01 0. -1.
</event>
<event>
 5   0  0.3701250E-08  0.3784905E+04  0.7818609E-02  0.8049402E-01
        1   -1    0    0  501    0  0.00000000000E+00  0.00000000000E+00  0.20048008126E+04  0.20048008126E+04  0.50400001928E-02 0.  1.
       -1   -1    0    0    0  501  0.00000000000E+00  0.00000000000E+00 -0.17864001412E+04  0.17864001412E+04  0.50400001928E-02 0. -1.
    10030    2    1    2    0    0  0.00000000000E+00  0.00000000000E+00  0.21840067137E+03  0.37912009538E+04  0.37849049947E+04 0.  0.
        1    1    3    3  502    0  0.14442429213E+04 -0.94724636953E+03  0.88396169153E+03  0.19402323501E+04  0.50400001928E-02 0.  1.
       -1    1    3    3    0  502 -0.14442429213E+04  0.94724636953E+03 -0.66556102016E+03  0.18509686037E+04  0.50400001928E-02 0. -1.
</event>
<event>
 5   0  0.1174870E-07  0.3810567E+04  0.7818609E-02  0.8043891E-01
       -2   -1    0    0    0  501  0.00000000000E+00  0.00000000000E+00  0.21715948415E+04  0.21715948415E+04  0.25500000920E-02 0. -1.
        2   -1    0    0  501    0  0.00000000000E+00  0.00000000000E+00 -0.16716311919E+04  0.16716311919E+04  0.25500000920E-02 0.  1.
    10030    2    1    2    0    0  0.00000000000E+00  0.00000000000E+00  0.49996364962E+03  0.38432260335E+04  0.38105672404E+04 0.  0.
        5    1    3    3  502    0  0.65487815239E+03 -0.12720363194E+04 -0.10190315657E+04  0.17565276014E+04  0.46999998093E+01 0.  1.
       -5    1    3    3    0  502 -0.65487815239E+03  0.12720363194E+04  0.15189952154E+04  0.20866984321E+04  0.46999998093E+01 0. -1.
</event>
<event>
 5   0  0.3701250E-08  0.3798947E+04  0.7818609E-02  0.8046381E-01
        1   -1    0    0  501    0  0.00000000000E+00  0.00000000000E+00  0.22788957719E+04  0.22788957719E+04  0.50400001928E-02 0.  1.
       -1   -1    0    0    0  501  0.00000000000E+00  0.00000000000E+00 -0.15832227468E+04  0.15832227468E+04  0.50400001928E-02 0. -1.
    10030    2    1    2    0    0  0.00000000000E+00  0.00000000000E+00  0.69567302508E+03  0.38621185187E+04  0.37989470245E+04 0.  0.
        2    1    3    3  502    0  0.14184374474E+04  0.12552539813E+04  0.49294142421E+03  0.19571966170E+04  0.25500000920E-02 0.  1.
       -2    1    3    3    0  502 -0.14184374474E+04 -0.12552539813E+04  0.20273160086E+03  0.19049219018E+04  0.25500000920E-02 0. -1.
</event>
<event>
 5   0  0.3701250E-08  0.3794581E+04  0.7818609E-02  0.8047319E-01
       -1   -1    0    0    0  501  0.00000000000E+00  0.00000000000E+00  0.15059313004E+04  0.15059313004E+04  0.50400001928E-02 0.  1.
        1   -1    0    0  501    0  0.00000000000E+00  0.00000000000E+00 -0.23903551124E+04  0.23903551124E+04  0.50400001928E-02 0. -1.
    10030    2    1    2    0    0  0.00000000000E+00  0.00000000000E+00 -0.88442381199E+03  0.38962864127E+04  0.37945806528E+04 0.  0.
        3    1    3    3  502    0 -0.14588593593E+04  0.10418039756E+04 -0.10802229898E+04  0.20929662853E+04  0.10100000352E+00 0.  1.
       -3    1    3    3    0  502  0.14588593593E+04 -0.10418039756E+04  0.19579917781E+03  0.18033201274E+04  0.10100000352E+00 0. -1.
</event>
<event>
 5   0  0.1193861E-07  0.3789064E+04  0.7818609E-02  0.8048506E-01
       -2   -1    0    0    0  501  0.00000000000E+00  0.00000000000E+00  0.31048729209E+04  0.31048729209E+04  0.25500000920E-02 0.  1.
        2   -1    0    0  501    0  0.00000000000E+00  0.00000000000E+00 -0.11560056852E+04  0.11560056852E+04  0.25500000920E-02 0. -1.
    10030    2    1    2    0    0  0.00000000000E+00  0.00000000000E+00  0.19488672357E+04  0.42608786061E+04  0.37890636038E+04 0.  0.
        3    1    3    3  502    0  0.77028818022E+02  0.13676305677E+04  0.24461826828E+04  0.28035970710E+04  0.10100000352E+00 0.  1.
       -3    1    3    3    0  502 -0.77028818022E+02 -0.13676305677E+04 -0.49731544713E+03  0.14572815351E+04  0.10100000352E+00 0. -1.
</event>
<event>
 5   0  0.1174870E-07  0.3796604E+04  0.7818609E-02  0.8046884E-01
        2   -1    0    0  501    0  0.00000000000E+00  0.00000000000E+00  0.20816000880E+04  0.20816000880E+04  0.25500000920E-02 0.  1.
       -2   -1    0    0    0  501  0.00000000000E+00  0.00000000000E+00 -0.17311441863E+04  0.17311441863E+04  0.25500000920E-02 0. -1.
    10030    2    1    2    0    0  0.00000000000E+00  0.00000000000E+00  0.35045590175E+03  0.38127442743E+04  0.37966036878E+04 0.  0.
        5    1    3    3  502    0 -0.10027734709E+04 -0.14066812265E+04 -0.61502346636E+03  0.18337346212E+04  0.46999998093E+01 0. -1.
       -5    1    3    3    0  502  0.10027734709E+04  0.14066812265E+04  0.96547936811E+03  0.19790096531E+04  0.46999998093E+01 0.  1.
</event>
<event>
 5   0  0.1150235E-07  0.3816726E+04  0.7818609E-02  0.8042575E-01
        2   -1    0    0  501    0  0.00000000000E+00  0.00000000000E+00  0.13266138054E+04  0.13266138054E+04  0.25500000920E-02 0.  1.
       -2   -1    0    0    0  501  0.00000000000E+00  0.00000000000E+00 -0.27452216378E+04  0.27452216378E+04  0.25500000920E-02 0. -1.
    10030    2    1    2    0    0  0.00000000000E+00  0.00000000000E+00 -0.14186078323E+04  0.40718354432E+04  0.38167257819E+04 0.  0.
        4    1    3    3  502    0  0.17909884652E+04  0.13053800641E+03 -0.13983598403E+04  0.22759814826E+04  0.12699999809E+01 0. -1.
       -4    1    3    3    0  502 -0.17909884652E+04 -0.13053800641E+03 -0.20247992075E+02  0.17958539605E+04  0.12699999809E+01 0.  1.
</event>
<event>
 5   0  0.3701250E-08  0.3826024E+04  0.7818609E-02  0.8040593E-01
       -1   -1    0    0    0  501  0.00000000000E+00  0.00000000000E+00  0.26451964257E+04  0.26451964257E+04  0.50400001928E-02 0.  1.
        1   -1    0    0  501    0  0.00000000000E+00  0.00000000000E+00 -0.13834946555E+04  0.13834946555E+04  0.50400001928E-02 0. -1.
    10030    2    1    2    0    0  0.00000000000E+00  0.00000000000E+00  0.12617017702E+04  0.40286910812E+04  0.38260241074E+04 0.  0.
        2    1    3    3  502    0  0.47280200795E+03  0.30586710714E+03 -0.12942486415E+04  0.14114446401E+04  0.25500000920E-02 0. -1.
       -2    1    3    3    0  502 -0.47280200795E+03 -0.30586710714E+03  0.25559504118E+04  0.26172464411E+04  0.25500000920E-02 0.  1.
</event>
<event>
 5   0  0.3701250E-08  0.3813804E+04  0.7818609E-02  0.8043199E-01
       -1   -1    0    0    0  501  0.00000000000E+00  0.00000000000E+00  0.13526092888E+04  0.13526092888E+04  0.50400001928E-02 0. -1.
        1   -1    0    0  501    0  0.00000000000E+00  0.00000000000E+00 -0.26883405444E+04  0.26883405444E+04  0.50400001928E-02 0.  1.
    10030    2    1    2    0    0  0.00000000000E+00  0.00000000000E+00 -0.13357312556E+04  0.40409498331E+04  0.38138035564E+04 0.  0.
        3    1    3    3  502    0 -0.64051961125E+02  0.67850495846E+03 -0.25548931096E+04  0.26442296504E+04  0.10100000352E+00 0.  1.
       -3    1    3    3    0  502  0.64051961125E+02 -0.67850495846E+03  0.12191618540E+04  0.13967201827E+04  0.10100000352E+00 0. -1.
</event>
<event>
 5   0  0.3701250E-08  0.3830506E+04  0.7818609E-02  0.8039640E-01
       -1   -1    0    0    0  501  0.00000000000E+00  0.00000000000E+00  0.13590501800E+04  0.13590501800E+04  0.50400001928E-02 0. -1.
        1   -1    0    0  501    0  0.00000000000E+00  0.00000000000E+00 -0.26990866487E+04  0.26990866487E+04  0.50400001928E-02 0.  1.
    10030    2    1    2    0    0  0.00000000000E+00  0.00000000000E+00 -0.13400364687E+04  0.40581368288E+04  0.38305060741E+04 0.  0.
        1    1    3    3  502    0  0.91481653622E+03  0.16268540015E+04 -0.21477205036E+03  0.18787416722E+04  0.50400001928E-02 0. -1.
       -1    1    3    3    0  502 -0.91481653622E+03 -0.16268540015E+04 -0.11252644184E+04  0.21793951566E+04  0.50400001928E-02 0.  1.
</event>
<event>
 5   0  0.7858367E-08  0.3796854E+04  0.7818609E-02  0.8046830E-01
       -2   -1    0    0    0  501  0.00000000000E+00  0.00000000000E+00  0.12877526664E+04  0.12877526664E+04  0.25500000920E-02 0. -1.
        2   -1    0    0  501    0  0.00000000000E+00  0.00000000000E+00 -0.27986928165E+04  0.27986928165E+04  0.25500000920E-02 0.  1.
    10030    2    1    2    0    0  0.00000000000E+00  0.00000000000E+00 -0.15109401501E+04  0.40864454830E+04  0.37968535063E+04 0.  0.
        2    1    3    3  502    0  0.13800929269E+04 -0.62955581857E+03 -0.19840363684E+04  0.24974781934E+04  0.25500000920E-02 0.  1.
       -2    1    3    3    0  502 -0.13800929269E+04  0.62955581857E+03  0.47309621832E+03  0.15889672896E+04  0.25500000920E-02 0. -1.
</event>
<event>
 5   0  0.3701250E-08  0.3806551E+04  0.7818609E-02  0.8044750E-01
       -1   -1    0    0    0  501  0.00000000000E+00  0.00000000000E+00  0.25233498696E+04  0.25233498696E+04  0.50400001928E-02 0.  1.
        1   -1    0    0  501    0  0.00000000000E+00  0.00000000000E+00 -0.14355749930E+04  0.14355749930E+04  0.50400001928E-02 0. -1.
    10030    2    1    2    0    0  0.00000000000E+00  0.00000000000E+00  0.10877748766E+04  0.39589248627E+04  0.38065511800E+04 0.  0.
        1    1    3    3  502    0 -0.11485085103E+03 -0.70088782762E+03  0.23803635282E+04  0.24840621955E+04  0.50400001928E-02 0.  1.
       -1    1    3    3    0  502  0.11485085103E+03  0.70088782762E+03 -0.12925886516E+04  0.14748626672E+04  0.50400001928E-02 0. -1.
</event>
<event>
 5   0  0.1174870E-07  0.3811725E+04  0.7818609E-02  0.8043643E-01
       -2   -1    0    0    0  501  0.00000000000E+00  0.00000000000E+00  0.12252067426E+04  0.12252067426E+04  0.25500000920E-02 0. -1.
        2   -1    0    0  501    0  0.00000000000E+00  0.00000000000E+00 -0.29646526404E+04  0.29646526404E+04  0.25500000920E-02 0.  1.
    10030    2    1    2    0    0  0.00000000000E+00  0.00000000000E+00 -0.17394458978E+04  0.41898593829E+04  0.38117252809E+04 0.  0.
        5    1    3    3  502    0  0.16209156623E+04 -0.88878548732E+03 -0.13793823073E+04  0.23065179094E+04  0.46999998093E+01 0. -1.
       -5    1    3    3    0  502 -0.16209156623E+04  0.88878548732E+03 -0.36006359055E+03  0.18833414736E+04  0.46999998093E+01 0.  1.
</event>
<event>
 5   0  0.3701250E-08  0.3794984E+04  0.7818609E-02  0.8047232E-01
        1   -1    0    0  501    0  0.00000000000E+00  0.00000000000E+00  0.18423671512E+04  0.18423671512E+04  0.50400001928E-02 0. -1.
       -1   -1    0    0    0  501  0.00000000000E+00  0.00000000000E+00 -0.19542665659E+04  0.19542665659E+04  0.50400001928E-02 0.  1.
    10030    2    1    2    0    0  0.00000000000E+00  0.00000000000E+00 -0.11189941462E+03  0.37966337171E+04  0.37949843350E+04 0.  0.
        4    1    3    3  502    0  0.16013605812E+03  0.13521143451E+04 -0.13781209214E+04  0.19372856388E+04  0.12699999809E+01 0.  1.
       -4    1    3    3    0  502 -0.16013605812E+03 -0.13521143451E+04  0.12662215068E+04  0.18593480783E+04  0.12699999809E+01 0. -1.
</event>
<event>
 5   0  0.1143283E-07  0.3784362E+04  0.7818609E-02  0.8049519E-01
       -2   -1    0    0    0  501  0.00000000000E+00  0.00000000000E+00  0.14442508657E+04  0.14442508657E+04  0.25500000920E-02 0. -1.
        2   -1    0    0  501    0  0.00000000000E+00  0.00000000000E+00 -0.24790359731E+04  0.24790359731E+04  0.25500000920E-02 0.  1.
    10030    2    1    2    0    0  0.00000000000E+00  0.00000000000E+00 -0.10347851074E+04  0.39232868389E+04  0.37843624828E+04 0.  0.
        1    1    3    3  502    0 -0.61683755513E+03 -0.69674022161E+03 -0.22254221976E+04  0.24121441631E+04  0.50400001928E-02 0.  1.
       -1    1    3    3    0  502  0.61683755513E+03  0.69674022161E+03  0.11906370902E+04  0.15111426758E+04  0.50400001928E-02 0. -1.
</event>
<event>
 5   0  0.1143283E-07  0.3926253E+04  0.7818609E-02  0.8019591E-01
        2   -1    0    0  501    0  0.00000000000E+00  0.00000000000E+00  0.14766314352E+04  0.14766314352E+04  0.25500000920E-02 0. -1.
       -2   -1    0    0    0  501  0.00000000000E+00  0.00000000000E+00 -0.26099032545E+04  0.26099032545E+04  0.25500000920E-02 0.  1.
    10030    2    1    2    0    0  0.00000000000E+00  0.00000000000E+00 -0.11332718193E+04  0.40865346896E+04  0.39262527622E+04 0.  0.
        1    1    3    3  502    0 -0.70989192941E+03 -0.91327349282E+03  0.10842585921E+04  0.15854436977E+04  0.50400001928E-02 0. -1.
       -1    1    3    3    0  502  0.70989192941E+03  0.91327349282E+03 -0.22175304114E+04  0.25010909919E+04  0.50400001928E-02 0.  1.
</event>
<event>
 5   0  0.1174870E-07  0.3800448E+04  0.7818609E-02  0.8046059E-01
        2   -1    0    0  501    0  0.00000000000E+00  0.00000000000E+00  0.21652326965E+04  0.21652326965E+04  0.25500000920E-02 0. -1.
       -2   -1    0    0    0  501  0.00000000000E+00  0.00000000000E+00 -0.16676503672E+04  0.16676503672E+04  0.25500000920E-02 0.  1.
    10030    2    1    2    0    0  0.00000000000E+00  0.00000000000E+00  0.49758232932E+03  0.38328830637E+04  0.38004479217E+04 0.  0.
        5    1    3    3  502    0  0.12736789008E+04  0.47550955120E+03 -0.10901165147E+04  0.17426254277E+04  0.46999998093E+01 0.  1.
       -5    1    3    3    0  502 -0.12736789008E+04 -0.47550955120E+03  0.15876988440E+04  0.20902576360E+04  0.46999998093E+01 0. -1.
</event>
<event>
 5   0  0.3889225E-08  0.3806172E+04  0.7818609E-02  0.8044832E-01
        1   -1    0    0  501    0  0.00000000000E+00  0.00000000000E+00  0.27784901995E+04  0.27784901995E+04  0.50400001928E-02 0. -1.
       -1   -1    0    0    0  501  0.00000000000E+00  0.00000000000E+00 -0.13034906980E+04  0.13034906981E+04  0.50400001928E-02 0.  1.
    10030    2    1    2    0    0  0.00000000000E+00  0.00000000000E+00  0.14749995014E+04  0.40819808975E+04  0.38061718982E+04 0.  0.
        5    1    3    3  502    0  0.13845873104E+04 -0.18422247950E+03 -0.64871666884E+03  0.15400893963E+04  0.46999998093E+01 0.  1.
       -5    1    3    3    0  502 -0.13845873104E+04  0.18422247950E+03  0.21237161703E+04  0.25418915012E+04  0.46999998093E+01 0. -1.
</event>
<event>
 5   0  0.3889225E-08  0.3761341E+04  0.7818609E-02  0.8054502E-01
        1   -1    0    0  501    0  0.00000000000E+00  0.00000000000E+00  0.27500187833E+04  0.27500187833E+04  0.50400001928E-02 0. -1.
       -1   -1    0    0    0  501  0.00000000000E+00  0.00000000000E+00 -0.12861442411E+04  0.12861442411E+04  0.50400001928E-02 0.  1.
    10030    2    1    2    0    0  0.00000000000E+00  0.00000000000E+00  0.14638745422E+04  0.40361630244E+04  0.37613406233E+04 0.  0.
        5    1    3    3  502    0  0.63168379461E+03 -0.17401201594E+04  0.37627465898E+03  0.18890863650E+04  0.46999998093E+01 0. -1.
       -5    1    3    3    0  502 -0.63168379461E+03  0.17401201594E+04  0.10875998832E+04  0.21470766594E+04  0.46999998093E+01 0.  1.
</event>
<event>
 5   0  0.1174870E-07  0.3803366E+04  0.7818609E-02  0.8045433E-01
       -2   -1    0    0    0  501  0.00000000000E+00  0.00000000000E+00  0.18536573633E+04  0.18536573633E+04  0.25500000920E-02 0. -1.
        2   -1    0    0  501    0  0.00000000000E+00  0.00000000000E+00 -0.19509525703E+04  0.19509525703E+04  0.25500000920E-02 0.  1.
    10030    2    1    2    0    0  0.00000000000E+00  0.00000000000E+00 -0.97295206929E+02  0.38046099336E+04  0.38033656660E+04 0.  0.
        5    1    3    3  502    0 -0.10320872961E+04  0.65100962816E+03 -0.15076712286E+04  0.19396165462E+04  0.46999998093E+01 0.  1.
       -5    1    3    3    0  502  0.10320872961E+04 -0.65100962816E+03  0.14103760217E+04  0.18649933874E+04  0.46999998093E+01 0. -1.
</event>
<event>
 5   0  0.1143283E-07  0.3776981E+04  0.7818609E-02  0.8051113E-01
       -2   -1    0    0    0  501  0.00000000000E+00  0.00000000000E+00  0.14594977928E+04  0.14594977928E+04  0.25500000920E-02 0. -1.
        2   -1    0    0  501    0  0.00000000000E+00  0.00000000000E+00 -0.24435778411E+04  0.24435778411E+04  0.25500000920E-02 0.  1.
    10030    2    1    2    0    0  0.00000000000E+00  0.00000000000E+00 -0.98408004831E+03  0.39030756339E+04  0.37769810513E+04 0.  0.
        1    1    3    3  502    0 -0.28079464152E+03 -0.13166630878E+03  0.14330025600E+04  0.14661780194E+04  0.50400001928E-02 0. -1.
       -1    1    3    3    0  502  0.28079464152E+03  0.13166630878E+03 -0.24170826083E+04  0.24368976144E+04  0.50400001928E-02 0.  1.
</event>
<event>
 5   0  0.3889225E-08  0.3811014E+04  0.7818609E-02  0.8043795E-01
        1   -1    0    0  501    0  0.00000000000E+00  0.00000000000E+00  0.15227597198E+04  0.15227597198E+04  0.50400001928E-02 0. -1.
       -1   -1    0    0    0  501  0.00000000000E+00  0.00000000000E+00 -0.23844585623E+04  0.23844585623E+04  0.50400001928E-02 0.  1.
    10030    2    1    2    0    0  0.00000000000E+00  0.00000000000E+00 -0.86169884253E+03  0.39072182821E+04  0.38110142756E+04 0.  0.
        5    1    3    3  502    0  0.63263457217E+02 -0.10722306207E+04  0.11828120139E+04  0.15977318671E+04  0.46999998093E+01 0. -1.
       -5    1    3    3    0  502 -0.63263457217E+02  0.10722306207E+04 -0.20445108565E+04  0.23094864150E+04  0.46999998093E+01 0.  1.
</event>
<event>
 5   0  0.3701250E-08  0.3780886E+04  0.7818609E-02  0.8050269E-01
       -1   -1    0    0    0  501  0.00000000000E+00  0.00000000000E+00  0.12737461229E+04  0.12737461229E+04  0.50400001928E-02 0. -1.
        1   -1    0    0  501    0  0.00000000000E+00  0.00000000000E+00 -0.28057205327E+04  0.28057205327E+04  0.50400001928E-02 0.  1.
    10030    2    1    2    0    0  0.00000000000E+00  0.00000000000E+00 -0.15319744098E+04  0.40794666556E+04  0.37808864837E+04 0.  0.
        2    1    3    3  502    0 -0.11697172265E+04 -0.11908628744E+04 -0.17234077259E+04  0.23992763420E+04  0.25500000920E-02 0.  1.
       -2    1    3    3    0  502  0.11697172265E+04  0.11908628744E+04  0.19143331615E+03  0.16801903136E+04  0.25500000920E-02 0. -1.
</event>
<event>
 5   0  0.7858367E-08  0.3804672E+04  0.7818609E-02  0.8045153E-01
       -2   -1    0    0    0  501  0.00000000000E+00  0.00000000000E+00  0.24513781983E+04  0.24513781983E+04  0.25500000920E-02 0.  1.
        2   -1    0    0  501    0  0.00000000000E+00  0.00000000000E+00 -0.14762640821E+04  0.14762640821E+04  0.25500000920E-02 0. -1.
    10030    2    1    2    0    0  0.00000000000E+00  0.00000000000E+00  0.97511411624E+03  0.39276422804E+04  0.38046716472E+04 0.  0.
        2    1    3    3  502    0  0.37458547239E+03  0.86997542029E+03 -0.12155253979E+04  0.15409975668E+04  0.25500000920E-02 0. -1.
       -2    1    3    3    0  502 -0.37458547239E+03 -0.86997542029E+03  0.21906395141E+04  0.23866447136E+04  0.25500000920E-02 0.  1.
</event>
<event>
 5   0  0.1143283E-07  0.3797410E+04  0.7818609E-02  0.8046711E-01
        2   -1    0    0  501    0  0.00000000000E+00  0.00000000000E+00  0.13352126349E+04  0.13352126349E+04  0.25500000920E-02 0. -1.
       -2   -1    0    0    0  501  0.00000000000E+00  0.00000000000E+00 -0.27000047200E+04  0.27000047200E+04  0.25500000920E-02 0.  1.
    10030    2    1    2    0    0  0.00000000000E+00  0.00000000000E+00 -0.13647920850E+04  0.40352173549E+04  0.37974098628E+04 0.  0.
        1    1    3    3  502    0 -0.17570764609E+04  0.52030451375E+03 -0.12105594624E+04  0.21962442234E+04  0.50400001928E-02 0.  1.
       -1    1    3    3    0  502  0.17570764609E+04 -0.52030451375E+03 -0.15423262267E+03  0.18389731316E+04  0.50400001928E-02 0. -1.
</event>
<event>
 5   0  0.1193861E-07  0.3812560E+04  0.7818609E-02  0.8043465E-01
       -2   -1    0    0    0  501  0.00000000000E+00  0.00000000000E+00  0.21939747275E+04  0.21939747275E+04  0.25500000920E-02 0. -1.
        2   -1    0    0  501    0  0.00000000000E+00  0.00000000000E+00 -0.16563101318E+04  0.16563101318E+04  0.25500000920E-02 0.  1.
    10030    2    1    2    0    0  0.00000000000E+00  0.00000000000E+00  0.53766459571E+03  0.38502848593E+04  0.38125595445E+04 0.  0.
        3    1    3    3  502    0 -0.55185581594E+03  0.14445246600E+04  0.13946302730E+04  0.20823520220E+04  0.10100000352E+00 0.  1.
       -3    1    3    3    0  502  0.55185581594E+03 -0.14445246600E+04 -0.85696567727E+03  0.17679328373E+04  0.10100000352E+00 0. -1.
</event>
<event>
 5   0  0.1174870E-07  0.3788021E+04  0.7818609E-02  0.8048730E-01
       -2   -1    0    0    0  501  0.00000000000E+00  0.00000000000E+00  0.14779435438E+04  0.14779435438E+04  0.25500000920E-02 0.  1.
        2   -1    0    0  501    0  0.00000000000E+00  0.00000000000E+00 -0.24272080616E+04  0.24272080616E+04  0.25500000920E-02 0. -1.
    10030    2    1    2    0    0  0.00000000000E+00  0.00000000000E+00 -0.94926451780E+03  0.39051516054E+04  0.37880213748E+04 0.  0.
        5    1    3    3  502    0 -0.28122668191E+03 -0.27352619989E+03 -0.23848570483E+04  0.24169133744E+04  0.46999998093E+01 0. -1.
       -5    1    3    3    0  502  0.28122668191E+03  0.27352619989E+03  0.14355925305E+04  0.14882382310E+04  0.46999998093E+01 0.  1.
</event>
<event>
 5   0  0.1174870E-07  0.3742669E+04  0.7818609E-02  0.8058571E-01
       -2   -1    0    0    0  501  0.00000000000E+00  0.00000000000E+00  0.13906080408E+04  0.13906080408E+04  0.25500000920E-02 0. -1.
        2   -1    0    0  501    0  0.00000000000E+00  0.00000000000E+00 -0.25182462389E+04  0.25182462389E+04  0.25500000920E-02 0.  1.
    10030    2    1    2    0    0  0.00000000000E+00  0.00000000000E+00 -0.11276381981E+04  0.39088542797E+04  0.37426693514E+04 0.  0.
        5    1    3    3  502    0 -0.15446780274E+04 -0.10247495168E+04 -0.83158083032E+03  0.20316718603E+04  0.46999998093E+01 0. -1.
       -5    1    3    3    0  502  0.15446780274E+04  0.10247495168E+04 -0.29605736776E+03  0.18771824194E+04  0.46999998093E+01 0.  1.
</event>
<event>
 5   0  0.3889225E-08  0.3790327E+04  0.7818609E-02  0.8048234E-01
        1   -1    0    0  501    0  0.00000000000E+00  0.00000000000E+00  0.23438357170E+04  0.23438357170E+04  0.50400001928E-02 0.  1.
       -1   -1    0    0    0  501  0.00000000000E+00  0.00000000000E+00 -0.15323788069E+04  0.15323788069E+04  0.50400001928E-02 0. -1.
    10030    2    1    2    0    0  0.00000000000E+00  0.00000000000E+00  0.81145691018E+03  0.38762145239E+04  0.37903267298E+04 0.  0.
        5    1    3    3  502    0  0.92839604255E+03 -0.15594729709E+04 -0.15229801868E+03  0.18212885370E+04  0.46999998093E+01 0.  1.
       -5    1    3    3    0  502 -0.92839604255E+03  0.15594729709E+04  0.96375492885E+03  0.20549259869E+04  0.46999998093E+01 0. -1.
</event>
<event>
 5   0  0.1150235E-07  0.3815402E+04  0.7818609E-02  0.8042858E-01
       -2   -1    0    0    0  501  0.00000000000E+00  0.00000000000E+00  0.17757682705E+04  0.17757682705E+04  0.25500000920E-02 0.  1.
        2   -1    0    0  501    0  0.00000000000E+00  0.00000000000E+00 -0.20494353945E+04  0.20494353945E+04  0.25500000920E-02 0. -1.
    10030    2    1    2    0    0  0.00000000000E+00  0.00000000000E+00 -0.27366712397E+03  0.38252036651E+04  0.38154016020E+04 0.  0.
        4    1    3    3  502    0  0.74781830446E+03  0.11247631109E+04  0.12138455910E+04  0.18159699897E+04  0.12699999809E+01 0.  1.
       -4    1    3    3    0  502 -0.74781830446E+03 -0.11247631109E+04 -0.14875127149E+04  0.20092336753E+04  0.12699999809E+01 0. -1.
</event>
<event>
 5   0  0.1174870E-07  0.3791454E+04  0.7818609E-02  0.8047991E-01
       -2   -1    0    0    0  501  0.00000000000E+00  0.00000000000E+00  0.23546139284E+04  0.23546139284E+04  0.25500000920E-02 0. -1.
        2   -1    0    0  501    0  0.00000000000E+00  0.00000000000E+00 -0.15262718063E+04  0.15262718063E+04  0.25500000920E-02 0.  1.
    10030    2    1    2    0    0  0.00000000000E+00  0.00000000000E+00  0.82834212212E+03  0.38808857347E+04  0.37914539974E+04 0.  0.
        5    1    3    3  502    0 -0.10280482274E+03  0.59747694427E+03  0.22527042093E+04  0.23328621638E+04  0.46999998093E+01 0. -1.
       -5    1    3    3    0  502  0.10280482274E+03 -0.59747694427E+03 -0.14243620872E+04  0.15480235709E+04  0.46999998093E+01 0.  1.
</event>
<event>
 5   0  0.3701250E-08  0.3804959E+04  0.7818609E-02  0.8045092E-01
        1   -1    0    0  501    0  0.00000000000E+00  0.00000000000E+00  0.23109167458E+04  0.23109167458E+04  0.50400001928E-02 0. -1.
       -1   -1    0    0    0  501  0.00000000000E+00  0.00000000000E+00 -0.15662302675E+04  0.15662302675E+04  0.50400001928E-02 0.  1.
    10030    2    1    2    0    0  0.00000000000E+00  0.00000000000E+00  0.74468647835E+03  0.38771470133E+04  0.38049587399E+04 0.  0.
        2    1    3    3  502    0  0.40843810559E+03 -0.86272404334E+03  0.20492610124E+04  0.22606603367E+04  0.25500000920E-02 0. -1.
       -2    1    3    3    0  502 -0.40843810559E+03  0.86272404334E+03 -0.13045745340E+04  0.16164866767E+04  0.25500000920E-02 0.  1.
</event>
<event>
 5   0  0.3701250E-08  0.3841396E+04  0.7818609E-02  0.8037329E-01
       -1   -1    0    0    0  501  0.00000000000E+00  0.00000000000E+00  0.28012741268E+04  0.28012741268E+04  0.50400001928E-02 0. -1.
        1   -1    0    0  501    0  0.00000000000E+00  0.00000000000E+00 -0.13169293695E+04  0.13169293695E+04  0.50400001928E-02 0.  1.
    10030    2    1    2    0    0  0.00000000000E+00  0.00000000000E+00  0.14843447572E+04  0.41182034963E+04  0.38413956681E+04 0.  0.
        1    1    3    3  502    0  0.18608525624E+04 -0.42375469918E+01  0.23219443018E+03  0.18752878364E+04  0.50400001928E-02 0.  1.
       -1    1    3    3    0  502 -0.18608525624E+04  0.42375469918E+01  0.12521503271E+04  0.22429156599E+04  0.50400001928E-02 0. -1.
</event>
<event>
 5   0  0.1143283E-07  0.3773254E+04  0.7818609E-02  0.8051919E-01
       -2   -1    0    0    0  501  0.00000000000E+00  0.00000000000E+00  0.21452335196E+04  0.21452335196E+04  0.25500000920E-02 0.  1.
        2   -1    0    0  501    0  0.00000000000E+00  0.00000000000E+00 -0.16591956769E+04  0.16591956769E+04  0.25500000920E-02 0. -1.
    10030    2    1    2    0    0  0.00000000000E+00  0.00000000000E+00  0.48603784274E+03  0.38044291965E+04  0.37732543947E+04 0.  0.
        1    1    3    3  502    0  0.10443952354E+04 -0.21097083043E+03 -0.13267942764E+04  0.17016618791E+04  0.50400001928E-02 0. -1.
       -1    1    3    3    0  502 -0.10443952354E+04  0.21097083043E+03  0.18128321191E+04  0.21027673174E+04  0.50400001928E-02 0.  1.
</event>
<event>
 5   0  0.3701250E-08  0.3808952E+04  0.7818609E-02  0.8044237E-01
        1   -1    0    0  501    0  0.00000000000E+00  0.00000000000E+00  0.25327859422E+04  0.25327859422E+04  0.50400001928E-02 0.  1.
       -1   -1    0    0    0  501  0.00000000000E+00  0.00000000000E+00 -0.14320310068E+04  0.14320310068E+04  0.50400001928E-02 0. -1.
    10030    2    1    2    0    0  0.00000000000E+00  0.00000000000E+00  0.11007549354E+04  0.39648169490E+04  0.38089515633E+04 0.  0.
        2    1    3    3  502    0  0.64363794492E+03  0.10178821330E+04  0.20861058203E+04  0.24087738238E+04  0.25500000920E-02 0.  1.
       -2    1    3    3    0  502 -0.64363794492E+03 -0.10178821330E+04 -0.98535088498E+03  0.15560431251E+04  0.25500000920E-02 0. -1.
</event>
<event>
 5   0  0.3701250E-08  0.3801967E+04  0.7818609E-02  0.8045733E-01
        1   -1    0    0  501    0  0.00000000000E+00  0.00000000000E+00  0.21381677563E+04  0.21381677563E+04  0.50400001928E-02 0. -1.
       -1   -1    0    0    0  501  0.00000000000E+00  0.00000000000E+00 -0.16901101554E+04  0.16901101554E+04  0.50400001928E-02 0.  1.
    10030    2    1    2    0    0  0.00000000000E+00  0.00000000000E+00  0.44805760094E+03  0.38282779117E+04  0.38019674059E+04 0.  0.
        4    1    3    3  502    0 -0.61361009477E+03  0.41707815194E+03 -0.15383019369E+04  0.17078776289E+04  0.12699999809E+01 0.  1.
       -4    1    3    3    0  502  0.61361009477E+03 -0.41707815194E+03  0.19863595378E+04  0.21204002829E+04  0.12699999809E+01 0. -1.
</event>
<event>
 5   0  0.3701250E-08  0.3639748E+04  0.7818609E-02  0.8081447E-01
        1   -1    0    0  501    0  0.00000000000E+00  0.00000000000E+00  0.14488521657E+04  0.14488521657E+04  0.50400001928E-02 0.  1.
       -1   -1    0    0    0  501  0.00000000000E+00  0.00000000000E+00 -0.22859067689E+04  0.22859067689E+04  0.50400001928E-02 0. -1.
    10030    2    1    2    0    0  0.00000000000E+00  0.00000000000E+00 -0.83705460319E+03  0.37347589345E+04  0.36397477784E+04 0.  0.
        3    1    3    3  502    0 -0.11817212753E+04  0.11584471318E+04  0.35852262071E+03  0.16932227879E+04  0.10100000352E+00 0.  1.
       -3    1    3    3    0  502  0.11817212753E+04 -0.11584471318E+04 -0.11955772239E+04  0.20415361467E+04  0.10100000352E+00 0. -1.
</event>
<event>
 5   0  0.7858367E-08  0.3816781E+04  0.7818609E-02  0.8042563E-01
       -2   -1    0    0    0  501  0.00000000000E+00  0.00000000000E+00  0.12569776698E+04  0.12569776698E+04  0.25500000920E-02 0.  1.
        2   -1    0    0  501    0  0.00000000000E+00  0.00000000000E+00 -0.28973895707E+04  0.28973895707E+04  0.25500000920E-02 0. -1.
    10030    2    1    2    0    0  0.00000000000E+00  0.00000000000E+00 -0.16404119009E+04  0.41543672405E+04  0.38167808379E+04 0.  0.
        2    1    3    3  502    0 -0.54247161626E+03 -0.17556522271E+04 -0.13809032906E+04  0.22985830624E+04  0.25500000920E-02 0. -1.
       -2    1    3    3    0  502  0.54247161626E+03  0.17556522271E+04 -0.25950861032E+03  0.18557841781E+04  0.25500000920E-02 0.  1.
</event>
<event>
 5   0  0.7858367E-08  0.3793150E+04  0.7818609E-02  0.8047626E-01
       -2   -1    0    0    0  501  0.00000000000E+00  0.00000000000E+00  0.18896495224E+04  0.18896495224E+04  0.25500000920E-02 0.  1.
        2   -1    0    0  501    0  0.00000000000E+00  0.00000000000E+00 -0.19035257951E+04  0.19035257951E+04  0.25500000920E-02 0. -1.
    10030    2    1    2    0    0  0.00000000000E+00  0.00000000000E+00 -0.13876272735E+02  0.37931753175E+04  0.37931499362E+04 0.  0.
        2    1    3    3  502    0  0.17266268678E+04  0.44365115961E+03 -0.65419042394E+03  0.18989554505E+04  0.25500000920E-02 0. -1.
       -2    1    3    3    0  502 -0.17266268678E+04 -0.44365115961E+03  0.64031415121E+03  0.18942198670E+04  0.25500000920E-02 0.  1.
</event>
<event>
 5   0  0.1174870E-07  0.3808565E+04  0.7818609E-02  0.8044319E-01
        2   -1    0    0  501    0  0.00000000000E+00  0.00000000000E+00  0.21330822583E+04  0.21330822583E+04  0.25500000920E-02 0. -1.
       -2   -1    0    0    0  501  0.00000000000E+00  0.00000000000E+00 -0.17000245527E+04  0.17000245527E+04  0.25500000920E-02 0.  1.
    10030    2    1    2    0    0  0.00000000000E+00  0.00000000000E+00  0.43305770565E+03  0.38331068110E+04  0.38085651955E+04 0.  0.
        5    1    3    3  502    0  0.15995280893E+04  0.96246055335E+03 -0.16199263416E+03  0.18737887097E+04  0.46999998093E+01 0.  1.
       -5    1    3    3    0  502 -0.15995280893E+04 -0.96246055335E+03  0.59505033981E+03  0.19593181013E+04  0.46999998093E+01 0. -1.
</event>
<event>
 5   0  0.1143283E-07  0.3798920E+04  0.7818609E-02  0.8046387E-01
        2   -1    0    0  501    0  0.00000000000E+00  0.00000000000E+00  0.16799583430E+04  0.16799583430E+04  0.25500000920E-02 0. -1.
       -2   -1    0    0    0  501  0.00000000000E+00  0.00000000000E+00 -0.21476416450E+04  0.21476416450E+04  0.25500000920E-02 0.  1.
    10030    2    1    2    0    0  0.00000000000E+00  0.00000000000E+00 -0.46768330208E+03  0.38275999880E+04  0.37989201093E+04 0.  0.
        1    1    3    3  502    0 -0.98096316147E+03  0.10599189874E+04 -0.14769435749E+04  0.20656909999E+04  0.50400001928E-02 0.  1.
       -1    1    3    3    0  502  0.98096316147E+03 -0.10599189874E+04  0.10092602728E+04  0.17619089880E+04  0.50400001928E-02 0. -1.
</event>
<event>
 5   0  0.1193861E-07  0.3725176E+04  0.7818609E-02  0.8062405E-01
        2   -1    0    0  501    0  0.00000000000E+00  0.00000000000E+00  0.14765110115E+04  0.14765110115E+04  0.25500000920E-02 0.  1.
       -2   -1    0    0    0  501  0.00000000000E+00  0.00000000000E+00 -0.23496163875E+04  0.23496163875E+04  0.25500000920E-02 0. -1.
    10030    2    1    2    0    0  0.00000000000E+00  0.00000000000E+00 -0.87310537598E+03  0.38261273990E+04  0.37251762207E+04 0.  0.
        3    1    3    3  502    0 -0.69927759852E+03 -0.13747626618E+04 -0.15090105019E+04  0.21577938366E+04  0.10100000352E+00 0. -1.
       -3    1    3    3    0  502  0.69927759852E+03  0.13747626618E+04  0.63590512590E+03  0.16683335624E+04  0.10100000352E+00 0.  1.
</event>
<event>
 5   0  0.7858367E-08  0.3804840E+04  0.7818609E-02  0.8045117E-01
        2   -1    0    0  501    0  0.00000000000E+00  0.00000000000E+00  0.19220446369E+04  0.19220446369E+04  0.25500000920E-02 0. -1.
       -2   -1    0    0    0  501  0.00000000000E+00  0.00000000000E+00 -0.18829954093E+04  0.18829954093E+04  0.25500000920E-02 0.  1.
    10030    2    1    2    0    0  0.00000000000E+00  0.00000000000E+00  0.39049227687E+02  0.38050400462E+04  0.38048396696E+04 0.  0.
        2    1    3    3  502    0  0.16229320384E+04  0.89519202632E+03 -0.40936165929E+03  0.18981185772E+04  0.25500000920E-02 0.  1.
       -2    1    3    3    0  502 -0.16229320384E+04 -0.89519202632E+03  0.44841088698E+03  0.19069214690E+04  0.25500000920E-02 0. -1.
</event>
<event>
 5   0  0.3701250E-08  0.3790056E+04  0.7818609E-02  0.8048292E-01
       -1   -1    0    0    0  501  0.00000000000E+00  0.00000000000E+00  0.31385011951E+04  0.31385011951E+04  0.50400001928E-02 0.  1.
        1   -1    0    0  501    0  0.00000000000E+00  0.00000000000E+00 -0.11442187265E+04  0.11442187265E+04  0.50400001928E-02 0. -1.
    10030    2    1    2    0    0  0.00000000000E+00  0.00000000000E+00  0.19942824686E+04  0.42827199216E+04  0.37900563798E+04 0.  0.
        1    1    3    3  502    0  0.18728261355E+04 -0.12612759697E+03  0.12912551864E+04  0.22783164532E+04  0.50400001928E-02 0. -1.
       -1    1    3    3    0  502 -0.18728261355E+04  0.12612759697E+03  0.70302728223E+03  0.20044034684E+04  0.50400001928E-02 0.  1.
</event>
<event>
 5   0  0.3701250E-08  0.3805129E+04  0.7818609E-02  0.8045055E-01
        1   -1    0    0  501    0  0.00000000000E+00  0.00000000000E+00  0.25556242172E+04  0.25556242173E+04  0.50400001928E-02 0. -1.
       -1   -1    0    0    0  501  0.00000000000E+00  0.00000000000E+00 -0.14163868601E+04  0.14163868601E+04  0.50400001928E-02 0.  1.
    10030    2    1    2    0    0  0.00000000000E+00  0.00000000000E+00  0.11392373572E+04  0.39720110774E+04  0.38051294646E+04 0.  0.
        2    1    3    3  502    0  0.13926930239E+04  0.49784328108E+03 -0.67966090341E+03  0.16276918428E+04  0.25500000920E-02 0.  1.
       -2    1    3    3    0  502 -0.13926930239E+04 -0.49784328108E+03  0.18188982606E+04  0.23443192346E+04  0.25500000920E-02 0. -1.
</event>
<event>
 5   0  0.1150235E-07  0.3800604E+04  0.7818609E-02  0.8046025E-01
       -2   -1    0    0    0  501  0.00000000000E+00  0.00000000000E+00  0.20375312428E+04  0.20375312428E+04  0.25500000920E-02 0.  1.
        2   -1    0    0  501    0  0.00000000000E+00  0.00000000000E+00 -0.17723151160E+04  0.17723151160E+04  0.25500000920E-02 0. -1.
    10030    2    1    2    0    0  0.00000000000E+00  0.00000000000E+00  0.26521612681E+03  0.38098463588E+04  0.38006038578E+04 0.  0.
        4    1    3    3  502    0  0.80983429767E+03  0.16137909630E+04 -0.46127925471E+03  0.18635807001E+04  0.12699999809E+01 0. -1.
       -4    1    3    3    0  502 -0.80983429767E+03 -0.16137909630E+04  0.72649538152E+03  0.19462656587E+04  0.12699999809E+01 0.  1.
</event>
<event>
 5   0  0.1150235E-07  0.3791841E+04  0.7818609E-02  0.8047908E-01
       -2   -1    0    0    0  501  0.00000000000E+00  0.00000000000E+00  0.19742712654E+04  0.19742712654E+04  0.25500000920E-02 0.  1.
        2   -1    0    0  501    0  0.00000000000E+00  0.00000000000E+00 -0.18206788773E+04  0.18206788773E+04  0.25500000920E-02 0. -1.
    10030    2    1    2    0    0  0.00000000000E+00  0.00000000000E+00  0.15359238810E+03  0.37949501427E+04  0.37918407092E+04 0.  0.
        4    1    3    3  502    0  0.12267036249E+04  0.70460811923E+03 -0.11864741963E+04  0.18463469382E+04  0.12699999809E+01 0. -1.
       -4    1    3    3    0  502 -0.12267036249E+04 -0.70460811923E+03  0.13400665844E+04  0.19486032045E+04  0.12699999809E+01 0.  1.
</event>
<event>
 5   0  0.1174870E-07  0.3984465E+04  0.7818609E-02  0.8007688E-01
       -2   -1    0    0    0  501  0.00000000000E+00  0.00000000000E+00  0.31229202317E+04  0.31229202317E+04  0.25500000920E-02 0.  1.
        2   -1    0    0  501    0  0.00000000000E+00  0.00000000000E+00 -0.12709225975E+04  0.12709225975E+04  0.25500000920E-02 0. -1.
    10030    2    1    2    0    0  0.00000000000E+00  0.00000000000E+00  0.18519976342E+04  0.43938428293E+04  0.39844647785E+04 0.  0.
        5    1    3    3  502    0 -0.80393695158E+03 -0.17637228244E+00  0.29360958829E+04  0.30441740714E+04  0.46999998093E+01 0.  1.
       -5    1    3    3    0  502  0.80393695158E+03  0.17637228244E+00 -0.10840982487E+04  0.13496687579E+04  0.46999998093E+01 0. -1.
</event>
<event>
 5   0  0.1174870E-07  0.3770439E+04  0.7818609E-02  0.8052528E-01
       -2   -1    0    0    0  501  0.00000000000E+00  0.00000000000E+00  0.20629211999E+04  0.20629211999E+04  0.25500000920E-02 0. -1.
        2   -1    0    0  501    0  0.00000000000E+00  0.00000000000E+00 -0.17228252793E+04  0.17228252793E+04  0.25500000920E-02 0.  1.
    10030    2    1    2    0    0  0.00000000000E+00  0.00000000000E+00  0.34009592059E+03  0.37857464793E+04  0.37704391217E+04 0.  0.
        5    1    3    3  502    0 -0.65353210900E+03 -0.16653895428E+02 -0.16053641105E+04  0.17333775085E+04  0.46999998093E+01 0.  1.
       -5    1    3    3    0  502  0.65353210900E+03  0.16653895428E+02  0.19454600311E+04  0.20523689708E+04  0.46999998093E+01 0. -1.
</event>
<event>
 5   0  0.7858367E-08  0.3794006E+04  0.7818609E-02  0.8047442E-01
       -2   -1    0    0    0  501  0.00000000000E+00  0.00000000000E+00  0.17186134673E+04  0.17186134673E+04  0.25500000920E-02 0.  1.
        2   -1    0    0  501    0  0.00000000000E+00  0.00000000000E+00 -0.20939090624E+04  0.20939090624E+04  0.25500000920E-02 0. -1.
    10030    2    1    2    0    0  0.00000000000E+00  0.00000000000E+00 -0.37529559506E+03  0.38125225297E+04  0.37940059641E+04 0.  0.
        2    1    3    3  502    0  0.11187549750E+04  0.14728401504E+04 -0.61130892432E+03  0.19479654524E+04  0.25500000920E-02 0. -1.
       -2    1    3    3    0  502 -0.11187549750E+04 -0.14728401504E+04  0.23601332927E+03  0.18645570773E+04  0.25500000920E-02 0.  1.
</event>
<event>
 5   0  0.1143283E-07  0.3798398E+04  0.7818609E-02  0.8046499E-01
       -2   -1    0    0    0  501  0.00000000000E+00  0.00000000000E+00  0.18487809929E+04  0.18487809929E+04  0.25500000920E-02 0.  1.
        2   -1    0    0  501    0  0.00000000000E+00  0.00000000000E+00 -0.19509915991E+04  0.19509915991E+04  0.25500000920E-02 0. -1.
    10030    2    1    2    0    0  0.00000000000E+00  0.00000000000E+00 -0.10221060615E+03  0.37997725920E+04  0.37983976547E+04 0.  0.
        1    1    3    3  502    0 -0.12821985691E+04  0.69271451204E+03  0.11671489775E+04  0.18671163064E+04  0.50400001928E-02 0.  1.
       -1    1    3    3    0  502  0.12821985691E+04 -0.69271451204E+03 -0.12693595837E+04  0.19326562856E+04  0.50400001928E-02 0. -1.
</event>
<event>
 5   0  0.7858367E-08  0.3806681E+04  0.7818609E-02  0.8044723E-01
        2   -1    0    0  501    0  0.00000000000E+00  0.00000000000E+00  0.22515447905E+04  0.22515447905E+04  0.25500000920E-02 0.  1.
       -2   -1    0    0    0  501  0.00000000000E+00  0.00000000000E+00 -0.16089867575E+04  0.16089867575E+04  0.25500000920E-02 0. -1.
    10030    2    1    2    0    0  0.00000000000E+00  0.00000000000E+00  0.64255803299E+03  0.38605315480E+04  0.38066813640E+04 0.  0.
        2    1    3    3  502    0 -0.12769599327E+04  0.15274104690E+03 -0.11016911116E+04  0.16934225116E+04  0.25500000920E-02 0. -1.
       -2    1    3    3    0  502  0.12769599327E+04 -0.15274104690E+03  0.17442491446E+04  0.21671090364E+04  0.25500000920E-02 0.  1.
</event>
<event>
 5   0  0.1143283E-07  0.3800689E+04  0.7818609E-02  0.8046007E-01
        2   -1    0    0  501    0  0.00000000000E+00  0.00000000000E+00  0.15984923183E+04  0.15984923183E+04  0.25500000920E-02 0. -1.
       -2   -1    0    0    0  501  0.00000000000E+00  0.00000000000E+00 -0.22591976099E+04  0.22591976099E+04  0.25500000920E-02 0.  1.
    10030    2    1    2    0    0  0.00000000000E+00  0.00000000000E+00 -0.66070529160E+03  0.38576899282E+04  0.38006894243E+04 0.  0.
        1    1    3    3  502    0  0.64690337426E+03  0.95569757137E+03 -0.18627863803E+04  0.21913043883E+04  0.50400001928E-02 0.  1.
       -1    1    3    3    0  502 -0.64690337426E+03 -0.95569757137E+03  0.12020810887E+04  0.16663855399E+04  0.50400001928E-02 0. -1.
</event>
<event>
 5   0  0.3701250E-08  0.3792829E+04  0.7818609E-02  0.8047695E-01
       -1   -1    0    0    0  501  0.00000000000E+00  0.00000000000E+00  0.18189297563E+04  0.18189297563E+04  0.50400001928E-02 0.  1.
        1   -1    0    0  501    0  0.00000000000E+00  0.00000000000E+00 -0.19772001652E+04  0.19772001653E+04  0.50400001928E-02 0. -1.
    10030    2    1    2    0    0  0.00000000000E+00  0.00000000000E+00 -0.15827040896E+03  0.37961299215E+04  0.37928291365E+04 0.  0.
        3    1    3    3  502    0 -0.47309651011E+02  0.19161023764E+03  0.18086227436E+04  0.18193594821E+04  0.10100000352E+00 0.  1.
       -3    1    3    3    0  502  0.47309651011E+02 -0.19161023764E+03 -0.19668931526E+04  0.19767704394E+04  0.10100000352E+00 0. -1.
</event>
<event>
 5   0  0.1174870E-07  0.3802130E+04  0.7818609E-02  0.8045698E-01
        2   -1    0    0  501    0  0.00000000000E+00  0.00000000000E+00  0.14169176693E+04  0.14169176693E+04  0.25500000920E-02 0.  1.
       -2   -1    0    0    0  501  0.00000000000E+00  0.00000000000E+00 -0.25506406325E+04  0.25506406325E+04  0.25500000920E-02 0. -1.
    10030    2    1    2    0    0  0.00000000000E+00  0.00000000000E+00 -0.11337229632E+04  0.39675583017E+04  0.38021298137E+04 0.  0.
        5    1    3    3  502    0 -0.16029068466E+04 -0.10166177485E+04 -0.45640866032E+03  0.19522174471E+04  0.46999998093E+01 0. -1.
       -5    1    3    3    0  502  0.16029068466E+04  0.10166177485E+04 -0.67731430286E+03  0.20153408546E+04  0.46999998093E+01 0.  1.
</event>
<event>
 5   0  0.7858367E-08  0.3796380E+04  0.7818609E-02  0.8046932E-01
       -2   -1    0    0    0  501  0.00000000000E+00  0.00000000000E+00  0.15616571169E+04  0.15616571169E+04  0.25500000920E-02 0. -1.
        2   -1    0    0  501    0  0.00000000000E+00  0.00000000000E+00 -0.23072452667E+04  0.23072452667E+04  0.25500000920E-02 0.  1.
    10030    2    1    2    0    0  0.00000000000E+00  0.00000000000E+00 -0.74558814974E+03  0.38689023836E+04  0.37963803768E+04 0.  0.
        2    1    3    3  502    0  0.14747082352E+03  0.11805159842E+04 -0.18801573382E+04  0.22249398305E+04  0.25500000920E-02 0.  1.
       -2    1    3    3    0  502 -0.14747082352E+03 -0.11805159842E+04  0.11345691885E+04  0.16439625532E+04  0.25500000920E-02 0. -1.
</event>
<event>
 5   0  0.7858367E-08  0.3807729E+04  0.7818609E-02  0.8044498E-01
        2   -1    0    0  501    0  0.00000000000E+00  0.00000000000E+00  0.24012969534E+04  0.24012969534E+04  0.25500000920E-02 0.  1.
       -2   -1    0    0    0  501  0.00000000000E+00  0.00000000000E+00 -0.15094762335E+04  0.15094762335E+04  0.25500000920E-02 0. -1.
    10030    2    1    2    0    0  0.00000000000E+00  0.00000000000E+00  0.89182071987E+03  0.39107731869E+04  0.38077293395E+04 0.  0.
        2    1    3    3  502    0  0.11354774194E+03  0.12413277207E+04 -0.10321000545E+04  0.16183380742E+04  0.25500000920E-02 0. -1.
       -2    1    3    3    0  502 -0.11354774194E+03 -0.12413277207E+04  0.19239207744E+04  0.22924351127E+04  0.25500000920E-02 0.  1.
</event>
<event>
 5   0  0.3701250E-08  0.3799618E+04  0.7818609E-02  0.8046237E-01
       -1   -1    0    0    0  501  0.00000000000E+00  0.00000000000E+00  0.17215966043E+04  0.17215966043E+04  0.50400001928E-02 0.  1.
        1   -1    0    0  501    0  0.00000000000E+00  0.00000000000E+00 -0.20964694814E+04  0.20964694814E+04  0.50400001928E-02 0. -1.
    10030    2    1    2    0    0  0.00000000000E+00  0.00000000000E+00 -0.37487287713E+03  0.38180660857E+04  0.37996182652E+04 0.  0.
        3    1    3    3  502    0 -0.50633796820E+03 -0.98641368641E+03 -0.17376139302E+04  0.20612356196E+04  0.10100000352E+00 0. -1.
       -3    1    3    3    0  502  0.50633796820E+03  0.98641368641E+03  0.13627410531E+04  0.17568304661E+04  0.10100000352E+00 0.  1.
</event>
<event>
 5   0  0.3889225E-08  0.3766401E+04  0.7818609E-02  0.8053404E-01
        1   -1    0    0  501    0  0.00000000000E+00  0.00000000000E+00  0.20249273492E+04  0.20249273492E+04  0.50400001928E-02 0.  1.
       -1   -1    0    0    0  501  0.00000000000E+00  0.00000000000E+00 -0.17513933359E+04  0.17513933359E+04  0.50400001928E-02 0. -1.
    10030    2    1    2    0    0  0.00000000000E+00  0.00000000000E+00  0.27353401331E+03  0.37763206850E+04  0.37664010753E+04 0.  0.
        5    1    3    3  502    0  0.57362748027E+03  0.15488205314E+04  0.10438755243E+04  0.19538658411E+04  0.46999998093E+01 0.  1.
       -5    1    3    3    0  502 -0.57362748027E+03 -0.15488205314E+04 -0.77034151101E+03  0.18224548440E+04  0.46999998093E+01 0. -1.
</event>
<event>
 5   0  0.1150235E-07  0.3826053E+04  0.7818609E-02  0.8040587E-01
       -2   -1    0    0    0  501  0.00000000000E+00  0.00000000000E+00  0.12891350710E+04  0.12891350710E+04  0.25500000920E-02 0.  1.
        2   -1    0    0  501    0  0.00000000000E+00  0.00000000000E+00 -0.28388573224E+04  0.28388573224E+04  0.25500000920E-02 0. -1.
    10030    2    1    2    0    0  0.00000000000E+00  0.00000000000E+00 -0.15497222515E+04  0.41279923934E+04  0.38260530764E+04 0.  0.
        4    1    3    3  502    0 -0.89353366647E+03 -0.16620791002E+04 -0.11139218635E+04  0.21912856682E+04  0.12699999809E+01 0. -1.
       -4    1    3    3    0  502  0.89353366647E+03  0.16620791002E+04 -0.43580038795E+03  0.19367067253E+04  0.12699999809E+01 0.  1.
</event>
<event>
 5   0  0.1174870E-07  0.3785652E+04  0.7818609E-02  0.8049241E-01
        2   -1    0    0  501    0  0.00000000000E+00  0.00000000000E+00  0.30259401349E+04  0.30259401349E+04  0.25500000920E-02 0. -1.
       -2   -1    0    0    0  501  0.00000000000E+00  0.00000000000E+00 -0.11840257730E+04  0.11840257730E+04  0.25500000920E-02 0.  1.
    10030    2    1    2    0    0  0.00000000000E+00  0.00000000000E+00  0.18419143619E+04  0.42099659079E+04  0.37856524443E+04 0.  0.
        5    1    3    3  502    0 -0.13388154731E+04 -0.55200290305E+03  0.22764396095E+04  0.26980239921E+04  0.46999998093E+01 0. -1.
       -5    1    3    3    0  502  0.13388154731E+04  0.55200290305E+03 -0.43452524762E+03  0.15119419158E+04  0.46999998093E+01 0.  1.
</event>
<event>
 5   0  0.1193861E-07  0.3806606E+04  0.7818609E-02  0.8044739E-01
        2   -1    0    0  501    0  0.00000000000E+00  0.00000000000E+00  0.17994677278E+04  0.17994677278E+04  0.25500000920E-02 0.  1.
       -2   -1    0    0    0  501  0.00000000000E+00  0.00000000000E+00 -0.20131294866E+04  0.20131294866E+04  0.25500000920E-02 0. -1.
    10030    2    1    2    0    0  0.00000000000E+00  0.00000000000E+00 -0.21366175873E+03  0.38125972144E+04  0.38066055971E+04 0.  0.
        3    1    3    3  502    0 -0.12336080144E+03 -0.17749220968E+04  0.57024736843E+03  0.18683544654E+04  0.10100000352E+00 0.  1.
       -3    1    3    3    0  502  0.12336080144E+03  0.17749220968E+04 -0.78390912717E+03  0.19442427490E+04  0.10100000352E+00 0. -1.
</event>
<event>
 5   0  0.3701250E-08  0.3789494E+04  0.7818609E-02  0.8048413E-01
       -1   -1    0    0    0  501  0.00000000000E+00  0.00000000000E+00  0.15288807976E+04  0.15288807976E+04  0.50400001928E-02 0.  1.
        1   -1    0    0  501    0  0.00000000000E+00  0.00000000000E+00 -0.23481664135E+04  0.23481664135E+04  0.50400001928E-02 0. -1.
    10030    2    1    2    0    0  0.00000000000E+00  0.00000000000E+00 -0.81928561597E+03  0.38770472111E+04  0.37894941822E+04 0.  0.
        2    1    3    3  502    0 -0.10888600968E+02  0.12422774423E+04  0.10540380087E+04  0.16292231059E+04  0.25500000920E-02 0.  1.
       -2    1    3    3    0  502  0.10888600968E+02 -0.12422774423E+04 -0.18733236246E+04  0.22478241052E+04  0.25500000920E-02 0. -1.
</event>
<event>
 5   0  0.3701250E-08  0.3798402E+04  0.7818609E-02  0.8046498E-01
        1   -1    0    0  501    0  0.00000000000E+00  0.00000000000E+00  0.19769955550E+04  0.19769955550E+04  0.50400001928E-02 0.  1.
       -1   -1    0    0    0  501  0.00000000000E+00  0.00000000000E+00 -0.18244675810E+04  0.18244675810E+04  0.50400001928E-02 0. -1.
    10030    2    1    2    0    0  0.00000000000E+00  0.00000000000E+00  0.15252797395E+03  0.38014631360E+04  0.37984019260E+04 0.  0.
        2    1    3    3  502    0  0.69826804794E+02  0.10934661710E+04 -0.14762502892E+04  0.18384392746E+04  0.25500000920E-02 0. -1.
       -2    1    3    3    0  502 -0.69826804794E+02 -0.10934661710E+04  0.16287782632E+04  0.19630238614E+04  0.25500000920E-02 0.  1.
</event>
<event>
 5   0  0.3701250E-08  0.3770058E+04  0.7818609E-02  0.8052611E-01
       -1   -1    0    0    0  501  0.00000000000E+00  0.00000000000E+00  0.14747377252E+04  0.14747377252E+04  0.50400001928E-02 0. -1.
        1   -1    0    0  501    0  0.00000000000E+00  0.00000000000E+00 -0.24094687931E+04  0.24094687931E+04  0.50400001928E-02 0.  1.
    10030    2    1    2    0    0  0.00000000000E+00  0.00000000000E+00 -0.93473106790E+03  0.38842065183E+04  0.37700581040E+04 0.  0.
        2    1    3    3  502    0 -0.48953320356E+03  0.17757800587E+04 -0.87985883717E+03  0.20413694295E+04  0.25500000920E-02 0.  1.
       -2    1    3    3    0  502  0.48953320356E+03 -0.17757800587E+04 -0.54872230736E+02  0.18428370888E+04  0.25500000920E-02 0. -1.
</event>
<event>
 5   0  0.1150235E-07  0.3801355E+04  0.7818609E-02  0.8045864E-01
        2   -1    0    0  501    0  0.00000000000E+00  0.00000000000E+00  0.23890826735E+04  0.23890826735E+04  0.25500000920E-02 0. -1.
       -2   -1    0    0    0  501  0.00000000000E+00  0.00000000000E+00 -0.15121181420E+04  0.15121181420E+04  0.25500000920E-02 0.  1.
    10030    2    1    2    0    0  0.00000000000E+00  0.00000000000E+00  0.87696453151E+03  0.39012008154E+04  0.38013551548E+04 0.  0.
        4    1    3    3  502    0 -0.18975968778E+04  0.89735088559E+02  0.37650274699E+03  0.19366678156E+04  0.12699999809E+01 0. -1.
       -4    1    3    3    0  502  0.18975968778E+04 -0.89735088559E+02  0.50046178452E+03  0.19645329998E+04  0.12699999809E+01 0.  1.
</event>
<event>
 5   0  0.1174870E-07  0.3794718E+04  0.7818609E-02  0.8047289E-01
        2   -1    0    0  501    0  0.00000000000E+00  0.00000000000E+00  0.14246850135E+04  0.14246850135E+04  0.25500000920E-02 0. -1.
       -2   -1    0    0    0  501  0.00000000000E+00  0.00000000000E+00 -0.25268535114E+04  0.25268535114E+04  0.25500000920E-02 0.  1.
    10030    2    1    2    0    0  0.00000000000E+00  0.00000000000E+00 -0.11021684979E+04  0.39515385249E+04  0.37947175542E+04 0.  0.
        5    1    3    3  502    0  0.12000158593E+04  0.15311379816E+03 -0.20731548291E+04  0.24003072581E+04  0.46999998093E+01 0.  1.
       -5    1    3    3    0  502 -0.12000158593E+04 -0.15311379816E+03  0.97098633126E+03  0.15512312668E+04  0.46999998093E+01 0. -1.
</event>
<event>
 5   0  0.1143283E-07  0.3809845E+04  0.7818609E-02  0.8044046E-01
        2   -1    0    0  501    0  0.00000000000E+00  0.00000000000E+00  0.20891632143E+04  0.20891632143E+04  0.25500000920E-02 0.  1.
       -2   -1    0    0    0  501  0.00000000000E+00  0.00000000000E+00 -0.17369295166E+04  0.17369295166E+04  0.25500000920E-02 0. -1.
    10030    2    1    2    0    0  0.00000000000E+00  0.00000000000E+00  0.35223369766E+03  0.38260927309E+04  0.38098447485E+04 0.  0.
        1    1    3    3  502    0 -0.15592151109E+04  0.77119032882E+03 -0.60362404612E+03  0.18412626848E+04  0.50400001928E-02 0. -1.
       -1    1    3    3    0  502  0.15592151109E+04 -0.77119032882E+03  0.95585774378E+03  0.19848300461E+04  0.50400001928E-02 0.  1.
</event>
<event>
 5   0  0.3701250E-08  0.3816307E+04  0.7818609E-02  0.8042664E-01
        1   -1    0    0  501    0  0.00000000000E+00  0.00000000000E+00  0.11525006317E+04  0.11525006317E+04  0.50400001928E-02 0. -1.
       -1   -1    0    0    0  501  0.00000000000E+00  0.00000000000E+00 -0.31592611749E+04  0.31592611749E+04  0.50400001928E-02 0.  1.
    10030    2    1    2    0    0  0.00000000000E+00  0.00000000000E+00 -0.20067605432E+04  0.43117618066E+04  0.38163073774E+04 0.  0.
        4    1    3    3  502    0  0.34413865848E+03 -0.18752520341E+04 -0.10912403177E+04  0.21967723258E+04  0.12699999809E+01 0.  1.
       -4    1    3    3    0  502 -0.34413865848E+03  0.18752520341E+04 -0.91552022552E+03  0.21149894808E+04  0.12699999809E+01 0. -1.
</event>
<event>
 5   0  0.1150235E-07  0.3866479E+04  0.7818609E-02  0.8032037E-01
       -2   -1    0    0    0  501  0.00000000000E+00  0.00000000000E+00  0.22573897837E+04  0.22573897837E+04  0.25500000920E-02 0.  1.
        2   -1    0    0  501    0  0.00000000000E+00  0.00000000000E+00 -0.16556357331E+04  0.16556357331E+04  0.25500000920E-02 0. -1.
    10030    2    1    2    0    0  0.00000000000E+00  0.00000000000E+00  0.60175405061E+03  0.39130255167E+04  0.38664791164E+04 0.  0.
        4    1    3    3  502    0 -0.36382646221E+03  0.15963437794E+03  0.22156261499E+04  0.22509672762E+04  0.12699999809E+01 0.  1.
       -4    1    3    3    0  502  0.36382646221E+03 -0.15963437794E+03 -0.16138720993E+04  0.16620582406E+04  0.12699999809E+01 0. -1.
</event>
<event>
 5   0  0.3701250E-08  0.3803273E+04  0.7818609E-02  0.8045453E-01
       -1   -1    0    0    0  501  0.00000000000E+00  0.00000000000E+00  0.28584827672E+04  0.28584827672E+04  0.50400001928E-02 0.  1.
        1   -1    0    0  501    0  0.00000000000E+00  0.00000000000E+00 -0.12650841700E+04  0.12650841700E+04  0.50400001928E-02 0. -1.
    10030    2    1    2    0    0  0.00000000000E+00  0.00000000000E+00  0.15933985972E+04  0.41235669373E+04  0.38032729585E+04 0.  0.
        4    1    3    3  502    0 -0.17162984355E+02  0.17499590894E+04 -0.99804620930E+01  0.17500721714E+04  0.12699999809E+01 0. -1.
       -4    1    3    3    0  502  0.17162984355E+02 -0.17499590894E+04  0.16033790593E+04  0.23734947658E+04  0.12699999809E+01 0.  1.
</event>
<event>
 5   0  0.1143283E-07  0.3806356E+04  0.7818609E-02  0.8044792E-01
        2   -1    0    0  501    0  0.00000000000E+00  0.00000000000E+00  0.27246480109E+04  0.27246480109E+04  0.25500000920E-02 0. -1.
       -2   -1    0    0    0  501  0.00000000000E+00  0.00000000000E+00 -0.13293779012E+04  0.13293779012E+04  0.25500000920E-02 0.  1.
    10030    2    1    2    0    0  0.00000000000E+00  0.00000000000E+00  0.13952701097E+04  0.40540259120E+04  0.38063561862E+04 0.  0.
        1    1    3    3  502    0  0.10685520826E+03 -0.87084738070E+03 -0.11011290510E+04  0.14079340834E+04  0.50400001928E-02 0.  1.
       -1    1    3    3    0  502 -0.10685520826E+03  0.87084738070E+03  0.24963991607E+04  0.26460918287E+04  0.50400001928E-02 0. -1.
</event>
<event>
 5   0  0.7858367E-08  0.3764207E+04  0.7818609E-02  0.8053880E-01
        2   -1    0    0  501    0  0.00000000000E+00  0.00000000000E+00  0.18203610309E+04  0.18203610309E+04  0.25500000920E-02 0.  1.
       -2   -1    0    0    0  501  0.00000000000E+00  0.00000000000E+00 -0.19459405267E+04  0.19459405267E+04  0.25500000920E-02 0. -1.
    10030    2    1    2    0    0  0.00000000000E+00  0.00000000000E+00 -0.12557949575E+03  0.37663015576E+04  0.37642073818E+04 0.  0.
        2    1    3    3  502    0  0.10611339058E+04 -0.10282931591E+04  0.11035870267E+04  0.18442603700E+04  0.25500000920E-02 0.  1.
       -2    1    3    3    0  502 -0.10611339058E+04  0.10282931591E+04 -0.12291665224E+04  0.19220411876E+04  0.25500000920E-02 0. -1.
</event>
<event>
 5   0  0.3701250E-08  0.3797568E+04  0.7818609E-02  0.8046677E-01
        1   -1    0    0  501    0  0.00000000000E+00  0.00000000000E+00  0.16442939744E+04  0.16442939745E+04  0.50400001928E-02 0. -1.
       -1   -1    0    0    0  501  0.00000000000E+00  0.00000000000E+00 -0.21926615244E+04  0.21926615244E+04  0.50400001928E-02 0.  1.
    10030    2    1    2    0    0  0.00000000000E+00  0.00000000000E+00 -0.54836754999E+03  0.38369554989E+04  0.37975677124E+04 0.  0.
        1    1    3    3  502    0  0.71751012764E+03  0.37658131383E+02 -0.20500085754E+04  0.21722739416E+04  0.50400001928E-02 0.  1.
       -1    1    3    3    0  502 -0.71751012764E+03 -0.37658131383E+02  0.15016410254E+04  0.16646815573E+04  0.50400001928E-02 0. -1.
</event>
<event>
 5   0  0.1143283E-07  0.3870548E+04  0.7818609E-02  0.8031183E-01
       -2   -1    0    0    0  501  0.00000000000E+00  0.00000000000E+00  0.19663508419E+04  0.19663508419E+04  0.25500000920E-02 0. -1.
        2   -1    0    0  501    0  0.00000000000E+00  0.00000000000E+00 -0.19046887328E+04  0.19046887328E+04  0.25500000920E-02 0.  1.
    10030    2    1    2    0    0  0.00000000000E+00  0.00000000000E+00  0.61662109105E+02  0.38710395746E+04  0.38705484330E+04 0.  0.
        1    1    3    3  502    0  0.11122426454E+04 -0.12004516153E+03  0.16102058279E+04  0.19606777785E+04  0.50400001928E-02 0. -1.
       -1    1    3    3    0  502 -0.11122426454E+04  0.12004516153E+03 -0.15485437187E+04  0.19103617961E+04  0.50400001928E-02 0.  1.
</event>
<event>
 5   0  0.3701250E-08  0.3697861E+04  0.7818609E-02  0.8068436E-01
        1   -1    0    0  501    0  0.00000000000E+00  0.00000000000E+00  0.30565876568E+04  0.30565876568E+04  0.50400001928E-02 0.  1.
       -1   -1    0    0    0  501  0.00000000000E+00  0.00000000000E+00 -0.11184187019E+04  0.11184187020E+04  0.50400001928E-02 0. -1.
    10030    2    1    2    0    0  0.00000000000E+00  0.00000000000E+00  0.19381689548E+04  0.41750063587E+04  0.36978614357E+04 0.  0.
        3    1    3    3  502    0 -0.17320761082E+03 -0.12231441429E+04  0.25222585359E+04  0.28085353127E+04  0.10100000352E+00 0.  1.
       -3    1    3    3    0  502  0.17320761082E+03  0.12231441429E+04 -0.58408958105E+03  0.13664710460E+04  0.10100000352E+00 0. -1.
</event>
<event>
 5   0  0.3889225E-08  0.3867765E+04  0.7818609E-02  0.8031767E-01
        1   -1    0    0  501    0  0.00000000000E+00  0.00000000000E+00  0.16714066017E+04  0.16714066017E+04  0.50400001928E-02 0.  1.
       -1   -1    0    0    0  501  0.00000000000E+00  0.00000000000E+00 -0.22375770356E+04  0.22375770356E+04  0.50400001928E-02 0. -1.
    10030    2    1    2    0    0  0.00000000000E+00  0.00000000000E+00 -0.56617043389E+03  0.39089836373E+04  0.38677647442E+04 0.  0.
        5    1    3    3  502    0  0.11457817945E+04 -0.12098800280E+03 -0.18528359889E+04  0.21818518073E+04  0.46999998093E+01 0. -1.
       -5    1    3    3    0  502 -0.11457817945E+04  0.12098800280E+03  0.12866655550E+04  0.17271318299E+04  0.46999998093E+01 0.  1.
</event>
<event>
 5   0  0.3701250E-08  0.3798611E+04  0.7818609E-02  0.8046453E-01
       -1   -1    0    0    0  501  0.00000000000E+00  0.00000000000E+00  0.22197861433E+04  0.22197861433E+04  0.50400001928E-02 0. -1.
        1   -1    0    0  501    0  0.00000000000E+00  0.00000000000E+00 -0.16250942942E+04  0.16250942942E+04  0.50400001928E-02 0.  1.
    10030    2    1    2    0    0  0.00000000000E+00  0.00000000000E+00  0.59469184917E+03  0.38448804375E+04  0.37986112177E+04 0.  0.
        4    1    3    3  502    0  0.22728178047E+03 -0.10255724737E+03 -0.16084546600E+04  0.16276679645E+04  0.12699999809E+01 0.  1.
       -4    1    3    3    0  502 -0.22728178047E+03  0.10255724737E+03  0.22031465091E+04  0.22172124730E+04  0.12699999809E+01 0. -1.
</event>
<event>
 5   0  0.3701250E-08  0.3809140E+04  0.7818609E-02  0.8044196E-01
        1   -1    0    0  501    0  0.00000000000E+00  0.00000000000E+00  0.21566278159E+04  0.21566278159E+04  0.50400001928E-02 0. -1.
       -1   -1    0    0    0  501  0.00000000000E+00  0.00000000000E+00 -0.16819714992E+04  0.16819714992E+04  0.50400001928E-02 0.  1.
    10030    2    1    2    0    0  0.00000000000E+00  0.00000000000E+00  0.47465631666E+03  0.38385993151E+04  0.38091398088E+04 0.  0.
        3    1    3    3  502    0  0.40342837658E+03 -0.10930154915E+04 -0.12809590622E+04  0.17315580986E+04  0.10100000352E+00 0.  1.
       -3    1    3    3    0  502 -0.40342837658E+03  0.10930154915E+04  0.17556153788E+04  0.21070412166E+04  0.10100000352E+00 0. -1.
</event>
<event>
 5   0  0.3701250E-08  0.3738794E+04  0.7818609E-02  0.8059419E-01
       -1   -1    0    0    0  501  0.00000000000E+00  0.00000000000E+00  0.22839940630E+04  0.22839940630E+04  0.50400001928E-02 0. -1.
        1   -1    0    0  501    0  0.00000000000E+00  0.00000000000E+00 -0.15300589575E+04  0.15300589575E+04  0.50400001928E-02 0.  1.
    10030    2    1    2    0    0  0.00000000000E+00  0.00000000000E+00  0.75393510552E+03  0.38140530205E+04  0.37387942307E+04 0.  0.
        3    1    3    3  502    0 -0.18455628931E+04 -0.14443729861E+03  0.64236006817E+03  0.19594874312E+04  0.10100000352E+00 0.  1.
       -3    1    3    3    0  502  0.18455628931E+04  0.14443729861E+03  0.11157503735E+03  0.18545655893E+04  0.10100000352E+00 0. -1.
</event>
<event>
 5   0  0.3701250E-08  0.3816135E+04  0.7818609E-02  0.8042701E-01
       -1   -1    0    0    0  501  0.00000000000E+00  0.00000000000E+00  0.18087661438E+04  0.18087661438E+04  0.50400001928E-02 0. -1.
        1   -1    0    0  501    0  0.00000000000E+00  0.00000000000E+00 -0.20128204388E+04  0.20128204389E+04  0.50400001928E-02 0.  1.
    10030    2    1    2    0    0  0.00000000000E+00  0.00000000000E+00 -0.20405429505E+03  0.38215865827E+04  0.38161349365E+04 0.  0.
        4    1    3    3  502    0  0.11022203688E+04  0.38459810684E+03  0.14094050907E+04  0.18300900982E+04  0.12699999809E+01 0. -1.
       -4    1    3    3    0  502 -0.11022203688E+04 -0.38459810684E+03 -0.16134593857E+04  0.19914964844E+04  0.12699999809E+01 0.  1.
</event>
<event>
 5   0  0.3701250E-08  0.3817408E+04  0.7818609E-02  0.8042429E-01
        1   -1    0    0  501    0  0.00000000000E+00  0.00000000000E+00  0.22682032397E+04  0.22682032397E+04  0.50400001928E-02 0. -1.
       -1   -1    0    0    0  501  0.00000000000E+00  0.00000000000E+00 -0.16061839364E+04  0.16061839365E+04  0.50400001928E-02 0.  1.
    10030    2    1    2    0    0  0.00000000000E+00  0.00000000000E+00  0.66201930328E+03  0.38743871762E+04  0.38174083398E+04 0.  0.
        1    1    3    3  502    0  0.19082456180E+04  0.30458473530E+02  0.30190141694E+03  0.19322198432E+04  0.50400001928E-02 0.  1.
       -1    1    3    3    0  502 -0.19082456180E+04 -0.30458473530E+02  0.36011788634E+03  0.19421673329E+04  0.50400001928E-02 0. -1.
</event>
<event>
 5   0  0.3701250E-08  0.3809049E+04  0.7818609E-02  0.8044216E-01
        1   -1    0    0  501    0  0.00000000000E+00  0.00000000000E+00  0.13182998023E+04  0.13182998023E+04  0.50400001928E-02 0.  1.
       -1   -1    0    0    0  501  0.00000000000E+00  0.00000000000E+00 -0.27514335883E+04  0.27514335884E+04  0.50400001928E-02 0. -1.
    10030    2    1    2    0    0  0.00000000000E+00  0.00000000000E+00 -0.14331337860E+04  0.40697333907E+04  0.38090494120E+04 0.  0.
        1    1    3    3  502    0 -0.10845462996E+03  0.16616949593E+04 -0.17040613830E+04  0.23826073411E+04  0.50400001928E-02 0. -1.
       -1    1    3    3    0  502  0.10845462996E+03 -0.16616949593E+04  0.27092759702E+03  0.16871260496E+04  0.50400001928E-02 0.  1.
</event>
<event>
 5   0  0.3701250E-08  0.3809476E+04  0.7818609E-02  0.8044124E-01
       -1   -1    0    0    0  501  0.00000000000E+00  0.00000000000E+00  0.19213779669E+04  0.19213779669E+04  0.50400001928E-02 0. -1.
        1   -1    0    0  501    0  0.00000000000E+00  0.00000000000E+00 -0.18882421008E+04  0.18882421009E+04  0.50400001928E-02 0.  1.
    10030    2    1    2    0    0  0.00000000000E+00  0.00000000000E+00  0.33135866098E+02  0.38096200678E+04  0.38094759581E+04 0.  0.
        3    1    3    3  502    0 -0.83866365780E+03 -0.16313363408E+04  0.52982391268E+03  0.19092743062E+04  0.10100000352E+00 0. -1.
       -3    1    3    3    0  502  0.83866365780E+03  0.16313363408E+04 -0.49668804658E+03  0.19003457616E+04  0.10100000352E+00 0.  1.
</event>
<event>
 5   0  0.1143283E-07  0.3801369E+04  0.7818609E-02  0.8045861E-01
       -2   -1    0    0    0  501  0.00000000000E+00  0.00000000000E+00  0.14369253155E+04  0.14369253155E+04  0.25500000920E-02 0. -1.
        2   -1    0    0  501    0  0.00000000000E+00  0.00000000000E+00 -0.25141194266E+04  0.25141194266E+04  0.25500000920E-02 0.  1.
    10030    2    1    2    0    0  0.00000000000E+00  0.00000000000E+00 -0.10771941111E+04  0.39510447421E+04  0.38013691482E+04 0.  0.
        1    1    3    3  502    0  0.24529188386E+02 -0.96343016714E+03 -0.22413325027E+04  0.24397480926E+04  0.50400001928E-02 0.  1.
       -1    1    3    3    0  502 -0.24529188386E+02  0.96343016714E+03  0.11641383915E+04  0.15112966495E+04  0.50400001928E-02 0. -1.
</event>
<event>
 5   0  0.7858367E-08  0.3807224E+04  0.7818609E-02  0.8044606E-01
        2   -1    0    0  501    0  0.00000000000E+00  0.00000000000E+00  0.25674416541E+04  0.25674416541E+04  0.25500000920E-02 0. -1.
       -2   -1    0    0    0  501  0.00000000000E+00  0.00000000000E+00 -0.14114204018E+04  0.14114204018E+04  0.25500000920E-02 0.  1.
    10030    2    1    2    0    0  0.00000000000E+00  0.00000000000E+00  0.11560212524E+04  0.39788620559E+04  0.38072244646E+04 0.  0.
        2    1    3    3  502    0  0.96726814381E+03  0.12009202029E+04  0.17445406494E+04  0.23283554439E+04  0.25500000920E-02 0.  1.
       -2    1    3    3    0  502 -0.96726814381E+03 -0.12009202029E+04 -0.58851939700E+03  0.16505066120E+04  0.25500000920E-02 0. -1.
</event>
<event>
 5   0  0.3889225E-08  0.3834412E+04  0.7818609E-02  0.8038810E-01
        1   -1    0    0  501    0  0.00000000000E+00  0.00000000000E+00  0.19090685491E+04  0.19090685492E+04  0.50400001928E-02 0. -1.
       -1   -1    0    0    0  501  0.00000000000E+00  0.00000000000E+00 -0.19253786114E+04  0.19253786114E+04  0.50400001928E-02 0.  1.
    10030    2    1    2    0    0  0.00000000000E+00  0.00000000000E+00 -0.16310062262E+02  0.38344471606E+04  0.38344124725E+04 0.  0.
        5    1    3    3  502    0 -0.72249618940E+03  0.11584626819E+04 -0.13541319667E+04  0.19229487779E+04  0.46999998093E+01 0.  1.
       -5    1    3    3    0  502  0.72249618940E+03 -0.11584626819E+04  0.13378219044E+04  0.19114983827E+04  0.46999998093E+01 0. -1.
</event>
<event>
 5   0  0.1143283E-07  0.3824197E+04  0.7818609E-02  0.8040982E-01
        2   -1    0    0  501    0  0.00000000000E+00  0.00000000000E+00  0.26997535692E+04  0.26997535692E+04  0.25500000920E-02 0. -1.
       -2   -1    0    0    0  501  0.00000000000E+00  0.00000000000E+00 -0.13542421232E+04  0.13542421232E+04  0.25500000920E-02 0.  1.
    10030    2    1    2    0    0  0.00000000000E+00  0.00000000000E+00  0.13455114460E+04  0.40539956924E+04  0.38241966507E+04 0.  0.
        1    1    3    3  502    0 -0.13171531901E+04 -0.97178955101E+03 -0.37499404405E+03  0.16792522118E+04  0.50400001928E-02 0.  1.
       -1    1    3    3    0  502  0.13171531901E+04  0.97178955101E+03  0.17205054901E+04  0.23747434807E+04  0.50400001928E-02 0. -1.
</event>
<event>
 5   0  0.1143283E-07  0.3791322E+04  0.7818609E-02  0.8048020E-01
       -2   -1    0    0    0  501  0.00000000000E+00  0.00000000000E+00  0.15770651061E+04  0.15770651061E+04  0.25500000920E-02 0.  1.
        2   -1    0    0  501    0  0.00000000000E+00  0.00000000000E+00 -0.22786192752E+04  0.22786192752E+04  0.25500000920E-02 0. -1.
    10030    2    1    2    0    0  0.00000000000E+00  0.00000000000E+00 -0.70155416915E+03  0.38556843813E+04  0.37913221699E+04 0.  0.
        1    1    3    3  502    0 -0.88187967456E+03  0.14236358788E+04  0.55260468861E+03  0.17634689727E+04  0.50400001928E-02 0.  1.
       -1    1    3    3    0  502  0.88187967456E+03 -0.14236358788E+04 -0.12541588578E+04  0.20922154087E+04  0.50400001928E-02 0. -1.
</event>
<event>
 5   0  0.7858367E-08  0.3800442E+04  0.7818609E-02  0.8046060E-01
        2   -1    0    0  501    0  0.00000000000E+00  0.00000000000E+00  0.14405004553E+04  0.14405004553E+04  0.25500000920E-02 0. -1.
       -2   -1    0    0    0  501  0.00000000000E+00  0.00000000000E+00 -0.25066559654E+04  0.25066559654E+04  0.25500000920E-02 0.  1.
    10030    2    1    2    0    0  0.00000000000E+00  0.00000000000E+00 -0.10661555101E+04  0.39471564207E+04  0.38004415846E+04 0.  0.
        2    1    3    3  502    0  0.13367765036E+04 -0.27222322894E+03 -0.19069292321E+04  0.23446654352E+04  0.25500000920E-02 0.  1.
       -2    1    3    3    0  502 -0.13367765036E+04  0.27222322894E+03  0.84077372196E+03  0.16024909855E+04  0.25500000920E-02 0. -1.
</event>
<event>
 5   0  0.7858367E-08  0.3541267E+04  0.7818609E-02  0.8104079E-01
        2   -1    0    0  501    0  0.00000000000E+00  0.00000000000E+00  0.17420365350E+04  0.17420365350E+04  0.25500000920E-02 0.  1.
       -2   -1    0    0    0  501  0.00000000000E+00  0.00000000000E+00 -0.17996999322E+04  0.17996999322E+04  0.25500000920E-02 0. -1.
    10030    2    1    2    0    0  0.00000000000E+00  0.00000000000E+00 -0.57663397215E+02  0.35417364672E+04  0.35412670241E+04 0.  0.
        2    1    3    3  502    0  0.44145705916E+03 -0.13775316023E+03  0.16805709247E+04  0.17430372633E+04  0.25500000920E-02 0.  1.
       -2    1    3    3    0  502 -0.44145705916E+03  0.13775316023E+03 -0.17382343219E+04  0.17986992039E+04  0.25500000920E-02 0. -1.
</event>
<event>
 5   0  0.3889225E-08  0.3809133E+04  0.7818609E-02  0.8044198E-01
        1   -1    0    0  501    0  0.00000000000E+00  0.00000000000E+00  0.28588134268E+04  0.28588134268E+04  0.50400001928E-02 0. -1.
       -1   -1    0    0    0  501  0.00000000000E+00  0.00000000000E+00 -0.12688389513E+04  0.12688389513E+04  0.50400001928E-02 0.  1.
    10030    2    1    2    0    0  0.00000000000E+00  0.00000000000E+00  0.15899744756E+04  0.41276523781E+04  0.38091331457E+04 0.  0.
        5    1    3    3  502    0 -0.17484130135E+04  0.75406604107E+03  0.74916561580E+03  0.20461756694E+04  0.46999998093E+01 0.  1.
       -5    1    3    3    0  502  0.17484130135E+04 -0.75406604107E+03  0.84080885978E+03  0.20814767087E+04  0.46999998093E+01 0. -1.
</event>
<event>
 5   0  0.7858367E-08  0.3672385E+04  0.7818609E-02  0.8074109E-01
        2   -1    0    0  501    0  0.00000000000E+00  0.00000000000E+00  0.15684836830E+04  0.15684836830E+04  0.25500000920E-02 0.  1.
       -2   -1    0    0    0  501  0.00000000000E+00  0.00000000000E+00 -0.21495934486E+04  0.21495934486E+04  0.25500000920E-02 0. -1.
    10030    2    1    2    0    0  0.00000000000E+00  0.00000000000E+00 -0.58110976560E+03  0.37180771316E+04  0.36723846472E+04 0.  0.
        2    1    3    3  502    0 -0.52030119336E+03 -0.43139016544E+03  0.14379633892E+04  0.15888831031E+04  0.25500000920E-02 0.  1.
       -2    1    3    3    0  502  0.52030119336E+03  0.43139016544E+03 -0.20190731548E+04  0.21291940285E+04  0.25500000920E-02 0. -1.
</event>
<event>
 5   0  0.3889225E-08  0.3808444E+04  0.7818609E-02  0.8044345E-01
       -1   -1    0    0    0  501  0.00000000000E+00  0.00000000000E+00  0.21741664194E+04  0.21741664194E+04  0.50400001928E-02 0. -1.
        1   -1    0    0  501    0  0.00000000000E+00  0.00000000000E+00 -0.16677938605E+04  0.16677938605E+04  0.50400001928E-02 0.  1.
    10030    2    1    2    0    0  0.00000000000E+00  0.00000000000E+00  0.50637255885E+03  0.38419602799E+04  0.38084439898E+04 0.  0.
        5    1    3    3  502    0  0.14790786782E+04 -0.46114700005E+03  0.13700469285E+04  0.20681830113E+04  0.46999998093E+01 0. -1.
       -5    1    3    3    0  502 -0.14790786782E+04  0.46114700005E+03 -0.86367436963E+03  0.17737772686E+04  0.46999998093E+01 0.  1.
</event>
<event>
 5   0  0.3701250E-08  0.3800787E+04  0.7818609E-02  0.8045986E-01
       -1   -1    0    0    0  501  0.00000000000E+00  0.00000000000E+00  0.17656842485E+04  0.17656842485E+04  0.50400001928E-02 0.  1.
        1   -1    0    0  501    0  0.00000000000E+00  0.00000000000E+00 -0.20453801331E+04  0.20453801331E+04  0.50400001928E-02 0. -1.
    10030    2    1    2    0    0  0.00000000000E+00  0.00000000000E+00 -0.27969588453E+03  0.38110643816E+04  0.38007870149E+04 0.  0.
        2    1    3    3  502    0 -0.89897451015E+03  0.23152343699E+03 -0.18025649811E+04  0.20275598099E+04  0.25500000920E-02 0. -1.
       -2    1    3    3    0  502  0.89897451015E+03 -0.23152343699E+03  0.15228690966E+04  0.17835045716E+04  0.25500000920E-02 0.  1.
</event>
<event>
 5   0  0.1174870E-07  0.3920631E+04  0.7818609E-02  0.8020752E-01
        2   -1    0    0  501    0  0.00000000000E+00  0.00000000000E+00  0.24968403309E+04  0.24968403309E+04  0.25500000920E-02 0.  1.
       -2   -1    0    0    0  501  0.00000000000E+00  0.00000000000E+00 -0.15390800874E+04  0.15390800874E+04  0.25500000920E-02 0. -1.
    10030    2    1    2    0    0  0.00000000000E+00  0.00000000000E+00  0.95776024345E+03  0.40359204183E+04  0.39206311914E+04 0.  0.
        5    1    3    3  502    0 -0.13855654454E+04 -0.13042927782E+04  0.96373340304E+03  0.21330202571E+04  0.46999998093E+01 0.  1.
       -5    1    3    3    0  502  0.13855654454E+04  0.13042927782E+04 -0.59731595901E+01  0.19029001612E+04  0.46999998093E+01 0. -1.
</event>
<event>
 5   0  0.3701250E-08  0.3782535E+04  0.7818609E-02  0.8049913E-01
       -1   -1    0    0    0  501  0.00000000000E+00  0.00000000000E+00  0.19920219253E+04  0.19920219253E+04  0.50400001928E-02 0.  1.
        1   -1    0    0  501    0  0.00000000000E+00  0.00000000000E+00 -0.17956090167E+04  0.17956090167E+04  0.50400001928E-02 0. -1.
    10030    2    1    2    0    0  0.00000000000E+00  0.00000000000E+00  0.19641290857E+03  0.37876309421E+04  0.37825348805E+04 0.  0.
        2    1    3    3  502    0  0.18889589047E+03  0.16628246574E+04  0.98042977991E+03  0.19395643975E+04  0.25500000920E-02 0.  1.
       -2    1    3    3    0  502 -0.18889589047E+03 -0.16628246574E+04 -0.78401687134E+03  0.18480665446E+04  0.25500000920E-02 0. -1.
</event>
<event>
 5   0  0.1143283E-07  0.3793173E+04  0.7818609E-02  0.8047622E-01
       -2   -1    0    0    0  501  0.00000000000E+00  0.00000000000E+00  0.14815299711E+04  0.14815299711E+04  0.25500000920E-02 0. -1.
        2   -1    0    0  501    0  0.00000000000E+00  0.00000000000E+00 -0.24279226211E+04  0.24279226211E+04  0.25500000920E-02 0.  1.
    10030    2    1    2    0    0  0.00000000000E+00  0.00000000000E+00 -0.94639264993E+03  0.39094525922E+04  0.37931728833E+04 0.  0.
        1    1    3    3  502    0 -0.26085972683E+03  0.53777133142E+03  0.13819237891E+04  0.15056424412E+04  0.50400001928E-02 0. -1.
       -1    1    3    3    0  502  0.26085972683E+03 -0.53777133142E+03 -0.23283164390E+04  0.24038101510E+04  0.50400001928E-02 0.  1.
</event>
<event>
 5   0  0.7858367E-08  0.3768503E+04  0.7818609E-02  0.8052948E-01
       -2   -1    0    0    0  501  0.00000000000E+00  0.00000000000E+00  0.13328722566E+04  0.13328722566E+04  0.25500000920E-02 0. -1.
        2   -1    0    0  501    0  0.00000000000E+00  0.00000000000E+00 -0.26637232618E+04  0.26637232618E+04  0.25500000920E-02 0.  1.
    10030    2    1    2    0    0  0.00000000000E+00  0.00000000000E+00 -0.13308510051E+04  0.39965955184E+04  0.37685025328E+04 0.  0.
        2    1    3    3  502    0 -0.31281840364E+02  0.12473915564E+04  0.83192273521E+03  0.14996865292E+04  0.25500000920E-02 0. -1.
       -2    1    3    3    0  502  0.31281840364E+02 -0.12473915564E+04 -0.21627737404E+04  0.24969089892E+04  0.25500000920E-02 0.  1.
</event>
<event>
 5   0  0.3701250E-08  0.3821809E+04  0.7818609E-02  0.8041491E-01
       -1   -1    0    0    0  501  0.00000000000E+00  0.00000000000E+00  0.15504174073E+04  0.15504174073E+04  0.50400001928E-02 0.  1.
        1   -1    0    0  501    0  0.00000000000E+00  0.00000000000E+00 -0.23552078540E+04  0.23552078540E+04  0.50400001928E-02 0. -1.
    10030    2    1    2    0    0  0.00000000000E+00  0.00000000000E+00 -0.80479044667E+03  0.39056252613E+04  0.38218086057E+04 0.  0.
        3    1    3    3  502    0 -0.11454215950E+04 -0.41836346916E+03  0.11011071088E+04  0.16430019774E+04  0.10100000352E+00 0.  1.
       -3    1    3    3    0  502  0.11454215950E+04  0.41836346916E+03 -0.19058975554E+04  0.22626232838E+04  0.10100000352E+00 0. -1.
</event>
<event>
 5   0  0.1193861E-07  0.3794380E+04  0.7818609E-02  0.8047362E-01
       -2   -1    0    0    0  501  0.00000000000E+00  0.00000000000E+00  0.13426052179E+04  0.13426052179E+04  0.25500000920E-02 0. -1.
        2   -1    0    0  501    0  0.00000000000E+00  0.00000000000E+00 -0.26808547698E+04  0.26808547698E+04  0.25500000920E-02 0.  1.
    10030    2    1    2    0    0  0.00000000000E+00  0.00000000000E+00 -0.13382495519E+04  0.40234599877E+04  0.37943798451E+04 0.  0.
        3    1    3    3  502    0  0.96039573059E+03  0.45533107267E+03 -0.23355122514E+04  0.25659898347E+04  0.10100000352E+00 0.  1.
       -3    1    3    3    0  502 -0.96039573059E+03 -0.45533107267E+03  0.99726269943E+03  0.14574701530E+04  0.10100000352E+00 0. -1.
</event>
<event>
 5   0  0.3701250E-08  0.3814646E+04  0.7818609E-02  0.8043019E-01
        1   -1    0    0  501    0  0.00000000000E+00  0.00000000000E+00  0.18800214302E+04  0.18800214302E+04  0.50400001928E-02 0. -1.
       -1   -1    0    0    0  501  0.00000000000E+00  0.00000000000E+00 -0.19350214085E+04  0.19350214085E+04  0.50400001928E-02 0.  1.
    10030    2    1    2    0    0  0.00000000000E+00  0.00000000000E+00 -0.54999978221E+02  0.38150428387E+04  0.38146463615E+04 0.  0.
        3    1    3    3  502    0  0.18989676653E+04 -0.17420475701E+03 -0.65664336065E+02  0.19080716198E+04  0.10100000352E+00 0. -1.
       -3    1    3    3    0  502 -0.18989676653E+04  0.17420475701E+03  0.10664357844E+02  0.19069712189E+04  0.10100000352E+00 0.  1.
</event>
<event>
 5   0  0.3701250E-08  0.3795559E+04  0.7818609E-02  0.8047109E-01
       -1   -1    0    0    0  501  0.00000000000E+00  0.00000000000E+00  0.26101420763E+04  0.26101420763E+04  0.50400001928E-02 0. -1.
        1   -1    0    0  501    0  0.00000000000E+00  0.00000000000E+00 -0.13798358866E+04  0.13798358866E+04  0.50400001928E-02 0.  1.
    10030    2    1    2    0    0  0.00000000000E+00  0.00000000000E+00  0.12303061897E+04  0.39899779629E+04  0.37955593559E+04 0.  0.
        2    1    3    3  502    0 -0.15169341691E+04 -0.18954876147E+02 -0.58348006023E+03  0.16253915041E+04  0.25500000920E-02 0. -1.
       -2    1    3    3    0  502  0.15169341691E+04  0.18954876147E+02  0.18137862500E+04  0.23645864589E+04  0.25500000920E-02 0.  1.
</event>
<event>
 5   0  0.7858367E-08  0.3693863E+04  0.7818609E-02  0.8069323E-01
        2   -1    0    0  501    0  0.00000000000E+00  0.00000000000E+00  0.27806493014E+04  0.27806493014E+04  0.25500000920E-02 0. -1.
       -2   -1    0    0    0  501  0.00000000000E+00  0.00000000000E+00 -0.12267478797E+04  0.12267478797E+04  0.25500000920E-02 0.  1.
    10030    2    1    2    0    0  0.00000000000E+00  0.00000000000E+00  0.15539014217E+04  0.40073971811E+04  0.36938628208E+04 0.  0.
        2    1    3    3  502    0 -0.65773477231E+03 -0.95029920509E+03 -0.78598123216E+03  0.13976587950E+04  0.25500000920E-02 0.  1.
       -2    1    3    3    0  502  0.65773477231E+03  0.95029920509E+03  0.23398826539E+04  0.26097383861E+04  0.25500000920E-02 0. -1.
</event>
<event>
 5   0  0.3889225E-08  0.3802306E+04  0.7818609E-02  0.8045660E-01
       -1   -1    0    0    0  501  0.00000000000E+00  0.00000000000E+00  0.29311866224E+04  0.29311866224E+04  0.50400001928E-02 0. -1.
        1   -1    0    0  501    0  0.00000000000E+00  0.00000000000E+00 -0.12330781453E+04  0.12330781453E+04  0.50400001928E-02 0.  1.
    10030    2    1    2    0    0  0.00000000000E+00  0.00000000000E+00  0.16981084771E+04  0.41642647677E+04  0.38023057025E+04 0.  0.
        5    1    3    3  502    0 -0.17194101798E+02  0.14228905862E+04  0.22298018610E+04  0.26451751713E+04  0.46999998093E+01 0. -1.
       -5    1    3    3    0  502  0.17194101798E+02 -0.14228905862E+04 -0.53169338395E+03  0.15190895964E+04  0.46999998093E+01 0.  1.
</event>
<event>
 5   0  0.3701250E-08  0.3787521E+04  0.7818609E-02  0.8048838E-01
       -1   -1    0    0    0  501  0.00000000000E+00  0.00000000000E+00  0.12956419801E+04  0.12956419801E+04  0.50400001928E-02 0.  1.
        1   -1    0    0  501    0  0.00000000000E+00  0.00000000000E+00 -0.27679940506E+04  0.27679940506E+04  0.50400001928E-02 0. -1.
    10030    2    1    2    0    0  0.00000000000E+00  0.00000000000E+00 -0.14723520705E+04  0.40636360307E+04  0.37875212436E+04 0.  0.
        4    1    3    3  502    0 -0.59061715975E+02 -0.38784361656E+03  0.12515646618E+04  0.13116122418E+04  0.12699999809E+01 0.  1.
       -4    1    3    3    0  502  0.59061715975E+02  0.38784361656E+03 -0.27239167323E+04  0.27520237889E+04  0.12699999809E+01 0. -1.
</event>
<event>
 5   0  0.1150235E-07  0.3788581E+04  0.7818609E-02  0.8048610E-01
       -2   -1    0    0    0  501  0.00000000000E+00  0.00000000000E+00  0.14776447197E+04  0.14776447197E+04  0.25500000920E-02 0. -1.
        2   -1    0    0  501    0  0.00000000000E+00  0.00000000000E+00 -0.24284160929E+04  0.24284160929E+04  0.25500000920E-02 0.  1.
    10030    2    1    2    0    0  0.00000000000E+00  0.00000000000E+00 -0.95077137320E+03  0.39060608125E+04  0.37885808514E+04 0.  0.
        4    1    3    3  502    0 -0.11390347850E+04  0.15203264101E+03  0.10772400222E+04  0.15751069309E+04  0.12699999809E+01 0. -1.
       -4    1    3    3    0  502  0.11390347850E+04 -0.15203264101E+03 -0.20280113954E+04  0.23309538816E+04  0.12699999809E+01 0.  1.
</event>
<event>
 5   0  0.3701250E-08  0.3794775E+04  0.7818609E-02  0.8047277E-01
        1   -1    0    0  501    0  0.00000000000E+00  0.00000000000E+00  0.24783350958E+04  0.24783350959E+04  0.50400001928E-02 0. -1.
       -1   -1    0    0    0  501  0.00000000000E+00  0.00000000000E+00 -0.14526201521E+04  0.14526201521E+04  0.50400001928E-02 0.  1.
    10030    2    1    2    0    0  0.00000000000E+00  0.00000000000E+00  0.10257149438E+04  0.39309552479E+04  0.37947750942E+04 0.  0.
        4    1    3    3  502    0 -0.22420019672E+03 -0.15919156365E+04  0.15568009598E+04  0.22378766640E+04  0.12699999809E+01 0. -1.
       -4    1    3    3    0  502  0.22420019672E+03  0.15919156365E+04 -0.53108601608E+03  0.16930785839E+04  0.12699999809E+01 0.  1.
</event>
<event>
 5   0  0.1150235E-07  0.3801389E+04  0.7818609E-02  0.8045857E-01
       -2   -1    0    0    0  501  0.00000000000E+00  0.00000000000E+00  0.13624737162E+04  0.13624737162E+04  0.25500000920E-02 0.  1.
        2   -1    0    0  501    0  0.00000000000E+00  0.00000000000E+00 -0.26515299144E+04  0.26515299144E+04  0.25500000920E-02 0. -1.
    10030    2    1    2    0    0  0.00000000000E+00  0.00000000000E+00 -0.12890561982E+04  0.40140036305E+04  0.38013891229E+04 0.  0.
        4    1    3    3  502    0  0.83775106677E+03  0.26715334507E+03  0.11347827024E+04  0.14355943557E+04  0.12699999809E+01 0.  1.
       -4    1    3    3    0  502 -0.83775106677E+03 -0.26715334507E+03 -0.24238389006E+04  0.25784092748E+04  0.12699999809E+01 0. -1.
</event>
<event>
 5   0  0.1193861E-07  0.3802211E+04  0.7818609E-02  0.8045680E-01
       -2   -1    0    0    0  501  0.00000000000E+00  0.00000000000E+00  0.22733959934E+04  0.22733959934E+04  0.25500000920E-02 0. -1.
        2   -1    0    0  501    0  0.00000000000E+00  0.00000000000E+00 -0.15897815253E+04  0.15897815253E+04  0.25500000920E-02 0.  1.
    10030    2    1    2    0    0  0.00000000000E+00  0.00000000000E+00  0.68361446805E+03  0.38631775187E+04  0.38022114355E+04 0.  0.
        3    1    3    3  502    0  0.17616702797E+04  0.68360207218E+03  0.13011830129E+03  0.18941290215E+04  0.10100000352E+00 0. -1.
       -3    1    3    3    0  502 -0.17616702797E+04 -0.68360207218E+03  0.55349616675E+03  0.19690484972E+04  0.10100000352E+00 0.  1.
</event>
<event>
 5   0  0.3701250E-08  0.3798510E+04  0.7818609E-02  0.8046475E-01
       -1   -1    0    0    0  501  0.00000000000E+00  0.00000000000E+00  0.24880033741E+04  0.24880033741E+04  0.50400001928E-02 0. -1.
        1   -1    0    0  501    0  0.00000000000E+00  0.00000000000E+00 -0.14498252692E+04  0.14498252692E+04  0.50400001928E-02 0.  1.
    10030    2    1    2    0    0  0.00000000000E+00  0.00000000000E+00  0.10381781049E+04  0.39378286433E+04  0.37985103194E+04 0.  0.
        4    1    3    3  502    0  0.14984457097E+03 -0.29438887824E+03  0.24579940530E+04  0.24800916484E+04  0.12699999809E+01 0. -1.
       -4    1    3    3    0  502 -0.14984457097E+03  0.29438887824E+03 -0.14198159481E+04  0.14577369949E+04  0.12699999809E+01 0.  1.
</event>
<event>
 5   0  0.1174870E-07  0.3818722E+04  0.7818609E-02  0.8042149E-01
        2   -1    0    0  501    0  0.00000000000E+00  0.00000000000E+00  0.31099590909E+04  0.31099590909E+04  0.25500000920E-02 0.  1.
       -2   -1    0    0    0  501  0.00000000000E+00  0.00000000000E+00 -0.11722532884E+04  0.11722532884E+04  0.25500000920E-02 0. -1.
    10030    2    1    2    0    0  0.00000000000E+00  0.00000000000E+00  0.19377058025E+04  0.42822123793E+04  0.38187221795E+04 0.  0.
        5    1    3    3  502    0  0.90715891577E+03  0.13331460126E+03  0.28469194050E+04  0.29909333442E+04  0.46999998093E+01 0.  1.
       -5    1    3    3    0  502 -0.90715891577E+03 -0.13331460126E+03 -0.90921360247E+03  0.12912790350E+04  0.46999998093E+01 0. -1.
</event>
<event>
 5   0  0.1174870E-07  0.3835082E+04  0.7818609E-02  0.8038668E-01
        2   -1    0    0  501    0  0.00000000000E+00  0.00000000000E+00  0.20131173000E+04  0.20131173000E+04  0.25500000920E-02 0. -1.
       -2   -1    0    0    0  501  0.00000000000E+00  0.00000000000E+00 -0.18265021351E+04  0.18265021351E+04  0.25500000920E-02 0.  1.
    10030    2    1    2    0    0  0.00000000000E+00  0.00000000000E+00  0.18661516486E+03  0.38396194351E+04  0.38350817705E+04 0.  0.
        5    1    3    3  502    0 -0.88127820378E+03 -0.17024850500E+04  0.50427726722E+02  0.19177256487E+04  0.46999998093E+01 0. -1.
       -5    1    3    3    0  502  0.88127820378E+03  0.17024850500E+04  0.13618743814E+03  0.19218937864E+04  0.46999998093E+01 0.  1.
</event>
<event>
 5   0  0.7858367E-08  0.3797198E+04  0.7818609E-02  0.8046756E-01
       -2   -1    0    0    0  501  0.00000000000E+00  0.00000000000E+00  0.18409683732E+04  0.18409683732E+04  0.25500000920E-02 0.  1.
        2   -1    0    0  501    0  0.00000000000E+00  0.00000000000E+00 -0.19580340158E+04  0.19580340158E+04  0.25500000920E-02 0. -1.
    10030    2    1    2    0    0  0.00000000000E+00  0.00000000000E+00 -0.11706564264E+03  0.37990023890E+04  0.37971982812E+04 0.  0.
        2    1    3    3  502    0 -0.12002385288E+04  0.96315906502E+03  0.10539445763E+04  0.18652203839E+04  0.25500000920E-02 0.  1.
       -2    1    3    3    0  502  0.12002385288E+04 -0.96315906502E+03 -0.11710102190E+04  0.19337820051E+04  0.25500000920E-02 0. -1.
</event>
<event>
 5   0  0.3701250E-08  0.3779340E+04  0.7818609E-02  0.8050603E-01
       -1   -1    0    0    0  501  0.00000000000E+00  0.00000000000E+00  0.21389330242E+04  0.21389330242E+04  0.50400001928E-02 0. -1.
        1   -1    0    0  501    0  0.00000000000E+00  0.00000000000E+00 -0.16694553367E+04  0.16694553367E+04  0.50400001928E-02 0.  1.
    10030    2    1    2    0    0  0.00000000000E+00  0.00000000000E+00  0.46947768755E+03  0.38083883609E+04  0.37793402345E+04 0.  0.
        3    1    3    3  502    0  0.73508217979E+03 -0.13822797706E+04 -0.83160533510E+03  0.17727409903E+04  0.10100000352E+00 0.  1.
       -3    1    3    3    0  502 -0.73508217979E+03  0.13822797706E+04  0.13010830227E+04  0.20356473705E+04  0.10100000352E+00 0. -1.
</event>
</LesHouchesEvents>
