<LesHouchesEvents version="3.0">
<header>
<!--
#*********************************************************************
#                                                                    *
#                        MadGraph5_aMC@NLO                           *
#                                                                    *
#                           Going Beyond                             *
#                                                                    *
#                   http://madgraph.hep.uiuc.edu                     *
#                   http://madgraph.phys.ucl.ac.be                   *
#                   http://amcatnlo.cern.ch                          *
#                                                                    *
#                     The MadGraph5_aMC@NLO team                     *
#                                                                    *
#....................................................................*
#                                                                    *
# This file contains all the information necessary to reproduce      *
# the events generated:                                              *
#                                                                    *
# 1. software version                                                *
# 2. proc_card          : code generation info including model       *
# 3. param_card         : model primary parameters in the LH format  *
# 4. run_card           : running parameters (collider and cuts)     *
# 5. pythia_card        : present only if pythia has been run        *
# 6. pgs_card           : present only if pgs has been run           *
# 7. delphes_cards      : present only if delphes has been run       *
#                                                                    *
#                                                                    *
#*********************************************************************
-->
<MGVersion>
#5.2.2.3
</MGVersion>
<MG5ProcCard>
#************************************************************
#*                     MadGraph5_aMC@NLO                    *
#*                                                          *
#*                *                       *                 *
#*                  *        * *        *                   *
#*                    * * * * 5 * * * *                     *
#*                  *        * *        *                   *
#*                *                       *                 *
#*                                                          *
#*                                                          *
#*         VERSION 2.2.3                 2015-02-10         *
#*                                                          *
#*    The MadGraph5_aMC@NLO Development Team - Find us at   *
#*    https://server06.fynu.ucl.ac.be/projects/madgraph     *
#*                                                          *
#************************************************************
#*                                                          *
#*               Command File for MadGraph5_aMC@NLO         *
#*                                                          *
#*     run as ./bin/mg5_aMC  filename                       *
#*                                                          *
#************************************************************
set group_subprocesses Auto
set ignore_six_quark_processes False
set loop_optimized_output True
set gauge unitary
set complex_mass_scheme False
import model sm
define p = g u c d s u~ c~ d~ s~
define j = g u c d s u~ c~ d~ s~
define l+ = e+ mu+
define l- = e- mu-
define vl = ve vm vt
define vl~ = ve~ vm~ vt~
import model Zprime_UFO
generate p p > zph, zph > j j
add process p p > zph, zph > b b~
output Dijet_signal
</MG5ProcCard>
<MGProcCard>
#*********************************************************************
#                        MadGraph/MadEvent                           *
#                   http://madgraph.hep.uiuc.edu                     *
#                                                                    *
#                          proc_card.dat                             *
#*********************************************************************
#                                                                    *
#            This Files is generated by MADGRAPH 5                   *
#                                                                    *
# WARNING: This Files is generated for MADEVENT (compatibility issue)*
#          This files is NOT a valid MG4 proc_card.dat               *
#          Running this in MG4 will NEVER reproduce the result of MG5*
#                                                                    *
#*********************************************************************
#*********************************************************************
# Process(es) requested : mg2 input                                  *
#*********************************************************************
# Begin PROCESS # This is TAG. Do not modify this line
p p > zph , zph > j j           #Process
# Be carefull the coupling are here in MG5 convention
          
end_coup           # End the couplings input

done               # this tells MG there are no more procs
# End PROCESS  # This is TAG. Do not modify this line
#*********************************************************************
# Model information                                                  *
#*********************************************************************
# Begin MODEL  # This is TAG. Do not modify this line
Zprime_UFO
# End   MODEL  # This is TAG. Do not modify this line
#*********************************************************************
# Start multiparticle definitions                                    *
#*********************************************************************
# Begin MULTIPARTICLES # This is TAG. Do not modify this line

# End  MULTIPARTICLES # This is TAG. Do not modify this line
</MGProcCard>
<MGRunCard>
#*********************************************************************
#                       MadGraph5_aMC@NLO                            *
#                                                                    *
#                     run_card.dat MadEvent                          *
#                                                                    *
#  This file is used to set the parameters of the run.               *
#                                                                    *
#  Some notation/conventions:                                        *
#                                                                    *
#   Lines starting with a '# ' are info or comments                  *
#                                                                    *
#   mind the format:   value    = variable     ! comment             *
#*********************************************************************
#
#*******************                                                 
# Running parameters
#*******************                                                 
#                                                                    
#*********************************************************************
# Tag name for the run (one word)                                    *
#*********************************************************************
  tag_1     = run_tag ! name of the run 
#*********************************************************************
# Run to generate the grid pack                                      *
#*********************************************************************
  .false.     = gridpack  !True = setting up the grid pack
#*********************************************************************
# Number of events and rnd seed                                      *
# Warning: Do not generate more than 1M events in a single run       *
# If you want to run Pythia, avoid more than 50k events in a run.    *
#*********************************************************************
  2000 = nevents ! Number of unweighted events requested 
 2019 = iseed   ! rnd seed (0=assigned automatically=default))
#*********************************************************************
# Collider type and energy                                           *
# lpp: 0=No PDF, 1=proton, -1=antiproton, 2=photon from proton,      *
#                                         3=photon from electron     *
#*********************************************************************
        1     = lpp1    ! beam 1 type 
        1     = lpp2    ! beam 2 type
     4000     = ebeam1  ! beam 1 total energy in GeV
     4000     = ebeam2  ! beam 2 total energy in GeV
#*********************************************************************
# Beam polarization from -100 (left-handed) to 100 (right-handed)    *
#*********************************************************************
        0     = polbeam1 ! beam polarization for beam 1
        0     = polbeam2 ! beam polarization for beam 2
#*********************************************************************
# PDF CHOICE: this automatically fixes also alpha_s and its evol.    *
#*********************************************************************
 'nn23lo1'    = pdlabel     ! PDF set                                     
 230000    = lhaid     ! if pdlabel=lhapdf, this is the lhapdf number
#*********************************************************************
# Renormalization and factorization scales                           *
#*********************************************************************
 F        = fixed_ren_scale  ! if .true. use fixed ren scale
 F        = fixed_fac_scale  ! if .true. use fixed fac scale
 91.1880  = scale            ! fixed ren scale
 91.1880  = dsqrt_q2fact1    ! fixed fact scale for pdf1
 91.1880  = dsqrt_q2fact2    ! fixed fact scale for pdf2
 1        = scalefact        ! scale factor for event-by-event scales
#*********************************************************************
# Matching - Warning! ickkw > 1 is still beta
#*********************************************************************
 0        = ickkw            ! 0 no matching, 1 MLM, 2 CKKW matching
 1        = highestmult      ! for ickkw=2, highest mult group
 1        = ktscheme         ! for ickkw=1, 1 Durham kT, 2 Pythia pTE
 1        = alpsfact         ! scale factor for QCD emission vx
 F        = chcluster        ! cluster only according to channel diag
 T        = pdfwgt           ! for ickkw=1, perform pdf reweighting
 5        = asrwgtflavor     ! highest quark flavor for a_s reweight
 T        = clusinfo         ! include clustering tag in output
 3.0      = lhe_version       ! Change the way clustering information pass to shower.        
#*********************************************************************
#**********************************************************
#
#**********************************************************
# Automatic ptj and mjj cuts if xqcut > 0
# (turn off for VBF and single top processes)
#**********************************************************
   T  = auto_ptj_mjj  ! Automatic setting of ptj and mjj
#**********************************************************
#                                                                    
#**********************************
# BW cutoff (M+/-bwcutoff*Gamma)
#**********************************
  15  = bwcutoff      ! (M+/-bwcutoff*Gamma)
#**********************************************************
# Apply pt/E/eta/dr/mij cuts on decay products or not
# (note that etmiss/ptll/ptheavy/ht/sorted cuts always apply)
#**********************************************************
   T  = cut_decays    ! Cut decay products 
#*************************************************************
# Number of helicities to sum per event (0 = all helicities)
# 0 gives more stable result, but longer run time (needed for
# long decay chains e.g.).
# Use >=2 if most helicities contribute, e.g. pure QCD.
#*************************************************************
   0  = nhel          ! Number of helicities used per event
#*******************                                                 
# Standard Cuts
#*******************                                                 
#                                                                    
#*********************************************************************
# Minimum and maximum pt's (for max, -1 means no cut)                *
#*********************************************************************
 20  = ptj       ! minimum pt for the jets 
  0  = ptb       ! minimum pt for the b 
 10  = pta       ! minimum pt for the photons 
 10  = ptl       ! minimum pt for the charged leptons 
  0  = misset    ! minimum missing Et (sum of neutrino's momenta)
  0  = ptheavy   ! minimum pt for one heavy final state
 1.0 = ptonium   ! minimum pt for the quarkonium states
 -1  = ptjmax    ! maximum pt for the jets
 -1  = ptbmax    ! maximum pt for the b
 -1  = ptamax    ! maximum pt for the photons
 -1  = ptlmax    ! maximum pt for the charged leptons
 -1  = missetmax ! maximum missing Et (sum of neutrino's momenta)
#*********************************************************************
# Minimum and maximum E's (in the center of mass frame)              *
#*********************************************************************
  0  = ej     ! minimum E for the jets 
  0  = eb     ! minimum E for the b 
  0  = ea     ! minimum E for the photons 
  0  = el     ! minimum E for the charged leptons 
 -1   = ejmax ! maximum E for the jets
 -1   = ebmax ! maximum E for the b
 -1   = eamax ! maximum E for the photons
 -1   = elmax ! maximum E for the charged leptons
#*********************************************************************
# Maximum and minimum absolute rapidity (for max, -1 means no cut)   *
#*********************************************************************
   5  = etaj    ! max rap for the jets 
  -1  = etab    ! max rap for the b
 2.5  = etaa    ! max rap for the photons 
 2.5  = etal    ! max rap for the charged leptons 
 0.6  = etaonium ! max rap for the quarkonium states
   0  = etajmin ! min rap for the jets
   0  = etabmin ! min rap for the b
   0  = etaamin ! min rap for the photons
   0  = etalmin ! main rap for the charged leptons
#*********************************************************************
# Minimum and maximum DeltaR distance                                *
#*********************************************************************
 0.4 = drjj    ! min distance between jets 
 0   = drbb    ! min distance between b's 
 0.4 = drll    ! min distance between leptons 
 0.4 = draa    ! min distance between gammas 
 0   = drbj    ! min distance between b and jet 
 0.4 = draj    ! min distance between gamma and jet 
 0.4 = drjl    ! min distance between jet and lepton 
 0   = drab    ! min distance between gamma and b 
 0   = drbl    ! min distance between b and lepton 
 0.4 = dral    ! min distance between gamma and lepton 
 -1  = drjjmax ! max distance between jets
 -1  = drbbmax ! max distance between b's
 -1  = drllmax ! max distance between leptons
 -1  = draamax ! max distance between gammas
 -1  = drbjmax ! max distance between b and jet
 -1  = drajmax ! max distance between gamma and jet
 -1  = drjlmax ! max distance between jet and lepton
 -1  = drabmax ! max distance between gamma and b
 -1  = drblmax ! max distance between b and lepton
 -1  = dralmax ! maxdistance between gamma and lepton
#*********************************************************************
# Minimum and maximum invariant mass for pairs                       *
# WARNING: for four lepton final state mmll cut require to have      *
#          different lepton masses for each flavor!                  *           
#*********************************************************************
 0   = mmjj    ! min invariant mass of a jet pair 
 0   = mmbb    ! min invariant mass of a b pair 
 0   = mmaa    ! min invariant mass of gamma gamma pair
 0   = mmll    ! min invariant mass of l+l- (same flavour) lepton pair
 -1  = mmjjmax ! max invariant mass of a jet pair
 -1  = mmbbmax ! max invariant mass of a b pair
 -1  = mmaamax ! max invariant mass of gamma gamma pair
 -1  = mmllmax ! max invariant mass of l+l- (same flavour) lepton pair
#*********************************************************************
# Minimum and maximum invariant mass for all letpons                 *
#*********************************************************************
 0   = mmnl    ! min invariant mass for all letpons (l+- and vl) 
 -1  = mmnlmax ! max invariant mass for all letpons (l+- and vl) 
#*********************************************************************
# Minimum and maximum pt for 4-momenta sum of leptons                *
#*********************************************************************
 0   = ptllmin  ! Minimum pt for 4-momenta sum of leptons(l and vl)
 -1  = ptllmax  ! Maximum pt for 4-momenta sum of leptons(l and vl)
#*********************************************************************
# Inclusive cuts                                                     *
#*********************************************************************
 0  = xptj ! minimum pt for at least one jet  
 0  = xptb ! minimum pt for at least one b 
 0  = xpta ! minimum pt for at least one photon 
 0  = xptl ! minimum pt for at least one charged lepton 
#*********************************************************************
# Control the pt's of the jets sorted by pt                          *
#*********************************************************************
 0   = ptj1min ! minimum pt for the leading jet in pt
 0   = ptj2min ! minimum pt for the second jet in pt
 0   = ptj3min ! minimum pt for the third jet in pt
 0   = ptj4min ! minimum pt for the fourth jet in pt
 -1  = ptj1max ! maximum pt for the leading jet in pt 
 -1  = ptj2max ! maximum pt for the second jet in pt
 -1  = ptj3max ! maximum pt for the third jet in pt
 -1  = ptj4max ! maximum pt for the fourth jet in pt
 0   = cutuse  ! reject event if fails any (0) / all (1) jet pt cuts
#*********************************************************************
# Control the pt's of leptons sorted by pt                           *
#*********************************************************************
 0   = ptl1min ! minimum pt for the leading lepton in pt
 0   = ptl2min ! minimum pt for the second lepton in pt
 0   = ptl3min ! minimum pt for the third lepton in pt
 0   = ptl4min ! minimum pt for the fourth lepton in pt
 -1  = ptl1max ! maximum pt for the leading lepton in pt 
 -1  = ptl2max ! maximum pt for the second lepton in pt
 -1  = ptl3max ! maximum pt for the third lepton in pt
 -1  = ptl4max ! maximum pt for the fourth lepton in pt
#*********************************************************************
# Control the Ht(k)=Sum of k leading jets                            *
#*********************************************************************
 0   = htjmin ! minimum jet HT=Sum(jet pt)
 -1  = htjmax ! maximum jet HT=Sum(jet pt)
 0   = ihtmin  !inclusive Ht for all partons (including b)
 -1  = ihtmax  !inclusive Ht for all partons (including b)
 0   = ht2min ! minimum Ht for the two leading jets
 0   = ht3min ! minimum Ht for the three leading jets
 0   = ht4min ! minimum Ht for the four leading jets
 -1  = ht2max ! maximum Ht for the two leading jets
 -1  = ht3max ! maximum Ht for the three leading jets
 -1  = ht4max ! maximum Ht for the four leading jets
#***********************************************************************
# Photon-isolation cuts, according to hep-ph/9801442                   *
# When ptgmin=0, all the other parameters are ignored                  *
# When ptgmin>0, pta and draj are not going to be used                 *
#***********************************************************************
   0 = ptgmin ! Min photon transverse momentum
 0.4 = R0gamma ! Radius of isolation code
 1.0 = xn ! n parameter of eq.(3.4) in hep-ph/9801442
 1.0 = epsgamma ! epsilon_gamma parameter of eq.(3.4) in hep-ph/9801442
 .true. = isoEM ! isolate photons from EM energy (photons and leptons)
#*********************************************************************
# WBF cuts                                                           *
#*********************************************************************
 0   = xetamin ! minimum rapidity for two jets in the WBF case  
 0   = deltaeta ! minimum rapidity for two jets in the WBF case 
#*********************************************************************
# KT DURHAM CUT                                                      *
#*********************************************************************
 -1    =  ktdurham        
 0.4  =  dparameter 
#*********************************************************************
# maximal pdg code for quark to be considered as a light jet         *
# (otherwise b cuts are applied)                                     *
#*********************************************************************
 4 = maxjetflavor    ! Maximum jet pdg code
#*********************************************************************
# Jet measure cuts                                                   *
#*********************************************************************
 0   = xqcut   ! minimum kt jet measure between partons
#*********************************************************************
#
#*********************************************************************
# Store info for systematics studies                                 *
# WARNING: If use_syst is T, matched Pythia output is                *
#          meaningful ONLY if plotted taking matchscale              *
#          reweighting into account!                                 *
#*********************************************************************
   F  = use_syst      ! Enable systematics studies
#
#**************************************
# Parameter of the systematics study
#  will be used by SysCalc (if installed)
#**************************************                                  
#
0.5 1 2 = sys_scalefact  # factorization/renormalization scale factor
0.5 1 2 = sys_alpsfact  # \alpha_s emission scale factors
30 50 = sys_matchscale # variation of merging scale
# PDF sets and number of members (0 or none for all members).
CT10nlo.LHgrid = sys_pdf # matching scales
# MSTW2008nlo68cl.LHgrid 1  = sys_pdf
</MGRunCard>
<slha>
######################################################################
## PARAM_CARD AUTOMATICALY GENERATED BY MG5 FOLLOWING UFO MODEL   ####
######################################################################
##                                                                  ##
##  Width set on Auto will be computed following the information    ##
##        present in the decay.py files of the model.               ##
##        See  arXiv:1402.1178 for more details.                    ##
##                                                                  ##
######################################################################

###################################
## INFORMATION FOR CKMBLOCK
###################################
Block ckmblock 
    1 2.277360e-01 # cabi 

###################################
## INFORMATION FOR FRBLOCK
###################################
Block frblock 
    1 1.000000e+00 # gz 

###################################
## INFORMATION FOR MASS
###################################
Block mass 
    1 5.040000e-03 # MD 
    2 2.550000e-03 # MU 
    3 1.010000e-01 # MS 
    4 1.270000e+00 # MC 
    5 4.700000e+00 # MB 
    6 1.720000e+02 # MT 
   11 5.110000e-04 # Me 
   13 1.056600e-01 # MM 
   15 1.777000e+00 # MTA 
   23 9.118760e+01 # MZ 
   25 1.200000e+02 # MH 
  10030 3.000000e+03 # MZph 
  10031 3.000000e+02 # MZpl 
## Dependent parameters, given by model restrictions.
## Those values should be edited following the 
## analytical expression. MG5 ignores those values 
## but they are important for interfacing the output of MG5
## to external program such as Pythia.
  12 0.000000 # ve : 0.0 
  14 0.000000 # vm : 0.0 
  16 0.000000 # vt : 0.0 
  21 0.000000 # g : 0.0 
  22 0.000000 # a : 0.0 
  24 79.824360 # w+ : cmath.sqrt(MZ__exp__2/2. + cmath.sqrt(MZ__exp__4/4. - (aEW*cmath.pi*MZ__exp__2)/(Gf*sqrt__2))) 

###################################
## INFORMATION FOR SMINPUTS
###################################
Block sminputs 
    1 1.279000e+02 # aEWM1 
    2 1.166370e-05 # Gf 
    3 1.184000e-01 # aS 

###################################
## INFORMATION FOR YUKAWA
###################################
Block yukawa 
    1 5.040000e-03 # ymdo 
    2 2.550000e-03 # ymup 
    3 1.010000e-01 # yms 
    4 1.270000e+00 # ymc 
    5 4.700000e+00 # ymb 
    6 1.720000e+02 # ymt 
   11 5.110000e-04 # yme 
   13 1.056600e-01 # ymm 
   15 1.777000e+00 # ymtau 

###################################
## INFORMATION FOR DECAY
###################################
DECAY   6 1.508336e+00 # WT 
DECAY  23 2.495200e+00 # WZ 
DECAY  24 2.085000e+00 # WW 
DECAY  25 5.753088e-03 # WH 
## Dependent parameters, given by model restrictions.
## Those values should be edited following the 
## analytical expression. MG5 ignores those values 
## but they are important for interfacing the output of MG5
## to external program such as Pythia.
DECAY  1 0.000000 # d : 0.0 
DECAY  2 0.000000 # u : 0.0 
DECAY  3 0.000000 # s : 0.0 
DECAY  4 0.000000 # c : 0.0 
DECAY  5 0.000000 # b : 0.0 
DECAY  11 0.000000 # e- : 0.0 
DECAY  12 0.000000 # ve : 0.0 
DECAY  13 0.000000 # mu- : 0.0 
DECAY  14 0.000000 # vm : 0.0 
DECAY  15 0.000000 # ta- : 0.0 
DECAY  16 0.000000 # vt : 0.0 
DECAY  21 0.000000 # g : 0.0 
DECAY  22 0.000000 # a : 0.0 
DECAY  10030 0.308725 # zph : (gz__exp__2*MZph*(5 + cmath.sqrt(1 - (4*MT__exp__2)/MZph__exp__2)))/(144.*cmath.pi) 
DECAY  10031 0.132629 # zpl : (5*gz__exp__2*MZpl)/(144.*cmath.pi) 
#===========================================================
# QUANTUM NUMBERS OF NEW STATE(S) (NON SM PDG CODE)
#===========================================================

Block QNUMBERS 10030  # zph 
        1 0  # 3 times electric charge
        2 3  # number of spin states (2S+1)
        3 1  # colour rep (1: singlet, 3: triplet, 8: octet)
        4 0  # Particle/Antiparticle distinction (0=own anti)
Block QNUMBERS 10031  # zpl 
        1 0  # 3 times electric charge
        2 3  # number of spin states (2S+1)
        3 1  # colour rep (1: singlet, 3: triplet, 8: octet)
        4 0  # Particle/Antiparticle distinction (0=own anti)
</slha>
## END BANNER##
<MGGenerationInfo>
#  Number of Events        :         3888
#  Integrated weight (pb)  :  0.12363E-02
#  Max wgt                 :  0.50036E-06
#  Average wgt             :  0.31798E-06
</MGGenerationInfo>
</header>
<init>
     2212     2212  0.40000000000E+04  0.40000000000E+04 0 0  247000  247000 2   1
  0.12373071457E-02  0.30494822235E-05  0.50035560000E-06   0
</init>
<event>
 5   0  0.4768570E-06  0.2954281E+04  0.7818609E-02  0.8256908E-01
       -2   -1    0    0    0  501  0.00000000000E+00  0.00000000000E+00  0.25682831630E+04  0.25682831630E+04  0.25500000920E-02 0.  1.
        2   -1    0    0  501    0  0.00000000000E+00  0.00000000000E+00 -0.84957280315E+03  0.84957280315E+03  0.25500000920E-02 0. -1.
    10030    2    1    2    0    0  0.00000000000E+00  0.00000000000E+00  0.17187103598E+04  0.34178559661E+04  0.29542806407E+04 0.  0.
        1    1    3    3  502    0 -0.12812462243E+04 -0.29891704427E+03  0.82409968169E+02  0.13182316525E+04  0.50400001928E-02 0. -1.
       -1    1    3    3    0  502  0.12812462243E+04  0.29891704427E+03  0.16363003917E+04  0.20996243137E+04  0.50400001928E-02 0.  1.
</event>
<event>
 5   0  0.4768570E-06  0.3012801E+04  0.7818609E-02  0.8240085E-01
        2   -1    0    0  501    0  0.00000000000E+00  0.00000000000E+00  0.21634948459E+04  0.21634948459E+04  0.25500000920E-02 0.  1.
       -2   -1    0    0    0  501  0.00000000000E+00  0.00000000000E+00 -0.10488779156E+04  0.10488779156E+04  0.25500000920E-02 0. -1.
    10030    2    1    2    0    0  0.00000000000E+00  0.00000000000E+00  0.11146169303E+04  0.32123727615E+04  0.30128006667E+04 0.  0.
        1    1    3    3  502    0  0.43230322885E+03 -0.26821788674E+02 -0.98105154008E+03  0.10724120544E+04  0.50400001928E-02 0. -1.
       -1    1    3    3    0  502 -0.43230322885E+03  0.26821788674E+02  0.20956684704E+04  0.21399607071E+04  0.50400001928E-02 0.  1.
</event>
<event>
 5   0  0.5003556E-06  0.3007711E+04  0.7818609E-02  0.8241532E-01
       -2   -1    0    0    0  501  0.00000000000E+00  0.00000000000E+00  0.14562131274E+04  0.14562131274E+04  0.25500000920E-02 0.  1.
        2   -1    0    0  501    0  0.00000000000E+00  0.00000000000E+00 -0.15530568387E+04  0.15530568387E+04  0.25500000920E-02 0. -1.
    10030    2    1    2    0    0  0.00000000000E+00  0.00000000000E+00 -0.96843711243E+02  0.30092699661E+04  0.30077112602E+04 0.  0.
        3    1    3    3  502    0  0.48442728154E+03 -0.11082517756E+03 -0.14685339588E+04  0.15503367406E+04  0.10100000352E+00 0. -1.
       -3    1    3    3    0  502 -0.48442728154E+03  0.11082517756E+03  0.13716902475E+04  0.14589332255E+04  0.10100000352E+00 0.  1.
</event>
<event>
 5   0  0.4768570E-06  0.3017715E+04  0.7818609E-02  0.8238690E-01
       -2   -1    0    0    0  501  0.00000000000E+00  0.00000000000E+00  0.11516914921E+04  0.11516914921E+04  0.25500000920E-02 0.  1.
        2   -1    0    0  501    0  0.00000000000E+00  0.00000000000E+00 -0.19767895493E+04  0.19767895493E+04  0.25500000920E-02 0. -1.
    10030    2    1    2    0    0  0.00000000000E+00  0.00000000000E+00 -0.82509805719E+03  0.31284810415E+04  0.30177154973E+04 0.  0.
        1    1    3    3  502    0 -0.34933365668E+02  0.46357454802E+03  0.10755941081E+04  0.11717612330E+04  0.50400001928E-02 0.  1.
       -1    1    3    3    0  502  0.34933365668E+02 -0.46357454802E+03 -0.19006921653E+04  0.19567198085E+04  0.50400001928E-02 0. -1.
</event>
<event>
 5   0  0.5003556E-06  0.3023655E+04  0.7818609E-02  0.8237008E-01
       -2   -1    0    0    0  501  0.00000000000E+00  0.00000000000E+00  0.85849508340E+03  0.85849508340E+03  0.25500000920E-02 0. -1.
        2   -1    0    0  501    0  0.00000000000E+00  0.00000000000E+00 -0.26623591935E+04  0.26623591935E+04  0.25500000920E-02 0.  1.
    10030    2    1    2    0    0  0.00000000000E+00  0.00000000000E+00 -0.18038641101E+04  0.35208542769E+04  0.30236549260E+04 0.  0.
        3    1    3    3  502    0 -0.36994141467E+03 -0.10228762968E+04 -0.21245847090E+04  0.23868373981E+04  0.10100000352E+00 0.  1.
       -3    1    3    3    0  502  0.36994141467E+03  0.10228762968E+04  0.32072059892E+03  0.11340168788E+04  0.10100000352E+00 0. -1.
</event>
<event>
 5   0  0.1700885E-06  0.3015336E+04  0.7818609E-02  0.8239365E-01
        1   -1    0    0  501    0  0.00000000000E+00  0.00000000000E+00  0.22982560273E+04  0.22982560273E+04  0.50400001928E-02 0. -1.
       -1   -1    0    0    0  501  0.00000000000E+00  0.00000000000E+00 -0.98903816558E+03  0.98903816559E+03  0.50400001928E-02 0.  1.
    10030    2    1    2    0    0  0.00000000000E+00  0.00000000000E+00  0.13092178617E+04  0.32872941929E+04  0.30153360843E+04 0.  0.
        1    1    3    3  502    0 -0.35158098671E+03 -0.98990698933E+03  0.18335985885E+04  0.21131987179E+04  0.50400001928E-02 0. -1.
       -1    1    3    3    0  502  0.35158098671E+03  0.98990698933E+03 -0.52438072676E+03  0.11740954750E+04  0.50400001928E-02 0.  1.
</event>
<event>
 5   0  0.1709858E-06  0.3013895E+04  0.7818609E-02  0.8239774E-01
       -1   -1    0    0    0  501  0.00000000000E+00  0.00000000000E+00  0.11203470881E+04  0.11203470881E+04  0.50400001928E-02 0.  1.
        1   -1    0    0  501    0  0.00000000000E+00  0.00000000000E+00 -0.20269524844E+04  0.20269524844E+04  0.50400001928E-02 0. -1.
    10030    2    1    2    0    0  0.00000000000E+00  0.00000000000E+00 -0.90660539630E+03  0.31472995725E+04  0.30138946986E+04 0.  0.
        3    1    3    3  502    0 -0.97008139986E+03 -0.95515462103E+03 -0.11280552031E+04  0.17680177668E+04  0.10100000352E+00 0. -1.
       -3    1    3    3    0  502  0.97008139986E+03  0.95515462103E+03  0.22144980676E+03  0.13792818057E+04  0.10100000352E+00 0.  1.
</event>
<event>
 5   0  0.4768570E-06  0.3016353E+04  0.7818609E-02  0.8239076E-01
       -2   -1    0    0    0  501  0.00000000000E+00  0.00000000000E+00  0.26136831095E+04  0.26136831095E+04  0.25500000920E-02 0. -1.
        2   -1    0    0  501    0  0.00000000000E+00  0.00000000000E+00 -0.87026494348E+03  0.87026494348E+03  0.25500000920E-02 0.  1.
    10030    2    1    2    0    0  0.00000000000E+00  0.00000000000E+00  0.17434181660E+04  0.34839480530E+04  0.30163532841E+04 0.  0.
        1    1    3    3  502    0 -0.72859004484E+03  0.11099460394E+04  0.16979909090E+04  0.21554574435E+04  0.50400001928E-02 0. -1.
       -1    1    3    3    0  502  0.72859004484E+03 -0.11099460394E+04  0.45427257087E+02  0.13284906095E+04  0.50400001928E-02 0.  1.
</event>
<event>
 5   0  0.1734885E-06  0.3000284E+04  0.7818609E-02  0.8243650E-01
        1   -1    0    0  501    0  0.00000000000E+00  0.00000000000E+00  0.18184203545E+04  0.18184203545E+04  0.50400001928E-02 0.  1.
       -1   -1    0    0    0  501  0.00000000000E+00  0.00000000000E+00 -0.12375717163E+04  0.12375717163E+04  0.50400001928E-02 0. -1.
    10030    2    1    2    0    0  0.00000000000E+00  0.00000000000E+00  0.58084863828E+03  0.30559920708E+04  0.30002837193E+04 0.  0.
        2    1    3    3  502    0  0.45491135527E+02 -0.12512509891E+04 -0.55119069477E+03  0.13680313092E+04  0.25500000920E-02 0. -1.
       -2    1    3    3    0  502 -0.45491135527E+02  0.12512509891E+04  0.11320393330E+04  0.16879607616E+04  0.25500000920E-02 0.  1.
</event>
<event>
 5   0  0.4768570E-06  0.2899268E+04  0.7818609E-02  0.8273095E-01
       -2   -1    0    0    0  501  0.00000000000E+00  0.00000000000E+00  0.10250609942E+04  0.10250609942E+04  0.25500000920E-02 0.  1.
        2   -1    0    0  501    0  0.00000000000E+00  0.00000000000E+00 -0.20500624048E+04  0.20500624048E+04  0.25500000920E-02 0. -1.
    10030    2    1    2    0    0  0.00000000000E+00  0.00000000000E+00 -0.10250014106E+04  0.30751233990E+04  0.28992681882E+04 0.  0.
        1    1    3    3  502    0 -0.10796353967E+04 -0.66983999693E+03  0.22778848532E+03  0.12908081985E+04  0.50400001928E-02 0.  1.
       -1    1    3    3    0  502  0.10796353967E+04  0.66983999693E+03 -0.12527898960E+04  0.17843152005E+04  0.50400001928E-02 0. -1.
</event>
<event>
 5   0  0.1734885E-06  0.2983857E+04  0.7818609E-02  0.8248356E-01
       -1   -1    0    0    0  501  0.00000000000E+00  0.00000000000E+00  0.19328110045E+04  0.19328110045E+04  0.50400001928E-02 0.  1.
        1   -1    0    0  501    0  0.00000000000E+00  0.00000000000E+00 -0.11516128095E+04  0.11516128095E+04  0.50400001928E-02 0. -1.
    10030    2    1    2    0    0  0.00000000000E+00  0.00000000000E+00  0.78119819506E+03  0.30844238140E+04  0.29838565053E+04 0.  0.
        2    1    3    3  502    0 -0.13256669689E+04  0.61732308887E+03  0.85054014237E+02  0.14648258920E+04  0.25500000920E-02 0. -1.
       -2    1    3    3    0  502  0.13256669689E+04 -0.61732308887E+03  0.69614418082E+03  0.16195979220E+04  0.25500000920E-02 0.  1.
</event>
<event>
 5   0  0.4935331E-06  0.2998782E+04  0.7818609E-02  0.8244079E-01
       -2   -1    0    0    0  501  0.00000000000E+00  0.00000000000E+00  0.13925597323E+04  0.13925597323E+04  0.25500000920E-02 0. -1.
        2   -1    0    0  501    0  0.00000000000E+00  0.00000000000E+00 -0.16144173966E+04  0.16144173966E+04  0.25500000920E-02 0.  1.
    10030    2    1    2    0    0  0.00000000000E+00  0.00000000000E+00 -0.22185766434E+03  0.30069771289E+04  0.29987815243E+04 0.  0.
        5    1    3    3  502    0 -0.13534278116E+04  0.34556804499E+03  0.43550677840E+03  0.14631720196E+04  0.46999998093E+01 0. -1.
       -5    1    3    3    0  502  0.13534278116E+04 -0.34556804499E+03 -0.65736444274E+03  0.15438051093E+04  0.46999998093E+01 0.  1.
</event>
<event>
 5   0  0.1672907E-06  0.3043935E+04  0.7818609E-02  0.8231295E-01
       -1   -1    0    0    0  501  0.00000000000E+00  0.00000000000E+00  0.18496184480E+04  0.18496184480E+04  0.50400001928E-02 0.  1.
        1   -1    0    0  501    0  0.00000000000E+00  0.00000000000E+00 -0.12523584808E+04  0.12523584808E+04  0.50400001928E-02 0. -1.
    10030    2    1    2    0    0  0.00000000000E+00  0.00000000000E+00  0.59725996717E+03  0.31019769288E+04  0.30439351830E+04 0.  0.
        5    1    3    3  502    0 -0.71395051722E+02 -0.13237961864E+04 -0.46317338425E+03  0.14043095352E+04  0.46999998093E+01 0. -1.
       -5    1    3    3    0  502  0.71395051722E+02  0.13237961864E+04  0.10604333514E+04  0.16976673936E+04  0.46999998093E+01 0.  1.
</event>
<event>
 5   0  0.1700885E-06  0.3000975E+04  0.7818609E-02  0.8243453E-01
        1   -1    0    0  501    0  0.00000000000E+00  0.00000000000E+00  0.13861830073E+04  0.13861830073E+04  0.50400001928E-02 0.  1.
       -1   -1    0    0    0  501  0.00000000000E+00  0.00000000000E+00 -0.16242175922E+04  0.16242175922E+04  0.50400001928E-02 0. -1.
    10030    2    1    2    0    0  0.00000000000E+00  0.00000000000E+00 -0.23803458488E+03  0.30104005994E+04  0.30009750591E+04 0.  0.
        1    1    3    3  502    0  0.63572255936E+03  0.27794434145E+03  0.12155998813E+04  0.13996711403E+04  0.50400001928E-02 0.  1.
       -1    1    3    3    0  502 -0.63572255936E+03 -0.27794434145E+03 -0.14536344662E+04  0.16107294592E+04  0.50400001928E-02 0. -1.
</event>
<event>
 5   0  0.1709858E-06  0.3098034E+04  0.7818609E-02  0.8216278E-01
        1   -1    0    0  501    0  0.00000000000E+00  0.00000000000E+00  0.11897528193E+04  0.11897528194E+04  0.50400001928E-02 0. -1.
       -1   -1    0    0    0  501  0.00000000000E+00  0.00000000000E+00 -0.20167665503E+04  0.20167665503E+04  0.50400001928E-02 0.  1.
    10030    2    1    2    0    0  0.00000000000E+00  0.00000000000E+00 -0.82701373093E+03  0.32065193696E+04  0.30980340148E+04 0.  0.
        3    1    3    3  502    0  0.21694090076E+03 -0.10284143548E+04  0.76421125391E+03  0.12995069412E+04  0.10100000352E+00 0. -1.
       -3    1    3    3    0  502 -0.21694090076E+03  0.10284143548E+04 -0.15912249848E+04  0.19070124284E+04  0.10100000352E+00 0.  1.
</event>
<event>
 5   0  0.1709858E-06  0.2965123E+04  0.7818609E-02  0.8253761E-01
       -1   -1    0    0    0  501  0.00000000000E+00  0.00000000000E+00  0.11767631870E+04  0.11767631871E+04  0.50400001928E-02 0. -1.
        1   -1    0    0  501    0  0.00000000000E+00  0.00000000000E+00 -0.18678255681E+04  0.18678255681E+04  0.50400001928E-02 0.  1.
    10030    2    1    2    0    0  0.00000000000E+00  0.00000000000E+00 -0.69106238109E+03  0.30445887552E+04  0.29651228429E+04 0.  0.
        3    1    3    3  502    0  0.14648239594E+03 -0.12159226387E+04  0.51236232132E+03  0.13275692503E+04  0.10100000352E+00 0. -1.
       -3    1    3    3    0  502 -0.14648239594E+03  0.12159226387E+04 -0.12034247024E+04  0.17170195049E+04  0.10100000352E+00 0.  1.
</event>
<event>
 5   0  0.4768570E-06  0.2412307E+04  0.7818609E-02  0.8434910E-01
        2   -1    0    0  501    0  0.00000000000E+00  0.00000000000E+00  0.17958223816E+04  0.17958223816E+04  0.25500000920E-02 0.  1.
       -2   -1    0    0    0  501  0.00000000000E+00  0.00000000000E+00 -0.81010616227E+03  0.81010616227E+03  0.25500000920E-02 0. -1.
    10030    2    1    2    0    0  0.00000000000E+00  0.00000000000E+00  0.98571621937E+03  0.26059285439E+04  0.24123074246E+04 0.  0.
        1    1    3    3  502    0  0.10167541804E+04  0.39596184285E+02 -0.20677422760E+03  0.10383219647E+04  0.50400001928E-02 0. -1.
       -1    1    3    3    0  502 -0.10167541804E+04 -0.39596184285E+02  0.11924904470E+04  0.15676065792E+04  0.50400001928E-02 0.  1.
</event>
<event>
 5   0  0.1686012E-06  0.2995372E+04  0.7818609E-02  0.8245054E-01
       -1   -1    0    0    0  501  0.00000000000E+00  0.00000000000E+00  0.88148699961E+03  0.88148699962E+03  0.50400001928E-02 0. -1.
        1   -1    0    0  501    0  0.00000000000E+00  0.00000000000E+00 -0.25446364424E+04  0.25446364425E+04  0.50400001928E-02 0.  1.
    10030    2    1    2    0    0  0.00000000000E+00  0.00000000000E+00 -0.16631494428E+04  0.34261234421E+04  0.29953723927E+04 0.  0.
        4    1    3    3  502    0  0.84383502698E+03 -0.88803989337E+03 -0.18171010211E+04  0.21914675765E+04  0.12699999809E+01 0.  1.
       -4    1    3    3    0  502 -0.84383502698E+03  0.88803989337E+03  0.15395157831E+03  0.12346558656E+04  0.12699999809E+01 0. -1.
</event>
<event>
 5   0  0.1700885E-06  0.3084938E+04  0.7818609E-02  0.8219884E-01
        1   -1    0    0  501    0  0.00000000000E+00  0.00000000000E+00  0.14107810094E+04  0.14107810095E+04  0.50400001928E-02 0. -1.
       -1   -1    0    0    0  501  0.00000000000E+00  0.00000000000E+00 -0.16864493164E+04  0.16864493164E+04  0.50400001928E-02 0.  1.
    10030    2    1    2    0    0  0.00000000000E+00  0.00000000000E+00 -0.27566830694E+03  0.30972303258E+04  0.30849380344E+04 0.  0.
        1    1    3    3  502    0  0.12731378571E+04 -0.82138127911E+03 -0.42823305493E+03  0.15744620536E+04  0.50400001928E-02 0. -1.
       -1    1    3    3    0  502 -0.12731378571E+04  0.82138127911E+03  0.15256474798E+03  0.15227682723E+04  0.50400001928E-02 0.  1.
</event>
<event>
 5   0  0.4702748E-06  0.2936569E+04  0.7818609E-02  0.8262080E-01
       -2   -1    0    0    0  501  0.00000000000E+00  0.00000000000E+00  0.10255285579E+04  0.10255285579E+04  0.25500000920E-02 0.  1.
        2   -1    0    0  501    0  0.00000000000E+00  0.00000000000E+00 -0.21021929951E+04  0.21021929951E+04  0.25500000920E-02 0. -1.
    10030    2    1    2    0    0  0.00000000000E+00  0.00000000000E+00 -0.10766644372E+04  0.31277215529E+04  0.29365687124E+04 0.  0.
        2    1    3    3  502    0 -0.10434032829E+04 -0.99496490776E+03 -0.24237143032E+03  0.14619813572E+04  0.25500000920E-02 0. -1.
       -2    1    3    3    0  502  0.10434032829E+04  0.99496490776E+03 -0.83429300684E+03  0.16657401958E+04  0.25500000920E-02 0.  1.
</event>
<event>
 5   0  0.1709858E-06  0.2919573E+04  0.7818609E-02  0.8267078E-01
        1   -1    0    0  501    0  0.00000000000E+00  0.00000000000E+00  0.29589100297E+04  0.29589100297E+04  0.50400001928E-02 0. -1.
       -1   -1    0    0    0  501  0.00000000000E+00  0.00000000000E+00 -0.72018993519E+03  0.72018993520E+03  0.50400001928E-02 0.  1.
    10030    2    1    2    0    0  0.00000000000E+00  0.00000000000E+00  0.22387200945E+04  0.36790999649E+04  0.29195734089E+04 0.  0.
        3    1    3    3  502    0  0.24554948252E+03 -0.12322231507E+04  0.20558716421E+04  0.24094141738E+04  0.10100000352E+00 0. -1.
       -3    1    3    3    0  502 -0.24554948252E+03  0.12322231507E+04  0.18284845237E+03  0.12696857912E+04  0.10100000352E+00 0.  1.
</event>
<event>
 5   0  0.5003556E-06  0.3035231E+04  0.7818609E-02  0.8233741E-01
       -2   -1    0    0    0  501  0.00000000000E+00  0.00000000000E+00  0.10043624604E+04  0.10043624604E+04  0.25500000920E-02 0.  1.
        2   -1    0    0  501    0  0.00000000000E+00  0.00000000000E+00 -0.22931528909E+04  0.22931528909E+04  0.25500000920E-02 0. -1.
    10030    2    1    2    0    0  0.00000000000E+00  0.00000000000E+00 -0.12887904305E+04  0.32975153513E+04  0.30352309168E+04 0.  0.
        3    1    3    3  502    0 -0.19213143294E+02 -0.65604450470E+02  0.10026889485E+04  0.10050165305E+04  0.10100000352E+00 0.  1.
       -3    1    3    3    0  502  0.19213143294E+02  0.65604450470E+02 -0.22914793790E+04  0.22924988208E+04  0.10100000352E+00 0. -1.
</event>
<event>
 5   0  0.1700885E-06  0.2997974E+04  0.7818609E-02  0.8244310E-01
       -1   -1    0    0    0  501  0.00000000000E+00  0.00000000000E+00  0.81047959535E+03  0.81047959536E+03  0.50400001928E-02 0.  1.
        1   -1    0    0  501    0  0.00000000000E+00  0.00000000000E+00 -0.27723864179E+04  0.27723864180E+04  0.50400001928E-02 0. -1.
    10030    2    1    2    0    0  0.00000000000E+00  0.00000000000E+00 -0.19619068226E+04  0.35828660133E+04  0.29979743976E+04 0.  0.
        1    1    3    3  502    0 -0.14700640683E+04 -0.29028126807E+03 -0.93298490604E+03  0.17651663985E+04  0.50400001928E-02 0.  1.
       -1    1    3    3    0  502  0.14700640683E+04  0.29028126807E+03 -0.10289219166E+04  0.18176996148E+04  0.50400001928E-02 0. -1.
</event>
<event>
 5   0  0.4702748E-06  0.3010487E+04  0.7818609E-02  0.8240743E-01
       -2   -1    0    0    0  501  0.00000000000E+00  0.00000000000E+00  0.19801663367E+04  0.19801663367E+04  0.25500000920E-02 0. -1.
        2   -1    0    0  501    0  0.00000000000E+00  0.00000000000E+00 -0.11442259346E+04  0.11442259346E+04  0.25500000920E-02 0.  1.
    10030    2    1    2    0    0  0.00000000000E+00  0.00000000000E+00  0.83594040212E+03  0.31243922712E+04  0.30104867893E+04 0.  0.
        2    1    3    3  502    0  0.31537595188E+03  0.14474348193E+04  0.14098625384E+03  0.14880882605E+04  0.25500000920E-02 0. -1.
       -2    1    3    3    0  502 -0.31537595188E+03 -0.14474348193E+04  0.69495414828E+03  0.16363040107E+04  0.25500000920E-02 0.  1.
</event>
<event>
 5   0  0.1734885E-06  0.3016205E+04  0.7818609E-02  0.8239119E-01
       -1   -1    0    0    0  501  0.00000000000E+00  0.00000000000E+00  0.24636059575E+04  0.24636059575E+04  0.50400001928E-02 0.  1.
        1   -1    0    0  501    0  0.00000000000E+00  0.00000000000E+00 -0.92318877862E+03  0.92318877864E+03  0.50400001928E-02 0. -1.
    10030    2    1    2    0    0  0.00000000000E+00  0.00000000000E+00  0.15404171789E+04  0.33867947361E+04  0.30162051488E+04 0.  0.
        2    1    3    3  502    0  0.38234067345E+03 -0.13031512052E+04  0.33908053117E+02  0.13585055062E+04  0.25500000920E-02 0. -1.
       -2    1    3    3    0  502 -0.38234067345E+03  0.13031512052E+04  0.15065091258E+04  0.20282892299E+04  0.25500000920E-02 0.  1.
</event>
<event>
 5   0  0.5003556E-06  0.2975737E+04  0.7818609E-02  0.8250693E-01
       -2   -1    0    0    0  501  0.00000000000E+00  0.00000000000E+00  0.13057416670E+04  0.13057416670E+04  0.25500000920E-02 0.  1.
        2   -1    0    0  501    0  0.00000000000E+00  0.00000000000E+00 -0.16953985767E+04  0.16953985767E+04  0.25500000920E-02 0. -1.
    10030    2    1    2    0    0  0.00000000000E+00  0.00000000000E+00 -0.38965690961E+03  0.30011402437E+04  0.29757369264E+04 0.  0.
        3    1    3    3  502    0  0.13870809428E+04  0.42738211131E+02 -0.73600263498E+03  0.15708341687E+04  0.10100000352E+00 0. -1.
       -3    1    3    3    0  502 -0.13870809428E+04 -0.42738211131E+02  0.34634572537E+03  0.14303060750E+04  0.10100000352E+00 0.  1.
</event>
<event>
 5   0  0.4935331E-06  0.2816515E+04  0.7818609E-02  0.8298159E-01
        2   -1    0    0  501    0  0.00000000000E+00  0.00000000000E+00  0.18755606406E+04  0.18755606406E+04  0.25500000920E-02 0.  1.
       -2   -1    0    0    0  501  0.00000000000E+00  0.00000000000E+00 -0.10573845063E+04  0.10573845063E+04  0.25500000920E-02 0. -1.
    10030    2    1    2    0    0  0.00000000000E+00  0.00000000000E+00  0.81817613432E+03  0.29329451469E+04  0.28165146986E+04 0.  0.
        5    1    3    3  502    0 -0.23499943648E+03 -0.64702484401E+03  0.16884099190E+04  0.18233529632E+04  0.46999998093E+01 0.  1.
       -5    1    3    3    0  502  0.23499943648E+03  0.64702484401E+03 -0.87023378470E+03  0.11095921836E+04  0.46999998093E+01 0. -1.
</event>
<event>
 5   0  0.1734885E-06  0.3015926E+04  0.7818609E-02  0.8239198E-01
        1   -1    0    0  501    0  0.00000000000E+00  0.00000000000E+00  0.21830462902E+04  0.21830462902E+04  0.50400001928E-02 0.  1.
       -1   -1    0    0    0  501  0.00000000000E+00  0.00000000000E+00 -0.10416416451E+04  0.10416416451E+04  0.50400001928E-02 0. -1.
    10030    2    1    2    0    0  0.00000000000E+00  0.00000000000E+00  0.11414046451E+04  0.32246879353E+04  0.30159256815E+04 0.  0.
        2    1    3    3  502    0  0.11486491017E+03  0.11465191980E+04  0.16107910657E+04  0.19804918773E+04  0.25500000920E-02 0.  1.
       -2    1    3    3    0  502 -0.11486491017E+03 -0.11465191980E+04 -0.46938642057E+03  0.12441960580E+04  0.25500000920E-02 0. -1.
</event>
<event>
 5   0  0.5003556E-06  0.3019751E+04  0.7818609E-02  0.8238113E-01
        2   -1    0    0  501    0  0.00000000000E+00  0.00000000000E+00  0.13543319386E+04  0.13543319386E+04  0.25500000920E-02 0.  1.
       -2   -1    0    0    0  501  0.00000000000E+00  0.00000000000E+00 -0.16832828271E+04  0.16832828271E+04  0.25500000920E-02 0. -1.
    10030    2    1    2    0    0  0.00000000000E+00  0.00000000000E+00 -0.32895088846E+03  0.30376147657E+04  0.30197507807E+04 0.  0.
        3    1    3    3  502    0 -0.32971153385E+03 -0.92897840779E+03  0.98597427080E+03  0.13942223103E+04  0.10100000352E+00 0.  1.
       -3    1    3    3    0  502  0.32971153385E+03  0.92897840779E+03 -0.13149251593E+04  0.16433924554E+04  0.10100000352E+00 0. -1.
</event>
<event>
 5   0  0.4768570E-06  0.2874261E+04  0.7818609E-02  0.8280577E-01
        2   -1    0    0  501    0  0.00000000000E+00  0.00000000000E+00  0.13567554333E+04  0.13567554333E+04  0.25500000920E-02 0. -1.
       -2   -1    0    0    0  501  0.00000000000E+00  0.00000000000E+00 -0.15222666504E+04  0.15222666504E+04  0.25500000920E-02 0.  1.
    10030    2    1    2    0    0  0.00000000000E+00  0.00000000000E+00 -0.16551121706E+03  0.28790220837E+04  0.28742606346E+04 0.  0.
        1    1    3    3  502    0  0.64903956049E+03  0.12813098787E+04 -0.34341363112E+02  0.14367277702E+04  0.50400001928E-02 0. -1.
       -1    1    3    3    0  502 -0.64903956049E+03 -0.12813098787E+04 -0.13116985395E+03  0.14422943135E+04  0.50400001928E-02 0.  1.
</event>
<event>
 5   0  0.1672907E-06  0.2943982E+04  0.7818609E-02  0.8259911E-01
        1   -1    0    0  501    0  0.00000000000E+00  0.00000000000E+00  0.11440301177E+04  0.11440301177E+04  0.50400001928E-02 0. -1.
       -1   -1    0    0    0  501  0.00000000000E+00  0.00000000000E+00 -0.18939687312E+04  0.18939687312E+04  0.50400001928E-02 0.  1.
    10030    2    1    2    0    0  0.00000000000E+00  0.00000000000E+00 -0.74993861350E+03  0.30379988490E+04  0.29439818414E+04 0.  0.
        5    1    3    3  502    0 -0.94590655612E+02  0.55390849274E+03  0.10289835985E+04  0.11724296766E+04  0.46999998093E+01 0. -1.
       -5    1    3    3    0  502  0.94590655612E+02 -0.55390849274E+03 -0.17789222120E+04  0.18655691724E+04  0.46999998093E+01 0.  1.
</event>
<event>
 5   0  0.5003556E-06  0.3036268E+04  0.7818609E-02  0.8233450E-01
       -2   -1    0    0    0  501  0.00000000000E+00  0.00000000000E+00  0.11118362478E+04  0.11118362478E+04  0.25500000920E-02 0.  1.
        2   -1    0    0  501    0  0.00000000000E+00  0.00000000000E+00 -0.20729045519E+04  0.20729045519E+04  0.25500000920E-02 0. -1.
    10030    2    1    2    0    0  0.00000000000E+00  0.00000000000E+00 -0.96106830416E+03  0.31847407997E+04  0.30362677214E+04 0.  0.
        3    1    3    3  502    0  0.53651315786E+03 -0.95019000045E+03  0.62655120950E+03  0.12582820963E+04  0.10100000352E+00 0.  1.
       -3    1    3    3    0  502 -0.53651315786E+03  0.95019000045E+03 -0.15876195137E+04  0.19264587034E+04  0.10100000352E+00 0. -1.
</event>
<event>
 5   0  0.1686012E-06  0.3014710E+04  0.7818609E-02  0.8239543E-01
        1   -1    0    0  501    0  0.00000000000E+00  0.00000000000E+00  0.13023622344E+04  0.13023622344E+04  0.50400001928E-02 0.  1.
       -1   -1    0    0    0  501  0.00000000000E+00  0.00000000000E+00 -0.17446139644E+04  0.17446139644E+04  0.50400001928E-02 0. -1.
    10030    2    1    2    0    0  0.00000000000E+00  0.00000000000E+00 -0.44225173003E+03  0.30469761988E+04  0.30147101624E+04 0.  0.
        4    1    3    3  502    0 -0.14340104052E+04 -0.46364544048E+03 -0.19317502266E+03  0.15194311893E+04  0.12699999809E+01 0.  1.
       -4    1    3    3    0  502  0.14340104052E+04  0.46364544048E+03 -0.24907670737E+03  0.15275450094E+04  0.12699999809E+01 0. -1.
</event>
<event>
 5   0  0.1700885E-06  0.2916855E+04  0.7818609E-02  0.8267880E-01
        1   -1    0    0  501    0  0.00000000000E+00  0.00000000000E+00  0.20267288288E+04  0.20267288288E+04  0.50400001928E-02 0. -1.
       -1   -1    0    0    0  501  0.00000000000E+00  0.00000000000E+00 -0.10494799282E+04  0.10494799282E+04  0.50400001928E-02 0.  1.
    10030    2    1    2    0    0  0.00000000000E+00  0.00000000000E+00  0.97724890053E+03  0.30762087570E+04  0.29168553106E+04 0.  0.
        1    1    3    3  502    0  0.13311848049E+03 -0.14099591945E+04  0.85594196684E+03  0.16547936761E+04  0.50400001928E-02 0. -1.
       -1    1    3    3    0  502 -0.13311848049E+03  0.14099591945E+04  0.12130693368E+03  0.14214150809E+04  0.50400001928E-02 0.  1.
</event>
<event>
 5   0  0.1709858E-06  0.2970957E+04  0.7818609E-02  0.8252073E-01
       -1   -1    0    0    0  501  0.00000000000E+00  0.00000000000E+00  0.10321307315E+04  0.10321307316E+04  0.50400001928E-02 0. -1.
        1   -1    0    0  501    0  0.00000000000E+00  0.00000000000E+00 -0.21379519919E+04  0.21379519919E+04  0.50400001928E-02 0.  1.
    10030    2    1    2    0    0  0.00000000000E+00  0.00000000000E+00 -0.11058212603E+04  0.31700827234E+04  0.29709567169E+04 0.  0.
        3    1    3    3  502    0 -0.11824996132E+04  0.25807609477E+03  0.36605515277E+03  0.12644781497E+04  0.10100000352E+00 0. -1.
       -3    1    3    3    0  502  0.11824996132E+04 -0.25807609477E+03 -0.14718764131E+04  0.19056045738E+04  0.10100000352E+00 0.  1.
</event>
<event>
 5   0  0.4532420E-06  0.3011680E+04  0.7818609E-02  0.8240403E-01
        2   -1    0    0  501    0  0.00000000000E+00  0.00000000000E+00  0.14481765958E+04  0.14481765958E+04  0.25500000920E-02 0. -1.
       -2   -1    0    0    0  501  0.00000000000E+00  0.00000000000E+00 -0.15657995967E+04  0.15657995967E+04  0.25500000920E-02 0.  1.
    10030    2    1    2    0    0  0.00000000000E+00  0.00000000000E+00 -0.11762300091E+03  0.30139761926E+04  0.30116801489E+04 0.  0.
        4    1    3    3  502    0 -0.74526237447E+03  0.22350704383E+03 -0.13490505109E+04  0.15573407781E+04  0.12699999809E+01 0.  1.
       -4    1    3    3    0  502  0.74526237447E+03 -0.22350704383E+03  0.12314275100E+04  0.14566354144E+04  0.12699999809E+01 0. -1.
</event>
<event>
 5   0  0.4532420E-06  0.3012334E+04  0.7818609E-02  0.8240218E-01
       -2   -1    0    0    0  501  0.00000000000E+00  0.00000000000E+00  0.19152695593E+04  0.19152695593E+04  0.25500000920E-02 0.  1.
        2   -1    0    0  501    0  0.00000000000E+00  0.00000000000E+00 -0.11844489120E+04  0.11844489120E+04  0.25500000920E-02 0. -1.
    10030    2    1    2    0    0  0.00000000000E+00  0.00000000000E+00  0.73082064736E+03  0.30997184713E+04  0.30123339428E+04 0.  0.
        4    1    3    3  502    0  0.15116342599E+03 -0.15941715164E+03 -0.11678727335E+04  0.11883570777E+04  0.12699999809E+01 0. -1.
       -4    1    3    3    0  502 -0.15116342599E+03  0.15941715164E+03  0.18986933808E+04  0.19113613936E+04  0.12699999809E+01 0.  1.
</event>
<event>
 5   0  0.1734885E-06  0.3027640E+04  0.7818609E-02  0.8235882E-01
       -1   -1    0    0    0  501  0.00000000000E+00  0.00000000000E+00  0.13236286243E+04  0.13236286243E+04  0.50400001928E-02 0.  1.
        1   -1    0    0  501    0  0.00000000000E+00  0.00000000000E+00 -0.17313403216E+04  0.17313403216E+04  0.50400001928E-02 0. -1.
    10030    2    1    2    0    0  0.00000000000E+00  0.00000000000E+00 -0.40771169728E+03  0.30549689459E+04  0.30276404068E+04 0.  0.
        2    1    3    3  502    0 -0.12879531933E+04 -0.62111990523E+03 -0.70537162863E+03  0.15944160371E+04  0.25500000920E-02 0. -1.
       -2    1    3    3    0  502  0.12879531933E+04  0.62111990523E+03  0.29765993135E+03  0.14605529089E+04  0.25500000920E-02 0.  1.
</event>
<event>
 5   0  0.1672907E-06  0.3018598E+04  0.7818609E-02  0.8238440E-01
       -1   -1    0    0    0  501  0.00000000000E+00  0.00000000000E+00  0.16660273115E+04  0.16660273115E+04  0.50400001928E-02 0.  1.
        1   -1    0    0  501    0  0.00000000000E+00  0.00000000000E+00 -0.13673147538E+04  0.13673147538E+04  0.50400001928E-02 0. -1.
    10030    2    1    2    0    0  0.00000000000E+00  0.00000000000E+00  0.29871255774E+03  0.30333420653E+04  0.30185981669E+04 0.  0.
        5    1    3    3  502    0  0.14927731316E+04 -0.46247134328E+02  0.36825324636E+03  0.15382272145E+04  0.46999998093E+01 0.  1.
       -5    1    3    3    0  502 -0.14927731316E+04  0.46247134328E+02 -0.69540688616E+02  0.14951148509E+04  0.46999998093E+01 0. -1.
</event>
<event>
 5   0  0.1672907E-06  0.2985656E+04  0.7818609E-02  0.8247839E-01
       -1   -1    0    0    0  501  0.00000000000E+00  0.00000000000E+00  0.27780832032E+04  0.27780832032E+04  0.50400001928E-02 0. -1.
        1   -1    0    0  501    0  0.00000000000E+00  0.00000000000E+00 -0.80218447254E+03  0.80218447255E+03  0.50400001928E-02 0.  1.
    10030    2    1    2    0    0  0.00000000000E+00  0.00000000000E+00  0.19758987306E+04  0.35802676757E+04  0.29856558469E+04 0.  0.
        5    1    3    3  502    0 -0.13185696743E+04 -0.56574326753E+03  0.14821147592E+04  0.20628566795E+04  0.46999998093E+01 0. -1.
       -5    1    3    3    0  502  0.13185696743E+04  0.56574326753E+03  0.49378397140E+03  0.15174109962E+04  0.46999998093E+01 0.  1.
</event>
<event>
 5   0  0.4702748E-06  0.3013960E+04  0.7818609E-02  0.8239756E-01
        2   -1    0    0  501    0  0.00000000000E+00  0.00000000000E+00  0.15467578129E+04  0.15467578129E+04  0.25500000920E-02 0. -1.
       -2   -1    0    0    0  501  0.00000000000E+00  0.00000000000E+00 -0.14682255549E+04  0.14682255549E+04  0.25500000920E-02 0.  1.
    10030    2    1    2    0    0  0.00000000000E+00  0.00000000000E+00  0.78532257931E+02  0.30149833678E+04  0.30139604166E+04 0.  0.
        2    1    3    3  502    0  0.14335114102E+04 -0.18648616953E+03 -0.38662159506E+03  0.14963984471E+04  0.25500000920E-02 0.  1.
       -2    1    3    3    0  502 -0.14335114102E+04  0.18648616953E+03  0.46515385299E+03  0.15185849208E+04  0.25500000920E-02 0. -1.
</event>
<event>
 5   0  0.5003556E-06  0.2931807E+04  0.7818609E-02  0.8263476E-01
       -2   -1    0    0    0  501  0.00000000000E+00  0.00000000000E+00  0.78086922093E+03  0.78086922094E+03  0.25500000920E-02 0.  1.
        2   -1    0    0  501    0  0.00000000000E+00  0.00000000000E+00 -0.27518996930E+04  0.27518996930E+04  0.25500000920E-02 0. -1.
    10030    2    1    2    0    0  0.00000000000E+00  0.00000000000E+00 -0.19710304721E+04  0.35327689139E+04  0.29318074762E+04 0.  0.
        3    1    3    3  502    0 -0.93337565168E+02  0.87165046654E+02 -0.27451836175E+04  0.27481526069E+04  0.10100000352E+00 0. -1.
       -3    1    3    3    0  502  0.93337565168E+02 -0.87165046654E+02  0.77415314549E+03  0.78461630706E+03  0.10100000352E+00 0.  1.
</event>
<event>
 5   0  0.4768570E-06  0.2989417E+04  0.7818609E-02  0.8246759E-01
        2   -1    0    0  501    0  0.00000000000E+00  0.00000000000E+00  0.16043472939E+04  0.16043472940E+04  0.25500000920E-02 0.  1.
       -2   -1    0    0    0  501  0.00000000000E+00  0.00000000000E+00 -0.13925618978E+04  0.13925618978E+04  0.25500000920E-02 0. -1.
    10030    2    1    2    0    0  0.00000000000E+00  0.00000000000E+00  0.21178539616E+03  0.29969091917E+04  0.29894166069E+04 0.  0.
        1    1    3    3  502    0  0.14025840960E+04  0.16547808689E+02 -0.41177050604E+03  0.14618724041E+04  0.50400001928E-02 0. -1.
       -1    1    3    3    0  502 -0.14025840960E+04 -0.16547808689E+02  0.62355590221E+03  0.15350367876E+04  0.50400001928E-02 0.  1.
</event>
<event>
 5   0  0.4702748E-06  0.2905727E+04  0.7818609E-02  0.8271176E-01
        2   -1    0    0  501    0  0.00000000000E+00  0.00000000000E+00  0.13009208455E+04  0.13009208455E+04  0.25500000920E-02 0. -1.
       -2   -1    0    0    0  501  0.00000000000E+00  0.00000000000E+00 -0.16225526394E+04  0.16225526394E+04  0.25500000920E-02 0.  1.
    10030    2    1    2    0    0  0.00000000000E+00  0.00000000000E+00 -0.32163179386E+03  0.29234734849E+04  0.29057271390E+04 0.  0.
        2    1    3    3  502    0  0.10365524250E+04  0.42785025911E+03  0.76857671849E+03  0.13594877514E+04  0.25500000920E-02 0. -1.
       -2    1    3    3    0  502 -0.10365524250E+04 -0.42785025911E+03 -0.10902085124E+04  0.15639857335E+04  0.25500000920E-02 0.  1.
</event>
<event>
 5   0  0.5003556E-06  0.3089511E+04  0.7818609E-02  0.8218622E-01
        2   -1    0    0  501    0  0.00000000000E+00  0.00000000000E+00  0.20816797677E+04  0.20816797677E+04  0.25500000920E-02 0.  1.
       -2   -1    0    0    0  501  0.00000000000E+00  0.00000000000E+00 -0.11463193721E+04  0.11463193721E+04  0.25500000920E-02 0. -1.
    10030    2    1    2    0    0  0.00000000000E+00  0.00000000000E+00  0.93536039554E+03  0.32279991398E+04  0.30895111874E+04 0.  0.
        3    1    3    3  502    0 -0.70307105402E+03 -0.65894826496E+02  0.19031722261E+04  0.20299545727E+04  0.10100000352E+00 0.  1.
       -3    1    3    3    0  502  0.70307105402E+03  0.65894826496E+02 -0.96781183051E+03  0.11980445671E+04  0.10100000352E+00 0. -1.
</event>
<event>
 5   0  0.1672907E-06  0.2984827E+04  0.7818609E-02  0.8248077E-01
        1   -1    0    0  501    0  0.00000000000E+00  0.00000000000E+00  0.19025335739E+04  0.19025335739E+04  0.50400001928E-02 0.  1.
       -1   -1    0    0    0  501  0.00000000000E+00  0.00000000000E+00 -0.11707012875E+04  0.11707012875E+04  0.50400001928E-02 0. -1.
    10030    2    1    2    0    0  0.00000000000E+00  0.00000000000E+00  0.73183228634E+03  0.30732348614E+04  0.29848273012E+04 0.  0.
        5    1    3    3  502    0 -0.63521530128E+03  0.31417187864E+03 -0.98640675926E+03  0.12145875156E+04  0.46999998093E+01 0. -1.
       -5    1    3    3    0  502  0.63521530128E+03 -0.31417187864E+03  0.17182390456E+04  0.18586473458E+04  0.46999998093E+01 0.  1.
</event>
<event>
 5   0  0.4935331E-06  0.2991083E+04  0.7818609E-02  0.8246282E-01
       -2   -1    0    0    0  501  0.00000000000E+00  0.00000000000E+00  0.83993094716E+03  0.83993094716E+03  0.25500000920E-02 0. -1.
        2   -1    0    0  501    0  0.00000000000E+00  0.00000000000E+00 -0.26628904209E+04  0.26628904209E+04  0.25500000920E-02 0.  1.
    10030    2    1    2    0    0  0.00000000000E+00  0.00000000000E+00 -0.18229594738E+04  0.35028213681E+04  0.29910827962E+04 0.  0.
        5    1    3    3  502    0 -0.37182086721E+03  0.73391511284E+03 -0.23740462890E+04  0.25125684115E+04  0.46999998093E+01 0.  1.
       -5    1    3    3    0  502  0.37182086721E+03 -0.73391511284E+03  0.55108681523E+03  0.99025295660E+03  0.46999998093E+01 0. -1.
</event>
<event>
 5   0  0.1672907E-06  0.3046869E+04  0.7818609E-02  0.8230472E-01
        1   -1    0    0  501    0  0.00000000000E+00  0.00000000000E+00  0.14771987011E+04  0.14771987011E+04  0.50400001928E-02 0. -1.
       -1   -1    0    0    0  501  0.00000000000E+00  0.00000000000E+00 -0.15711171124E+04  0.15711171124E+04  0.50400001928E-02 0.  1.
    10030    2    1    2    0    0  0.00000000000E+00  0.00000000000E+00 -0.93918411314E+02  0.30483158134E+04  0.30468686599E+04 0.  0.
        5    1    3    3  502    0  0.12869128995E+03 -0.35271845157E+03  0.14301763719E+04  0.14786474560E+04  0.46999998093E+01 0. -1.
       -5    1    3    3    0  502 -0.12869128995E+03  0.35271845157E+03 -0.15240947832E+04  0.15696683575E+04  0.46999998093E+01 0.  1.
</event>
<event>
 5   0  0.1709858E-06  0.3005950E+04  0.7818609E-02  0.8242034E-01
       -1   -1    0    0    0  501  0.00000000000E+00  0.00000000000E+00  0.13894096423E+04  0.13894096423E+04  0.50400001928E-02 0. -1.
        1   -1    0    0  501    0  0.00000000000E+00  0.00000000000E+00 -0.16258230971E+04  0.16258230971E+04  0.50400001928E-02 0.  1.
    10030    2    1    2    0    0  0.00000000000E+00  0.00000000000E+00 -0.23641345482E+03  0.30152327393E+04  0.30059502908E+04 0.  0.
        3    1    3    3  502    0  0.29779418103E+03 -0.37690542361E+03 -0.15467517141E+04  0.16196233969E+04  0.10100000352E+00 0.  1.
       -3    1    3    3    0  502 -0.29779418103E+03  0.37690542361E+03  0.13103382593E+04  0.13956093424E+04  0.10100000352E+00 0. -1.
</event>
<event>
 5   0  0.5003556E-06  0.2739025E+04  0.7818609E-02  0.8322453E-01
       -2   -1    0    0    0  501  0.00000000000E+00  0.00000000000E+00  0.13129192742E+04  0.13129192742E+04  0.25500000920E-02 0.  1.
        2   -1    0    0  501    0  0.00000000000E+00  0.00000000000E+00 -0.14285455184E+04  0.14285455184E+04  0.25500000920E-02 0. -1.
    10030    2    1    2    0    0  0.00000000000E+00  0.00000000000E+00 -0.11562624421E+03  0.27414647926E+04  0.27390253340E+04 0.  0.
        3    1    3    3  502    0  0.11854009416E+04 -0.64641709021E+03  0.17159504544E+03  0.13610566912E+04  0.10100000352E+00 0.  1.
       -3    1    3    3    0  502 -0.11854009416E+04  0.64641709021E+03 -0.28722128965E+03  0.13804081014E+04  0.10100000352E+00 0. -1.
</event>
<event>
 5   0  0.1700885E-06  0.2962571E+04  0.7818609E-02  0.8254501E-01
       -1   -1    0    0    0  501  0.00000000000E+00  0.00000000000E+00  0.13305485896E+04  0.13305485896E+04  0.50400001928E-02 0. -1.
        1   -1    0    0  501    0  0.00000000000E+00  0.00000000000E+00 -0.16490989910E+04  0.16490989910E+04  0.50400001928E-02 0.  1.
    10030    2    1    2    0    0  0.00000000000E+00  0.00000000000E+00 -0.31855040140E+03  0.29796475807E+04  0.29625707328E+04 0.  0.
        1    1    3    3  502    0 -0.12370846597E+04  0.42018714859E+03 -0.86134662275E+03  0.15648813692E+04  0.50400001928E-02 0. -1.
       -1    1    3    3    0  502  0.12370846597E+04 -0.42018714859E+03  0.54279622136E+03  0.14147662115E+04  0.50400001928E-02 0.  1.
</event>
<event>
 5   0  0.1709858E-06  0.3036778E+04  0.7818609E-02  0.8233306E-01
       -1   -1    0    0    0  501  0.00000000000E+00  0.00000000000E+00  0.97076889248E+03  0.97076889250E+03  0.50400001928E-02 0.  1.
        1   -1    0    0  501    0  0.00000000000E+00  0.00000000000E+00 -0.23749273524E+04  0.23749273524E+04  0.50400001928E-02 0. -1.
    10030    2    1    2    0    0  0.00000000000E+00  0.00000000000E+00 -0.14041584599E+04  0.33456962449E+04  0.30367782900E+04 0.  0.
        3    1    3    3  502    0 -0.45168687732E+03 -0.12433303340E+04  0.11914187747E+03  0.13281890497E+04  0.10100000352E+00 0.  1.
       -3    1    3    3    0  502  0.45168687732E+03  0.12433303340E+04 -0.15233003373E+04  0.20175071952E+04  0.10100000352E+00 0. -1.
</event>
<event>
 5   0  0.1686012E-06  0.2995903E+04  0.7818609E-02  0.8244902E-01
       -1   -1    0    0    0  501  0.00000000000E+00  0.00000000000E+00  0.21272101167E+04  0.21272101167E+04  0.50400001928E-02 0.  1.
        1   -1    0    0  501    0  0.00000000000E+00  0.00000000000E+00 -0.10548361792E+04  0.10548361792E+04  0.50400001928E-02 0. -1.
    10030    2    1    2    0    0  0.00000000000E+00  0.00000000000E+00  0.10723739375E+04  0.31820462959E+04  0.29959026632E+04 0.  0.
        4    1    3    3  502    0 -0.61847476669E+03  0.12860430723E+04  0.10199400528E+04  0.17540516370E+04  0.12699999809E+01 0. -1.
       -4    1    3    3    0  502  0.61847476669E+03 -0.12860430723E+04  0.52433884679E+02  0.14279946590E+04  0.12699999809E+01 0.  1.
</event>
<event>
 5   0  0.1672907E-06  0.3019656E+04  0.7818609E-02  0.8238140E-01
       -1   -1    0    0    0  501  0.00000000000E+00  0.00000000000E+00  0.12962929852E+04  0.12962929852E+04  0.50400001928E-02 0. -1.
        1   -1    0    0  501    0  0.00000000000E+00  0.00000000000E+00 -0.17585380645E+04  0.17585380645E+04  0.50400001928E-02 0.  1.
    10030    2    1    2    0    0  0.00000000000E+00  0.00000000000E+00 -0.46224507934E+03  0.30548310497E+04  0.30196559786E+04 0.  0.
        5    1    3    3  502    0  0.48061793867E+02  0.32919434794E+03  0.12587442917E+04  0.13019747066E+04  0.46999998093E+01 0. -1.
       -5    1    3    3    0  502 -0.48061793867E+02 -0.32919434794E+03 -0.17209893710E+04  0.17528563432E+04  0.46999998093E+01 0.  1.
</event>
<event>
 5   0  0.4532420E-06  0.3018829E+04  0.7818609E-02  0.8238374E-01
        2   -1    0    0  501    0  0.00000000000E+00  0.00000000000E+00  0.14889676487E+04  0.14889676487E+04  0.25500000920E-02 0.  1.
       -2   -1    0    0    0  501  0.00000000000E+00  0.00000000000E+00 -0.15301425616E+04  0.15301425616E+04  0.25500000920E-02 0. -1.
    10030    2    1    2    0    0  0.00000000000E+00  0.00000000000E+00 -0.41174912916E+02  0.30191102104E+04  0.30188294236E+04 0.  0.
        4    1    3    3  502    0 -0.49453052304E+03 -0.10707693773E+04 -0.96260057422E+03  0.15224023699E+04  0.12699999809E+01 0. -1.
       -4    1    3    3    0  502  0.49453052304E+03  0.10707693773E+04  0.92142566130E+03  0.14967078405E+04  0.12699999809E+01 0.  1.
</event>
<event>
 5   0  0.4768570E-06  0.2990847E+04  0.7818609E-02  0.8246349E-01
       -2   -1    0    0    0  501  0.00000000000E+00  0.00000000000E+00  0.14609621427E+04  0.14609621427E+04  0.25500000920E-02 0. -1.
        2   -1    0    0  501    0  0.00000000000E+00  0.00000000000E+00 -0.15306978729E+04  0.15306978729E+04  0.25500000920E-02 0.  1.
    10030    2    1    2    0    0  0.00000000000E+00  0.00000000000E+00 -0.69735730190E+02  0.29916600155E+04  0.29908471336E+04 0.  0.
        1    1    3    3  502    0  0.57745953540E+03  0.12401556171E+04 -0.63905701124E+03  0.15099136841E+04  0.50400001928E-02 0.  1.
       -1    1    3    3    0  502 -0.57745953540E+03 -0.12401556171E+04  0.56932128105E+03  0.14817463315E+04  0.50400001928E-02 0. -1.
</event>
<event>
 5   0  0.1686012E-06  0.3014160E+04  0.7818609E-02  0.8239699E-01
       -1   -1    0    0    0  501  0.00000000000E+00  0.00000000000E+00  0.12733832089E+04  0.12733832089E+04  0.50400001928E-02 0. -1.
        1   -1    0    0  501    0  0.00000000000E+00  0.00000000000E+00 -0.17836653123E+04  0.17836653123E+04  0.50400001928E-02 0.  1.
    10030    2    1    2    0    0  0.00000000000E+00  0.00000000000E+00 -0.51028210340E+03  0.30570485211E+04  0.30141595571E+04 0.  0.
        4    1    3    3  502    0 -0.13302221962E+04  0.69307780886E+03 -0.40364825760E+03  0.15533130622E+04  0.12699999809E+01 0.  1.
       -4    1    3    3    0  502  0.13302221962E+04 -0.69307780886E+03 -0.10663384580E+03  0.15037354589E+04  0.12699999809E+01 0. -1.
</event>
<event>
 5   0  0.4702748E-06  0.2991682E+04  0.7818609E-02  0.8246110E-01
       -2   -1    0    0    0  501  0.00000000000E+00  0.00000000000E+00  0.81319652181E+03  0.81319652181E+03  0.25500000920E-02 0. -1.
        2   -1    0    0  501    0  0.00000000000E+00  0.00000000000E+00 -0.27515361733E+04  0.27515361733E+04  0.25500000920E-02 0.  1.
    10030    2    1    2    0    0  0.00000000000E+00  0.00000000000E+00 -0.19383396515E+04  0.35647326951E+04  0.29916815644E+04 0.  0.
        2    1    3    3  502    0  0.36919471949E+02  0.11563199373E+04  0.16066718350E+03  0.11680123238E+04  0.25500000920E-02 0. -1.
       -2    1    3    3    0  502 -0.36919471949E+02 -0.11563199373E+04 -0.20990068350E+04  0.23967203713E+04  0.25500000920E-02 0.  1.
</event>
<event>
 5   0  0.1672907E-06  0.2799849E+04  0.7818609E-02  0.8303315E-01
        1   -1    0    0  501    0  0.00000000000E+00  0.00000000000E+00  0.63624517834E+03  0.63624517836E+03  0.50400001928E-02 0.  1.
       -1   -1    0    0    0  501  0.00000000000E+00  0.00000000000E+00 -0.30802410549E+04  0.30802410549E+04  0.50400001928E-02 0. -1.
    10030    2    1    2    0    0  0.00000000000E+00  0.00000000000E+00 -0.24439958765E+04  0.37164862332E+04  0.27998489383E+04 0.  0.
        5    1    3    3  502    0 -0.10620877987E+04  0.36757367853E+03 -0.11410544227E+03  0.11296827179E+04  0.46999998093E+01 0.  1.
       -5    1    3    3    0  502  0.10620877987E+04 -0.36757367853E+03 -0.23298904343E+04  0.25868035153E+04  0.46999998093E+01 0. -1.
</event>
<event>
 5   0  0.4702748E-06  0.2872789E+04  0.7818609E-02  0.8281020E-01
        2   -1    0    0  501    0  0.00000000000E+00  0.00000000000E+00  0.13655419416E+04  0.13655419416E+04  0.25500000920E-02 0.  1.
       -2   -1    0    0    0  501  0.00000000000E+00  0.00000000000E+00 -0.15109238426E+04  0.15109238426E+04  0.25500000920E-02 0. -1.
    10030    2    1    2    0    0  0.00000000000E+00  0.00000000000E+00 -0.14538190107E+03  0.28764657842E+04  0.28727894998E+04 0.  0.
        2    1    3    3  502    0  0.39014053773E+03  0.11280995843E+02  0.13114285580E+04  0.13682769321E+04  0.25500000920E-02 0.  1.
       -2    1    3    3    0  502 -0.39014053773E+03 -0.11280995843E+02 -0.14568104591E+04  0.15081888521E+04  0.25500000920E-02 0. -1.
</event>
<event>
 5   0  0.1686012E-06  0.3012992E+04  0.7818609E-02  0.8240031E-01
       -1   -1    0    0    0  501  0.00000000000E+00  0.00000000000E+00  0.28145215136E+04  0.28145215136E+04  0.50400001928E-02 0. -1.
        1   -1    0    0  501    0  0.00000000000E+00  0.00000000000E+00 -0.80636446984E+03  0.80636446986E+03  0.50400001928E-02 0.  1.
    10030    2    1    2    0    0  0.00000000000E+00  0.00000000000E+00  0.20081570437E+04  0.36208859835E+04  0.30129919669E+04 0.  0.
        4    1    3    3  502    0  0.15243176198E+03 -0.28945211132E+03  0.27713204033E+04  0.27905620147E+04  0.12699999809E+01 0. -1.
       -4    1    3    3    0  502 -0.15243176198E+03  0.28945211132E+03 -0.76316335960E+03  0.83032396879E+03  0.12699999809E+01 0.  1.
</event>
<event>
 5   0  0.1686012E-06  0.2973072E+04  0.7818609E-02  0.8251462E-01
        1   -1    0    0  501    0  0.00000000000E+00  0.00000000000E+00  0.14986202833E+04  0.14986202833E+04  0.50400001928E-02 0.  1.
       -1   -1    0    0    0  501  0.00000000000E+00  0.00000000000E+00 -0.14745487621E+04  0.14745487621E+04  0.50400001928E-02 0. -1.
    10030    2    1    2    0    0  0.00000000000E+00  0.00000000000E+00  0.24071521182E+02  0.29731690455E+04  0.29730715993E+04 0.  0.
        4    1    3    3  502    0  0.97349020433E+03  0.33823385294E+03  0.10833793047E+04  0.14952583884E+04  0.12699999809E+01 0.  1.
       -4    1    3    3    0  502 -0.97349020433E+03 -0.33823385294E+03 -0.10593077835E+04  0.14779106571E+04  0.12699999809E+01 0. -1.
</event>
<event>
 5   0  0.1686012E-06  0.2494807E+04  0.7818609E-02  0.8404838E-01
        1   -1    0    0  501    0  0.00000000000E+00  0.00000000000E+00  0.13503978226E+04  0.13503978226E+04  0.50400001928E-02 0. -1.
       -1   -1    0    0    0  501  0.00000000000E+00  0.00000000000E+00 -0.11522649406E+04  0.11522649406E+04  0.50400001928E-02 0.  1.
    10030    2    1    2    0    0  0.00000000000E+00  0.00000000000E+00  0.19813288195E+03  0.25026627632E+04  0.24948074610E+04 0.  0.
        4    1    3    3  502    0  0.11829193595E+04  0.13364788353E+03 -0.27473868753E+03  0.12217376671E+04  0.12699999809E+01 0.  1.
       -4    1    3    3    0  502 -0.11829193595E+04 -0.13364788353E+03  0.47287156948E+03  0.12809250961E+04  0.12699999809E+01 0. -1.
</event>
<event>
 5   0  0.4702748E-06  0.3034863E+04  0.7818609E-02  0.8233845E-01
       -2   -1    0    0    0  501  0.00000000000E+00  0.00000000000E+00  0.26543012556E+04  0.26543012556E+04  0.25500000920E-02 0.  1.
        2   -1    0    0  501    0  0.00000000000E+00  0.00000000000E+00 -0.86749676539E+03  0.86749676540E+03  0.25500000920E-02 0. -1.
    10030    2    1    2    0    0  0.00000000000E+00  0.00000000000E+00  0.17868044902E+04  0.35217980210E+04  0.30348626022E+04 0.  0.
        2    1    3    3  502    0  0.12600233539E+04 -0.82252286826E+03  0.66601665969E+03  0.16455336254E+04  0.25500000920E-02 0.  1.
       -2    1    3    3    0  502 -0.12600233539E+04  0.82252286826E+03  0.11207878305E+04  0.18762643956E+04  0.25500000920E-02 0. -1.
</event>
<event>
 5   0  0.1545375E-06  0.3018864E+04  0.7818609E-02  0.8238365E-01
       -3   -1    0    0    0  501  0.00000000000E+00  0.00000000000E+00  0.88197190379E+03  0.88197190957E+03  0.10100000352E+00 0.  1.
        3   -1    0    0  501    0  0.00000000000E+00  0.00000000000E+00 -0.25832853415E+04  0.25832853435E+04  0.10100000352E+00 0. -1.
    10030    2    1    2    0    0  0.00000000000E+00  0.00000000000E+00 -0.17013134377E+04  0.34652572531E+04  0.30188640937E+04 0.  0.
        3    1    3    3  502    0 -0.20837021949E+03  0.11113904193E+03 -0.25619484249E+04  0.25728097048E+04  0.10100000352E+00 0. -1.
       -3    1    3    3    0  502  0.20837021949E+03 -0.11113904193E+03  0.86063498719E+03  0.89244754826E+03  0.10100000352E+00 0.  1.
</event>
<event>
 5   0  0.4935331E-06  0.3096417E+04  0.7818609E-02  0.8216722E-01
        2   -1    0    0  501    0  0.00000000000E+00  0.00000000000E+00  0.14228020881E+04  0.14228020881E+04  0.25500000920E-02 0.  1.
       -2   -1    0    0    0  501  0.00000000000E+00  0.00000000000E+00 -0.16846682116E+04  0.16846682116E+04  0.25500000920E-02 0. -1.
    10030    2    1    2    0    0  0.00000000000E+00  0.00000000000E+00 -0.26186612342E+03  0.31074702997E+04  0.30964169288E+04 0.  0.
        5    1    3    3  502    0 -0.62771061038E+03 -0.90013315276E+03 -0.12269245087E+04  0.16460942085E+04  0.46999998093E+01 0. -1.
       -5    1    3    3    0  502  0.62771061038E+03  0.90013315276E+03  0.96505838528E+03  0.14613760912E+04  0.46999998093E+01 0.  1.
</event>
<event>
 5   0  0.4935331E-06  0.3039327E+04  0.7818609E-02  0.8232589E-01
        2   -1    0    0  501    0  0.00000000000E+00  0.00000000000E+00  0.13881256772E+04  0.13881256772E+04  0.25500000920E-02 0. -1.
       -2   -1    0    0    0  501  0.00000000000E+00  0.00000000000E+00 -0.16636656071E+04  0.16636656071E+04  0.25500000920E-02 0.  1.
    10030    2    1    2    0    0  0.00000000000E+00  0.00000000000E+00 -0.27553992990E+03  0.30517912843E+04  0.30393268646E+04 0.  0.
        5    1    3    3  502    0 -0.39008750504E+03 -0.32166773158E+03  0.13011865246E+04  0.13959752337E+04  0.46999998093E+01 0. -1.
       -5    1    3    3    0  502  0.39008750504E+03  0.32166773158E+03 -0.15767264545E+04  0.16558160506E+04  0.46999998093E+01 0.  1.
</event>
<event>
 5   0  0.4532420E-06  0.2999284E+04  0.7818609E-02  0.8243935E-01
        2   -1    0    0  501    0  0.00000000000E+00  0.00000000000E+00  0.23917862576E+04  0.23917862576E+04  0.25500000920E-02 0. -1.
       -2   -1    0    0    0  501  0.00000000000E+00  0.00000000000E+00 -0.94027039987E+03  0.94027039987E+03  0.25500000920E-02 0.  1.
    10030    2    1    2    0    0  0.00000000000E+00  0.00000000000E+00  0.14515158577E+04  0.33320566575E+04  0.29992837951E+04 0.  0.
        4    1    3    3  502    0 -0.45766685644E+03 -0.11286820521E+03  0.23073422044E+04  0.23550006039E+04  0.12699999809E+01 0. -1.
       -4    1    3    3    0  502  0.45766685644E+03  0.11286820521E+03 -0.85582634668E+03  0.97705605357E+03  0.12699999809E+01 0.  1.
</event>
<event>
 5   0  0.1686012E-06  0.3009747E+04  0.7818609E-02  0.8240953E-01
        1   -1    0    0  501    0  0.00000000000E+00  0.00000000000E+00  0.20377947237E+04  0.20377947237E+04  0.50400001928E-02 0. -1.
       -1   -1    0    0    0  501  0.00000000000E+00  0.00000000000E+00 -0.11113211388E+04  0.11113211388E+04  0.50400001928E-02 0.  1.
    10030    2    1    2    0    0  0.00000000000E+00  0.00000000000E+00  0.92647358490E+03  0.31491158626E+04  0.30097470678E+04 0.  0.
        4    1    3    3  502    0  0.65403793401E+03  0.13541609278E+04  0.52172989850E+03  0.15917666718E+04  0.12699999809E+01 0.  1.
       -4    1    3    3    0  502 -0.65403793401E+03 -0.13541609278E+04  0.40474368640E+03  0.15573491908E+04  0.12699999809E+01 0. -1.
</event>
<event>
 5   0  0.1734885E-06  0.2974362E+04  0.7818609E-02  0.8251090E-01
        1   -1    0    0  501    0  0.00000000000E+00  0.00000000000E+00  0.10726347913E+04  0.10726347914E+04  0.50400001928E-02 0. -1.
       -1   -1    0    0    0  501  0.00000000000E+00  0.00000000000E+00 -0.20619381724E+04  0.20619381725E+04  0.50400001928E-02 0.  1.
    10030    2    1    2    0    0  0.00000000000E+00  0.00000000000E+00 -0.98930338111E+03  0.31345729638E+04  0.29743615257E+04 0.  0.
        2    1    3    3  502    0 -0.91446012907E+03 -0.74419821859E+03 -0.14499191141E+04  0.18687786797E+04  0.25500000920E-02 0.  1.
       -2    1    3    3    0  502  0.91446012907E+03  0.74419821859E+03  0.46061573299E+03  0.12657942841E+04  0.25500000920E-02 0. -1.
</event>
<event>
 5   0  0.4702748E-06  0.2998787E+04  0.7818609E-02  0.8244077E-01
       -2   -1    0    0    0  501  0.00000000000E+00  0.00000000000E+00  0.17246403274E+04  0.17246403274E+04  0.25500000920E-02 0.  1.
        2   -1    0    0  501    0  0.00000000000E+00  0.00000000000E+00 -0.13035648207E+04  0.13035648207E+04  0.25500000920E-02 0. -1.
    10030    2    1    2    0    0  0.00000000000E+00  0.00000000000E+00  0.42107550674E+03  0.30282051481E+04  0.29987867274E+04 0.  0.
        2    1    3    3  502    0  0.91723096252E+03  0.47186058923E+03 -0.88835438550E+03  0.13613003227E+04  0.25500000920E-02 0. -1.
       -2    1    3    3    0  502 -0.91723096252E+03 -0.47186058923E+03  0.13094298922E+04  0.16669048254E+04  0.25500000920E-02 0.  1.
</event>
<event>
 5   0  0.1734885E-06  0.3041441E+04  0.7818609E-02  0.8231995E-01
        1   -1    0    0  501    0  0.00000000000E+00  0.00000000000E+00  0.25016281155E+04  0.25016281155E+04  0.50400001928E-02 0. -1.
       -1   -1    0    0    0  501  0.00000000000E+00  0.00000000000E+00 -0.92443410984E+03  0.92443410985E+03  0.50400001928E-02 0.  1.
    10030    2    1    2    0    0  0.00000000000E+00  0.00000000000E+00  0.15771940056E+04  0.34260622253E+04  0.30414406850E+04 0.  0.
        2    1    3    3  502    0  0.18953874960E+03  0.27899630546E+03  0.24589619780E+04  0.24819866811E+04  0.25500000920E-02 0. -1.
       -2    1    3    3    0  502 -0.18953874960E+03 -0.27899630546E+03 -0.88176797237E+03  0.94407554420E+03  0.25500000920E-02 0.  1.
</event>
<event>
 5   0  0.5003556E-06  0.2993542E+04  0.7818609E-02  0.8245577E-01
        2   -1    0    0  501    0  0.00000000000E+00  0.00000000000E+00  0.16860418825E+04  0.16860418825E+04  0.25500000920E-02 0.  1.
       -2   -1    0    0    0  501  0.00000000000E+00  0.00000000000E+00 -0.13287473022E+04  0.13287473022E+04  0.25500000920E-02 0. -1.
    10030    2    1    2    0    0  0.00000000000E+00  0.00000000000E+00  0.35729458029E+03  0.30147891847E+04  0.29935421178E+04 0.  0.
        3    1    3    3  502    0  0.44942812014E+03 -0.91379442590E+03  0.12833914873E+04  0.16383221929E+04  0.10100000352E+00 0.  1.
       -3    1    3    3    0  502 -0.44942812014E+03  0.91379442590E+03 -0.92609690704E+03  0.13764669918E+04  0.10100000352E+00 0. -1.
</event>
<event>
 5   0  0.4935331E-06  0.3009633E+04  0.7818609E-02  0.8240985E-01
       -2   -1    0    0    0  501  0.00000000000E+00  0.00000000000E+00  0.20330821896E+04  0.20330821896E+04  0.25500000920E-02 0. -1.
        2   -1    0    0  501    0  0.00000000000E+00  0.00000000000E+00 -0.11138126151E+04  0.11138126151E+04  0.25500000920E-02 0.  1.
    10030    2    1    2    0    0  0.00000000000E+00  0.00000000000E+00  0.91926957455E+03  0.31468948047E+04  0.30096329280E+04 0.  0.
        5    1    3    3  502    0 -0.38673571453E+03  0.90986845791E+03 -0.72657704218E+03  0.12269317063E+04  0.46999998093E+01 0.  1.
       -5    1    3    3    0  502  0.38673571453E+03 -0.90986845791E+03  0.16458466167E+04  0.19199630984E+04  0.46999998093E+01 0. -1.
</event>
<event>
 5   0  0.1672907E-06  0.2985133E+04  0.7818609E-02  0.8247989E-01
       -1   -1    0    0    0  501  0.00000000000E+00  0.00000000000E+00  0.10245373450E+04  0.10245373450E+04  0.50400001928E-02 0.  1.
        1   -1    0    0  501    0  0.00000000000E+00  0.00000000000E+00 -0.21744005600E+04  0.21744005600E+04  0.50400001928E-02 0. -1.
    10030    2    1    2    0    0  0.00000000000E+00  0.00000000000E+00 -0.11498632149E+04  0.31989379050E+04  0.29851328793E+04 0.  0.
        5    1    3    3  502    0 -0.37084590412E+03  0.27728504741E+03  0.94561038001E+03  0.10529077656E+04  0.46999998093E+01 0.  1.
       -5    1    3    3    0  502  0.37084590412E+03 -0.27728504741E+03 -0.20954735949E+04  0.21460301394E+04  0.46999998093E+01 0. -1.
</event>
<event>
 5   0  0.1709858E-06  0.3005148E+04  0.7818609E-02  0.8242262E-01
       -1   -1    0    0    0  501  0.00000000000E+00  0.00000000000E+00  0.11120403253E+04  0.11120403253E+04  0.50400001928E-02 0. -1.
        1   -1    0    0  501    0  0.00000000000E+00  0.00000000000E+00 -0.20302576359E+04  0.20302576359E+04  0.50400001928E-02 0.  1.
    10030    2    1    2    0    0  0.00000000000E+00  0.00000000000E+00 -0.91821731064E+03  0.31422979613E+04  0.30051478246E+04 0.  0.
        3    1    3    3  502    0  0.12406868455E+04 -0.44163156323E+03 -0.12155802091E+04  0.17921990797E+04  0.10100000352E+00 0.  1.
       -3    1    3    3    0  502 -0.12406868455E+04  0.44163156323E+03  0.29736289851E+03  0.13500988815E+04  0.10100000352E+00 0. -1.
</event>
<event>
 5   0  0.5003556E-06  0.2441864E+04  0.7818609E-02  0.8423995E-01
        2   -1    0    0  501    0  0.00000000000E+00  0.00000000000E+00  0.17562379901E+04  0.17562379901E+04  0.25500000920E-02 0. -1.
       -2   -1    0    0    0  501  0.00000000000E+00  0.00000000000E+00 -0.84878857397E+03  0.84878857398E+03  0.25500000920E-02 0.  1.
    10030    2    1    2    0    0  0.00000000000E+00  0.00000000000E+00  0.90744941613E+03  0.26050265641E+04  0.24418638285E+04 0.  0.
        3    1    3    3  502    0  0.38517732081E+01 -0.92879689120E+03 -0.39168889609E+03  0.10080172135E+04  0.10100000352E+00 0.  1.
       -3    1    3    3    0  502 -0.38517732081E+01  0.92879689120E+03  0.12991383122E+04  0.15970093505E+04  0.10100000352E+00 0. -1.
</event>
<event>
 5   0  0.4768570E-06  0.2943515E+04  0.7818609E-02  0.8260047E-01
       -2   -1    0    0    0  501  0.00000000000E+00  0.00000000000E+00  0.99190838826E+03  0.99190838827E+03  0.25500000920E-02 0. -1.
        2   -1    0    0  501    0  0.00000000000E+00  0.00000000000E+00 -0.21837402704E+04  0.21837402704E+04  0.25500000920E-02 0.  1.
    10030    2    1    2    0    0  0.00000000000E+00  0.00000000000E+00 -0.11918318821E+04  0.31756486586E+04  0.29435151041E+04 0.  0.
        1    1    3    3  502    0 -0.19329450463E+02 -0.76599503026E+03  0.75974202715E+03  0.10790412234E+04  0.50400001928E-02 0. -1.
       -1    1    3    3    0  502  0.19329450463E+02  0.76599503026E+03 -0.19515739093E+04  0.20966074352E+04  0.50400001928E-02 0.  1.
</event>
<event>
 5   0  0.4768570E-06  0.3127443E+04  0.7818609E-02  0.8208247E-01
        2   -1    0    0  501    0  0.00000000000E+00  0.00000000000E+00  0.24924109141E+04  0.24924109141E+04  0.25500000920E-02 0.  1.
       -2   -1    0    0    0  501  0.00000000000E+00  0.00000000000E+00 -0.98106785049E+03  0.98106785050E+03  0.25500000920E-02 0. -1.
    10030    2    1    2    0    0  0.00000000000E+00  0.00000000000E+00  0.15113430636E+04  0.34734787646E+04  0.31274425450E+04 0.  0.
        1    1    3    3  502    0  0.12760969939E+04  0.90111387428E+03  0.83257491114E+03  0.17702007612E+04  0.50400001928E-02 0. -1.
       -1    1    3    3    0  502 -0.12760969939E+04 -0.90111387428E+03  0.67876815246E+03  0.17032780034E+04  0.50400001928E-02 0.  1.
</event>
<event>
 5   0  0.4702748E-06  0.3077676E+04  0.7818609E-02  0.8221891E-01
        2   -1    0    0  501    0  0.00000000000E+00  0.00000000000E+00  0.22561421780E+04  0.22561421780E+04  0.25500000920E-02 0. -1.
       -2   -1    0    0    0  501  0.00000000000E+00  0.00000000000E+00 -0.10495892618E+04  0.10495892618E+04  0.25500000920E-02 0.  1.
    10030    2    1    2    0    0  0.00000000000E+00  0.00000000000E+00  0.12065529162E+04  0.33057314398E+04  0.30776761384E+04 0.  0.
        2    1    3    3  502    0 -0.82613354893E+03 -0.12143786988E+04  0.11011332450E+03  0.14728670032E+04  0.25500000920E-02 0.  1.
       -2    1    3    3    0  502  0.82613354893E+03  0.12143786988E+04  0.10964395917E+04  0.18328644366E+04  0.25500000920E-02 0. -1.
</event>
<event>
 5   0  0.1700885E-06  0.2986115E+04  0.7818609E-02  0.8247707E-01
       -1   -1    0    0    0  501  0.00000000000E+00  0.00000000000E+00  0.13333767298E+04  0.13333767298E+04  0.50400001928E-02 0.  1.
        1   -1    0    0  501    0  0.00000000000E+00  0.00000000000E+00 -0.16718606260E+04  0.16718606260E+04  0.50400001928E-02 0. -1.
    10030    2    1    2    0    0  0.00000000000E+00  0.00000000000E+00 -0.33848389620E+03  0.30052373558E+04  0.29861145686E+04 0.  0.
        1    1    3    3  502    0  0.54272494235E+01  0.13256739083E+04 -0.86050245829E+03  0.15804762722E+04  0.50400001928E-02 0. -1.
       -1    1    3    3    0  502 -0.54272494235E+01 -0.13256739083E+04  0.52201856209E+03  0.14247610836E+04  0.50400001928E-02 0.  1.
</event>
<event>
 5   0  0.4768570E-06  0.2908747E+04  0.7818609E-02  0.8270280E-01
       -2   -1    0    0    0  501  0.00000000000E+00  0.00000000000E+00  0.99001560696E+03  0.99001560696E+03  0.25500000920E-02 0. -1.
        2   -1    0    0  501    0  0.00000000000E+00  0.00000000000E+00 -0.21365345168E+04  0.21365345168E+04  0.25500000920E-02 0.  1.
    10030    2    1    2    0    0  0.00000000000E+00  0.00000000000E+00 -0.11465189098E+04  0.31265501237E+04  0.29087471643E+04 0.  0.
        1    1    3    3  502    0 -0.68180601361E+03  0.10395230664E+04  0.23806734746E+03  0.12657581553E+04  0.50400001928E-02 0. -1.
       -1    1    3    3    0  502  0.68180601361E+03 -0.10395230664E+04 -0.13845862573E+04  0.18607919684E+04  0.50400001928E-02 0.  1.
</event>
<event>
 5   0  0.4532420E-06  0.3040521E+04  0.7818609E-02  0.8232254E-01
        2   -1    0    0  501    0  0.00000000000E+00  0.00000000000E+00  0.18836830335E+04  0.18836830335E+04  0.25500000920E-02 0. -1.
       -2   -1    0    0    0  501  0.00000000000E+00  0.00000000000E+00 -0.12269539164E+04  0.12269539164E+04  0.25500000920E-02 0.  1.
    10030    2    1    2    0    0  0.00000000000E+00  0.00000000000E+00  0.65672911709E+03  0.31106369499E+04  0.30405211891E+04 0.  0.
        4    1    3    3  502    0  0.89396128254E+03 -0.11774745507E+04  0.69090572676E+03  0.16318595002E+04  0.12699999809E+01 0. -1.
       -4    1    3    3    0  502 -0.89396128254E+03  0.11774745507E+04 -0.34176609674E+02  0.14787774497E+04  0.12699999809E+01 0.  1.
</event>
<event>
 5   0  0.5003556E-06  0.2981853E+04  0.7818609E-02  0.8248932E-01
        2   -1    0    0  501    0  0.00000000000E+00  0.00000000000E+00  0.12115187807E+04  0.12115187807E+04  0.25500000920E-02 0.  1.
       -2   -1    0    0    0  501  0.00000000000E+00  0.00000000000E+00 -0.18347728088E+04  0.18347728088E+04  0.25500000920E-02 0. -1.
    10030    2    1    2    0    0  0.00000000000E+00  0.00000000000E+00 -0.62325402803E+03  0.30462915895E+04  0.29818529247E+04 0.  0.
        3    1    3    3  502    0  0.59823079386E+03  0.12830034007E+04 -0.78958768148E+03  0.16209338438E+04  0.10100000352E+00 0.  1.
       -3    1    3    3    0  502 -0.59823079386E+03 -0.12830034007E+04  0.16633365345E+03  0.14253577457E+04  0.10100000352E+00 0. -1.
</event>
<event>
 5   0  0.1672907E-06  0.2979217E+04  0.7818609E-02  0.8249691E-01
        1   -1    0    0  501    0  0.00000000000E+00  0.00000000000E+00  0.30657666621E+04  0.30657666621E+04  0.50400001928E-02 0. -1.
       -1   -1    0    0    0  501  0.00000000000E+00  0.00000000000E+00 -0.72377745590E+03  0.72377745591E+03  0.50400001928E-02 0.  1.
    10030    2    1    2    0    0  0.00000000000E+00  0.00000000000E+00  0.23419892062E+04  0.37895441180E+04  0.29792165380E+04 0.  0.
        5    1    3    3  502    0 -0.55553602132E+03 -0.40878778694E+03  0.28504032531E+04  0.29326691803E+04  0.46999998093E+01 0. -1.
       -5    1    3    3    0  502  0.55553602132E+03  0.40878778694E+03 -0.50841404693E+03  0.85687493770E+03  0.46999998093E+01 0.  1.
</event>
<event>
 5   0  0.1734885E-06  0.2989142E+04  0.7818609E-02  0.8246838E-01
       -1   -1    0    0    0  501  0.00000000000E+00  0.00000000000E+00  0.15559653765E+04  0.15559653765E+04  0.50400001928E-02 0. -1.
        1   -1    0    0  501    0  0.00000000000E+00  0.00000000000E+00 -0.14355987039E+04  0.14355987039E+04  0.50400001928E-02 0.  1.
    10030    2    1    2    0    0  0.00000000000E+00  0.00000000000E+00  0.12036667264E+03  0.29915640804E+04  0.29891416011E+04 0.  0.
        2    1    3    3  502    0 -0.11121727888E+04 -0.97702122773E+03 -0.14551446089E+03  0.14875057142E+04  0.25500000920E-02 0. -1.
       -2    1    3    3    0  502  0.11121727888E+04  0.97702122773E+03  0.26588113353E+03  0.15040583661E+04  0.25500000920E-02 0.  1.
</event>
<event>
 5   0  0.4768570E-06  0.3020411E+04  0.7818609E-02  0.8237926E-01
       -2   -1    0    0    0  501  0.00000000000E+00  0.00000000000E+00  0.19751848097E+04  0.19751848097E+04  0.25500000920E-02 0. -1.
        2   -1    0    0  501    0  0.00000000000E+00  0.00000000000E+00 -0.11546869630E+04  0.11546869630E+04  0.25500000920E-02 0.  1.
    10030    2    1    2    0    0  0.00000000000E+00  0.00000000000E+00  0.82049784666E+03  0.31298717727E+04  0.30204106670E+04 0.  0.
        1    1    3    3  502    0  0.14137769385E+03 -0.94353894438E+03  0.16233438956E+04  0.18829494936E+04  0.50400001928E-02 0. -1.
       -1    1    3    3    0  502 -0.14137769385E+03  0.94353894438E+03 -0.80284604897E+03  0.12469222792E+04  0.50400001928E-02 0.  1.
</event>
<event>
 5   0  0.4532420E-06  0.2987831E+04  0.7818609E-02  0.8247214E-01
       -2   -1    0    0    0  501  0.00000000000E+00  0.00000000000E+00  0.15346757268E+04  0.15346757268E+04  0.25500000920E-02 0. -1.
        2   -1    0    0  501    0  0.00000000000E+00  0.00000000000E+00 -0.14542374814E+04  0.14542374814E+04  0.25500000920E-02 0.  1.
    10030    2    1    2    0    0  0.00000000000E+00  0.00000000000E+00  0.80438245371E+02  0.29889132081E+04  0.29878306268E+04 0.  0.
        4    1    3    3  502    0 -0.10568865100E+04 -0.99047754610E+03  0.40603794415E+03  0.15043015952E+04  0.12699999809E+01 0. -1.
       -4    1    3    3    0  502  0.10568865100E+04  0.99047754610E+03 -0.32559969878E+03  0.14846116129E+04  0.12699999809E+01 0.  1.
</event>
<event>
 5   0  0.5003556E-06  0.2907071E+04  0.7818609E-02  0.8270777E-01
        2   -1    0    0  501    0  0.00000000000E+00  0.00000000000E+00  0.15070514108E+04  0.15070514108E+04  0.25500000920E-02 0.  1.
       -2   -1    0    0    0  501  0.00000000000E+00  0.00000000000E+00 -0.14019201623E+04  0.14019201623E+04  0.25500000920E-02 0. -1.
    10030    2    1    2    0    0  0.00000000000E+00  0.00000000000E+00  0.10513124844E+03  0.29089715731E+04  0.29070712123E+04 0.  0.
        3    1    3    3  502    0  0.22216778115E+03 -0.10602287378E+03 -0.13809092679E+04  0.14026795034E+04  0.10100000352E+00 0. -1.
       -3    1    3    3    0  502 -0.22216778115E+03  0.10602287378E+03  0.14860405164E+04  0.15062920697E+04  0.10100000352E+00 0.  1.
</event>
<event>
 5   0  0.1709858E-06  0.2992332E+04  0.7818609E-02  0.8245924E-01
        1   -1    0    0  501    0  0.00000000000E+00  0.00000000000E+00  0.14054098342E+04  0.14054098343E+04  0.50400001928E-02 0. -1.
       -1   -1    0    0    0  501  0.00000000000E+00  0.00000000000E+00 -0.15927832608E+04  0.15927832608E+04  0.50400001928E-02 0.  1.
    10030    2    1    2    0    0  0.00000000000E+00  0.00000000000E+00 -0.18737342658E+03  0.29981930951E+04  0.29923323737E+04 0.  0.
        3    1    3    3  502    0  0.94551190055E+03 -0.84920744233E+03 -0.88476915795E+03  0.15485356009E+04  0.10100000352E+00 0.  1.
       -3    1    3    3    0  502 -0.94551190055E+03  0.84920744233E+03  0.69739573136E+03  0.14496574942E+04  0.10100000352E+00 0. -1.
</event>
<event>
 5   0  0.4702748E-06  0.2932248E+04  0.7818609E-02  0.8263347E-01
        2   -1    0    0  501    0  0.00000000000E+00  0.00000000000E+00  0.10553788329E+04  0.10553788329E+04  0.25500000920E-02 0.  1.
       -2   -1    0    0    0  501  0.00000000000E+00  0.00000000000E+00 -0.20367282051E+04  0.20367282051E+04  0.25500000920E-02 0. -1.
    10030    2    1    2    0    0  0.00000000000E+00  0.00000000000E+00 -0.98134937220E+03  0.30921070380E+04  0.29322481723E+04 0.  0.
        2    1    3    3  502    0  0.54511014843E+03  0.12926315695E+04 -0.93990209991E+03  0.16886258928E+04  0.25500000920E-02 0.  1.
       -2    1    3    3    0  502 -0.54511014843E+03 -0.12926315695E+04 -0.41447272292E+02  0.14034811452E+04  0.25500000920E-02 0. -1.
</event>
<event>
 5   0  0.1700885E-06  0.3051170E+04  0.7818609E-02  0.8229268E-01
        1   -1    0    0  501    0  0.00000000000E+00  0.00000000000E+00  0.16236115317E+04  0.16236115317E+04  0.50400001928E-02 0. -1.
       -1   -1    0    0    0  501  0.00000000000E+00  0.00000000000E+00 -0.14334766515E+04  0.14334766515E+04  0.50400001928E-02 0.  1.
    10030    2    1    2    0    0  0.00000000000E+00  0.00000000000E+00  0.19013488024E+03  0.30570881832E+04  0.30511697572E+04 0.  0.
        1    1    3    3  502    0  0.14920130385E+04  0.22918855434E+03 -0.12622047174E+03  0.15147811420E+04  0.50400001928E-02 0.  1.
       -1    1    3    3    0  502 -0.14920130385E+04 -0.22918855434E+03  0.31635535198E+03  0.15423070412E+04  0.50400001928E-02 0. -1.
</event>
<event>
 5   0  0.1734885E-06  0.2998806E+04  0.7818609E-02  0.8244072E-01
        1   -1    0    0  501    0  0.00000000000E+00  0.00000000000E+00  0.19102102516E+04  0.19102102516E+04  0.50400001928E-02 0. -1.
       -1   -1    0    0    0  501  0.00000000000E+00  0.00000000000E+00 -0.11769433282E+04  0.11769433283E+04  0.50400001928E-02 0.  1.
    10030    2    1    2    0    0  0.00000000000E+00  0.00000000000E+00  0.73326692332E+03  0.30871535798E+04  0.29988059031E+04 0.  0.
        2    1    3    3  502    0  0.94962915836E+03 -0.99232052975E+03  0.98577839122E+03  0.16906373380E+04  0.25500000920E-02 0. -1.
       -2    1    3    3    0  502 -0.94962915836E+03  0.99232052975E+03 -0.25251146790E+03  0.13965162418E+04  0.25500000920E-02 0.  1.
</event>
<event>
 5   0  0.4935331E-06  0.2983092E+04  0.7818609E-02  0.8248576E-01
        2   -1    0    0  501    0  0.00000000000E+00  0.00000000000E+00  0.15977472962E+04  0.15977472962E+04  0.25500000920E-02 0.  1.
       -2   -1    0    0    0  501  0.00000000000E+00  0.00000000000E+00 -0.13924038159E+04  0.13924038159E+04  0.25500000920E-02 0. -1.
    10030    2    1    2    0    0  0.00000000000E+00  0.00000000000E+00  0.20534348026E+03  0.29901511121E+04  0.29830919745E+04 0.  0.
        5    1    3    3  502    0  0.16360074087E+02 -0.13646947115E+04 -0.50043973836E+03  0.14536579135E+04  0.46999998093E+01 0. -1.
       -5    1    3    3    0  502 -0.16360074087E+02  0.13646947115E+04  0.70578321862E+03  0.15364931986E+04  0.46999998093E+01 0.  1.
</event>
<event>
 5   0  0.1700885E-06  0.3016896E+04  0.7818609E-02  0.8238922E-01
       -1   -1    0    0    0  501  0.00000000000E+00  0.00000000000E+00  0.14371002553E+04  0.14371002554E+04  0.50400001928E-02 0.  1.
        1   -1    0    0  501    0  0.00000000000E+00  0.00000000000E+00 -0.15833384642E+04  0.15833384642E+04  0.50400001928E-02 0. -1.
    10030    2    1    2    0    0  0.00000000000E+00  0.00000000000E+00 -0.14623820882E+03  0.30204387195E+04  0.30168964922E+04 0.  0.
        1    1    3    3  502    0  0.57385914622E+03  0.11288007109E+04  0.74754495193E+03  0.14704859128E+04  0.50400001928E-02 0.  1.
       -1    1    3    3    0  502 -0.57385914622E+03 -0.11288007109E+04 -0.89378316075E+03  0.15499528067E+04  0.50400001928E-02 0. -1.
</event>
<event>
 5   0  0.4532420E-06  0.2944295E+04  0.7818609E-02  0.8259819E-01
        2   -1    0    0  501    0  0.00000000000E+00  0.00000000000E+00  0.11970402374E+04  0.11970402374E+04  0.25500000920E-02 0. -1.
       -2   -1    0    0    0  501  0.00000000000E+00  0.00000000000E+00 -0.18104807225E+04  0.18104807225E+04  0.25500000920E-02 0.  1.
    10030    2    1    2    0    0  0.00000000000E+00  0.00000000000E+00 -0.61344048508E+03  0.30075209599E+04  0.29442950082E+04 0.  0.
        4    1    3    3  502    0 -0.60279876875E+03 -0.13275909314E+04 -0.51444051189E+03  0.15461289371E+04  0.12699999809E+01 0. -1.
       -4    1    3    3    0  502  0.60279876875E+03  0.13275909314E+04 -0.98999973186E+02  0.14613920228E+04  0.12699999809E+01 0.  1.
</event>
<event>
 5   0  0.1545375E-06  0.2933976E+04  0.7818609E-02  0.8262840E-01
        3   -1    0    0  501    0  0.00000000000E+00  0.00000000000E+00  0.24660683520E+04  0.24660683540E+04  0.10100000352E+00 0.  1.
       -3   -1    0    0    0  501  0.00000000000E+00  0.00000000000E+00 -0.87266589693E+03  0.87266590278E+03  0.10100000352E+00 0. -1.
    10030    2    1    2    0    0  0.00000000000E+00  0.00000000000E+00  0.15934024550E+04  0.33387342568E+04  0.29339759805E+04 0.  0.
        3    1    3    3  502    0  0.14208354764E+03  0.14259853259E+04  0.11537217366E+04  0.18397542607E+04  0.10100000352E+00 0. -1.
       -3    1    3    3    0  502 -0.14208354764E+03 -0.14259853259E+04  0.43968071845E+03  0.14989799961E+04  0.10100000352E+00 0.  1.
</event>
<event>
 5   0  0.5003556E-06  0.3000789E+04  0.7818609E-02  0.8243506E-01
       -2   -1    0    0    0  501  0.00000000000E+00  0.00000000000E+00  0.11411708297E+04  0.11411708297E+04  0.25500000920E-02 0. -1.
        2   -1    0    0  501    0  0.00000000000E+00  0.00000000000E+00 -0.19726969083E+04  0.19726969083E+04  0.25500000920E-02 0.  1.
    10030    2    1    2    0    0  0.00000000000E+00  0.00000000000E+00 -0.83152607857E+03  0.31138677381E+04  0.30007893413E+04 0.  0.
        3    1    3    3  502    0 -0.83902725832E+03 -0.12217454731E+04 -0.17339040084E+03  0.14922107701E+04  0.10100000352E+00 0. -1.
       -3    1    3    3    0  502  0.83902725832E+03  0.12217454731E+04 -0.65813567772E+03  0.16216569679E+04  0.10100000352E+00 0.  1.
</event>
<event>
 5   0  0.5003556E-06  0.3016364E+04  0.7818609E-02  0.8239073E-01
        2   -1    0    0  501    0  0.00000000000E+00  0.00000000000E+00  0.28044154008E+04  0.28044154008E+04  0.25500000920E-02 0. -1.
       -2   -1    0    0    0  501  0.00000000000E+00  0.00000000000E+00 -0.81108295151E+03  0.81108295151E+03  0.25500000920E-02 0.  1.
    10030    2    1    2    0    0  0.00000000000E+00  0.00000000000E+00  0.19933324493E+04  0.36154983523E+04  0.30163643815E+04 0.  0.
        3    1    3    3  502    0  0.82446404045E+02 -0.94745330934E+03 -0.40636764960E+03  0.10342146101E+04  0.10100000352E+00 0.  1.
       -3    1    3    3    0  502 -0.82446404045E+02  0.94745330934E+03  0.23997000989E+04  0.25812837422E+04  0.10100000352E+00 0. -1.
</event>
<event>
 5   0  0.1709858E-06  0.2992831E+04  0.7818609E-02  0.8245781E-01
       -1   -1    0    0    0  501  0.00000000000E+00  0.00000000000E+00  0.23173260177E+04  0.23173260177E+04  0.50400001928E-02 0. -1.
        1   -1    0    0  501    0  0.00000000000E+00  0.00000000000E+00 -0.96631164249E+03  0.96631164250E+03  0.50400001928E-02 0.  1.
    10030    2    1    2    0    0  0.00000000000E+00  0.00000000000E+00  0.13510143752E+04  0.32836376602E+04  0.29928308408E+04 0.  0.
        3    1    3    3  502    0 -0.12844773852E+04 -0.24443205225E+02  0.15173856303E+04  0.19881998855E+04  0.10100000352E+00 0. -1.
       -3    1    3    3    0  502  0.12844773852E+04  0.24443205225E+02 -0.16637125508E+03  0.12954377747E+04  0.10100000352E+00 0.  1.
</event>
<event>
 5   0  0.4702748E-06  0.2994042E+04  0.7818609E-02  0.8245434E-01
       -2   -1    0    0    0  501  0.00000000000E+00  0.00000000000E+00  0.78928591089E+03  0.78928591089E+03  0.25500000920E-02 0.  1.
        2   -1    0    0  501    0  0.00000000000E+00  0.00000000000E+00 -0.28393666038E+04  0.28393666038E+04  0.25500000920E-02 0. -1.
    10030    2    1    2    0    0  0.00000000000E+00  0.00000000000E+00 -0.20500806929E+04  0.36286525147E+04  0.29940421215E+04 0.  0.
        2    1    3    3  502    0  0.80788278306E+03  0.11321999102E+04 -0.35404814757E+03  0.14352356317E+04  0.25500000920E-02 0. -1.
       -2    1    3    3    0  502 -0.80788278306E+03 -0.11321999102E+04 -0.16960325454E+04  0.21934168830E+04  0.25500000920E-02 0.  1.
</event>
<event>
 5   0  0.4532420E-06  0.3005247E+04  0.7818609E-02  0.8242234E-01
        2   -1    0    0  501    0  0.00000000000E+00  0.00000000000E+00  0.16119598518E+04  0.16119598518E+04  0.25500000920E-02 0.  1.
       -2   -1    0    0    0  501  0.00000000000E+00  0.00000000000E+00 -0.14007031890E+04  0.14007031890E+04  0.25500000920E-02 0. -1.
    10030    2    1    2    0    0  0.00000000000E+00  0.00000000000E+00  0.21125666275E+03  0.30126630408E+04  0.30052469482E+04 0.  0.
        4    1    3    3  502    0  0.14430856109E+04  0.34479446184E+03  0.34390457632E+03  0.15230401412E+04  0.12699999809E+01 0.  1.
       -4    1    3    3    0  502 -0.14430856109E+04 -0.34479446184E+03 -0.13264791358E+03  0.14896228996E+04  0.12699999809E+01 0. -1.
</event>
<event>
 5   0  0.4532420E-06  0.3036321E+04  0.7818609E-02  0.8233435E-01
       -2   -1    0    0    0  501  0.00000000000E+00  0.00000000000E+00  0.15112090807E+04  0.15112090807E+04  0.25500000920E-02 0.  1.
        2   -1    0    0  501    0  0.00000000000E+00  0.00000000000E+00 -0.15251434072E+04  0.15251434072E+04  0.25500000920E-02 0. -1.
    10030    2    1    2    0    0  0.00000000000E+00  0.00000000000E+00 -0.13934326464E+02  0.30363524879E+04  0.30363205143E+04 0.  0.
        4    1    3    3  502    0 -0.50916938215E+03 -0.10474038584E+03 -0.14333709614E+04  0.15247222482E+04  0.12699999809E+01 0. -1.
       -4    1    3    3    0  502  0.50916938215E+03  0.10474038584E+03  0.14194366350E+04  0.15116302397E+04  0.12699999809E+01 0.  1.
</event>
<event>
 5   0  0.1686012E-06  0.2978949E+04  0.7818609E-02  0.8249768E-01
        1   -1    0    0  501    0  0.00000000000E+00  0.00000000000E+00  0.85572495292E+03  0.85572495293E+03  0.50400001928E-02 0. -1.
       -1   -1    0    0    0  501  0.00000000000E+00  0.00000000000E+00 -0.25925778346E+04  0.25925778346E+04  0.50400001928E-02 0.  1.
    10030    2    1    2    0    0  0.00000000000E+00  0.00000000000E+00 -0.17368528817E+04  0.34483027875E+04  0.29789485027E+04 0.  0.
        4    1    3    3  502    0 -0.70681859350E+03 -0.12160965009E+03  0.64268457298E+03  0.96302985642E+03  0.12699999809E+01 0. -1.
       -4    1    3    3    0  502  0.70681859350E+03  0.12160965009E+03 -0.23795374546E+04  0.24852729311E+04  0.12699999809E+01 0.  1.
</event>
<event>
 5   0  0.1672907E-06  0.3013790E+04  0.7818609E-02  0.8239804E-01
       -1   -1    0    0    0  501  0.00000000000E+00  0.00000000000E+00  0.12703151845E+04  0.12703151845E+04  0.50400001928E-02 0. -1.
        1   -1    0    0  501    0  0.00000000000E+00  0.00000000000E+00 -0.17875350445E+04  0.17875350445E+04  0.50400001928E-02 0.  1.
    10030    2    1    2    0    0  0.00000000000E+00  0.00000000000E+00 -0.51721985998E+03  0.30578502291E+04  0.30137902448E+04 0.  0.
        5    1    3    3  502    0  0.13695467798E+04  0.77535431849E+02  0.37423995196E+03  0.14218817662E+04  0.46999998093E+01 0.  1.
       -5    1    3    3    0  502 -0.13695467798E+04 -0.77535431849E+02 -0.89145981194E+03  0.16359684629E+04  0.46999998093E+01 0. -1.
</event>
<event>
 5   0  0.1700885E-06  0.3003122E+04  0.7818609E-02  0.8242840E-01
       -1   -1    0    0    0  501  0.00000000000E+00  0.00000000000E+00  0.14685109163E+04  0.14685109163E+04  0.50400001928E-02 0.  1.
        1   -1    0    0  501    0  0.00000000000E+00  0.00000000000E+00 -0.15353550334E+04  0.15353550335E+04  0.50400001928E-02 0. -1.
    10030    2    1    2    0    0  0.00000000000E+00  0.00000000000E+00 -0.66844117175E+02  0.30038659497E+04  0.30031221267E+04 0.  0.
        1    1    3    3  502    0 -0.53961836467E+03 -0.59516229520E+03  0.12354659474E+04  0.14736967952E+04  0.50400001928E-02 0.  1.
       -1    1    3    3    0  502  0.53961836467E+03  0.59516229520E+03 -0.13023100646E+04  0.15301691545E+04  0.50400001928E-02 0. -1.
</event>
<event>
 5   0  0.1686012E-06  0.3002829E+04  0.7818609E-02  0.8242923E-01
       -1   -1    0    0    0  501  0.00000000000E+00  0.00000000000E+00  0.21016899134E+04  0.21016899134E+04  0.50400001928E-02 0. -1.
        1   -1    0    0  501    0  0.00000000000E+00  0.00000000000E+00 -0.10725874131E+04  0.10725874131E+04  0.50400001928E-02 0.  1.
    10030    2    1    2    0    0  0.00000000000E+00  0.00000000000E+00  0.10291025004E+04  0.31742773265E+04  0.30028294306E+04 0.  0.
        4    1    3    3  502    0 -0.61715282194E+03 -0.57254647973E+03 -0.79963458161E+03  0.11610788751E+04  0.12699999809E+01 0.  1.
       -4    1    3    3    0  502  0.61715282194E+03  0.57254647973E+03  0.18287370820E+04  0.20131984515E+04  0.12699999809E+01 0. -1.
</event>
<event>
 5   0  0.1700885E-06  0.2982521E+04  0.7818609E-02  0.8248740E-01
        1   -1    0    0  501    0  0.00000000000E+00  0.00000000000E+00  0.15966233545E+04  0.15966233545E+04  0.50400001928E-02 0. -1.
       -1   -1    0    0    0  501  0.00000000000E+00  0.00000000000E+00 -0.13928506381E+04  0.13928506381E+04  0.50400001928E-02 0.  1.
    10030    2    1    2    0    0  0.00000000000E+00  0.00000000000E+00  0.20377271642E+03  0.29894739926E+04  0.29825209861E+04 0.  0.
        1    1    3    3  502    0 -0.36015567366E+03  0.83308933550E+03  0.12879063937E+04  0.15755801563E+04  0.50400001928E-02 0. -1.
       -1    1    3    3    0  502  0.36015567366E+03 -0.83308933550E+03 -0.10841336772E+04  0.14138938363E+04  0.50400001928E-02 0.  1.
</event>
<event>
 5   0  0.4702748E-06  0.2984767E+04  0.7818609E-02  0.8248094E-01
        2   -1    0    0  501    0  0.00000000000E+00  0.00000000000E+00  0.15241730096E+04  0.15241730096E+04  0.25500000920E-02 0. -1.
       -2   -1    0    0    0  501  0.00000000000E+00  0.00000000000E+00 -0.14612572952E+04  0.14612572952E+04  0.25500000920E-02 0.  1.
    10030    2    1    2    0    0  0.00000000000E+00  0.00000000000E+00  0.62915714375E+02  0.29854303049E+04  0.29847672804E+04 0.  0.
        2    1    3    3  502    0  0.80720540970E+02 -0.14901842208E+04  0.38101006333E+02  0.14928551518E+04  0.25500000920E-02 0. -1.
       -2    1    3    3    0  502 -0.80720540970E+02  0.14901842208E+04  0.24814708043E+02  0.14925751530E+04  0.25500000920E-02 0.  1.
</event>
<event>
 5   0  0.1686012E-06  0.3026776E+04  0.7818609E-02  0.8236126E-01
        1   -1    0    0  501    0  0.00000000000E+00  0.00000000000E+00  0.13911220182E+04  0.13911220182E+04  0.50400001928E-02 0. -1.
       -1   -1    0    0    0  501  0.00000000000E+00  0.00000000000E+00 -0.16463997278E+04  0.16463997278E+04  0.50400001928E-02 0.  1.
    10030    2    1    2    0    0  0.00000000000E+00  0.00000000000E+00 -0.25527770962E+03  0.30375217461E+04  0.30267757844E+04 0.  0.
        4    1    3    3  502    0  0.11400395178E+04  0.95495882257E+03  0.15390099690E+03  0.14950998577E+04  0.12699999809E+01 0. -1.
       -4    1    3    3    0  502 -0.11400395178E+04 -0.95495882257E+03 -0.40917870652E+03  0.15424218883E+04  0.12699999809E+01 0.  1.
</event>
<event>
 5   0  0.4702748E-06  0.2980893E+04  0.7818609E-02  0.8249208E-01
       -2   -1    0    0    0  501  0.00000000000E+00  0.00000000000E+00  0.17513859521E+04  0.17513859521E+04  0.25500000920E-02 0.  1.
        2   -1    0    0  501    0  0.00000000000E+00  0.00000000000E+00 -0.12683847704E+04  0.12683847704E+04  0.25500000920E-02 0. -1.
    10030    2    1    2    0    0  0.00000000000E+00  0.00000000000E+00  0.48300118172E+03  0.30197707225E+04  0.29808933350E+04 0.  0.
        2    1    3    3  502    0 -0.80402846943E+03  0.10475796230E+04 -0.45855951956E+03  0.13979133304E+04  0.25500000920E-02 0. -1.
       -2    1    3    3    0  502  0.80402846943E+03 -0.10475796230E+04  0.94156070128E+03  0.16218573921E+04  0.25500000920E-02 0.  1.
</event>
<event>
 5   0  0.1700885E-06  0.3042210E+04  0.7818609E-02  0.8231779E-01
        1   -1    0    0  501    0  0.00000000000E+00  0.00000000000E+00  0.24645812031E+04  0.24645812031E+04  0.50400001928E-02 0.  1.
       -1   -1    0    0    0  501  0.00000000000E+00  0.00000000000E+00 -0.93880455594E+03  0.93880455596E+03  0.50400001928E-02 0. -1.
    10030    2    1    2    0    0  0.00000000000E+00  0.00000000000E+00  0.15257766471E+04  0.34033857591E+04  0.30422097640E+04 0.  0.
        1    1    3    3  502    0  0.71640927574E+03 -0.13237345747E+04  0.51716503462E+03  0.15915323269E+04  0.50400001928E-02 0. -1.
       -1    1    3    3    0  502 -0.71640927574E+03  0.13237345747E+04  0.10086116125E+04  0.18118534321E+04  0.50400001928E-02 0.  1.
</event>
<event>
 5   0  0.1709858E-06  0.2995572E+04  0.7818609E-02  0.8244996E-01
       -1   -1    0    0    0  501  0.00000000000E+00  0.00000000000E+00  0.87111664416E+03  0.87111664418E+03  0.50400001928E-02 0. -1.
        1   -1    0    0  501    0  0.00000000000E+00  0.00000000000E+00 -0.25752732454E+04  0.25752732454E+04  0.50400001928E-02 0.  1.
    10030    2    1    2    0    0  0.00000000000E+00  0.00000000000E+00 -0.17041566012E+04  0.34463898896E+04  0.29955723242E+04 0.  0.
        3    1    3    3  502    0 -0.13804208711E+04 -0.53907520928E+03 -0.11020284288E+04  0.18467892491E+04  0.10100000352E+00 0. -1.
       -3    1    3    3    0  502  0.13804208711E+04  0.53907520928E+03 -0.60212817245E+03  0.15996006404E+04  0.10100000352E+00 0.  1.
</event>
<event>
 5   0  0.4702748E-06  0.2984438E+04  0.7818609E-02  0.8248189E-01
        2   -1    0    0  501    0  0.00000000000E+00  0.00000000000E+00  0.17169176012E+04  0.17169176012E+04  0.25500000920E-02 0.  1.
       -2   -1    0    0    0  501  0.00000000000E+00  0.00000000000E+00 -0.12969275546E+04  0.12969275546E+04  0.25500000920E-02 0. -1.
    10030    2    1    2    0    0  0.00000000000E+00  0.00000000000E+00  0.41999004660E+03  0.30138451559E+04  0.29844381354E+04 0.  0.
        2    1    3    3  502    0 -0.80991657627E+02  0.37005283948E+03 -0.12475628845E+04  0.13038066971E+04  0.25500000920E-02 0. -1.
       -2    1    3    3    0  502  0.80991657627E+02 -0.37005283948E+03  0.16675529311E+04  0.17100384588E+04  0.25500000920E-02 0.  1.
</event>
<event>
 5   0  0.4768570E-06  0.2971128E+04  0.7818609E-02  0.8252024E-01
        2   -1    0    0  501    0  0.00000000000E+00  0.00000000000E+00  0.21327156351E+04  0.21327156351E+04  0.25500000920E-02 0. -1.
       -2   -1    0    0    0  501  0.00000000000E+00  0.00000000000E+00 -0.10347840906E+04  0.10347840906E+04  0.25500000920E-02 0.  1.
    10030    2    1    2    0    0  0.00000000000E+00  0.00000000000E+00  0.10979315445E+04  0.31674997257E+04  0.29711278727E+04 0.  0.
        1    1    3    3  502    0  0.41449981323E+03  0.49654009772E+03  0.19747189025E+04  0.20779501697E+04  0.50400001928E-02 0. -1.
       -1    1    3    3    0  502 -0.41449981323E+03 -0.49654009772E+03 -0.87678735802E+03  0.10895495560E+04  0.50400001928E-02 0.  1.
</event>
<event>
 5   0  0.4935331E-06  0.3001484E+04  0.7818609E-02  0.8243307E-01
       -2   -1    0    0    0  501  0.00000000000E+00  0.00000000000E+00  0.87379855560E+03  0.87379855561E+03  0.25500000920E-02 0.  1.
        2   -1    0    0  501    0  0.00000000000E+00  0.00000000000E+00 -0.25775117182E+04  0.25775117182E+04  0.25500000920E-02 0. -1.
    10030    2    1    2    0    0  0.00000000000E+00  0.00000000000E+00 -0.17037131626E+04  0.34513102738E+04  0.30014836441E+04 0.  0.
        5    1    3    3  502    0 -0.68957758012E+03  0.26580801323E+03  0.65004581377E+03  0.98425240101E+03  0.46999998093E+01 0.  1.
       -5    1    3    3    0  502  0.68957758012E+03 -0.26580801323E+03 -0.23537589763E+04  0.24670578728E+04  0.46999998093E+01 0. -1.
</event>
<event>
 5   0  0.1686012E-06  0.2958278E+04  0.7818609E-02  0.8255746E-01
        1   -1    0    0  501    0  0.00000000000E+00  0.00000000000E+00  0.12750140539E+04  0.12750140539E+04  0.50400001928E-02 0.  1.
       -1   -1    0    0    0  501  0.00000000000E+00  0.00000000000E+00 -0.17159430917E+04  0.17159430918E+04  0.50400001928E-02 0. -1.
    10030    2    1    2    0    0  0.00000000000E+00  0.00000000000E+00 -0.44092903789E+03  0.29909571456E+04  0.29582775783E+04 0.  0.
        4    1    3    3  502    0  0.61202955059E+03  0.95373267628E+03  0.74064903235E+03  0.13537905269E+04  0.12699999809E+01 0.  1.
       -4    1    3    3    0  502 -0.61202955059E+03 -0.95373267628E+03 -0.11815780702E+04  0.16371666188E+04  0.12699999809E+01 0. -1.
</event>
<event>
 5   0  0.1700885E-06  0.2972438E+04  0.7818609E-02  0.8251645E-01
        1   -1    0    0  501    0  0.00000000000E+00  0.00000000000E+00  0.18956088545E+04  0.18956088545E+04  0.50400001928E-02 0. -1.
       -1   -1    0    0    0  501  0.00000000000E+00  0.00000000000E+00 -0.11652439880E+04  0.11652439880E+04  0.50400001928E-02 0.  1.
    10030    2    1    2    0    0  0.00000000000E+00  0.00000000000E+00  0.73036486649E+03  0.30608528426E+04  0.29724379364E+04 0.  0.
        1    1    3    3  502    0  0.53319163222E+03  0.13660667509E+04  0.11630108335E+03  0.14710396414E+04  0.50400001928E-02 0.  1.
       -1    1    3    3    0  502 -0.53319163222E+03 -0.13660667509E+04  0.61406378314E+03  0.15898132011E+04  0.50400001928E-02 0. -1.
</event>
<event>
 5   0  0.1672907E-06  0.2996131E+04  0.7818609E-02  0.8244837E-01
       -1   -1    0    0    0  501  0.00000000000E+00  0.00000000000E+00  0.13553911303E+04  0.13553911303E+04  0.50400001928E-02 0. -1.
        1   -1    0    0  501    0  0.00000000000E+00  0.00000000000E+00 -0.16557582019E+04  0.16557582019E+04  0.50400001928E-02 0.  1.
    10030    2    1    2    0    0  0.00000000000E+00  0.00000000000E+00 -0.30036707161E+03  0.30111493322E+04  0.29961308254E+04 0.  0.
        5    1    3    3  502    0 -0.72744390460E+03  0.12798607655E+04  0.12862312214E+03  0.14777632459E+04  0.46999998093E+01 0. -1.
       -5    1    3    3    0  502  0.72744390460E+03 -0.12798607655E+04 -0.42899019375E+03  0.15333860863E+04  0.46999998093E+01 0.  1.
</event>
<event>
 5   0  0.5003556E-06  0.3117767E+04  0.7818609E-02  0.8210879E-01
        2   -1    0    0  501    0  0.00000000000E+00  0.00000000000E+00  0.12897067796E+04  0.12897067796E+04  0.25500000920E-02 0. -1.
       -2   -1    0    0    0  501  0.00000000000E+00  0.00000000000E+00 -0.18842406932E+04  0.18842406932E+04  0.25500000920E-02 0.  1.
    10030    2    1    2    0    0  0.00000000000E+00  0.00000000000E+00 -0.59453391367E+03  0.31739474728E+04  0.31177671475E+04 0.  0.
        3    1    3    3  502    0 -0.81807805856E+03 -0.63751127343E+03 -0.14820446000E+04  0.18089025790E+04  0.10100000352E+00 0.  1.
       -3    1    3    3    0  502  0.81807805856E+03  0.63751127343E+03  0.88751068633E+03  0.13650448938E+04  0.10100000352E+00 0. -1.
</event>
<event>
 5   0  0.4702748E-06  0.2980982E+04  0.7818609E-02  0.8249182E-01
        2   -1    0    0  501    0  0.00000000000E+00  0.00000000000E+00  0.21782112589E+04  0.21782112589E+04  0.25500000920E-02 0.  1.
       -2   -1    0    0    0  501  0.00000000000E+00  0.00000000000E+00 -0.10199029746E+04  0.10199029746E+04  0.25500000920E-02 0. -1.
    10030    2    1    2    0    0  0.00000000000E+00  0.00000000000E+00  0.11583082843E+04  0.31981142334E+04  0.29809824838E+04 0.  0.
        2    1    3    3  502    0  0.35859754842E+03  0.81255746484E+03 -0.70499527642E+03  0.11339577484E+04  0.25500000920E-02 0. -1.
       -2    1    3    3    0  502 -0.35859754842E+03 -0.81255746484E+03  0.18633035607E+04  0.20641564850E+04  0.25500000920E-02 0.  1.
</event>
<event>
 5   0  0.1734885E-06  0.3036444E+04  0.7818609E-02  0.8233400E-01
       -1   -1    0    0    0  501  0.00000000000E+00  0.00000000000E+00  0.11549656379E+04  0.11549656379E+04  0.50400001928E-02 0. -1.
        1   -1    0    0  501    0  0.00000000000E+00  0.00000000000E+00 -0.19957283462E+04  0.19957283462E+04  0.50400001928E-02 0.  1.
    10030    2    1    2    0    0  0.00000000000E+00  0.00000000000E+00 -0.84076270822E+03  0.31506939841E+04  0.30364437505E+04 0.  0.
        2    1    3    3  502    0  0.18666695399E+03 -0.20450470481E+02  0.11428690518E+04  0.11581936120E+04  0.25500000920E-02 0. -1.
       -2    1    3    3    0  502 -0.18666695399E+03  0.20450470481E+02 -0.19836317600E+04  0.19925003721E+04  0.25500000920E-02 0.  1.
</event>
<event>
 5   0  0.1734885E-06  0.2994016E+04  0.7818609E-02  0.8245442E-01
       -1   -1    0    0    0  501  0.00000000000E+00  0.00000000000E+00  0.20029312262E+04  0.20029312262E+04  0.50400001928E-02 0. -1.
        1   -1    0    0  501    0  0.00000000000E+00  0.00000000000E+00 -0.11188769648E+04  0.11188769648E+04  0.50400001928E-02 0.  1.
    10030    2    1    2    0    0  0.00000000000E+00  0.00000000000E+00  0.88405426143E+03  0.31218081910E+04  0.29940164402E+04 0.  0.
        2    1    3    3  502    0  0.53183563154E+03 -0.11279916200E+04  0.13055163323E+04  0.18054326705E+04  0.25500000920E-02 0. -1.
       -2    1    3    3    0  502 -0.53183563154E+03  0.11279916200E+04 -0.42146207088E+03  0.13163755205E+04  0.25500000920E-02 0.  1.
</event>
<event>
 5   0  0.4532420E-06  0.3013837E+04  0.7818609E-02  0.8239791E-01
       -2   -1    0    0    0  501  0.00000000000E+00  0.00000000000E+00  0.12234688903E+04  0.12234688903E+04  0.25500000920E-02 0. -1.
        2   -1    0    0  501    0  0.00000000000E+00  0.00000000000E+00 -0.18560370653E+04  0.18560370653E+04  0.25500000920E-02 0.  1.
    10030    2    1    2    0    0  0.00000000000E+00  0.00000000000E+00 -0.63256817495E+03  0.30795059556E+04  0.30138371612E+04 0.  0.
        4    1    3    3  502    0  0.38117390865E+03  0.14520239025E+04 -0.45003715334E+03  0.15672274929E+04  0.12699999809E+01 0. -1.
       -4    1    3    3    0  502 -0.38117390865E+03 -0.14520239025E+04 -0.18253102160E+03  0.15122784627E+04  0.12699999809E+01 0.  1.
</event>
<event>
 5   0  0.1709858E-06  0.3001283E+04  0.7818609E-02  0.8243364E-01
       -1   -1    0    0    0  501  0.00000000000E+00  0.00000000000E+00  0.17347173657E+04  0.17347173657E+04  0.50400001928E-02 0. -1.
        1   -1    0    0  501    0  0.00000000000E+00  0.00000000000E+00 -0.12981513057E+04  0.12981513058E+04  0.50400001928E-02 0.  1.
    10030    2    1    2    0    0  0.00000000000E+00  0.00000000000E+00  0.43656605998E+03  0.30328686715E+04  0.30012834678E+04 0.  0.
        3    1    3    3  502    0  0.32917695906E+03 -0.79647760637E+03 -0.10231370684E+04  0.13377382101E+04  0.10100000352E+00 0.  1.
       -3    1    3    3    0  502 -0.32917695906E+03  0.79647760637E+03  0.14597031284E+04  0.16951304614E+04  0.10100000352E+00 0. -1.
</event>
<event>
 5   0  0.4768570E-06  0.2993969E+04  0.7818609E-02  0.8245455E-01
       -2   -1    0    0    0  501  0.00000000000E+00  0.00000000000E+00  0.15875063150E+04  0.15875063150E+04  0.25500000920E-02 0.  1.
        2   -1    0    0  501    0  0.00000000000E+00  0.00000000000E+00 -0.14116239194E+04  0.14116239194E+04  0.25500000920E-02 0. -1.
    10030    2    1    2    0    0  0.00000000000E+00  0.00000000000E+00  0.17588239567E+03  0.29991302344E+04  0.29939685279E+04 0.  0.
        1    1    3    3  502    0 -0.59867231310E+03 -0.90839208075E+03  0.11180024722E+04  0.15599725122E+04  0.50400001928E-02 0. -1.
       -1    1    3    3    0  502  0.59867231310E+03  0.90839208075E+03 -0.94212007653E+03  0.14391577222E+04  0.50400001928E-02 0.  1.
</event>
<event>
 5   0  0.1734885E-06  0.2998257E+04  0.7818609E-02  0.8244229E-01
       -1   -1    0    0    0  501  0.00000000000E+00  0.00000000000E+00  0.24279613998E+04  0.24279613998E+04  0.50400001928E-02 0.  1.
        1   -1    0    0  501    0  0.00000000000E+00  0.00000000000E+00 -0.92562700597E+03  0.92562700598E+03  0.50400001928E-02 0. -1.
    10030    2    1    2    0    0  0.00000000000E+00  0.00000000000E+00  0.15023343938E+04  0.33535884058E+04  0.29982572545E+04 0.  0.
        2    1    3    3  502    0 -0.55935673305E+03 -0.22449562309E+03 -0.78413478098E+03  0.98901243387E+03  0.25500000920E-02 0. -1.
       -2    1    3    3    0  502  0.55935673305E+03  0.22449562309E+03  0.22864691748E+04  0.23645759719E+04  0.25500000920E-02 0.  1.
</event>
<event>
 5   0  0.1686012E-06  0.3062808E+04  0.7818609E-02  0.8226020E-01
       -1   -1    0    0    0  501  0.00000000000E+00  0.00000000000E+00  0.16099459753E+04  0.16099459753E+04  0.50400001928E-02 0. -1.
        1   -1    0    0  501    0  0.00000000000E+00  0.00000000000E+00 -0.14566940988E+04  0.14566940988E+04  0.50400001928E-02 0.  1.
    10030    2    1    2    0    0  0.00000000000E+00  0.00000000000E+00  0.15325187648E+03  0.30666400741E+04  0.30628083855E+04 0.  0.
        4    1    3    3  502    0  0.63609481998E+03 -0.71592662000E+02  0.14695727222E+04  0.16029309804E+04  0.12699999809E+01 0. -1.
       -4    1    3    3    0  502 -0.63609481998E+03  0.71592662000E+02 -0.13163208457E+04  0.14637090937E+04  0.12699999809E+01 0.  1.
</event>
<event>
 5   0  0.4532420E-06  0.2981749E+04  0.7818609E-02  0.8248962E-01
       -2   -1    0    0    0  501  0.00000000000E+00  0.00000000000E+00  0.11161636432E+04  0.11161636432E+04  0.25500000920E-02 0. -1.
        2   -1    0    0  501    0  0.00000000000E+00  0.00000000000E+00 -0.19913812093E+04  0.19913812093E+04  0.25500000920E-02 0.  1.
    10030    2    1    2    0    0  0.00000000000E+00  0.00000000000E+00 -0.87521756617E+03  0.31075448525E+04  0.29817493560E+04 0.  0.
        4    1    3    3  502    0 -0.48223606478E+03 -0.98938004711E+03 -0.14856593491E+04  0.18489482995E+04  0.12699999809E+01 0.  1.
       -4    1    3    3    0  502  0.48223606478E+03  0.98938004711E+03  0.61044178297E+03  0.12585965529E+04  0.12699999809E+01 0. -1.
</event>
<event>
 5   0  0.4702748E-06  0.3001868E+04  0.7818609E-02  0.8243198E-01
        2   -1    0    0  501    0  0.00000000000E+00  0.00000000000E+00  0.27974854560E+04  0.27974854560E+04  0.25500000920E-02 0. -1.
       -2   -1    0    0    0  501  0.00000000000E+00  0.00000000000E+00 -0.80529591357E+03  0.80529591358E+03  0.25500000920E-02 0.  1.
    10030    2    1    2    0    0  0.00000000000E+00  0.00000000000E+00  0.19921895424E+04  0.36027813696E+04  0.30018684888E+04 0.  0.
        2    1    3    3  502    0 -0.63957088295E+03  0.11208191974E+03 -0.62800606529E+03  0.90332988941E+03  0.25500000920E-02 0.  1.
       -2    1    3    3    0  502  0.63957088295E+03 -0.11208191974E+03  0.26201956077E+04  0.26994514802E+04  0.25500000920E-02 0. -1.
</event>
<event>
 5   0  0.1672907E-06  0.3040923E+04  0.7818609E-02  0.8232141E-01
       -1   -1    0    0    0  501  0.00000000000E+00  0.00000000000E+00  0.12604703369E+04  0.12604703369E+04  0.50400001928E-02 0.  1.
        1   -1    0    0  501    0  0.00000000000E+00  0.00000000000E+00 -0.18340792332E+04  0.18340792332E+04  0.50400001928E-02 0. -1.
    10030    2    1    2    0    0  0.00000000000E+00  0.00000000000E+00 -0.57360889632E+03  0.30945495702E+04  0.30409225371E+04 0.  0.
        5    1    3    3  502    0  0.68674330974E+03  0.10774656578E+04  0.55188480781E+03  0.13918144806E+04  0.46999998093E+01 0.  1.
       -5    1    3    3    0  502 -0.68674330974E+03 -0.10774656578E+04 -0.11254937041E+04  0.17027350896E+04  0.46999998093E+01 0. -1.
</event>
<event>
 5   0  0.4935331E-06  0.3067858E+04  0.7818609E-02  0.8224615E-01
       -2   -1    0    0    0  501  0.00000000000E+00  0.00000000000E+00  0.16497005541E+04  0.16497005541E+04  0.25500000920E-02 0. -1.
        2   -1    0    0  501    0  0.00000000000E+00  0.00000000000E+00 -0.14262821838E+04  0.14262821838E+04  0.25500000920E-02 0.  1.
    10030    2    1    2    0    0  0.00000000000E+00  0.00000000000E+00  0.22341837038E+03  0.30759827379E+04  0.30678582163E+04 0.  0.
        5    1    3    3  502    0 -0.37845255072E+03 -0.10113435798E+04 -0.98061352532E+03  0.14586525102E+04  0.46999998093E+01 0.  1.
       -5    1    3    3    0  502  0.37845255072E+03  0.10113435798E+04  0.12040318957E+04  0.16173302277E+04  0.46999998093E+01 0. -1.
</event>
<event>
 5   0  0.4702748E-06  0.2994890E+04  0.7818609E-02  0.8245192E-01
       -2   -1    0    0    0  501  0.00000000000E+00  0.00000000000E+00  0.95382032800E+03  0.95382032801E+03  0.25500000920E-02 0.  1.
        2   -1    0    0  501    0  0.00000000000E+00  0.00000000000E+00 -0.23509058115E+04  0.23509058115E+04  0.25500000920E-02 0. -1.
    10030    2    1    2    0    0  0.00000000000E+00  0.00000000000E+00 -0.13970854835E+04  0.33047261395E+04  0.29948901497E+04 0.  0.
        2    1    3    3  502    0 -0.14757556523E+04 -0.90919774208E+02 -0.96018164648E+03  0.17629719070E+04  0.25500000920E-02 0. -1.
       -2    1    3    3    0  502  0.14757556523E+04  0.90919774208E+02 -0.43690383701E+03  0.15417542325E+04  0.25500000920E-02 0.  1.
</event>
<event>
 5   0  0.1734885E-06  0.2995126E+04  0.7818609E-02  0.8245124E-01
        1   -1    0    0  501    0  0.00000000000E+00  0.00000000000E+00  0.20696799391E+04  0.20696799391E+04  0.50400001928E-02 0.  1.
       -1   -1    0    0    0  501  0.00000000000E+00  0.00000000000E+00 -0.10835951507E+04  0.10835951507E+04  0.50400001928E-02 0. -1.
    10030    2    1    2    0    0  0.00000000000E+00  0.00000000000E+00  0.98608478834E+03  0.31532750898E+04  0.29951261380E+04 0.  0.
        2    1    3    3  502    0  0.11423856166E+04  0.95977031836E+03  0.62824114195E+03  0.16189165801E+04  0.25500000920E-02 0. -1.
       -2    1    3    3    0  502 -0.11423856166E+04 -0.95977031836E+03  0.35784364639E+03  0.15343585097E+04  0.25500000920E-02 0.  1.
</event>
<event>
 5   0  0.1709858E-06  0.2823189E+04  0.7818609E-02  0.8296105E-01
       -1   -1    0    0    0  501  0.00000000000E+00  0.00000000000E+00  0.10885352166E+04  0.10885352166E+04  0.50400001928E-02 0. -1.
        1   -1    0    0  501    0  0.00000000000E+00  0.00000000000E+00 -0.18305319947E+04  0.18305319947E+04  0.50400001928E-02 0.  1.
    10030    2    1    2    0    0  0.00000000000E+00  0.00000000000E+00 -0.74199677808E+03  0.29190672112E+04  0.28231886521E+04 0.  0.
        3    1    3    3  502    0  0.26531182585E+03 -0.67674884198E+03  0.88014544341E+03  0.11415057476E+04  0.10100000352E+00 0. -1.
       -3    1    3    3    0  502 -0.26531182585E+03  0.67674884198E+03 -0.16221422215E+04  0.17775614636E+04  0.10100000352E+00 0.  1.
</event>
<event>
 5   0  0.4768570E-06  0.2982595E+04  0.7818609E-02  0.8248719E-01
       -2   -1    0    0    0  501  0.00000000000E+00  0.00000000000E+00  0.97419997684E+03  0.97419997684E+03  0.25500000920E-02 0.  1.
        2   -1    0    0  501    0  0.00000000000E+00  0.00000000000E+00 -0.22828659124E+04  0.22828659124E+04  0.25500000920E-02 0. -1.
    10030    2    1    2    0    0  0.00000000000E+00  0.00000000000E+00 -0.13086659355E+04  0.32570658892E+04  0.29825947891E+04 0.  0.
        1    1    3    3  502    0  0.13624229799E+04 -0.57983643935E+03 -0.84833637712E+03  0.17064821363E+04  0.50400001928E-02 0. -1.
       -1    1    3    3    0  502 -0.13624229799E+04  0.57983643935E+03 -0.46032955841E+03  0.15505837530E+04  0.50400001928E-02 0.  1.
</event>
<event>
 5   0  0.1709858E-06  0.2851217E+04  0.7818609E-02  0.8287542E-01
       -1   -1    0    0    0  501  0.00000000000E+00  0.00000000000E+00  0.16961046054E+04  0.16961046054E+04  0.50400001928E-02 0.  1.
        1   -1    0    0  501    0  0.00000000000E+00  0.00000000000E+00 -0.11982515194E+04  0.11982515194E+04  0.50400001928E-02 0. -1.
    10030    2    1    2    0    0  0.00000000000E+00  0.00000000000E+00  0.49785308607E+03  0.28943561248E+04  0.28512172281E+04 0.  0.
        3    1    3    3  502    0 -0.13316795264E+03 -0.96682355442E+03  0.13038211963E+04  0.16286286289E+04  0.10100000352E+00 0. -1.
       -3    1    3    3    0  502  0.13316795264E+03  0.96682355442E+03 -0.80596811019E+03  0.12657274959E+04  0.10100000352E+00 0.  1.
</event>
<event>
 5   0  0.4702748E-06  0.3024455E+04  0.7818609E-02  0.8236782E-01
       -2   -1    0    0    0  501  0.00000000000E+00  0.00000000000E+00  0.13581710281E+04  0.13581710281E+04  0.25500000920E-02 0. -1.
        2   -1    0    0  501    0  0.00000000000E+00  0.00000000000E+00 -0.16837584039E+04  0.16837584039E+04  0.25500000920E-02 0.  1.
    10030    2    1    2    0    0  0.00000000000E+00  0.00000000000E+00 -0.32558737581E+03  0.30419294321E+04  0.30244549146E+04 0.  0.
        2    1    3    3  502    0 -0.90439023006E+03  0.44446894505E+02  0.10553749273E+04  0.13905802572E+04  0.25500000920E-02 0. -1.
       -2    1    3    3    0  502  0.90439023006E+03 -0.44446894505E+02 -0.13809623031E+04  0.16513491748E+04  0.25500000920E-02 0.  1.
</event>
<event>
 5   0  0.5003556E-06  0.2559198E+04  0.7818609E-02  0.8382194E-01
        2   -1    0    0  501    0  0.00000000000E+00  0.00000000000E+00  0.12965700046E+04  0.12965700046E+04  0.25500000920E-02 0. -1.
       -2   -1    0    0    0  501  0.00000000000E+00  0.00000000000E+00 -0.12628497028E+04  0.12628497028E+04  0.25500000920E-02 0.  1.
    10030    2    1    2    0    0  0.00000000000E+00  0.00000000000E+00  0.33720301741E+02  0.25594197074E+04  0.25591975657E+04 0.  0.
        3    1    3    3  502    0 -0.12593958801E+04 -0.22620756871E+03  0.56704374940E+01  0.12795624295E+04  0.10100000352E+00 0.  1.
       -3    1    3    3    0  502  0.12593958801E+04  0.22620756871E+03  0.28049864247E+02  0.12798572780E+04  0.10100000352E+00 0. -1.
</event>
<event>
 5   0  0.4768570E-06  0.2986851E+04  0.7818609E-02  0.8247496E-01
       -2   -1    0    0    0  501  0.00000000000E+00  0.00000000000E+00  0.68546614166E+03  0.68546614167E+03  0.25500000920E-02 0.  1.
        2   -1    0    0  501    0  0.00000000000E+00  0.00000000000E+00 -0.32537280758E+04  0.32537280758E+04  0.25500000920E-02 0. -1.
    10030    2    1    2    0    0  0.00000000000E+00  0.00000000000E+00 -0.25682619341E+04  0.39391942174E+04  0.29868514728E+04 0.  0.
        1    1    3    3  502    0  0.34145169574E+03  0.39848336046E+03  0.55986822066E+03  0.76735303063E+03  0.50400001928E-02 0.  1.
       -1    1    3    3    0  502 -0.34145169574E+03 -0.39848336046E+03 -0.31281301548E+04  0.31718411868E+04  0.50400001928E-02 0. -1.
</event>
<event>
 5   0  0.4935331E-06  0.3019192E+04  0.7818609E-02  0.8238272E-01
       -2   -1    0    0    0  501  0.00000000000E+00  0.00000000000E+00  0.11017567930E+04  0.11017567930E+04  0.25500000920E-02 0. -1.
        2   -1    0    0  501    0  0.00000000000E+00  0.00000000000E+00 -0.20684052608E+04  0.20684052608E+04  0.25500000920E-02 0.  1.
    10030    2    1    2    0    0  0.00000000000E+00  0.00000000000E+00 -0.96664846776E+03  0.31701620538E+04  0.30191916446E+04 0.  0.
        5    1    3    3  502    0 -0.66533511607E+03  0.87998045859E+03 -0.15652972856E+04  0.19149971557E+04  0.46999998093E+01 0.  1.
       -5    1    3    3    0  502  0.66533511607E+03 -0.87998045859E+03  0.59864881785E+03  0.12551648980E+04  0.46999998093E+01 0. -1.
</event>
<event>
 5   0  0.1686012E-06  0.3088116E+04  0.7818609E-02  0.8219007E-01
        1   -1    0    0  501    0  0.00000000000E+00  0.00000000000E+00  0.11361549999E+04  0.11361549999E+04  0.50400001928E-02 0.  1.
       -1   -1    0    0    0  501  0.00000000000E+00  0.00000000000E+00 -0.20984060918E+04  0.20984060918E+04  0.50400001928E-02 0. -1.
    10030    2    1    2    0    0  0.00000000000E+00  0.00000000000E+00 -0.96225109192E+03  0.32345610917E+04  0.30881156539E+04 0.  0.
        4    1    3    3  502    0  0.30930989257E+03  0.17151565105E+03 -0.20554059945E+04  0.20856139727E+04  0.12699999809E+01 0. -1.
       -4    1    3    3    0  502 -0.30930989257E+03 -0.17151565105E+03  0.10931549026E+04  0.11489471189E+04  0.12699999809E+01 0.  1.
</event>
<event>
 5   0  0.1672907E-06  0.2837110E+04  0.7818609E-02  0.8291839E-01
        1   -1    0    0  501    0  0.00000000000E+00  0.00000000000E+00  0.20677317669E+04  0.20677317669E+04  0.50400001928E-02 0. -1.
       -1   -1    0    0    0  501  0.00000000000E+00  0.00000000000E+00 -0.97319149653E+03  0.97319149654E+03  0.50400001928E-02 0.  1.
    10030    2    1    2    0    0  0.00000000000E+00  0.00000000000E+00  0.10945402704E+04  0.30409232634E+04  0.28371104826E+04 0.  0.
        5    1    3    3  502    0 -0.46894440313E+02  0.10980593073E+04  0.15085503526E+04  0.18664617830E+04  0.46999998093E+01 0. -1.
       -5    1    3    3    0  502  0.46894440313E+02 -0.10980593073E+04 -0.41401008228E+03  0.11744614805E+04  0.46999998093E+01 0.  1.
</event>
<event>
 5   0  0.4532420E-06  0.2978541E+04  0.7818609E-02  0.8249885E-01
        2   -1    0    0  501    0  0.00000000000E+00  0.00000000000E+00  0.17514812311E+04  0.17514812311E+04  0.25500000920E-02 0.  1.
       -2   -1    0    0    0  501  0.00000000000E+00  0.00000000000E+00 -0.12663149991E+04  0.12663149991E+04  0.25500000920E-02 0. -1.
    10030    2    1    2    0    0  0.00000000000E+00  0.00000000000E+00  0.48516623203E+03  0.30177962302E+04  0.29785412225E+04 0.  0.
        4    1    3    3  502    0 -0.25810144743E+03  0.47336981192E+03 -0.11639600692E+04  0.12827704361E+04  0.12699999809E+01 0. -1.
       -4    1    3    3    0  502  0.25810144743E+03 -0.47336981192E+03  0.16491263012E+04  0.17350257941E+04  0.12699999809E+01 0.  1.
</event>
<event>
 5   0  0.1686012E-06  0.3003506E+04  0.7818609E-02  0.8242730E-01
       -1   -1    0    0    0  501  0.00000000000E+00  0.00000000000E+00  0.15953480745E+04  0.15953480745E+04  0.50400001928E-02 0. -1.
        1   -1    0    0  501    0  0.00000000000E+00  0.00000000000E+00 -0.14136493369E+04  0.14136493369E+04  0.50400001928E-02 0.  1.
    10030    2    1    2    0    0  0.00000000000E+00  0.00000000000E+00  0.18169873761E+03  0.30089974114E+04  0.30035064492E+04 0.  0.
        4    1    3    3  502    0  0.10783656956E+04  0.21280043458E+03  0.11160013748E+04  0.15664026557E+04  0.12699999809E+01 0. -1.
       -4    1    3    3    0  502 -0.10783656956E+04 -0.21280043458E+03 -0.93430263715E+03  0.14425947557E+04  0.12699999809E+01 0.  1.
</event>
<event>
 5   0  0.1709858E-06  0.3012902E+04  0.7818609E-02  0.8240056E-01
        1   -1    0    0  501    0  0.00000000000E+00  0.00000000000E+00  0.15583957819E+04  0.15583957819E+04  0.50400001928E-02 0. -1.
       -1   -1    0    0    0  501  0.00000000000E+00  0.00000000000E+00 -0.14562380214E+04  0.14562380214E+04  0.50400001928E-02 0.  1.
    10030    2    1    2    0    0  0.00000000000E+00  0.00000000000E+00  0.10215776048E+03  0.30146338032E+04  0.30129023814E+04 0.  0.
        3    1    3    3  502    0 -0.85656417578E+03 -0.11988110593E+04 -0.26302035678E+03  0.14966729307E+04  0.10100000352E+00 0.  1.
       -3    1    3    3    0  502  0.85656417578E+03  0.11988110593E+04  0.36517811726E+03  0.15179608726E+04  0.10100000352E+00 0. -1.
</event>
<event>
 5   0  0.4768570E-06  0.3004237E+04  0.7818609E-02  0.8242522E-01
        2   -1    0    0  501    0  0.00000000000E+00  0.00000000000E+00  0.13978099539E+04  0.13978099539E+04  0.25500000920E-02 0. -1.
       -2   -1    0    0    0  501  0.00000000000E+00  0.00000000000E+00 -0.16142112663E+04  0.16142112663E+04  0.25500000920E-02 0.  1.
    10030    2    1    2    0    0  0.00000000000E+00  0.00000000000E+00 -0.21640131242E+03  0.30120212203E+04  0.30042373913E+04 0.  0.
        1    1    3    3  502    0  0.66661268904E+03 -0.12392037331E+04  0.41886304292E+03  0.14681432553E+04  0.50400001928E-02 0. -1.
       -1    1    3    3    0  502 -0.66661268904E+03  0.12392037331E+04 -0.63526435534E+03  0.15438779649E+04  0.50400001928E-02 0.  1.
</event>
<event>
 5   0  0.1672907E-06  0.3002396E+04  0.7818609E-02  0.8243047E-01
       -1   -1    0    0    0  501  0.00000000000E+00  0.00000000000E+00  0.89344411271E+03  0.89344411272E+03  0.50400001928E-02 0.  1.
        1   -1    0    0  501    0  0.00000000000E+00  0.00000000000E+00 -0.25223688399E+04  0.25223688399E+04  0.50400001928E-02 0. -1.
    10030    2    1    2    0    0  0.00000000000E+00  0.00000000000E+00 -0.16289247272E+04  0.34158129527E+04  0.30023961032E+04 0.  0.
        5    1    3    3  502    0 -0.14405853537E+04 -0.28231394342E+03 -0.11716809970E+04  0.18782560455E+04  0.46999998093E+01 0. -1.
       -5    1    3    3    0  502  0.14405853537E+04  0.28231394342E+03 -0.45724373020E+03  0.15375569071E+04  0.46999998093E+01 0.  1.
</event>
<event>
 5   0  0.4532420E-06  0.2998144E+04  0.7818609E-02  0.8244261E-01
       -2   -1    0    0    0  501  0.00000000000E+00  0.00000000000E+00  0.14384337240E+04  0.14384337240E+04  0.25500000920E-02 0.  1.
        2   -1    0    0  501    0  0.00000000000E+00  0.00000000000E+00 -0.15622668789E+04  0.15622668789E+04  0.25500000920E-02 0. -1.
    10030    2    1    2    0    0  0.00000000000E+00  0.00000000000E+00 -0.12383315498E+03  0.30007006029E+04  0.29981443358E+04 0.  0.
        4    1    3    3  502    0  0.11059594230E+04 -0.17749981782E+03 -0.10590407393E+04  0.15414997019E+04  0.12699999809E+01 0. -1.
       -4    1    3    3    0  502 -0.11059594230E+04  0.17749981782E+03  0.93520758437E+03  0.14592009010E+04  0.12699999809E+01 0.  1.
</event>
<event>
 5   0  0.4768570E-06  0.2997166E+04  0.7818609E-02  0.8244541E-01
        2   -1    0    0  501    0  0.00000000000E+00  0.00000000000E+00  0.21669169991E+04  0.21669169991E+04  0.25500000920E-02 0. -1.
       -2   -1    0    0    0  501  0.00000000000E+00  0.00000000000E+00 -0.10363804113E+04  0.10363804113E+04  0.25500000920E-02 0.  1.
    10030    2    1    2    0    0  0.00000000000E+00  0.00000000000E+00  0.11305365877E+04  0.32032974104E+04  0.29971655482E+04 0.  0.
        1    1    3    3  502    0  0.14386837626E+04 -0.38757324402E+03  0.73669384495E+03  0.16621497554E+04  0.50400001928E-02 0. -1.
       -1    1    3    3    0  502 -0.14386837626E+04  0.38757324402E+03  0.39384274280E+03  0.15411476550E+04  0.50400001928E-02 0.  1.
</event>
<event>
 5   0  0.5003556E-06  0.2982390E+04  0.7818609E-02  0.8248777E-01
       -2   -1    0    0    0  501  0.00000000000E+00  0.00000000000E+00  0.90192399945E+03  0.90192399945E+03  0.25500000920E-02 0.  1.
        2   -1    0    0  501    0  0.00000000000E+00  0.00000000000E+00 -0.24654658804E+04  0.24654658804E+04  0.25500000920E-02 0. -1.
    10030    2    1    2    0    0  0.00000000000E+00  0.00000000000E+00 -0.15635418809E+04  0.33673898798E+04  0.29823902141E+04 0.  0.
        3    1    3    3  502    0  0.10661798758E+04 -0.80776059406E+03 -0.37558536339E+02  0.13381432504E+04  0.10100000352E+00 0.  1.
       -3    1    3    3    0  502 -0.10661798758E+04  0.80776059406E+03 -0.15259833446E+04  0.20292466294E+04  0.10100000352E+00 0. -1.
</event>
<event>
 5   0  0.4702748E-06  0.2973378E+04  0.7818609E-02  0.8251374E-01
        2   -1    0    0  501    0  0.00000000000E+00  0.00000000000E+00  0.15381711924E+04  0.15381711925E+04  0.25500000920E-02 0.  1.
       -2   -1    0    0    0  501  0.00000000000E+00  0.00000000000E+00 -0.14369299953E+04  0.14369299953E+04  0.25500000920E-02 0. -1.
    10030    2    1    2    0    0  0.00000000000E+00  0.00000000000E+00  0.10124119719E+03  0.29751011877E+04  0.29733780952E+04 0.  0.
        2    1    3    3  502    0  0.17918407170E+03 -0.38330554363E+03 -0.13754120587E+04  0.14390234197E+04  0.25500000920E-02 0. -1.
       -2    1    3    3    0  502 -0.17918407170E+03  0.38330554363E+03  0.14766532559E+04  0.15360777680E+04  0.25500000920E-02 0.  1.
</event>
<event>
 5   0  0.4768570E-06  0.2547826E+04  0.7818609E-02  0.8386143E-01
        2   -1    0    0  501    0  0.00000000000E+00  0.00000000000E+00  0.16759277547E+04  0.16759277547E+04  0.25500000920E-02 0.  1.
       -2   -1    0    0    0  501  0.00000000000E+00  0.00000000000E+00 -0.96833155924E+03  0.96833155925E+03  0.25500000920E-02 0. -1.
    10030    2    1    2    0    0  0.00000000000E+00  0.00000000000E+00  0.70759619544E+03  0.26442593139E+04  0.25478255324E+04 0.  0.
        1    1    3    3  502    0  0.85837788802E+02 -0.11261112571E+04 -0.25788103403E+03  0.11584460787E+04  0.50400001928E-02 0. -1.
       -1    1    3    3    0  502 -0.85837788802E+02  0.11261112571E+04  0.96547722947E+03  0.14858132353E+04  0.50400001928E-02 0.  1.
</event>
<event>
 5   0  0.4935331E-06  0.2984534E+04  0.7818609E-02  0.8248161E-01
       -2   -1    0    0    0  501  0.00000000000E+00  0.00000000000E+00  0.32494674139E+04  0.32494674139E+04  0.25500000920E-02 0.  1.
        2   -1    0    0  501    0  0.00000000000E+00  0.00000000000E+00 -0.68530027789E+03  0.68530027790E+03  0.25500000920E-02 0. -1.
    10030    2    1    2    0    0  0.00000000000E+00  0.00000000000E+00  0.25641671360E+04  0.39347676917E+04  0.29845340820E+04 0.  0.
        5    1    3    3  502    0 -0.13100223331E+03  0.52122258638E+03 -0.55327075023E+03  0.77133986202E+03  0.46999998093E+01 0. -1.
       -5    1    3    3    0  502  0.13100223331E+03 -0.52122258638E+03  0.31174378862E+04  0.31634278297E+04  0.46999998093E+01 0.  1.
</event>
<event>
 5   0  0.4702748E-06  0.2983596E+04  0.7818609E-02  0.8248431E-01
        2   -1    0    0  501    0  0.00000000000E+00  0.00000000000E+00  0.23945091739E+04  0.23945091739E+04  0.25500000920E-02 0.  1.
       -2   -1    0    0    0  501  0.00000000000E+00  0.00000000000E+00 -0.92940169033E+03  0.92940169034E+03  0.25500000920E-02 0. -1.
    10030    2    1    2    0    0  0.00000000000E+00  0.00000000000E+00  0.14651074836E+04  0.33239108642E+04  0.29835957325E+04 0.  0.
        2    1    3    3  502    0 -0.89871027686E+03  0.10112330321E+03  0.20542816072E+04  0.22445442758E+04  0.25500000920E-02 0.  1.
       -2    1    3    3    0  502  0.89871027686E+03 -0.10112330321E+03 -0.58917412368E+03  0.10793665884E+04  0.25500000920E-02 0. -1.
</event>
<event>
 5   0  0.1709858E-06  0.2991091E+04  0.7818609E-02  0.8246280E-01
       -1   -1    0    0    0  501  0.00000000000E+00  0.00000000000E+00  0.11720612811E+04  0.11720612811E+04  0.50400001928E-02 0.  1.
        1   -1    0    0  501    0  0.00000000000E+00  0.00000000000E+00 -0.19083094393E+04  0.19083094393E+04  0.50400001928E-02 0. -1.
    10030    2    1    2    0    0  0.00000000000E+00  0.00000000000E+00 -0.73624815824E+03  0.30803707204E+04  0.29910905076E+04 0.  0.
        3    1    3    3  502    0 -0.56910289892E+03  0.58286512161E+03 -0.16597718747E+04  0.18489057698E+04  0.10100000352E+00 0. -1.
       -3    1    3    3    0  502  0.56910289892E+03 -0.58286512161E+03  0.92352371643E+03  0.12314649506E+04  0.10100000352E+00 0.  1.
</event>
<event>
 5   0  0.1700885E-06  0.2804210E+04  0.7818609E-02  0.8301963E-01
       -1   -1    0    0    0  501  0.00000000000E+00  0.00000000000E+00  0.10974950616E+04  0.10974950616E+04  0.50400001928E-02 0. -1.
        1   -1    0    0  501    0  0.00000000000E+00  0.00000000000E+00 -0.17912594004E+04  0.17912594004E+04  0.50400001928E-02 0.  1.
    10030    2    1    2    0    0  0.00000000000E+00  0.00000000000E+00 -0.69376433879E+03  0.28887544620E+04  0.28042099393E+04 0.  0.
        1    1    3    3  502    0  0.70862384922E+03  0.86240945780E+03  0.52722867464E+03  0.12344504478E+04  0.50400001928E-02 0.  1.
       -1    1    3    3    0  502 -0.70862384922E+03 -0.86240945780E+03 -0.12209930134E+04  0.16543040142E+04  0.50400001928E-02 0. -1.
</event>
<event>
 5   0  0.4702748E-06  0.3004823E+04  0.7818609E-02  0.8242355E-01
       -2   -1    0    0    0  501  0.00000000000E+00  0.00000000000E+00  0.13720655306E+04  0.13720655306E+04  0.25500000920E-02 0.  1.
        2   -1    0    0  501    0  0.00000000000E+00  0.00000000000E+00 -0.16451399025E+04  0.16451399025E+04  0.25500000920E-02 0. -1.
    10030    2    1    2    0    0  0.00000000000E+00  0.00000000000E+00 -0.27307437192E+03  0.30172054332E+04  0.30048226259E+04 0.  0.
        2    1    3    3  502    0 -0.56540731331E+03 -0.79104789908E+03  0.10135200297E+04  0.14045159519E+04  0.25500000920E-02 0.  1.
       -2    1    3    3    0  502  0.56540731331E+03  0.79104789908E+03 -0.12865944016E+04  0.16126894812E+04  0.25500000920E-02 0. -1.
</event>
<event>
 5   0  0.4935331E-06  0.2988313E+04  0.7818609E-02  0.8247076E-01
        2   -1    0    0  501    0  0.00000000000E+00  0.00000000000E+00  0.80415977109E+03  0.80415977110E+03  0.25500000920E-02 0. -1.
       -2   -1    0    0    0  501  0.00000000000E+00  0.00000000000E+00 -0.27761937872E+04  0.27761937872E+04  0.25500000920E-02 0.  1.
    10030    2    1    2    0    0  0.00000000000E+00  0.00000000000E+00 -0.19720340161E+04  0.35803535583E+04  0.29883128086E+04 0.  0.
        5    1    3    3  502    0 -0.12256432216E+04  0.30019890774E+03 -0.19446322334E+04  0.23181754257E+04  0.46999998093E+01 0.  1.
       -5    1    3    3    0  502  0.12256432216E+04 -0.30019890774E+03 -0.27401782705E+02  0.12621781327E+04  0.46999998093E+01 0. -1.
</event>
<event>
 5   0  0.4935331E-06  0.3208621E+04  0.7818609E-02  0.8186544E-01
        2   -1    0    0  501    0  0.00000000000E+00  0.00000000000E+00  0.19383019105E+04  0.19383019105E+04  0.25500000920E-02 0.  1.
       -2   -1    0    0    0  501  0.00000000000E+00  0.00000000000E+00 -0.13278693511E+04  0.13278693511E+04  0.25500000920E-02 0. -1.
    10030    2    1    2    0    0  0.00000000000E+00  0.00000000000E+00  0.61043255936E+03  0.32661712616E+04  0.32086207007E+04 0.  0.
        5    1    3    3  502    0 -0.10525254851E+04  0.41970067302E+03 -0.85086132266E+03  0.14170199830E+04  0.46999998093E+01 0. -1.
       -5    1    3    3    0  502  0.10525254851E+04 -0.41970067302E+03  0.14612938820E+04  0.18491512787E+04  0.46999998093E+01 0.  1.
</event>
<event>
 5   0  0.1686012E-06  0.2946319E+04  0.7818609E-02  0.8259228E-01
        1   -1    0    0  501    0  0.00000000000E+00  0.00000000000E+00  0.11482390884E+04  0.11482390884E+04  0.50400001928E-02 0.  1.
       -1   -1    0    0    0  501  0.00000000000E+00  0.00000000000E+00 -0.18900235703E+04  0.18900235703E+04  0.50400001928E-02 0. -1.
    10030    2    1    2    0    0  0.00000000000E+00  0.00000000000E+00 -0.74178448186E+03  0.30382626587E+04  0.29463190197E+04 0.  0.
        4    1    3    3  502    0 -0.95441404474E+02 -0.88491666268E+03  0.83962743295E+03  0.12235858779E+04  0.12699999809E+01 0.  1.
       -4    1    3    3    0  502  0.95441404474E+02  0.88491666268E+03 -0.15814119148E+04  0.18146767808E+04  0.12699999809E+01 0. -1.
</event>
<event>
 5   0  0.1672907E-06  0.2917741E+04  0.7818609E-02  0.8267619E-01
       -1   -1    0    0    0  501  0.00000000000E+00  0.00000000000E+00  0.11088878212E+04  0.11088878212E+04  0.50400001928E-02 0.  1.
        1   -1    0    0  501    0  0.00000000000E+00  0.00000000000E+00 -0.19193126670E+04  0.19193126670E+04  0.50400001928E-02 0. -1.
    10030    2    1    2    0    0  0.00000000000E+00  0.00000000000E+00 -0.81042484581E+03  0.30282004881E+04  0.29177405241E+04 0.  0.
        5    1    3    3  502    0 -0.10522233704E+04 -0.90276619405E+03  0.65979165178E+02  0.13879971767E+04  0.46999998093E+01 0.  1.
       -5    1    3    3    0  502  0.10522233704E+04  0.90276619405E+03 -0.87640401099E+03  0.16402033114E+04  0.46999998093E+01 0. -1.
</event>
<event>
 5   0  0.4768570E-06  0.3011897E+04  0.7818609E-02  0.8240342E-01
       -2   -1    0    0    0  501  0.00000000000E+00  0.00000000000E+00  0.17603407792E+04  0.17603407792E+04  0.25500000920E-02 0.  1.
        2   -1    0    0  501    0  0.00000000000E+00  0.00000000000E+00 -0.12883188721E+04  0.12883188721E+04  0.25500000920E-02 0. -1.
    10030    2    1    2    0    0  0.00000000000E+00  0.00000000000E+00  0.47202190717E+03  0.30486596513E+04  0.30118965767E+04 0.  0.
        1    1    3    3  502    0 -0.12957627894E+03  0.14063415422E+04  0.76516692291E+03  0.16062586857E+04  0.50400001928E-02 0.  1.
       -1    1    3    3    0  502  0.12957627894E+03 -0.14063415422E+04 -0.29314501574E+03  0.14424009656E+04  0.50400001928E-02 0. -1.
</event>
<event>
 5   0  0.4532420E-06  0.3006506E+04  0.7818609E-02  0.8241875E-01
       -2   -1    0    0    0  501  0.00000000000E+00  0.00000000000E+00  0.11843266663E+04  0.11843266663E+04  0.25500000920E-02 0.  1.
        2   -1    0    0  501    0  0.00000000000E+00  0.00000000000E+00 -0.19080630030E+04  0.19080630030E+04  0.25500000920E-02 0. -1.
    10030    2    1    2    0    0  0.00000000000E+00  0.00000000000E+00 -0.72373633663E+03  0.30923896693E+04  0.30065062085E+04 0.  0.
        4    1    3    3  502    0 -0.58033342897E+03  0.12166257978E+03  0.10589605748E+04  0.12136670812E+04  0.12699999809E+01 0.  1.
       -4    1    3    3    0  502  0.58033342897E+03 -0.12166257978E+03 -0.17826969114E+04  0.18787225881E+04  0.12699999809E+01 0. -1.
</event>
<event>
 5   0  0.4702748E-06  0.3052258E+04  0.7818609E-02  0.8228964E-01
        2   -1    0    0  501    0  0.00000000000E+00  0.00000000000E+00  0.20341902861E+04  0.20341902861E+04  0.25500000920E-02 0.  1.
       -2   -1    0    0    0  501  0.00000000000E+00  0.00000000000E+00 -0.11449619122E+04  0.11449619122E+04  0.25500000920E-02 0. -1.
    10030    2    1    2    0    0  0.00000000000E+00  0.00000000000E+00  0.88922837396E+03  0.31791521983E+04  0.30522584423E+04 0.  0.
        2    1    3    3  502    0 -0.13185563625E+04  0.10571736337E+03  0.12373765783E+04  0.18113166036E+04  0.25500000920E-02 0.  1.
       -2    1    3    3    0  502  0.13185563625E+04 -0.10571736337E+03 -0.34814820431E+03  0.13678355947E+04  0.25500000920E-02 0. -1.
</event>
<event>
 5   0  0.4702748E-06  0.3008336E+04  0.7818609E-02  0.8241355E-01
       -2   -1    0    0    0  501  0.00000000000E+00  0.00000000000E+00  0.14082689665E+04  0.14082689665E+04  0.25500000920E-02 0. -1.
        2   -1    0    0  501    0  0.00000000000E+00  0.00000000000E+00 -0.16065972641E+04  0.16065972641E+04  0.25500000920E-02 0.  1.
    10030    2    1    2    0    0  0.00000000000E+00  0.00000000000E+00 -0.19832829762E+03  0.30148662307E+04  0.30083357983E+04 0.  0.
        2    1    3    3  502    0  0.12029679639E+04  0.90028380418E+03 -0.29168288017E+02  0.15028285462E+04  0.25500000920E-02 0. -1.
       -2    1    3    3    0  502 -0.12029679639E+04 -0.90028380418E+03 -0.16916000960E+03  0.15120376844E+04  0.25500000920E-02 0.  1.
</event>
<event>
 5   0  0.1734885E-06  0.2977921E+04  0.7818609E-02  0.8250064E-01
       -1   -1    0    0    0  501  0.00000000000E+00  0.00000000000E+00  0.11943800326E+04  0.11943800326E+04  0.50400001928E-02 0.  1.
        1   -1    0    0  501    0  0.00000000000E+00  0.00000000000E+00 -0.18561953971E+04  0.18561953971E+04  0.50400001928E-02 0. -1.
    10030    2    1    2    0    0  0.00000000000E+00  0.00000000000E+00 -0.66181536450E+03  0.30505754298E+04  0.29779205624E+04 0.  0.
        2    1    3    3  502    0  0.57357012274E+03 -0.13500821709E+03 -0.17316730723E+04  0.18291805635E+04  0.25500000920E-02 0. -1.
       -2    1    3    3    0  502 -0.57357012274E+03  0.13500821709E+03  0.10698577078E+04  0.12213948663E+04  0.25500000920E-02 0.  1.
</event>
<event>
 5   0  0.1709858E-06  0.2770739E+04  0.7818609E-02  0.8312411E-01
        1   -1    0    0  501    0  0.00000000000E+00  0.00000000000E+00  0.13948714993E+04  0.13948714993E+04  0.50400001928E-02 0.  1.
       -1   -1    0    0    0  501  0.00000000000E+00  0.00000000000E+00 -0.13759324224E+04  0.13759324224E+04  0.50400001928E-02 0. -1.
    10030    2    1    2    0    0  0.00000000000E+00  0.00000000000E+00  0.18939076898E+02  0.27708039217E+04  0.27707391945E+04 0.  0.
        3    1    3    3  502    0 -0.71375173818E+03 -0.11566559865E+04 -0.25877970720E+03  0.13835684161E+04  0.10100000352E+00 0.  1.
       -3    1    3    3    0  502  0.71375173818E+03  0.11566559865E+04  0.27771878410E+03  0.13872355056E+04  0.10100000352E+00 0. -1.
</event>
<event>
 5   0  0.4935331E-06  0.3004921E+04  0.7818609E-02  0.8242327E-01
       -2   -1    0    0    0  501  0.00000000000E+00  0.00000000000E+00  0.17201058754E+04  0.17201058754E+04  0.25500000920E-02 0. -1.
        2   -1    0    0  501    0  0.00000000000E+00  0.00000000000E+00 -0.13123537563E+04  0.13123537563E+04  0.25500000920E-02 0.  1.
    10030    2    1    2    0    0  0.00000000000E+00  0.00000000000E+00  0.40775211912E+03  0.30324596316E+04  0.30049209019E+04 0.  0.
        5    1    3    3  502    0  0.22560012999E+03 -0.53166241705E+03  0.16036003685E+04  0.17044402531E+04  0.46999998093E+01 0. -1.
       -5    1    3    3    0  502 -0.22560012999E+03  0.53166241705E+03 -0.11958482494E+04  0.13280193786E+04  0.46999998093E+01 0.  1.
</event>
<event>
 5   0  0.4768570E-06  0.3014855E+04  0.7818609E-02  0.8239502E-01
        2   -1    0    0  501    0  0.00000000000E+00  0.00000000000E+00  0.16507062605E+04  0.16507062605E+04  0.25500000920E-02 0. -1.
       -2   -1    0    0    0  501  0.00000000000E+00  0.00000000000E+00 -0.13765851585E+04  0.13765851585E+04  0.25500000920E-02 0.  1.
    10030    2    1    2    0    0  0.00000000000E+00  0.00000000000E+00  0.27412110199E+03  0.30272914190E+04  0.30148550474E+04 0.  0.
        1    1    3    3  502    0 -0.34960682485E+03 -0.34800525865E+03  0.15673678929E+04  0.16431599750E+04  0.50400001928E-02 0. -1.
       -1    1    3    3    0  502  0.34960682485E+03  0.34800525865E+03 -0.12932467909E+04  0.13841314440E+04  0.50400001928E-02 0.  1.
</event>
<event>
 5   0  0.1686012E-06  0.3105333E+04  0.7818609E-02  0.8214276E-01
       -1   -1    0    0    0  501  0.00000000000E+00  0.00000000000E+00  0.11990000554E+04  0.11990000555E+04  0.50400001928E-02 0. -1.
        1   -1    0    0  501    0  0.00000000000E+00  0.00000000000E+00 -0.20106533442E+04  0.20106533442E+04  0.50400001928E-02 0.  1.
    10030    2    1    2    0    0  0.00000000000E+00  0.00000000000E+00 -0.81165328874E+03  0.32096533996E+04  0.31053331359E+04 0.  0.
        4    1    3    3  502    0  0.48864292719E+03  0.25152878569E+03  0.10951044643E+04  0.12252730475E+04  0.12699999809E+01 0. -1.
       -4    1    3    3    0  502 -0.48864292719E+03 -0.25152878569E+03 -0.19067577530E+04  0.19843803521E+04  0.12699999809E+01 0.  1.
</event>
<event>
 5   0  0.1709858E-06  0.2826337E+04  0.7818609E-02  0.8295138E-01
        1   -1    0    0  501    0  0.00000000000E+00  0.00000000000E+00  0.12470603621E+04  0.12470603621E+04  0.50400001928E-02 0.  1.
       -1   -1    0    0    0  501  0.00000000000E+00  0.00000000000E+00 -0.16014021142E+04  0.16014021142E+04  0.50400001928E-02 0. -1.
    10030    2    1    2    0    0  0.00000000000E+00  0.00000000000E+00 -0.35434175210E+03  0.28484624763E+04  0.28263369229E+04 0.  0.
        3    1    3    3  502    0  0.47863933478E+03  0.13216295844E+04 -0.32406758525E+03  0.14425048288E+04  0.10100000352E+00 0. -1.
       -3    1    3    3    0  502 -0.47863933478E+03 -0.13216295844E+04 -0.30274166847E+02  0.14059576475E+04  0.10100000352E+00 0.  1.
</event>
<event>
 5   0  0.4935331E-06  0.3019943E+04  0.7818609E-02  0.8238059E-01
        2   -1    0    0  501    0  0.00000000000E+00  0.00000000000E+00  0.17381482035E+04  0.17381482035E+04  0.25500000920E-02 0.  1.
       -2   -1    0    0    0  501  0.00000000000E+00  0.00000000000E+00 -0.13117488662E+04  0.13117488662E+04  0.25500000920E-02 0. -1.
    10030    2    1    2    0    0  0.00000000000E+00  0.00000000000E+00  0.42639933729E+03  0.30498970697E+04  0.30199430029E+04 0.  0.
        5    1    3    3  502    0  0.50112353927E+02  0.71731416411E+03 -0.11277279127E+04  0.13374764271E+04  0.46999998093E+01 0. -1.
       -5    1    3    3    0  502 -0.50112353927E+02 -0.71731416411E+03  0.15541272499E+04  0.17124206426E+04  0.46999998093E+01 0.  1.
</event>
<event>
 5   0  0.1734885E-06  0.3019855E+04  0.7818609E-02  0.8238084E-01
        1   -1    0    0  501    0  0.00000000000E+00  0.00000000000E+00  0.30891615489E+04  0.30891615489E+04  0.50400001928E-02 0. -1.
       -1   -1    0    0    0  501  0.00000000000E+00  0.00000000000E+00 -0.73802574395E+03  0.73802574397E+03  0.50400001928E-02 0.  1.
    10030    2    1    2    0    0  0.00000000000E+00  0.00000000000E+00  0.23511358050E+04  0.38271872929E+04  0.30198547981E+04 0.  0.
        2    1    3    3  502    0 -0.72628107769E+03  0.26790319589E+03 -0.46739966280E+03  0.90427803853E+03  0.25500000920E-02 0.  1.
       -2    1    3    3    0  502  0.72628107769E+03 -0.26790319589E+03  0.28185354678E+04  0.29229092544E+04  0.25500000920E-02 0. -1.
</event>
<event>
 5   0  0.4702748E-06  0.3009193E+04  0.7818609E-02  0.8241111E-01
       -2   -1    0    0    0  501  0.00000000000E+00  0.00000000000E+00  0.98368164286E+03  0.98368164286E+03  0.25500000920E-02 0. -1.
        2   -1    0    0  501    0  0.00000000000E+00  0.00000000000E+00 -0.23013647705E+04  0.23013647705E+04  0.25500000920E-02 0.  1.
    10030    2    1    2    0    0  0.00000000000E+00  0.00000000000E+00 -0.13176831276E+04  0.32850464134E+04  0.30091927677E+04 0.  0.
        2    1    3    3  502    0  0.11126968162E+04 -0.99858068349E+03 -0.47437611555E+03  0.15685312509E+04  0.25500000920E-02 0. -1.
       -2    1    3    3    0  502 -0.11126968162E+04  0.99858068349E+03 -0.84330701210E+03  0.17165151624E+04  0.25500000920E-02 0.  1.
</event>
<event>
 5   0  0.4532420E-06  0.3005785E+04  0.7818609E-02  0.8242081E-01
       -2   -1    0    0    0  501  0.00000000000E+00  0.00000000000E+00  0.13144627487E+04  0.13144627487E+04  0.25500000920E-02 0.  1.
        2   -1    0    0  501    0  0.00000000000E+00  0.00000000000E+00 -0.17183339417E+04  0.17183339417E+04  0.25500000920E-02 0. -1.
    10030    2    1    2    0    0  0.00000000000E+00  0.00000000000E+00 -0.40387119306E+03  0.30327966904E+04  0.30057850596E+04 0.  0.
        4    1    3    3  502    0  0.51713179872E+03  0.12840224021E+03  0.12159586708E+04  0.13275803307E+04  0.12699999809E+01 0.  1.
       -4    1    3    3    0  502 -0.51713179872E+03 -0.12840224021E+03 -0.16198298639E+04  0.17052163597E+04  0.12699999809E+01 0. -1.
</event>
<event>
 5   0  0.1700885E-06  0.2993315E+04  0.7818609E-02  0.8245642E-01
       -1   -1    0    0    0  501  0.00000000000E+00  0.00000000000E+00  0.10622661058E+04  0.10622661058E+04  0.50400001928E-02 0. -1.
        1   -1    0    0  501    0  0.00000000000E+00  0.00000000000E+00 -0.21086843704E+04  0.21086843704E+04  0.50400001928E-02 0.  1.
    10030    2    1    2    0    0  0.00000000000E+00  0.00000000000E+00 -0.10464182646E+04  0.31709504762E+04  0.29933151752E+04 0.  0.
        1    1    3    3  502    0  0.12033006015E+04 -0.78528082870E+03 -0.79565758482E+02  0.14390722801E+04  0.50400001928E-02 0. -1.
       -1    1    3    3    0  502 -0.12033006015E+04  0.78528082870E+03 -0.96685250611E+03  0.17318781961E+04  0.50400001928E-02 0.  1.
</event>
<event>
 5   0  0.1700885E-06  0.3094542E+04  0.7818609E-02  0.8217237E-01
       -1   -1    0    0    0  501  0.00000000000E+00  0.00000000000E+00  0.11766364229E+04  0.11766364229E+04  0.50400001928E-02 0.  1.
        1   -1    0    0  501    0  0.00000000000E+00  0.00000000000E+00 -0.20346532190E+04  0.20346532190E+04  0.50400001928E-02 0. -1.
    10030    2    1    2    0    0  0.00000000000E+00  0.00000000000E+00 -0.85801679610E+03  0.32112896419E+04  0.30945417015E+04 0.  0.
        1    1    3    3  502    0 -0.46382172197E+03 -0.63838443727E+03 -0.18101532494E+04  0.19746696093E+04  0.50400001928E-02 0. -1.
       -1    1    3    3    0  502  0.46382172197E+03  0.63838443727E+03  0.95213645328E+03  0.12366200327E+04  0.50400001928E-02 0.  1.
</event>
<event>
 5   0  0.1672907E-06  0.2997438E+04  0.7818609E-02  0.8244463E-01
        1   -1    0    0  501    0  0.00000000000E+00  0.00000000000E+00  0.95652149194E+03  0.95652149196E+03  0.50400001928E-02 0. -1.
       -1   -1    0    0    0  501  0.00000000000E+00  0.00000000000E+00 -0.23482575505E+04  0.23482575505E+04  0.50400001928E-02 0.  1.
    10030    2    1    2    0    0  0.00000000000E+00  0.00000000000E+00 -0.13917360586E+04  0.33047790425E+04  0.29974381166E+04 0.  0.
        5    1    3    3  502    0 -0.23714535574E+03  0.36859760168E+03  0.88427384130E+03  0.98694702397E+03  0.46999998093E+01 0. -1.
       -5    1    3    3    0  502  0.23714535574E+03 -0.36859760168E+03 -0.22760098999E+04  0.23178320185E+04  0.46999998093E+01 0.  1.
</event>
<event>
 5   0  0.4768570E-06  0.3007055E+04  0.7818609E-02  0.8241719E-01
        2   -1    0    0  501    0  0.00000000000E+00  0.00000000000E+00  0.27246389551E+04  0.27246389551E+04  0.25500000920E-02 0.  1.
       -2   -1    0    0    0  501  0.00000000000E+00  0.00000000000E+00 -0.82968619419E+03  0.82968619420E+03  0.25500000920E-02 0. -1.
    10030    2    1    2    0    0  0.00000000000E+00  0.00000000000E+00  0.18949527609E+04  0.35543251493E+04  0.30070552540E+04 0.  0.
        1    1    3    3  502    0  0.14571554885E+03 -0.14780475758E+04  0.67093578699E+03  0.16297277343E+04  0.50400001928E-02 0. -1.
       -1    1    3    3    0  502 -0.14571554885E+03  0.14780475758E+04  0.12240169739E+04  0.19245974150E+04  0.50400001928E-02 0.  1.
</event>
<event>
 5   0  0.4532420E-06  0.3003691E+04  0.7818609E-02  0.8242678E-01
       -2   -1    0    0    0  501  0.00000000000E+00  0.00000000000E+00  0.11656209587E+04  0.11656209587E+04  0.25500000920E-02 0. -1.
        2   -1    0    0  501    0  0.00000000000E+00  0.00000000000E+00 -0.19350541958E+04  0.19350541958E+04  0.25500000920E-02 0.  1.
    10030    2    1    2    0    0  0.00000000000E+00  0.00000000000E+00 -0.76943323713E+03  0.31006751545E+04  0.30036908808E+04 0.  0.
        4    1    3    3  502    0 -0.64950643973E+03 -0.10917167141E+04  0.44229656311E+03  0.13451140702E+04  0.12699999809E+01 0. -1.
       -4    1    3    3    0  502  0.64950643973E+03  0.10917167141E+04 -0.12117298002E+04  0.17555610843E+04  0.12699999809E+01 0.  1.
</event>
<event>
 5   0  0.1686012E-06  0.3013024E+04  0.7818609E-02  0.8240022E-01
        1   -1    0    0  501    0  0.00000000000E+00  0.00000000000E+00  0.11484742487E+04  0.11484742487E+04  0.50400001928E-02 0. -1.
       -1   -1    0    0    0  501  0.00000000000E+00  0.00000000000E+00 -0.19761677483E+04  0.19761677484E+04  0.50400001928E-02 0.  1.
    10030    2    1    2    0    0  0.00000000000E+00  0.00000000000E+00 -0.82769349965E+03  0.31246419971E+04  0.30130235778E+04 0.  0.
        4    1    3    3  502    0  0.72647691536E+03  0.65278608414E+03  0.77567532245E+03  0.12472258011E+04  0.12699999809E+01 0. -1.
       -4    1    3    3    0  502 -0.72647691536E+03 -0.65278608414E+03 -0.16033688221E+04  0.18774161959E+04  0.12699999809E+01 0.  1.
</event>
<event>
 5   0  0.1672907E-06  0.2971668E+04  0.7818609E-02  0.8251868E-01
        1   -1    0    0  501    0  0.00000000000E+00  0.00000000000E+00  0.20064660282E+04  0.20064660282E+04  0.50400001928E-02 0. -1.
       -1   -1    0    0    0  501  0.00000000000E+00  0.00000000000E+00 -0.11002938476E+04  0.11002938477E+04  0.50400001928E-02 0.  1.
    10030    2    1    2    0    0  0.00000000000E+00  0.00000000000E+00  0.90617218058E+03  0.31067598759E+04  0.29716676977E+04 0.  0.
        5    1    3    3  502    0  0.80963396863E+03 -0.11847564858E+04  0.50176794856E+02  0.14358603325E+04  0.46999998093E+01 0. -1.
       -5    1    3    3    0  502 -0.80963396863E+03  0.11847564858E+04  0.85599538573E+03  0.16708995434E+04  0.46999998093E+01 0.  1.
</event>
<event>
 5   0  0.4768570E-06  0.3003686E+04  0.7818609E-02  0.8242679E-01
       -2   -1    0    0    0  501  0.00000000000E+00  0.00000000000E+00  0.12512800214E+04  0.12512800214E+04  0.25500000920E-02 0. -1.
        2   -1    0    0  501    0  0.00000000000E+00  0.00000000000E+00 -0.18025795518E+04  0.18025795518E+04  0.25500000920E-02 0.  1.
    10030    2    1    2    0    0  0.00000000000E+00  0.00000000000E+00 -0.55129953038E+03  0.30538595733E+04  0.30036855896E+04 0.  0.
        1    1    3    3  502    0  0.71426720833E+03 -0.59073905156E+03 -0.14770746866E+04  0.17438176228E+04  0.50400001928E-02 0.  1.
       -1    1    3    3    0  502 -0.71426720833E+03  0.59073905156E+03  0.92577515622E+03  0.13100419504E+04  0.50400001928E-02 0. -1.
</event>
<event>
 5   0  0.1709858E-06  0.3044209E+04  0.7818609E-02  0.8231218E-01
        1   -1    0    0  501    0  0.00000000000E+00  0.00000000000E+00  0.13847310360E+04  0.13847310360E+04  0.50400001928E-02 0. -1.
       -1   -1    0    0    0  501  0.00000000000E+00  0.00000000000E+00 -0.16731060674E+04  0.16731060674E+04  0.50400001928E-02 0.  1.
    10030    2    1    2    0    0  0.00000000000E+00  0.00000000000E+00 -0.28837503136E+03  0.30578371034E+04  0.30442088615E+04 0.  0.
        3    1    3    3  502    0  0.12747155593E+04  0.48620831889E+03  0.53374397482E+03  0.14649849580E+04  0.10100000352E+00 0. -1.
       -3    1    3    3    0  502 -0.12747155593E+04 -0.48620831889E+03 -0.82211900618E+03  0.15928521454E+04  0.10100000352E+00 0.  1.
</event>
<event>
 5   0  0.4702748E-06  0.3002975E+04  0.7818609E-02  0.8242882E-01
        2   -1    0    0  501    0  0.00000000000E+00  0.00000000000E+00  0.23009056594E+04  0.23009056594E+04  0.25500000920E-02 0.  1.
       -2   -1    0    0    0  501  0.00000000000E+00  0.00000000000E+00 -0.97981595467E+03  0.97981595468E+03  0.25500000920E-02 0. -1.
    10030    2    1    2    0    0  0.00000000000E+00  0.00000000000E+00  0.13210897047E+04  0.32807216141E+04  0.30029745755E+04 0.  0.
        2    1    3    3  502    0  0.68241345124E+03  0.13332839045E+04  0.54528845279E+03  0.15939490535E+04  0.25500000920E-02 0. -1.
       -2    1    3    3    0  502 -0.68241345124E+03 -0.13332839045E+04  0.77580125194E+03  0.16867725605E+04  0.25500000920E-02 0.  1.
</event>
<event>
 5   0  0.4702748E-06  0.3001545E+04  0.7818609E-02  0.8243290E-01
        2   -1    0    0  501    0  0.00000000000E+00  0.00000000000E+00  0.20151089316E+04  0.20151089316E+04  0.25500000920E-02 0.  1.
       -2   -1    0    0    0  501  0.00000000000E+00  0.00000000000E+00 -0.11177152475E+04  0.11177152475E+04  0.25500000920E-02 0. -1.
    10030    2    1    2    0    0  0.00000000000E+00  0.00000000000E+00  0.89739368403E+03  0.31328241791E+04  0.30015449211E+04 0.  0.
        2    1    3    3  502    0 -0.69543432306E+02  0.13026635528E+04  0.12231395675E+04  0.17882502684E+04  0.25500000920E-02 0.  1.
       -2    1    3    3    0  502  0.69543432306E+02 -0.13026635528E+04 -0.32574588351E+03  0.13445739107E+04  0.25500000920E-02 0. -1.
</event>
<event>
 5   0  0.4532420E-06  0.2992031E+04  0.7818609E-02  0.8246010E-01
       -2   -1    0    0    0  501  0.00000000000E+00  0.00000000000E+00  0.10634139201E+04  0.10634139201E+04  0.25500000920E-02 0.  1.
        2   -1    0    0  501    0  0.00000000000E+00  0.00000000000E+00 -0.21046012922E+04  0.21046012922E+04  0.25500000920E-02 0. -1.
    10030    2    1    2    0    0  0.00000000000E+00  0.00000000000E+00 -0.10411873721E+04  0.31680152123E+04  0.29920309559E+04 0.  0.
        4    1    3    3  502    0  0.61076830346E+02  0.13600373864E+03  0.10555279048E+04  0.10660057067E+04  0.12699999809E+01 0.  1.
       -4    1    3    3    0  502 -0.61076830346E+02 -0.13600373864E+03 -0.20967152769E+04  0.21020095055E+04  0.12699999809E+01 0. -1.
</event>
<event>
 5   0  0.4935331E-06  0.3019568E+04  0.7818609E-02  0.8238165E-01
        2   -1    0    0  501    0  0.00000000000E+00  0.00000000000E+00  0.16808557927E+04  0.16808557927E+04  0.25500000920E-02 0. -1.
       -2   -1    0    0    0  501  0.00000000000E+00  0.00000000000E+00 -0.13561231503E+04  0.13561231503E+04  0.25500000920E-02 0.  1.
    10030    2    1    2    0    0  0.00000000000E+00  0.00000000000E+00  0.32473264237E+03  0.30369789430E+04  0.30195678186E+04 0.  0.
        5    1    3    3  502    0  0.87501862575E+03 -0.12151312033E+04 -0.31681191928E+02  0.14977407067E+04  0.46999998093E+01 0. -1.
       -5    1    3    3    0  502 -0.87501862575E+03  0.12151312033E+04  0.35641383430E+03  0.15392382362E+04  0.46999998093E+01 0.  1.
</event>
<event>
 5   0  0.4768570E-06  0.3001450E+04  0.7818609E-02  0.8243317E-01
        2   -1    0    0  501    0  0.00000000000E+00  0.00000000000E+00  0.23488439460E+04  0.23488439460E+04  0.25500000920E-02 0. -1.
       -2   -1    0    0    0  501  0.00000000000E+00  0.00000000000E+00 -0.95884400977E+03  0.95884400978E+03  0.25500000920E-02 0.  1.
    10030    2    1    2    0    0  0.00000000000E+00  0.00000000000E+00  0.13899999363E+04  0.33076879558E+04  0.30014496148E+04 0.  0.
        1    1    3    3  502    0  0.10285556996E+04 -0.10925469315E+04  0.72175282166E+03  0.16650864123E+04  0.50400001928E-02 0. -1.
       -1    1    3    3    0  502 -0.10285556996E+04  0.10925469315E+04  0.66824711461E+03  0.16426015436E+04  0.50400001928E-02 0.  1.
</event>
<event>
 5   0  0.4935331E-06  0.2970297E+04  0.7818609E-02  0.8252264E-01
        2   -1    0    0  501    0  0.00000000000E+00  0.00000000000E+00  0.16768025975E+04  0.16768025975E+04  0.25500000920E-02 0.  1.
       -2   -1    0    0    0  501  0.00000000000E+00  0.00000000000E+00 -0.13154001496E+04  0.13154001496E+04  0.25500000920E-02 0. -1.
    10030    2    1    2    0    0  0.00000000000E+00  0.00000000000E+00  0.36140244787E+03  0.29922027472E+04  0.29702972159E+04 0.  0.
        5    1    3    3  502    0 -0.74881714881E+03 -0.72883645916E+03  0.12438108828E+04  0.16245052504E+04  0.46999998093E+01 0.  1.
       -5    1    3    3    0  502  0.74881714881E+03  0.72883645916E+03 -0.88240843491E+03  0.13676974967E+04  0.46999998093E+01 0. -1.
</event>
<event>
 5   0  0.1686012E-06  0.2994764E+04  0.7818609E-02  0.8245228E-01
       -1   -1    0    0    0  501  0.00000000000E+00  0.00000000000E+00  0.12154062024E+04  0.12154062024E+04  0.50400001928E-02 0. -1.
        1   -1    0    0  501    0  0.00000000000E+00  0.00000000000E+00 -0.18447765504E+04  0.18447765504E+04  0.50400001928E-02 0.  1.
    10030    2    1    2    0    0  0.00000000000E+00  0.00000000000E+00 -0.62937034800E+03  0.30601827528E+04  0.29947640050E+04 0.  0.
        4    1    3    3  502    0 -0.95141644119E+03 -0.83563488372E+02  0.86375223721E+03  0.12877288695E+04  0.12699999809E+01 0. -1.
       -4    1    3    3    0  502  0.95141644119E+03  0.83563488372E+02 -0.14931225852E+04  0.17724538833E+04  0.12699999809E+01 0.  1.
</event>
<event>
 5   0  0.1672907E-06  0.2978546E+04  0.7818609E-02  0.8249884E-01
       -1   -1    0    0    0  501  0.00000000000E+00  0.00000000000E+00  0.13598328864E+04  0.13598328864E+04  0.50400001928E-02 0. -1.
        1   -1    0    0  501    0  0.00000000000E+00  0.00000000000E+00 -0.16310344164E+04  0.16310344164E+04  0.50400001928E-02 0.  1.
    10030    2    1    2    0    0  0.00000000000E+00  0.00000000000E+00 -0.27120153001E+03  0.29908673028E+04  0.29785461140E+04 0.  0.
        5    1    3    3  502    0  0.66766635952E+03  0.96610296909E+03  0.78403647213E+03  0.14120441191E+04  0.46999998093E+01 0. -1.
       -5    1    3    3    0  502 -0.66766635952E+03 -0.96610296909E+03 -0.10552380021E+04  0.15788231838E+04  0.46999998093E+01 0.  1.
</event>
<event>
 5   0  0.4532420E-06  0.2997794E+04  0.7818609E-02  0.8244361E-01
        2   -1    0    0  501    0  0.00000000000E+00  0.00000000000E+00  0.16261531029E+04  0.16261531029E+04  0.25500000920E-02 0.  1.
       -2   -1    0    0    0  501  0.00000000000E+00  0.00000000000E+00 -0.13815993987E+04  0.13815993987E+04  0.25500000920E-02 0. -1.
    10030    2    1    2    0    0  0.00000000000E+00  0.00000000000E+00  0.24455370418E+03  0.30077525015E+04  0.29977939549E+04 0.  0.
        4    1    3    3  502    0 -0.99540699691E+03 -0.56401591101E+03 -0.84931057245E+03  0.14248786260E+04  0.12699999809E+01 0. -1.
       -4    1    3    3    0  502  0.99540699691E+03  0.56401591101E+03  0.10938642766E+04  0.15828738756E+04  0.12699999809E+01 0.  1.
</event>
<event>
 5   0  0.4702748E-06  0.2981969E+04  0.7818609E-02  0.8248899E-01
        2   -1    0    0  501    0  0.00000000000E+00  0.00000000000E+00  0.27856511085E+04  0.27856511085E+04  0.25500000920E-02 0. -1.
       -2   -1    0    0    0  501  0.00000000000E+00  0.00000000000E+00 -0.79803060680E+03  0.79803060680E+03  0.25500000920E-02 0.  1.
    10030    2    1    2    0    0  0.00000000000E+00  0.00000000000E+00  0.19876205017E+04  0.35836817153E+04  0.29819690437E+04 0.  0.
        2    1    3    3  502    0 -0.45793034405E+03 -0.65433256523E+03 -0.51928433412E+03  0.95263189407E+03  0.25500000920E-02 0.  1.
       -2    1    3    3    0  502  0.45793034405E+03  0.65433256523E+03  0.25069048358E+04  0.26310498212E+04  0.25500000920E-02 0. -1.
</event>
<event>
 5   0  0.1672907E-06  0.3045735E+04  0.7818609E-02  0.8230790E-01
        1   -1    0    0  501    0  0.00000000000E+00  0.00000000000E+00  0.26701117441E+04  0.26701117441E+04  0.50400001928E-02 0. -1.
       -1   -1    0    0    0  501  0.00000000000E+00  0.00000000000E+00 -0.86855020368E+03  0.86855020369E+03  0.50400001928E-02 0.  1.
    10030    2    1    2    0    0  0.00000000000E+00  0.00000000000E+00  0.18015615404E+04  0.35386619478E+04  0.30457354443E+04 0.  0.
        5    1    3    3  502    0 -0.62833384706E+03  0.12428300334E+04  0.16166808012E+04  0.21338014946E+04  0.46999998093E+01 0. -1.
       -5    1    3    3    0  502  0.62833384706E+03 -0.12428300334E+04  0.18488073928E+03  0.14048604533E+04  0.46999998093E+01 0.  1.
</event>
<event>
 5   0  0.1686012E-06  0.3000542E+04  0.7818609E-02  0.8243576E-01
       -1   -1    0    0    0  501  0.00000000000E+00  0.00000000000E+00  0.87881336275E+03  0.87881336277E+03  0.50400001928E-02 0. -1.
        1   -1    0    0  501    0  0.00000000000E+00  0.00000000000E+00 -0.25611965026E+04  0.25611965026E+04  0.50400001928E-02 0.  1.
    10030    2    1    2    0    0  0.00000000000E+00  0.00000000000E+00 -0.16823831399E+04  0.34400098654E+04  0.30005424251E+04 0.  0.
        4    1    3    3  502    0  0.94384962335E+03  0.12964546901E+03 -0.21698780143E+04  0.23698169274E+04  0.12699999809E+01 0.  1.
       -4    1    3    3    0  502 -0.94384962335E+03 -0.12964546901E+03  0.48749487447E+03  0.10701929381E+04  0.12699999809E+01 0. -1.
</event>
<event>
 5   0  0.4935331E-06  0.3026846E+04  0.7818609E-02  0.8236106E-01
        2   -1    0    0  501    0  0.00000000000E+00  0.00000000000E+00  0.17859497244E+04  0.17859497244E+04  0.25500000920E-02 0. -1.
       -2   -1    0    0    0  501  0.00000000000E+00  0.00000000000E+00 -0.12824827965E+04  0.12824827965E+04  0.25500000920E-02 0.  1.
    10030    2    1    2    0    0  0.00000000000E+00  0.00000000000E+00  0.50346692788E+03  0.30684325208E+04  0.30268464096E+04 0.  0.
        5    1    3    3  502    0  0.11810447524E+04  0.63648899994E+03  0.96167135053E+03  0.16507025264E+04  0.46999998093E+01 0. -1.
       -5    1    3    3    0  502 -0.11810447524E+04 -0.63648899994E+03 -0.45820442264E+03  0.14177299944E+04  0.46999998093E+01 0.  1.
</event>
<event>
 5   0  0.1734885E-06  0.2989533E+04  0.7818609E-02  0.8246726E-01
        1   -1    0    0  501    0  0.00000000000E+00  0.00000000000E+00  0.10158756700E+04  0.10158756700E+04  0.50400001928E-02 0.  1.
       -1   -1    0    0    0  501  0.00000000000E+00  0.00000000000E+00 -0.21994104062E+04  0.21994104062E+04  0.50400001928E-02 0. -1.
    10030    2    1    2    0    0  0.00000000000E+00  0.00000000000E+00 -0.11835347363E+04  0.32152860762E+04  0.29895334218E+04 0.  0.
        2    1    3    3  502    0  0.12207203242E+04  0.68680976017E+03 -0.11531629473E+04  0.18142906436E+04  0.25500000920E-02 0. -1.
       -2    1    3    3    0  502 -0.12207203242E+04 -0.68680976017E+03 -0.30371788937E+02  0.14009954326E+04  0.25500000920E-02 0.  1.
</event>
<event>
 5   0  0.1709858E-06  0.2979327E+04  0.7818609E-02  0.8249659E-01
        1   -1    0    0  501    0  0.00000000000E+00  0.00000000000E+00  0.15931475616E+04  0.15931475616E+04  0.50400001928E-02 0. -1.
       -1   -1    0    0    0  501  0.00000000000E+00  0.00000000000E+00 -0.13929009007E+04  0.13929009007E+04  0.50400001928E-02 0.  1.
    10030    2    1    2    0    0  0.00000000000E+00  0.00000000000E+00  0.20024666083E+03  0.29860484623E+04  0.29793265504E+04 0.  0.
        3    1    3    3  502    0  0.50265768412E+03 -0.85704402217E+03  0.12125407669E+04  0.15676237830E+04  0.10100000352E+00 0. -1.
       -3    1    3    3    0  502 -0.50265768412E+03  0.85704402217E+03 -0.10122941061E+04  0.14184246793E+04  0.10100000352E+00 0.  1.
</event>
<event>
 5   0  0.1700885E-06  0.3035036E+04  0.7818609E-02  0.8233796E-01
       -1   -1    0    0    0  501  0.00000000000E+00  0.00000000000E+00  0.11351616747E+04  0.11351616748E+04  0.50400001928E-02 0. -1.
        1   -1    0    0  501    0  0.00000000000E+00  0.00000000000E+00 -0.20286639236E+04  0.20286639236E+04  0.50400001928E-02 0.  1.
    10030    2    1    2    0    0  0.00000000000E+00  0.00000000000E+00 -0.89350224886E+03  0.31638255984E+04  0.30350364327E+04 0.  0.
        1    1    3    3  502    0 -0.58578224094E+02 -0.95519140797E+03 -0.16744533463E+04  0.19286306134E+04  0.50400001928E-02 0.  1.
       -1    1    3    3    0  502  0.58578224094E+02  0.95519140797E+03  0.78095109742E+03  0.12351949849E+04  0.50400001928E-02 0. -1.
</event>
<event>
 5   0  0.4768570E-06  0.2992244E+04  0.7818609E-02  0.8245949E-01
       -2   -1    0    0    0  501  0.00000000000E+00  0.00000000000E+00  0.17282947134E+04  0.17282947134E+04  0.25500000920E-02 0. -1.
        2   -1    0    0  501    0  0.00000000000E+00  0.00000000000E+00 -0.12951383136E+04  0.12951383136E+04  0.25500000920E-02 0.  1.
    10030    2    1    2    0    0  0.00000000000E+00  0.00000000000E+00  0.43315639973E+03  0.30234330270E+04  0.29922437738E+04 0.  0.
        1    1    3    3  502    0  0.11897990197E+04 -0.59522297871E+03  0.90816010817E+03  0.16107969716E+04  0.50400001928E-02 0. -1.
       -1    1    3    3    0  502 -0.11897990197E+04  0.59522297871E+03 -0.47500370844E+03  0.14126360553E+04  0.50400001928E-02 0.  1.
</event>
<event>
 5   0  0.5003556E-06  0.3197432E+04  0.7818609E-02  0.8189496E-01
        2   -1    0    0  501    0  0.00000000000E+00  0.00000000000E+00  0.19979712334E+04  0.19979712334E+04  0.25500000920E-02 0.  1.
       -2   -1    0    0    0  501  0.00000000000E+00  0.00000000000E+00 -0.12792438840E+04  0.12792438840E+04  0.25500000920E-02 0. -1.
    10030    2    1    2    0    0  0.00000000000E+00  0.00000000000E+00  0.71872734941E+03  0.32772151174E+04  0.31974317699E+04 0.  0.
        3    1    3    3  502    0 -0.10696843294E+04 -0.10091402505E+04 -0.28342433720E+03  0.14976374644E+04  0.10100000352E+00 0.  1.
       -3    1    3    3    0  502  0.10696843294E+04  0.10091402505E+04  0.10021516866E+04  0.17795776530E+04  0.10100000352E+00 0. -1.
</event>
<event>
 5   0  0.4935331E-06  0.2987589E+04  0.7818609E-02  0.8247284E-01
        2   -1    0    0  501    0  0.00000000000E+00  0.00000000000E+00  0.20002667352E+04  0.20002667352E+04  0.25500000920E-02 0.  1.
       -2   -1    0    0    0  501  0.00000000000E+00  0.00000000000E+00 -0.11155624585E+04  0.11155624585E+04  0.25500000920E-02 0. -1.
    10030    2    1    2    0    0  0.00000000000E+00  0.00000000000E+00  0.88470427665E+03  0.31158291937E+04  0.29875893137E+04 0.  0.
        5    1    3    3  502    0  0.11111794849E+04 -0.63551168560E+03 -0.36063545227E+03  0.13299153994E+04  0.46999998093E+01 0. -1.
       -5    1    3    3    0  502 -0.11111794849E+04  0.63551168560E+03  0.12453397289E+04  0.17859137943E+04  0.46999998093E+01 0.  1.
</event>
<event>
 5   0  0.4532420E-06  0.2964592E+04  0.7818609E-02  0.8253915E-01
        2   -1    0    0  501    0  0.00000000000E+00  0.00000000000E+00  0.22122519818E+04  0.22122519818E+04  0.25500000920E-02 0.  1.
       -2   -1    0    0    0  501  0.00000000000E+00  0.00000000000E+00 -0.99319702341E+03  0.99319702341E+03  0.25500000920E-02 0. -1.
    10030    2    1    2    0    0  0.00000000000E+00  0.00000000000E+00  0.12190549584E+04  0.32054490052E+04  0.29645924397E+04 0.  0.
        4    1    3    3  502    0  0.57772590890E+03 -0.12314875378E+04  0.12463351747E+04  0.18449069792E+04  0.12699999809E+01 0.  1.
       -4    1    3    3    0  502 -0.57772590890E+03  0.12314875378E+04 -0.27280216252E+02  0.13605420260E+04  0.12699999809E+01 0. -1.
</event>
<event>
 5   0  0.4768570E-06  0.3032003E+04  0.7818609E-02  0.8234651E-01
        2   -1    0    0  501    0  0.00000000000E+00  0.00000000000E+00  0.22267897257E+04  0.22267897257E+04  0.25500000920E-02 0. -1.
       -2   -1    0    0    0  501  0.00000000000E+00  0.00000000000E+00 -0.10320955624E+04  0.10320955624E+04  0.25500000920E-02 0.  1.
    10030    2    1    2    0    0  0.00000000000E+00  0.00000000000E+00  0.11946941633E+04  0.32588852882E+04  0.30320025029E+04 0.  0.
        1    1    3    3  502    0 -0.50201609608E+02  0.92288172170E+03  0.18889453790E+04  0.21029373549E+04  0.50400001928E-02 0. -1.
       -1    1    3    3    0  502  0.50201609608E+02 -0.92288172170E+03 -0.69425121570E+03  0.11559479333E+04  0.50400001928E-02 0.  1.
</event>
<event>
 5   0  0.1734885E-06  0.3015023E+04  0.7818609E-02  0.8239454E-01
       -1   -1    0    0    0  501  0.00000000000E+00  0.00000000000E+00  0.11740169563E+04  0.11740169564E+04  0.50400001928E-02 0.  1.
        1   -1    0    0  501    0  0.00000000000E+00  0.00000000000E+00 -0.19357399186E+04  0.19357399186E+04  0.50400001928E-02 0. -1.
    10030    2    1    2    0    0  0.00000000000E+00  0.00000000000E+00 -0.76172296226E+03  0.31097568750E+04  0.30150233747E+04 0.  0.
        2    1    3    3  502    0 -0.14942474128E+04  0.68459428732E+02 -0.18754382919E+03  0.15075260236E+04  0.25500000920E-02 0.  1.
       -2    1    3    3    0  502  0.14942474128E+04 -0.68459428732E+02 -0.57417913307E+03  0.16022308513E+04  0.25500000920E-02 0. -1.
</event>
<event>
 5   0  0.1709858E-06  0.2886538E+04  0.7818609E-02  0.8276894E-01
       -1   -1    0    0    0  501  0.00000000000E+00  0.00000000000E+00  0.22153328278E+04  0.22153328278E+04  0.50400001928E-02 0.  1.
        1   -1    0    0  501    0  0.00000000000E+00  0.00000000000E+00 -0.94027635281E+03  0.94027635282E+03  0.50400001928E-02 0. -1.
    10030    2    1    2    0    0  0.00000000000E+00  0.00000000000E+00  0.12750564750E+04  0.31556091807E+04  0.28865377681E+04 0.  0.
        3    1    3    3  502    0  0.12474158997E+04  0.27796383176E+02  0.14305477305E+04  0.18982323054E+04  0.10100000352E+00 0. -1.
       -3    1    3    3    0  502 -0.12474158997E+04 -0.27796383176E+02 -0.15549125550E+03  0.12573768753E+04  0.10100000352E+00 0.  1.
</event>
<event>
 5   0  0.5003556E-06  0.3127448E+04  0.7818609E-02  0.8208245E-01
       -2   -1    0    0    0  501  0.00000000000E+00  0.00000000000E+00  0.14849317357E+04  0.14849317357E+04  0.25500000920E-02 0.  1.
        2   -1    0    0  501    0  0.00000000000E+00  0.00000000000E+00 -0.16466968843E+04  0.16466968843E+04  0.25500000920E-02 0. -1.
    10030    2    1    2    0    0  0.00000000000E+00  0.00000000000E+00 -0.16176514856E+03  0.31316286199E+04  0.31274478173E+04 0.  0.
        3    1    3    3  502    0  0.50596275918E+03  0.11417220734E+04  0.86149445547E+03  0.15171355620E+04  0.10100000352E+00 0.  1.
       -3    1    3    3    0  502 -0.50596275918E+03 -0.11417220734E+04 -0.10232596040E+04  0.16144930579E+04  0.10100000352E+00 0. -1.
</event>
<event>
 5   0  0.5003556E-06  0.3006680E+04  0.7818609E-02  0.8241826E-01
        2   -1    0    0  501    0  0.00000000000E+00  0.00000000000E+00  0.28998452753E+04  0.28998452753E+04  0.25500000920E-02 0.  1.
       -2   -1    0    0    0  501  0.00000000000E+00  0.00000000000E+00 -0.77936263844E+03  0.77936263844E+03  0.25500000920E-02 0. -1.
    10030    2    1    2    0    0  0.00000000000E+00  0.00000000000E+00  0.21204826368E+04  0.36792079137E+04  0.30066799396E+04 0.  0.
        3    1    3    3  502    0 -0.72941855466E+03 -0.11166202296E+04  0.19090354366E+04  0.23287997925E+04  0.10100000352E+00 0.  1.
       -3    1    3    3    0  502  0.72941855466E+03  0.11166202296E+04  0.21144720019E+03  0.13504081212E+04  0.10100000352E+00 0. -1.
</event>
<event>
 5   0  0.1686012E-06  0.2991476E+04  0.7818609E-02  0.8246169E-01
        1   -1    0    0  501    0  0.00000000000E+00  0.00000000000E+00  0.17251000377E+04  0.17251000377E+04  0.50400001928E-02 0. -1.
       -1   -1    0    0    0  501  0.00000000000E+00  0.00000000000E+00 -0.12968708562E+04  0.12968708562E+04  0.50400001928E-02 0.  1.
    10030    2    1    2    0    0  0.00000000000E+00  0.00000000000E+00  0.42822918148E+03  0.30219708939E+04  0.29914758651E+04 0.  0.
        4    1    3    3  502    0 -0.10917703764E+04  0.39509439349E+03  0.11666842374E+04  0.16459695796E+04  0.12699999809E+01 0. -1.
       -4    1    3    3    0  502  0.10917703764E+04 -0.39509439349E+03 -0.73845505588E+03  0.13760013143E+04  0.12699999809E+01 0.  1.
</event>
<event>
 5   0  0.1700885E-06  0.3006976E+04  0.7818609E-02  0.8241742E-01
        1   -1    0    0  501    0  0.00000000000E+00  0.00000000000E+00  0.30503328411E+04  0.30503328411E+04  0.50400001928E-02 0.  1.
       -1   -1    0    0    0  501  0.00000000000E+00  0.00000000000E+00 -0.74105883054E+03  0.74105883055E+03  0.50400001928E-02 0. -1.
    10030    2    1    2    0    0  0.00000000000E+00  0.00000000000E+00  0.23092740105E+04  0.37913916716E+04  0.30069759480E+04 0.  0.
        1    1    3    3  502    0  0.24173686214E+03  0.35510013727E+03  0.29713086518E+04  0.30022005133E+04  0.50400001928E-02 0.  1.
       -1    1    3    3    0  502 -0.24173686214E+03 -0.35510013727E+03 -0.66203464128E+03  0.78919115827E+03  0.50400001928E-02 0. -1.
</event>
<event>
 5   0  0.4935331E-06  0.2936860E+04  0.7818609E-02  0.8261994E-01
        2   -1    0    0  501    0  0.00000000000E+00  0.00000000000E+00  0.14640444447E+04  0.14640444447E+04  0.25500000920E-02 0.  1.
       -2   -1    0    0    0  501  0.00000000000E+00  0.00000000000E+00 -0.14728291322E+04  0.14728291322E+04  0.25500000920E-02 0. -1.
    10030    2    1    2    0    0  0.00000000000E+00  0.00000000000E+00 -0.87846874984E+01  0.29368735769E+04  0.29368604386E+04 0.  0.
        5    1    3    3  502    0 -0.62216518012E+03 -0.13257860602E+04 -0.11147704324E+03  0.14687570970E+04  0.46999998093E+01 0. -1.
       -5    1    3    3    0  502  0.62216518012E+03  0.13257860602E+04  0.10269235574E+03  0.14681164799E+04  0.46999998093E+01 0.  1.
</event>
<event>
 5   0  0.1700885E-06  0.2828279E+04  0.7818609E-02  0.8294542E-01
        1   -1    0    0  501    0  0.00000000000E+00  0.00000000000E+00  0.10374296402E+04  0.10374296402E+04  0.50400001928E-02 0.  1.
       -1   -1    0    0    0  501  0.00000000000E+00  0.00000000000E+00 -0.19276395753E+04  0.19276395754E+04  0.50400001928E-02 0. -1.
    10030    2    1    2    0    0  0.00000000000E+00  0.00000000000E+00 -0.89020993519E+03  0.29650692155E+04  0.28282789332E+04 0.  0.
        1    1    3    3  502    0  0.35376691268E+03  0.76654393847E+03 -0.16344565965E+04  0.18396165372E+04  0.50400001928E-02 0. -1.
       -1    1    3    3    0  502 -0.35376691268E+03 -0.76654393847E+03  0.74424666135E+03  0.11254526783E+04  0.50400001928E-02 0.  1.
</event>
<event>
 5   0  0.1700885E-06  0.2962248E+04  0.7818609E-02  0.8254594E-01
        1   -1    0    0  501    0  0.00000000000E+00  0.00000000000E+00  0.14764995776E+04  0.14764995776E+04  0.50400001928E-02 0.  1.
       -1   -1    0    0    0  501  0.00000000000E+00  0.00000000000E+00 -0.14857625934E+04  0.14857625934E+04  0.50400001928E-02 0. -1.
    10030    2    1    2    0    0  0.00000000000E+00  0.00000000000E+00 -0.92630157961E+01  0.29622621710E+04  0.29622476882E+04 0.  0.
        1    1    3    3  502    0  0.69498852723E+03  0.24120074190E+03  0.12808867338E+04  0.14771112604E+04  0.50400001928E-02 0.  1.
       -1    1    3    3    0  502 -0.69498852723E+03 -0.24120074190E+03 -0.12901497496E+04  0.14851509106E+04  0.50400001928E-02 0. -1.
</event>
<event>
 5   0  0.4532420E-06  0.2960737E+04  0.7818609E-02  0.8255033E-01
       -2   -1    0    0    0  501  0.00000000000E+00  0.00000000000E+00  0.12407319129E+04  0.12407319129E+04  0.25500000920E-02 0. -1.
        2   -1    0    0  501    0  0.00000000000E+00  0.00000000000E+00 -0.17662882264E+04  0.17662882264E+04  0.25500000920E-02 0.  1.
    10030    2    1    2    0    0  0.00000000000E+00  0.00000000000E+00 -0.52555631353E+03  0.30070201393E+04  0.29607365096E+04 0.  0.
        4    1    3    3  502    0  0.11571655670E+04 -0.90727279014E+03 -0.43666348821E+03  0.15339011311E+04  0.12699999809E+01 0.  1.
       -4    1    3    3    0  502 -0.11571655670E+04  0.90727279014E+03 -0.88892825321E+02  0.14731190082E+04  0.12699999809E+01 0. -1.
</event>
<event>
 5   0  0.1709858E-06  0.3008439E+04  0.7818609E-02  0.8241325E-01
        1   -1    0    0  501    0  0.00000000000E+00  0.00000000000E+00  0.12104918653E+04  0.12104918653E+04  0.50400001928E-02 0.  1.
       -1   -1    0    0    0  501  0.00000000000E+00  0.00000000000E+00 -0.18692200590E+04  0.18692200590E+04  0.50400001928E-02 0. -1.
    10030    2    1    2    0    0  0.00000000000E+00  0.00000000000E+00 -0.65872819376E+03  0.30797119243E+04  0.30084385823E+04 0.  0.
        3    1    3    3  502    0 -0.52335801085E+03 -0.14460364369E+03  0.11066749452E+04  0.12326975565E+04  0.10100000352E+00 0.  1.
       -3    1    3    3    0  502  0.52335801085E+03  0.14460364369E+03 -0.17654031390E+04  0.18470143677E+04  0.10100000352E+00 0. -1.
</event>
<event>
 5   0  0.1709858E-06  0.3011721E+04  0.7818609E-02  0.8240392E-01
        1   -1    0    0  501    0  0.00000000000E+00  0.00000000000E+00  0.13390486730E+04  0.13390486730E+04  0.50400001928E-02 0. -1.
       -1   -1    0    0    0  501  0.00000000000E+00  0.00000000000E+00 -0.16934530190E+04  0.16934530190E+04  0.50400001928E-02 0.  1.
    10030    2    1    2    0    0  0.00000000000E+00  0.00000000000E+00 -0.35440434601E+03  0.30325016920E+04  0.30117211145E+04 0.  0.
        3    1    3    3  502    0 -0.65886801127E+03  0.22368755221E+03 -0.15218840354E+04  0.16734019854E+04  0.10100000352E+00 0.  1.
       -3    1    3    3    0  502  0.65886801127E+03 -0.22368755221E+03  0.11674796894E+04  0.13590997066E+04  0.10100000352E+00 0. -1.
</event>
<event>
 5   0  0.1700885E-06  0.3073812E+04  0.7818609E-02  0.8222962E-01
        1   -1    0    0  501    0  0.00000000000E+00  0.00000000000E+00  0.12889211090E+04  0.12889211090E+04  0.50400001928E-02 0.  1.
       -1   -1    0    0    0  501  0.00000000000E+00  0.00000000000E+00 -0.18326025769E+04  0.18326025769E+04  0.50400001928E-02 0. -1.
    10030    2    1    2    0    0  0.00000000000E+00  0.00000000000E+00 -0.54368146791E+03  0.31215236858E+04  0.30738120604E+04 0.  0.
        1    1    3    3  502    0 -0.77023541016E+03 -0.80658952325E+03  0.80203757139E+03  0.13737225018E+04  0.50400001928E-02 0.  1.
       -1    1    3    3    0  502  0.77023541016E+03  0.80658952325E+03 -0.13457190393E+04  0.17478011840E+04  0.50400001928E-02 0. -1.
</event>
<event>
 5   0  0.1672907E-06  0.2999884E+04  0.7818609E-02  0.8243764E-01
        1   -1    0    0  501    0  0.00000000000E+00  0.00000000000E+00  0.23021640157E+04  0.23021640157E+04  0.50400001928E-02 0.  1.
       -1   -1    0    0    0  501  0.00000000000E+00  0.00000000000E+00 -0.97726557807E+03  0.97726557809E+03  0.50400001928E-02 0. -1.
    10030    2    1    2    0    0  0.00000000000E+00  0.00000000000E+00  0.13248984376E+04  0.32794295938E+04  0.29998837628E+04 0.  0.
        5    1    3    3  502    0 -0.13311883416E+03  0.31826237995E+03  0.22581975980E+04  0.22844014639E+04  0.46999998093E+01 0.  1.
       -5    1    3    3    0  502  0.13311883416E+03 -0.31826237995E+03 -0.93329916040E+03  0.99502812990E+03  0.46999998093E+01 0. -1.
</event>
<event>
 5   0  0.1672907E-06  0.3120009E+04  0.7818609E-02  0.8210268E-01
       -1   -1    0    0    0  501  0.00000000000E+00  0.00000000000E+00  0.11916287572E+04  0.11916287572E+04  0.50400001928E-02 0. -1.
        1   -1    0    0  501    0  0.00000000000E+00  0.00000000000E+00 -0.20422582155E+04  0.20422582155E+04  0.50400001928E-02 0.  1.
    10030    2    1    2    0    0  0.00000000000E+00  0.00000000000E+00 -0.85062945827E+03  0.32338869728E+04  0.31200087303E+04 0.  0.
        5    1    3    3  502    0  0.10181901330E+04  0.65742828878E+03  0.59270937250E+03  0.13491662581E+04  0.46999998093E+01 0. -1.
       -5    1    3    3    0  502 -0.10181901330E+04 -0.65742828878E+03 -0.14433388308E+04  0.18847207146E+04  0.46999998093E+01 0.  1.
</event>
<event>
 5   0  0.1734885E-06  0.3017591E+04  0.7818609E-02  0.8238726E-01
        1   -1    0    0  501    0  0.00000000000E+00  0.00000000000E+00  0.16124136621E+04  0.16124136621E+04  0.50400001928E-02 0. -1.
       -1   -1    0    0    0  501  0.00000000000E+00  0.00000000000E+00 -0.14118358981E+04  0.14118358981E+04  0.50400001928E-02 0.  1.
    10030    2    1    2    0    0  0.00000000000E+00  0.00000000000E+00  0.20057776398E+03  0.30242495603E+04  0.30175907548E+04 0.  0.
        2    1    3    3  502    0  0.12334090746E+03  0.13588507656E+04 -0.54516263870E+03  0.14693164007E+04  0.25500000920E-02 0.  1.
       -2    1    3    3    0  502 -0.12334090746E+03 -0.13588507656E+04  0.74574040269E+03  0.15549331596E+04  0.25500000920E-02 0. -1.
</event>
<event>
 5   0  0.1734885E-06  0.2996899E+04  0.7818609E-02  0.8244617E-01
        1   -1    0    0  501    0  0.00000000000E+00  0.00000000000E+00  0.12318424302E+04  0.12318424302E+04  0.50400001928E-02 0.  1.
       -1   -1    0    0    0  501  0.00000000000E+00  0.00000000000E+00 -0.18227578473E+04  0.18227578473E+04  0.50400001928E-02 0. -1.
    10030    2    1    2    0    0  0.00000000000E+00  0.00000000000E+00 -0.59091541706E+03  0.30546002775E+04  0.29968987012E+04 0.  0.
        2    1    3    3  502    0 -0.12737500390E+04 -0.89437212177E+02  0.50380381460E+03  0.13726822139E+04  0.25500000920E-02 0.  1.
       -2    1    3    3    0  502  0.12737500390E+04  0.89437212177E+02 -0.10947192317E+04  0.16819180636E+04  0.25500000920E-02 0. -1.
</event>
<event>
 5   0  0.1734885E-06  0.3037317E+04  0.7818609E-02  0.8233154E-01
       -1   -1    0    0    0  501  0.00000000000E+00  0.00000000000E+00  0.13687077829E+04  0.13687077829E+04  0.50400001928E-02 0.  1.
        1   -1    0    0  501    0  0.00000000000E+00  0.00000000000E+00 -0.16850371753E+04  0.16850371753E+04  0.50400001928E-02 0. -1.
    10030    2    1    2    0    0  0.00000000000E+00  0.00000000000E+00 -0.31632939245E+03  0.30537449582E+04  0.30373169057E+04 0.  0.
        2    1    3    3  502    0 -0.29075101284E+03 -0.50652021406E+03  0.12512823162E+04  0.13808715775E+04  0.25500000920E-02 0.  1.
       -2    1    3    3    0  502  0.29075101284E+03  0.50652021406E+03 -0.15676117087E+04  0.16728733807E+04  0.25500000920E-02 0. -1.
</event>
<event>
 5   0  0.4935331E-06  0.3011373E+04  0.7818609E-02  0.8240491E-01
       -2   -1    0    0    0  501  0.00000000000E+00  0.00000000000E+00  0.89226903094E+03  0.89226903095E+03  0.25500000920E-02 0.  1.
        2   -1    0    0  501    0  0.00000000000E+00  0.00000000000E+00 -0.25408168868E+04  0.25408168868E+04  0.25500000920E-02 0. -1.
    10030    2    1    2    0    0  0.00000000000E+00  0.00000000000E+00 -0.16485478558E+04  0.34330859177E+04  0.30113732558E+04 0.  0.
        5    1    3    3  502    0  0.29266199324E+03 -0.15261669744E+03 -0.24990571666E+04  0.25207641125E+04  0.46999998093E+01 0. -1.
       -5    1    3    3    0  502 -0.29266199324E+03  0.15261669744E+03  0.85050931079E+03  0.91232180527E+03  0.46999998093E+01 0.  1.
</event>
<event>
 5   0  0.1700885E-06  0.3033684E+04  0.7818609E-02  0.8234177E-01
       -1   -1    0    0    0  501  0.00000000000E+00  0.00000000000E+00  0.85726309879E+03  0.85726309880E+03  0.50400001928E-02 0.  1.
        1   -1    0    0  501    0  0.00000000000E+00  0.00000000000E+00 -0.26839018928E+04  0.26839018928E+04  0.50400001928E-02 0. -1.
    10030    2    1    2    0    0  0.00000000000E+00  0.00000000000E+00 -0.18266387940E+04  0.35411649916E+04  0.30336842640E+04 0.  0.
        1    1    3    3  502    0  0.62397925615E+03  0.13752331211E+04 -0.10791958924E+04  0.18561465523E+04  0.50400001928E-02 0.  1.
       -1    1    3    3    0  502 -0.62397925615E+03 -0.13752331211E+04 -0.74744290156E+03  0.16850184392E+04  0.50400001928E-02 0. -1.
</event>
<event>
 5   0  0.4935331E-06  0.2998109E+04  0.7818609E-02  0.8244271E-01
       -2   -1    0    0    0  501  0.00000000000E+00  0.00000000000E+00  0.11712032058E+04  0.11712032058E+04  0.25500000920E-02 0.  1.
        2   -1    0    0  501    0  0.00000000000E+00  0.00000000000E+00 -0.19186807322E+04  0.19186807322E+04  0.25500000920E-02 0. -1.
    10030    2    1    2    0    0  0.00000000000E+00  0.00000000000E+00 -0.74747752635E+03  0.30898839380E+04  0.29981094206E+04 0.  0.
        5    1    3    3  502    0  0.64535689090E+03 -0.97749164413E+03  0.59040163245E+03  0.13117056105E+04  0.46999998093E+01 0.  1.
       -5    1    3    3    0  502 -0.64535689090E+03  0.97749164413E+03 -0.13378791588E+04  0.17781783275E+04  0.46999998093E+01 0. -1.
</event>
<event>
 5   0  0.1686012E-06  0.3029129E+04  0.7818609E-02  0.8235461E-01
        1   -1    0    0  501    0  0.00000000000E+00  0.00000000000E+00  0.26416486000E+04  0.26416486000E+04  0.50400001928E-02 0. -1.
       -1   -1    0    0    0  501  0.00000000000E+00  0.00000000000E+00 -0.86836160052E+03  0.86836160054E+03  0.50400001928E-02 0.  1.
    10030    2    1    2    0    0  0.00000000000E+00  0.00000000000E+00  0.17732869995E+04  0.35100102005E+04  0.30291293841E+04 0.  0.
        4    1    3    3  502    0  0.20591500435E+03  0.39677256444E+03  0.25634644247E+04  0.26021492898E+04  0.12699999809E+01 0. -1.
       -4    1    3    3    0  502 -0.20591500435E+03 -0.39677256444E+03 -0.79017742524E+03  0.90786091070E+03  0.12699999809E+01 0.  1.
</event>
<event>
 5   0  0.4532420E-06  0.3004807E+04  0.7818609E-02  0.8242359E-01
       -2   -1    0    0    0  501  0.00000000000E+00  0.00000000000E+00  0.11807854561E+04  0.11807854562E+04  0.25500000920E-02 0. -1.
        2   -1    0    0  501    0  0.00000000000E+00  0.00000000000E+00 -0.19116230542E+04  0.19116230542E+04  0.25500000920E-02 0.  1.
    10030    2    1    2    0    0  0.00000000000E+00  0.00000000000E+00 -0.73083759800E+03  0.30924085103E+04  0.30048072817E+04 0.  0.
        4    1    3    3  502    0 -0.49416996414E+03  0.65093349032E+03  0.93200760176E+03  0.12395798260E+04  0.12699999809E+01 0. -1.
       -4    1    3    3    0  502  0.49416996414E+03 -0.65093349032E+03 -0.16628451998E+04  0.18528286843E+04  0.12699999809E+01 0.  1.
</event>
<event>
 5   0  0.4768570E-06  0.3039647E+04  0.7818609E-02  0.8232499E-01
        2   -1    0    0  501    0  0.00000000000E+00  0.00000000000E+00  0.23132535122E+04  0.23132535122E+04  0.25500000920E-02 0.  1.
       -2   -1    0    0    0  501  0.00000000000E+00  0.00000000000E+00 -0.99853445651E+03  0.99853445651E+03  0.25500000920E-02 0. -1.
    10030    2    1    2    0    0  0.00000000000E+00  0.00000000000E+00  0.13147190557E+04  0.33117879687E+04  0.30396469128E+04 0.  0.
        1    1    3    3  502    0  0.65951129768E+03  0.13289799896E+04  0.10166079377E+04  0.17985090112E+04  0.50400001928E-02 0.  1.
       -1    1    3    3    0  502 -0.65951129768E+03 -0.13289799896E+04  0.29811111804E+03  0.15132789575E+04  0.50400001928E-02 0. -1.
</event>
<event>
 5   0  0.1709858E-06  0.3111652E+04  0.7818609E-02  0.8212547E-01
        1   -1    0    0  501    0  0.00000000000E+00  0.00000000000E+00  0.10248324483E+04  0.10248324483E+04  0.50400001928E-02 0.  1.
       -1   -1    0    0    0  501  0.00000000000E+00  0.00000000000E+00 -0.23619416334E+04  0.23619416334E+04  0.50400001928E-02 0. -1.
    10030    2    1    2    0    0  0.00000000000E+00  0.00000000000E+00 -0.13371091850E+04  0.33867740817E+04  0.31116519258E+04 0.  0.
        3    1    3    3  502    0 -0.93616407210E+03  0.10614234290E+04  0.34777879596E+02  0.14157091427E+04  0.10100000352E+00 0. -1.
       -3    1    3    3    0  502  0.93616407210E+03 -0.10614234290E+04 -0.13718870646E+04  0.19710649390E+04  0.10100000352E+00 0.  1.
</event>
<event>
 5   0  0.5003556E-06  0.2965546E+04  0.7818609E-02  0.8253638E-01
        2   -1    0    0  501    0  0.00000000000E+00  0.00000000000E+00  0.18984857147E+04  0.18984857147E+04  0.25500000920E-02 0.  1.
       -2   -1    0    0    0  501  0.00000000000E+00  0.00000000000E+00 -0.11580889577E+04  0.11580889577E+04  0.25500000920E-02 0. -1.
    10030    2    1    2    0    0  0.00000000000E+00  0.00000000000E+00  0.74039675698E+03  0.30565746724E+04  0.29655457120E+04 0.  0.
        3    1    3    3  502    0  0.13098501491E+04  0.10002986665E+03 -0.33858893796E+03  0.13565971644E+04  0.10100000352E+00 0.  1.
       -3    1    3    3    0  502 -0.13098501491E+04 -0.10002986665E+03  0.10789856949E+04  0.16999775079E+04  0.10100000352E+00 0. -1.
</event>
<event>
 5   0  0.1686012E-06  0.2984472E+04  0.7818609E-02  0.8248179E-01
       -1   -1    0    0    0  501  0.00000000000E+00  0.00000000000E+00  0.28668962572E+04  0.28668962573E+04  0.50400001928E-02 0. -1.
        1   -1    0    0  501    0  0.00000000000E+00  0.00000000000E+00 -0.77671721043E+03  0.77671721044E+03  0.50400001928E-02 0.  1.
    10030    2    1    2    0    0  0.00000000000E+00  0.00000000000E+00  0.20901790468E+04  0.36436134677E+04  0.29844715871E+04 0.  0.
        4    1    3    3  502    0 -0.94275292472E+03 -0.29721589525E+03 -0.31967679866E+03  0.10389009741E+04  0.12699999809E+01 0.  1.
       -4    1    3    3    0  502  0.94275292472E+03  0.29721589525E+03  0.24098558455E+04  0.26047124936E+04  0.12699999809E+01 0. -1.
</event>
<event>
 5   0  0.4702748E-06  0.2526885E+04  0.7818609E-02  0.8393470E-01
       -2   -1    0    0    0  501  0.00000000000E+00  0.00000000000E+00  0.14429280411E+04  0.14429280411E+04  0.25500000920E-02 0.  1.
        2   -1    0    0  501    0  0.00000000000E+00  0.00000000000E+00 -0.11062833019E+04  0.11062833019E+04  0.25500000920E-02 0. -1.
    10030    2    1    2    0    0  0.00000000000E+00  0.00000000000E+00  0.33664473925E+03  0.25492113430E+04  0.25268851955E+04 0.  0.
        2    1    3    3  502    0 -0.91142163697E+03  0.20821233952E+03 -0.68903666614E+03  0.11613842198E+04  0.25500000920E-02 0. -1.
       -2    1    3    3    0  502  0.91142163697E+03 -0.20821233952E+03  0.10256814054E+04  0.13878271233E+04  0.25500000920E-02 0.  1.
</event>
<event>
 5   0  0.1686012E-06  0.2953323E+04  0.7818609E-02  0.8257187E-01
        1   -1    0    0  501    0  0.00000000000E+00  0.00000000000E+00  0.15389835184E+04  0.15389835184E+04  0.50400001928E-02 0. -1.
       -1   -1    0    0    0  501  0.00000000000E+00  0.00000000000E+00 -0.14168632321E+04  0.14168632321E+04  0.50400001928E-02 0.  1.
    10030    2    1    2    0    0  0.00000000000E+00  0.00000000000E+00  0.12212028633E+03  0.29558467506E+04  0.29533229841E+04 0.  0.
        4    1    3    3  502    0  0.10785762328E+04 -0.92560547109E+03 -0.33985097312E+03  0.14613598033E+04  0.12699999809E+01 0. -1.
       -4    1    3    3    0  502 -0.10785762328E+04  0.92560547109E+03  0.46197125946E+03  0.14944869472E+04  0.12699999809E+01 0.  1.
</event>
<event>
 5   0  0.1700885E-06  0.2995922E+04  0.7818609E-02  0.8244896E-01
        1   -1    0    0  501    0  0.00000000000E+00  0.00000000000E+00  0.18092396224E+04  0.18092396224E+04  0.50400001928E-02 0.  1.
       -1   -1    0    0    0  501  0.00000000000E+00  0.00000000000E+00 -0.12402380121E+04  0.12402380121E+04  0.50400001928E-02 0. -1.
    10030    2    1    2    0    0  0.00000000000E+00  0.00000000000E+00  0.56900161029E+03  0.30494776345E+04  0.29959223973E+04 0.  0.
        1    1    3    3  502    0  0.12057557735E+04 -0.73682784500E+03  0.79050447688E+03  0.16191539724E+04  0.50400001928E-02 0.  1.
       -1    1    3    3    0  502 -0.12057557735E+04  0.73682784500E+03 -0.22150286659E+03  0.14303236621E+04  0.50400001928E-02 0. -1.
</event>
<event>
 5   0  0.1734885E-06  0.3008628E+04  0.7818609E-02  0.8241271E-01
        1   -1    0    0  501    0  0.00000000000E+00  0.00000000000E+00  0.16608304751E+04  0.16608304751E+04  0.50400001928E-02 0.  1.
       -1   -1    0    0    0  501  0.00000000000E+00  0.00000000000E+00 -0.13625478144E+04  0.13625478144E+04  0.50400001928E-02 0. -1.
    10030    2    1    2    0    0  0.00000000000E+00  0.00000000000E+00  0.29828266072E+03  0.30233782894E+04  0.30086282149E+04 0.  0.
        2    1    3    3  502    0 -0.70565080193E+03  0.59128527374E+03  0.13446796509E+04  0.16296394365E+04  0.25500000920E-02 0.  1.
       -2    1    3    3    0  502  0.70565080193E+03 -0.59128527374E+03 -0.10463969902E+04  0.13937388530E+04  0.25500000920E-02 0. -1.
</event>
<event>
 5   0  0.4702748E-06  0.3058311E+04  0.7818609E-02  0.8227273E-01
        2   -1    0    0  501    0  0.00000000000E+00  0.00000000000E+00  0.19186082094E+04  0.19186082094E+04  0.25500000920E-02 0. -1.
       -2   -1    0    0    0  501  0.00000000000E+00  0.00000000000E+00 -0.12187566620E+04  0.12187566620E+04  0.25500000920E-02 0.  1.
    10030    2    1    2    0    0  0.00000000000E+00  0.00000000000E+00  0.69985154743E+03  0.31373648713E+04  0.30583109959E+04 0.  0.
        2    1    3    3  502    0 -0.97415924925E+03 -0.16871702123E+03 -0.84678963619E+03  0.13017312949E+04  0.25500000920E-02 0.  1.
       -2    1    3    3    0  502  0.97415924925E+03  0.16871702123E+03  0.15466411836E+04  0.18356335765E+04  0.25500000920E-02 0. -1.
</event>
<event>
 5   0  0.4768570E-06  0.2922313E+04  0.7818609E-02  0.8266269E-01
        2   -1    0    0  501    0  0.00000000000E+00  0.00000000000E+00  0.20835186342E+04  0.20835186342E+04  0.25500000920E-02 0.  1.
       -2   -1    0    0    0  501  0.00000000000E+00  0.00000000000E+00 -0.10246984846E+04  0.10246984846E+04  0.25500000920E-02 0. -1.
    10030    2    1    2    0    0  0.00000000000E+00  0.00000000000E+00  0.10588201496E+04  0.31082171189E+04  0.29223130477E+04 0.  0.
        1    1    3    3  502    0 -0.12233689306E+04 -0.62177019354E+03  0.10630744423E+04  0.17359023543E+04  0.50400001928E-02 0.  1.
       -1    1    3    3    0  502  0.12233689306E+04  0.62177019354E+03 -0.42542926385E+01  0.13723147645E+04  0.50400001928E-02 0. -1.
</event>
<event>
 5   0  0.1734885E-06  0.3032745E+04  0.7818609E-02  0.8234442E-01
        1   -1    0    0  501    0  0.00000000000E+00  0.00000000000E+00  0.26864446654E+04  0.26864446654E+04  0.50400001928E-02 0.  1.
       -1   -1    0    0    0  501  0.00000000000E+00  0.00000000000E+00 -0.85592141801E+03  0.85592141802E+03  0.50400001928E-02 0. -1.
    10030    2    1    2    0    0  0.00000000000E+00  0.00000000000E+00  0.18305232474E+04  0.35423660835E+04  0.30327449794E+04 0.  0.
        2    1    3    3  502    0  0.40511146361E+03  0.13115507546E+04  0.16270973296E+03  0.13823006681E+04  0.25500000920E-02 0. -1.
       -2    1    3    3    0  502 -0.40511146361E+03 -0.13115507546E+04  0.16678135145E+04  0.21600654154E+04  0.25500000920E-02 0.  1.
</event>
<event>
 5   0  0.4768570E-06  0.2986462E+04  0.7818609E-02  0.8247607E-01
        2   -1    0    0  501    0  0.00000000000E+00  0.00000000000E+00  0.20129174124E+04  0.20129174124E+04  0.25500000920E-02 0.  1.
       -2   -1    0    0    0  501  0.00000000000E+00  0.00000000000E+00 -0.11077153026E+04  0.11077153026E+04  0.25500000920E-02 0. -1.
    10030    2    1    2    0    0  0.00000000000E+00  0.00000000000E+00  0.90520210976E+03  0.31206327150E+04  0.29864624026E+04 0.  0.
        1    1    3    3  502    0  0.35003864604E+03  0.13190133005E+04  0.10859817222E+04  0.17440411238E+04  0.50400001928E-02 0. -1.
       -1    1    3    3    0  502 -0.35003864604E+03 -0.13190133005E+04 -0.18077961243E+03  0.13765915912E+04  0.50400001928E-02 0.  1.
</event>
<event>
 5   0  0.1700885E-06  0.2996312E+04  0.7818609E-02  0.8244785E-01
       -1   -1    0    0    0  501  0.00000000000E+00  0.00000000000E+00  0.13306820077E+04  0.13306820077E+04  0.50400001928E-02 0. -1.
        1   -1    0    0  501    0  0.00000000000E+00  0.00000000000E+00 -0.16867078929E+04  0.16867078929E+04  0.50400001928E-02 0.  1.
    10030    2    1    2    0    0  0.00000000000E+00  0.00000000000E+00 -0.35602588518E+03  0.30173899007E+04  0.29963122971E+04 0.  0.
        1    1    3    3  502    0 -0.24281078730E+03 -0.52290237775E+03 -0.15705228026E+04  0.16729990581E+04  0.50400001928E-02 0.  1.
       -1    1    3    3    0  502  0.24281078730E+03  0.52290237775E+03  0.12144969174E+04  0.13443908425E+04  0.50400001928E-02 0. -1.
</event>
<event>
 5   0  0.4935331E-06  0.2994533E+04  0.7818609E-02  0.8245294E-01
        2   -1    0    0  501    0  0.00000000000E+00  0.00000000000E+00  0.21375018593E+04  0.21375018593E+04  0.25500000920E-02 0.  1.
       -2   -1    0    0    0  501  0.00000000000E+00  0.00000000000E+00 -0.10487979595E+04  0.10487979595E+04  0.25500000920E-02 0. -1.
    10030    2    1    2    0    0  0.00000000000E+00  0.00000000000E+00  0.10887038998E+04  0.31862998187E+04  0.29945334116E+04 0.  0.
        5    1    3    3  502    0 -0.20424323017E+03 -0.14518795061E+04  0.86729448454E+03  0.17034938245E+04  0.46999998093E+01 0.  1.
       -5    1    3    3    0  502  0.20424323017E+03  0.14518795061E+04  0.22140941526E+03  0.14828059942E+04  0.46999998093E+01 0. -1.
</event>
<event>
 5   0  0.4532420E-06  0.2902023E+04  0.7818609E-02  0.8272276E-01
        2   -1    0    0  501    0  0.00000000000E+00  0.00000000000E+00  0.18032940578E+04  0.18032940578E+04  0.25500000920E-02 0. -1.
       -2   -1    0    0    0  501  0.00000000000E+00  0.00000000000E+00 -0.11675494211E+04  0.11675494211E+04  0.25500000920E-02 0.  1.
    10030    2    1    2    0    0  0.00000000000E+00  0.00000000000E+00  0.63574463671E+03  0.29708434789E+04  0.29020233860E+04 0.  0.
        4    1    3    3  502    0  0.64749376661E+03 -0.60366348914E+03 -0.85907688121E+03  0.12335608970E+04  0.12699999809E+01 0.  1.
       -4    1    3    3    0  502 -0.64749376661E+03  0.60366348914E+03  0.14948215179E+04  0.17372825819E+04  0.12699999809E+01 0. -1.
</event>
<event>
 5   0  0.4532420E-06  0.3000492E+04  0.7818609E-02  0.8243590E-01
       -2   -1    0    0    0  501  0.00000000000E+00  0.00000000000E+00  0.23701816222E+04  0.23701816223E+04  0.25500000920E-02 0.  1.
        2   -1    0    0  501    0  0.00000000000E+00  0.00000000000E+00 -0.94960592103E+03  0.94960592104E+03  0.25500000920E-02 0. -1.
    10030    2    1    2    0    0  0.00000000000E+00  0.00000000000E+00  0.14205757012E+04  0.33197875433E+04  0.30004922946E+04 0.  0.
        4    1    3    3  502    0 -0.12629511578E+03  0.28704868456E+03 -0.91293521828E+03  0.96529774125E+03  0.12699999809E+01 0. -1.
       -4    1    3    3    0  502  0.12629511578E+03 -0.28704868456E+03  0.23335109195E+04  0.23544898020E+04  0.12699999809E+01 0.  1.
</event>
<event>
 5   0  0.1734885E-06  0.3174791E+04  0.7818609E-02  0.8195507E-01
        1   -1    0    0  501    0  0.00000000000E+00  0.00000000000E+00  0.11395812747E+04  0.11395812747E+04  0.50400001928E-02 0. -1.
       -1   -1    0    0    0  501  0.00000000000E+00  0.00000000000E+00 -0.22111846949E+04  0.22111846949E+04  0.50400001928E-02 0.  1.
    10030    2    1    2    0    0  0.00000000000E+00  0.00000000000E+00 -0.10716034201E+04  0.33507659696E+04  0.31747911259E+04 0.  0.
        2    1    3    3  502    0  0.68816928977E+03  0.97647374164E+03  0.56748578782E+03  0.13225422711E+04  0.25500000920E-02 0. -1.
       -2    1    3    3    0  502 -0.68816928977E+03 -0.97647374164E+03 -0.16390892080E+04  0.20282236985E+04  0.25500000920E-02 0.  1.
</event>
<event>
 5   0  0.1709858E-06  0.3055154E+04  0.7818609E-02  0.8228154E-01
        1   -1    0    0  501    0  0.00000000000E+00  0.00000000000E+00  0.15973114489E+04  0.15973114489E+04  0.50400001928E-02 0.  1.
       -1   -1    0    0    0  501  0.00000000000E+00  0.00000000000E+00 -0.14608868805E+04  0.14608868805E+04  0.50400001928E-02 0. -1.
    10030    2    1    2    0    0  0.00000000000E+00  0.00000000000E+00  0.13642456841E+03  0.30581983294E+04  0.30551539011E+04 0.  0.
        3    1    3    3  502    0 -0.27198851346E+03  0.78215964532E+03 -0.12167100536E+04  0.14717794763E+04  0.10100000352E+00 0. -1.
       -3    1    3    3    0  502  0.27198851346E+03 -0.78215964532E+03  0.13531346220E+04  0.15864188531E+04  0.10100000352E+00 0.  1.
</event>
<event>
 5   0  0.1672907E-06  0.3017310E+04  0.7818609E-02  0.8238805E-01
        1   -1    0    0  501    0  0.00000000000E+00  0.00000000000E+00  0.15914729820E+04  0.15914729820E+04  0.50400001928E-02 0.  1.
       -1   -1    0    0    0  501  0.00000000000E+00  0.00000000000E+00 -0.14301465138E+04  0.14301465138E+04  0.50400001928E-02 0. -1.
    10030    2    1    2    0    0  0.00000000000E+00  0.00000000000E+00  0.16132646818E+03  0.30216194958E+04  0.30173097534E+04 0.  0.
        5    1    3    3  502    0 -0.50724433958E+03  0.40157661907E+03 -0.12841689142E+04  0.14379403643E+04  0.46999998093E+01 0. -1.
       -5    1    3    3    0  502  0.50724433958E+03 -0.40157661907E+03  0.14454953824E+04  0.15836791315E+04  0.46999998093E+01 0.  1.
</event>
<event>
 5   0  0.4532420E-06  0.2978748E+04  0.7818609E-02  0.8249826E-01
        2   -1    0    0  501    0  0.00000000000E+00  0.00000000000E+00  0.15906593320E+04  0.15906593320E+04  0.25500000920E-02 0.  1.
       -2   -1    0    0    0  501  0.00000000000E+00  0.00000000000E+00 -0.13945382304E+04  0.13945382304E+04  0.25500000920E-02 0. -1.
    10030    2    1    2    0    0  0.00000000000E+00  0.00000000000E+00  0.19612110160E+03  0.29851975624E+04  0.29787482270E+04 0.  0.
        4    1    3    3  502    0 -0.29074956702E+03  0.22603079132E+03 -0.13481885107E+04  0.13975833079E+04  0.12699999809E+01 0. -1.
       -4    1    3    3    0  502  0.29074956702E+03 -0.22603079132E+03  0.15443096123E+04  0.15876142544E+04  0.12699999809E+01 0.  1.
</event>
<event>
 5   0  0.4935331E-06  0.2942074E+04  0.7818609E-02  0.8260468E-01
        2   -1    0    0  501    0  0.00000000000E+00  0.00000000000E+00  0.18321042047E+04  0.18321042047E+04  0.25500000920E-02 0. -1.
       -2   -1    0    0    0  501  0.00000000000E+00  0.00000000000E+00 -0.11811284796E+04  0.11811284796E+04  0.25500000920E-02 0.  1.
    10030    2    1    2    0    0  0.00000000000E+00  0.00000000000E+00  0.65097572510E+03  0.30132326843E+04  0.29420744068E+04 0.  0.
        5    1    3    3  502    0  0.39329698536E+03 -0.12936585540E+04  0.91889178517E+03  0.16348147222E+04  0.46999998093E+01 0.  1.
       -5    1    3    3    0  502 -0.39329698536E+03  0.12936585540E+04 -0.26791606007E+03  0.13784179621E+04  0.46999998093E+01 0. -1.
</event>
<event>
 5   0  0.4768570E-06  0.3035442E+04  0.7818609E-02  0.8233682E-01
        2   -1    0    0  501    0  0.00000000000E+00  0.00000000000E+00  0.18634701077E+04  0.18634701077E+04  0.25500000920E-02 0.  1.
       -2   -1    0    0    0  501  0.00000000000E+00  0.00000000000E+00 -0.12361226157E+04  0.12361226157E+04  0.25500000920E-02 0. -1.
    10030    2    1    2    0    0  0.00000000000E+00  0.00000000000E+00  0.62734749202E+03  0.30995927235E+04  0.30354423361E+04 0.  0.
        1    1    3    3  502    0  0.87357681938E+03 -0.10198349792E+04 -0.40857736365E+03  0.14036150848E+04  0.50400001928E-02 0. -1.
       -1    1    3    3    0  502 -0.87357681938E+03  0.10198349792E+04  0.10359248557E+04  0.16959776387E+04  0.50400001928E-02 0.  1.
</event>
<event>
 5   0  0.4768570E-06  0.3063116E+04  0.7818609E-02  0.8225934E-01
        2   -1    0    0  501    0  0.00000000000E+00  0.00000000000E+00  0.18817830926E+04  0.18817830926E+04  0.25500000920E-02 0.  1.
       -2   -1    0    0    0  501  0.00000000000E+00  0.00000000000E+00 -0.12465147319E+04  0.12465147320E+04  0.25500000920E-02 0. -1.
    10030    2    1    2    0    0  0.00000000000E+00  0.00000000000E+00  0.63526836063E+03  0.31282978245E+04  0.30631162872E+04 0.  0.
        1    1    3    3  502    0 -0.33119032984E+03  0.10064558021E+04  0.14470741911E+04  0.17935060721E+04  0.50400001928E-02 0.  1.
       -1    1    3    3    0  502  0.33119032984E+03 -0.10064558021E+04 -0.81180583044E+03  0.13347917525E+04  0.50400001928E-02 0. -1.
</event>
<event>
 5   0  0.1545375E-06  0.2675063E+04  0.7818609E-02  0.8343142E-01
        3   -1    0    0  501    0  0.00000000000E+00  0.00000000000E+00  0.11312250180E+04  0.11312250225E+04  0.10100000352E+00 0. -1.
       -3   -1    0    0    0  501  0.00000000000E+00  0.00000000000E+00 -0.15814631005E+04  0.15814631038E+04  0.10100000352E+00 0.  1.
    10030    2    1    2    0    0  0.00000000000E+00  0.00000000000E+00 -0.45023808256E+03  0.27126881263E+04  0.26750630907E+04 0.  0.
        4    1    3    3  502    0 -0.51513002955E+03 -0.43036940166E+03  0.94805052743E+03  0.11616273863E+04  0.12699999809E+01 0. -1.
       -4    1    3    3    0  502  0.51513002955E+03  0.43036940166E+03 -0.13982886100E+04  0.15510607399E+04  0.12699999809E+01 0.  1.
</event>
<event>
 5   0  0.1545375E-06  0.3022219E+04  0.7818609E-02  0.8237414E-01
        3   -1    0    0  501    0  0.00000000000E+00  0.00000000000E+00  0.78179789491E+03  0.78179790144E+03  0.10100000352E+00 0. -1.
       -3   -1    0    0    0  501  0.00000000000E+00  0.00000000000E+00 -0.29207702441E+04  0.29207702459E+04  0.10100000352E+00 0.  1.
    10030    2    1    2    0    0  0.00000000000E+00  0.00000000000E+00 -0.21389723492E+04  0.37025681473E+04  0.30222190812E+04 0.  0.
        1    1    3    3  502    0 -0.51491110973E+03 -0.74563137262E+03  0.41201890807E+03  0.99541909535E+03  0.50400001928E-02 0. -1.
       -1    1    3    3    0  502  0.51491110973E+03  0.74563137262E+03 -0.25509912573E+04  0.27071490519E+04  0.50400001928E-02 0.  1.
</event>
<event>
 5   0  0.4532420E-06  0.3037894E+04  0.7818609E-02  0.8232992E-01
        2   -1    0    0  501    0  0.00000000000E+00  0.00000000000E+00  0.17029556265E+04  0.17029556265E+04  0.25500000920E-02 0.  1.
       -2   -1    0    0    0  501  0.00000000000E+00  0.00000000000E+00 -0.13548206385E+04  0.13548206385E+04  0.25500000920E-02 0. -1.
    10030    2    1    2    0    0  0.00000000000E+00  0.00000000000E+00  0.34813498801E+03  0.30577762650E+04  0.30378936316E+04 0.  0.
        4    1    3    3  502    0  0.79948835113E+03 -0.11866382656E+04 -0.33907873712E+03  0.14704652325E+04  0.12699999809E+01 0. -1.
       -4    1    3    3    0  502 -0.79948835113E+03  0.11866382656E+04  0.68721372513E+03  0.15873110325E+04  0.12699999809E+01 0.  1.
</event>
<event>
 5   0  0.1686012E-06  0.2993728E+04  0.7818609E-02  0.8245524E-01
       -1   -1    0    0    0  501  0.00000000000E+00  0.00000000000E+00  0.13020457049E+04  0.13020457049E+04  0.50400001928E-02 0.  1.
        1   -1    0    0  501    0  0.00000000000E+00  0.00000000000E+00 -0.17208315112E+04  0.17208315112E+04  0.50400001928E-02 0. -1.
    10030    2    1    2    0    0  0.00000000000E+00  0.00000000000E+00 -0.41878580634E+03  0.30228772161E+04  0.29937276283E+04 0.  0.
        4    1    3    3  502    0 -0.47467044616E+03  0.13878838173E+04  0.91952480985E+02  0.14696905777E+04  0.12699999809E+01 0.  1.
       -4    1    3    3    0  502  0.47467044616E+03 -0.13878838173E+04 -0.51073828732E+03  0.15531866384E+04  0.12699999809E+01 0. -1.
</event>
<event>
 5   0  0.4532420E-06  0.2955564E+04  0.7818609E-02  0.8256535E-01
        2   -1    0    0  501    0  0.00000000000E+00  0.00000000000E+00  0.14185441532E+04  0.14185441532E+04  0.25500000920E-02 0. -1.
       -2   -1    0    0    0  501  0.00000000000E+00  0.00000000000E+00 -0.15394938910E+04  0.15394938910E+04  0.25500000920E-02 0.  1.
    10030    2    1    2    0    0  0.00000000000E+00  0.00000000000E+00 -0.12094973782E+03  0.29580380442E+04  0.29555642832E+04 0.  0.
        4    1    3    3  502    0 -0.70245525725E+03 -0.36359835510E+02 -0.13612060701E+04  0.15322039695E+04  0.12699999809E+01 0.  1.
       -4    1    3    3    0  502  0.70245525725E+03  0.36359835510E+02  0.12402563322E+04  0.14258340747E+04  0.12699999809E+01 0. -1.
</event>
<event>
 5   0  0.1709858E-06  0.2971452E+04  0.7818609E-02  0.8251930E-01
        1   -1    0    0  501    0  0.00000000000E+00  0.00000000000E+00  0.14698733338E+04  0.14698733338E+04  0.50400001928E-02 0.  1.
       -1   -1    0    0    0  501  0.00000000000E+00  0.00000000000E+00 -0.15017491608E+04  0.15017491608E+04  0.50400001928E-02 0. -1.
    10030    2    1    2    0    0  0.00000000000E+00  0.00000000000E+00 -0.31875827033E+02  0.29716224947E+04  0.29714515279E+04 0.  0.
        3    1    3    3  502    0  0.52212431721E+03 -0.79426670702E+03 -0.11578913625E+04  0.14980606871E+04  0.10100000352E+00 0. -1.
       -3    1    3    3    0  502 -0.52212431721E+03  0.79426670702E+03  0.11260155355E+04  0.14735618076E+04  0.10100000352E+00 0.  1.
</event>
<event>
 5   0  0.1686012E-06  0.3020826E+04  0.7818609E-02  0.8237809E-01
        1   -1    0    0  501    0  0.00000000000E+00  0.00000000000E+00  0.18452399124E+04  0.18452399124E+04  0.50400001928E-02 0.  1.
       -1   -1    0    0    0  501  0.00000000000E+00  0.00000000000E+00 -0.12363415285E+04  0.12363415285E+04  0.50400001928E-02 0. -1.
    10030    2    1    2    0    0  0.00000000000E+00  0.00000000000E+00  0.60889838393E+03  0.30815814410E+04  0.30208255387E+04 0.  0.
        4    1    3    3  502    0 -0.20671674442E+03 -0.62664930716E+03  0.16904226341E+04  0.18146491290E+04  0.12699999809E+01 0.  1.
       -4    1    3    3    0  502  0.20671674442E+03  0.62664930716E+03 -0.10815242501E+04  0.12669323120E+04  0.12699999809E+01 0. -1.
</event>
<event>
 5   0  0.1734885E-06  0.2872427E+04  0.7818609E-02  0.8281129E-01
        1   -1    0    0  501    0  0.00000000000E+00  0.00000000000E+00  0.12891735213E+04  0.12891735213E+04  0.50400001928E-02 0. -1.
       -1   -1    0    0    0  501  0.00000000000E+00  0.00000000000E+00 -0.16000240152E+04  0.16000240152E+04  0.50400001928E-02 0.  1.
    10030    2    1    2    0    0  0.00000000000E+00  0.00000000000E+00 -0.31085049393E+03  0.28891975364E+04  0.28724265656E+04 0.  0.
        2    1    3    3  502    0 -0.41582268844E+03  0.47292530601E+03  0.11429023053E+04  0.13049109290E+04  0.25500000920E-02 0. -1.
       -2    1    3    3    0  502  0.41582268844E+03 -0.47292530601E+03 -0.14537527992E+04  0.15842866074E+04  0.25500000920E-02 0.  1.
</event>
<event>
 5   0  0.4768570E-06  0.3015639E+04  0.7818609E-02  0.8239279E-01
        2   -1    0    0  501    0  0.00000000000E+00  0.00000000000E+00  0.22119540881E+04  0.22119540881E+04  0.25500000920E-02 0. -1.
       -2   -1    0    0    0  501  0.00000000000E+00  0.00000000000E+00 -0.10278330447E+04  0.10278330447E+04  0.25500000920E-02 0.  1.
    10030    2    1    2    0    0  0.00000000000E+00  0.00000000000E+00  0.11841210435E+04  0.32397871328E+04  0.30156389074E+04 0.  0.
        1    1    3    3  502    0  0.10883929302E+04 -0.78310456323E+03 -0.14888949707E+03  0.13490811724E+04  0.50400001928E-02 0.  1.
       -1    1    3    3    0  502 -0.10883929302E+04  0.78310456323E+03  0.13330105405E+04  0.18907059604E+04  0.50400001928E-02 0. -1.
</event>
<event>
 5   0  0.1709858E-06  0.2994301E+04  0.7818609E-02  0.8245360E-01
       -1   -1    0    0    0  501  0.00000000000E+00  0.00000000000E+00  0.11628066842E+04  0.11628066843E+04  0.50400001928E-02 0. -1.
        1   -1    0    0  501    0  0.00000000000E+00  0.00000000000E+00 -0.19276287559E+04  0.19276287559E+04  0.50400001928E-02 0.  1.
    10030    2    1    2    0    0  0.00000000000E+00  0.00000000000E+00 -0.76482207166E+03  0.30904354402E+04  0.29943009883E+04 0.  0.
        3    1    3    3  502    0  0.53413673134E+03 -0.79432936956E+03  0.80572090911E+03  0.12511784000E+04  0.10100000352E+00 0. -1.
       -3    1    3    3    0  502 -0.53413673134E+03  0.79432936956E+03 -0.15705429808E+04  0.18392570401E+04  0.10100000352E+00 0.  1.
</event>
<event>
 5   0  0.4768570E-06  0.3041218E+04  0.7818609E-02  0.8232058E-01
       -2   -1    0    0    0  501  0.00000000000E+00  0.00000000000E+00  0.87783984870E+03  0.87783984871E+03  0.25500000920E-02 0. -1.
        2   -1    0    0  501    0  0.00000000000E+00  0.00000000000E+00 -0.26340251653E+04  0.26340251653E+04  0.25500000920E-02 0.  1.
    10030    2    1    2    0    0  0.00000000000E+00  0.00000000000E+00 -0.17561853166E+04  0.35118650140E+04  0.30412183431E+04 0.  0.
        1    1    3    3  502    0 -0.90851803465E+02 -0.36516324939E+03 -0.25794107295E+04  0.26067140159E+04  0.50400001928E-02 0.  1.
       -1    1    3    3    0  502  0.90851803465E+02  0.36516324939E+03  0.82322541293E+03  0.90515099813E+03  0.50400001928E-02 0. -1.
</event>
<event>
 5   0  0.4702748E-06  0.3010025E+04  0.7818609E-02  0.8240874E-01
       -2   -1    0    0    0  501  0.00000000000E+00  0.00000000000E+00  0.11737695525E+04  0.11737695525E+04  0.25500000920E-02 0. -1.
        2   -1    0    0  501    0  0.00000000000E+00  0.00000000000E+00 -0.19297336875E+04  0.19297336875E+04  0.25500000920E-02 0.  1.
    10030    2    1    2    0    0  0.00000000000E+00  0.00000000000E+00 -0.75596413500E+03  0.31035032400E+04  0.30100250144E+04 0.  0.
        2    1    3    3  502    0  0.73020528299E+03  0.23961772023E+03 -0.17121721333E+04  0.18767391457E+04  0.25500000920E-02 0.  1.
       -2    1    3    3    0  502 -0.73020528299E+03 -0.23961772023E+03  0.95620799827E+03  0.12267640943E+04  0.25500000920E-02 0. -1.
</event>
<event>
 5   0  0.4532420E-06  0.2944962E+04  0.7818609E-02  0.8259624E-01
        2   -1    0    0  501    0  0.00000000000E+00  0.00000000000E+00  0.15379009707E+04  0.15379009707E+04  0.25500000920E-02 0. -1.
       -2   -1    0    0    0  501  0.00000000000E+00  0.00000000000E+00 -0.14098440470E+04  0.14098440470E+04  0.25500000920E-02 0.  1.
    10030    2    1    2    0    0  0.00000000000E+00  0.00000000000E+00  0.12805692370E+03  0.29477450178E+04  0.29449621584E+04 0.  0.
        4    1    3    3  502    0  0.74991557818E+03 -0.23013416062E+03 -0.11832886477E+04  0.14196861424E+04  0.12699999809E+01 0.  1.
       -4    1    3    3    0  502 -0.74991557818E+03  0.23013416062E+03  0.13113455714E+04  0.15280588754E+04  0.12699999809E+01 0. -1.
</event>
<event>
 5   0  0.1686012E-06  0.2976885E+04  0.7818609E-02  0.8250363E-01
        1   -1    0    0  501    0  0.00000000000E+00  0.00000000000E+00  0.11624601233E+04  0.11624601233E+04  0.50400001928E-02 0.  1.
       -1   -1    0    0    0  501  0.00000000000E+00  0.00000000000E+00 -0.19058378227E+04  0.19058378227E+04  0.50400001928E-02 0. -1.
    10030    2    1    2    0    0  0.00000000000E+00  0.00000000000E+00 -0.74337769941E+03  0.30682979460E+04  0.29768845932E+04 0.  0.
        4    1    3    3  502    0  0.12193808926E+04  0.71022522414E+03  0.11629354492E+03  0.14159221136E+04  0.12699999809E+01 0.  1.
       -4    1    3    3    0  502 -0.12193808926E+04 -0.71022522414E+03 -0.85967124433E+03  0.16523758324E+04  0.12699999809E+01 0. -1.
</event>
<event>
 5   0  0.1700885E-06  0.3141438E+04  0.7818609E-02  0.8204457E-01
        1   -1    0    0  501    0  0.00000000000E+00  0.00000000000E+00  0.19003050168E+04  0.19003050168E+04  0.50400001928E-02 0.  1.
       -1   -1    0    0    0  501  0.00000000000E+00  0.00000000000E+00 -0.12982958296E+04  0.12982958296E+04  0.50400001928E-02 0. -1.
    10030    2    1    2    0    0  0.00000000000E+00  0.00000000000E+00  0.60200918723E+03  0.31986008464E+04  0.31414379372E+04 0.  0.
        1    1    3    3  502    0 -0.45673073360E+03 -0.94765113106E+03  0.14886391446E+04  0.18228253158E+04  0.50400001928E-02 0.  1.
       -1    1    3    3    0  502  0.45673073360E+03  0.94765113106E+03 -0.88662995735E+03  0.13757755306E+04  0.50400001928E-02 0. -1.
</event>
<event>
 5   0  0.4532420E-06  0.2971677E+04  0.7818609E-02  0.8251865E-01
       -2   -1    0    0    0  501  0.00000000000E+00  0.00000000000E+00  0.12862973464E+04  0.12862973464E+04  0.25500000920E-02 0. -1.
        2   -1    0    0  501    0  0.00000000000E+00  0.00000000000E+00 -0.17163343442E+04  0.17163343442E+04  0.25500000920E-02 0.  1.
    10030    2    1    2    0    0  0.00000000000E+00  0.00000000000E+00 -0.43003699780E+03  0.30026316906E+04  0.29716771779E+04 0.  0.
        4    1    3    3  502    0  0.13051690681E+04 -0.41261481246E+03  0.36892656394E+03  0.14176832164E+04  0.12699999809E+01 0. -1.
       -4    1    3    3    0  502 -0.13051690681E+04  0.41261481246E+03 -0.79896356175E+03  0.15849484741E+04  0.12699999809E+01 0.  1.
</event>
<event>
 5   0  0.4935331E-06  0.3023017E+04  0.7818609E-02  0.8237189E-01
       -2   -1    0    0    0  501  0.00000000000E+00  0.00000000000E+00  0.22159988161E+04  0.22159988161E+04  0.25500000920E-02 0.  1.
        2   -1    0    0  501    0  0.00000000000E+00  0.00000000000E+00 -0.10309833780E+04  0.10309833780E+04  0.25500000920E-02 0. -1.
    10030    2    1    2    0    0  0.00000000000E+00  0.00000000000E+00  0.11850154381E+04  0.32469821940E+04  0.30230169996E+04 0.  0.
        5    1    3    3  502    0 -0.40273659143E+03 -0.17431499787E+03 -0.96104393565E+03  0.10565084083E+04  0.46999998093E+01 0. -1.
       -5    1    3    3    0  502  0.40273659143E+03  0.17431499787E+03  0.21460593737E+04  0.21904737857E+04  0.46999998093E+01 0.  1.
</event>
<event>
 5   0  0.1734885E-06  0.3006362E+04  0.7818609E-02  0.8241916E-01
        1   -1    0    0  501    0  0.00000000000E+00  0.00000000000E+00  0.15781694874E+04  0.15781694875E+04  0.50400001928E-02 0. -1.
       -1   -1    0    0    0  501  0.00000000000E+00  0.00000000000E+00 -0.14317557711E+04  0.14317557711E+04  0.50400001928E-02 0.  1.
    10030    2    1    2    0    0  0.00000000000E+00  0.00000000000E+00  0.14641371633E+03  0.30099252586E+04  0.30063621016E+04 0.  0.
        2    1    3    3  502    0 -0.10495509488E+04  0.90322190729E+03 -0.51245333875E+03  0.14764739864E+04  0.25500000920E-02 0.  1.
       -2    1    3    3    0  502  0.10495509488E+04 -0.90322190729E+03  0.65886705508E+03  0.15334512722E+04  0.25500000920E-02 0. -1.
</event>
<event>
 5   0  0.1709858E-06  0.3000567E+04  0.7818609E-02  0.8243569E-01
       -1   -1    0    0    0  501  0.00000000000E+00  0.00000000000E+00  0.14297187860E+04  0.14297187860E+04  0.50400001928E-02 0.  1.
        1   -1    0    0  501    0  0.00000000000E+00  0.00000000000E+00 -0.15743314154E+04  0.15743314154E+04  0.50400001928E-02 0. -1.
    10030    2    1    2    0    0  0.00000000000E+00  0.00000000000E+00 -0.14461262934E+03  0.30040502014E+04  0.30005674130E+04 0.  0.
        3    1    3    3  502    0 -0.18248445947E+03  0.75331980093E+03  0.12137312408E+04  0.14401162577E+04  0.10100000352E+00 0.  1.
       -3    1    3    3    0  502  0.18248445947E+03 -0.75331980093E+03 -0.13583438702E+04  0.15639339437E+04  0.10100000352E+00 0. -1.
</event>
<event>
 5   0  0.4702748E-06  0.2952524E+04  0.7818609E-02  0.8257419E-01
       -2   -1    0    0    0  501  0.00000000000E+00  0.00000000000E+00  0.11787454903E+04  0.11787454903E+04  0.25500000920E-02 0. -1.
        2   -1    0    0  501    0  0.00000000000E+00  0.00000000000E+00 -0.18488721021E+04  0.18488721021E+04  0.25500000920E-02 0.  1.
    10030    2    1    2    0    0  0.00000000000E+00  0.00000000000E+00 -0.67012661183E+03  0.30276175924E+04  0.29525241082E+04 0.  0.
        2    1    3    3  502    0  0.66556528905E+02 -0.14050841059E+04 -0.79440554974E+03  0.16154786578E+04  0.25500000920E-02 0.  1.
       -2    1    3    3    0  502 -0.66556528905E+02  0.14050841059E+04  0.12427893790E+03  0.14121389346E+04  0.25500000920E-02 0. -1.
</event>
<event>
 5   0  0.4532420E-06  0.2995881E+04  0.7818609E-02  0.8244908E-01
        2   -1    0    0  501    0  0.00000000000E+00  0.00000000000E+00  0.18275698958E+04  0.18275698958E+04  0.25500000920E-02 0. -1.
       -2   -1    0    0    0  501  0.00000000000E+00  0.00000000000E+00 -0.12277649555E+04  0.12277649555E+04  0.25500000920E-02 0.  1.
    10030    2    1    2    0    0  0.00000000000E+00  0.00000000000E+00  0.59980494031E+03  0.30553348512E+04  0.29958813539E+04 0.  0.
        4    1    3    3  502    0  0.79222515362E+03  0.10907540892E+03 -0.99184576901E+03  0.12740791896E+04  0.12699999809E+01 0.  1.
       -4    1    3    3    0  502 -0.79222515362E+03 -0.10907540892E+03  0.15916507093E+04  0.17812556617E+04  0.12699999809E+01 0. -1.
</event>
<event>
 5   0  0.1700885E-06  0.2757117E+04  0.7818609E-02  0.8316707E-01
        1   -1    0    0  501    0  0.00000000000E+00  0.00000000000E+00  0.12100354153E+04  0.12100354154E+04  0.50400001928E-02 0. -1.
       -1   -1    0    0    0  501  0.00000000000E+00  0.00000000000E+00 -0.15705520379E+04  0.15705520379E+04  0.50400001928E-02 0.  1.
    10030    2    1    2    0    0  0.00000000000E+00  0.00000000000E+00 -0.36051662253E+03  0.27805874532E+04  0.27571170360E+04 0.  0.
        1    1    3    3  502    0  0.10026068424E+04  0.94130700418E+03 -0.83818811345E+02  0.13777898786E+04  0.50400001928E-02 0. -1.
       -1    1    3    3    0  502 -0.10026068424E+04 -0.94130700418E+03 -0.27669781118E+03  0.14027975746E+04  0.50400001928E-02 0.  1.
</event>
<event>
 5   0  0.1700885E-06  0.3008703E+04  0.7818609E-02  0.8241250E-01
        1   -1    0    0  501    0  0.00000000000E+00  0.00000000000E+00  0.22896643082E+04  0.22896643082E+04  0.50400001928E-02 0. -1.
       -1   -1    0    0    0  501  0.00000000000E+00  0.00000000000E+00 -0.98838688198E+03  0.98838688200E+03  0.50400001928E-02 0.  1.
    10030    2    1    2    0    0  0.00000000000E+00  0.00000000000E+00  0.13012774262E+04  0.32780511902E+04  0.30087034858E+04 0.  0.
        1    1    3    3  502    0  0.76399166004E+03  0.78354271599E+03  0.17752520509E+04  0.20854597307E+04  0.50400001928E-02 0. -1.
       -1    1    3    3    0  502 -0.76399166004E+03 -0.78354271599E+03 -0.47397462464E+03  0.11925914595E+04  0.50400001928E-02 0.  1.
</event>
<event>
 5   0  0.5003556E-06  0.2955516E+04  0.7818609E-02  0.8256549E-01
        2   -1    0    0  501    0  0.00000000000E+00  0.00000000000E+00  0.93428269356E+03  0.93428269356E+03  0.25500000920E-02 0. -1.
       -2   -1    0    0    0  501  0.00000000000E+00  0.00000000000E+00 -0.23373744810E+04  0.23373744810E+04  0.25500000920E-02 0.  1.
    10030    2    1    2    0    0  0.00000000000E+00  0.00000000000E+00 -0.14030917875E+04  0.32716571746E+04  0.29555158778E+04 0.  0.
        3    1    3    3  502    0  0.12070031755E+04 -0.82786567230E+03 -0.92718868476E+03  0.17325983679E+04  0.10100000352E+00 0.  1.
       -3    1    3    3    0  502 -0.12070031755E+04  0.82786567230E+03 -0.47590310271E+03  0.15390588067E+04  0.10100000352E+00 0. -1.
</event>
<event>
 5   0  0.1686012E-06  0.3014599E+04  0.7818609E-02  0.8239574E-01
        1   -1    0    0  501    0  0.00000000000E+00  0.00000000000E+00  0.19611128838E+04  0.19611128838E+04  0.50400001928E-02 0.  1.
       -1   -1    0    0    0  501  0.00000000000E+00  0.00000000000E+00 -0.11585014916E+04  0.11585014916E+04  0.50400001928E-02 0. -1.
    10030    2    1    2    0    0  0.00000000000E+00  0.00000000000E+00  0.80261139224E+03  0.31196143754E+04  0.30145992776E+04 0.  0.
        4    1    3    3  502    0 -0.29453698689E+03  0.78613302347E+03 -0.89417999987E+03  0.12265058713E+04  0.12699999809E+01 0. -1.
       -4    1    3    3    0  502  0.29453698689E+03 -0.78613302347E+03  0.16967913921E+04  0.18931085042E+04  0.12699999809E+01 0.  1.
</event>
<event>
 5   0  0.1709858E-06  0.3016584E+04  0.7818609E-02  0.8239011E-01
        1   -1    0    0  501    0  0.00000000000E+00  0.00000000000E+00  0.15462273627E+04  0.15462273627E+04  0.50400001928E-02 0.  1.
       -1   -1    0    0    0  501  0.00000000000E+00  0.00000000000E+00 -0.14712875241E+04  0.14712875241E+04  0.50400001928E-02 0. -1.
    10030    2    1    2    0    0  0.00000000000E+00  0.00000000000E+00  0.74939838539E+02  0.30175148868E+04  0.30165841796E+04 0.  0.
        3    1    3    3  502    0  0.85274316145E+03 -0.43681392201E+03 -0.11277790568E+04  0.14798185406E+04  0.10100000352E+00 0. -1.
       -3    1    3    3    0  502 -0.85274316145E+03  0.43681392201E+03  0.12027188953E+04  0.15376963463E+04  0.10100000352E+00 0.  1.
</event>
<event>
 5   0  0.1700885E-06  0.2998099E+04  0.7818609E-02  0.8244274E-01
        1   -1    0    0  501    0  0.00000000000E+00  0.00000000000E+00  0.13249481913E+04  0.13249481913E+04  0.50400001928E-02 0. -1.
       -1   -1    0    0    0  501  0.00000000000E+00  0.00000000000E+00 -0.16960281225E+04  0.16960281225E+04  0.50400001928E-02 0.  1.
    10030    2    1    2    0    0  0.00000000000E+00  0.00000000000E+00 -0.37107993119E+03  0.30209763138E+04  0.29980989932E+04 0.  0.
        1    1    3    3  502    0 -0.24742812213E+03 -0.24068100508E+03  0.12843583876E+04  0.13299340171E+04  0.50400001928E-02 0. -1.
       -1    1    3    3    0  502  0.24742812213E+03  0.24068100508E+03 -0.16554383188E+04  0.16910422967E+04  0.50400001928E-02 0.  1.
</event>
<event>
 5   0  0.1709858E-06  0.2999855E+04  0.7818609E-02  0.8243772E-01
       -1   -1    0    0    0  501  0.00000000000E+00  0.00000000000E+00  0.95674138079E+03  0.95674138080E+03  0.50400001928E-02 0.  1.
        1   -1    0    0  501    0  0.00000000000E+00  0.00000000000E+00 -0.23515051904E+04  0.23515051904E+04  0.50400001928E-02 0. -1.
    10030    2    1    2    0    0  0.00000000000E+00  0.00000000000E+00 -0.13947638096E+04  0.33082465712E+04  0.29998548784E+04 0.  0.
        3    1    3    3  502    0  0.14046321302E+04 -0.40725709719E+03 -0.33007666849E+03  0.14992666147E+04  0.10100000352E+00 0.  1.
       -3    1    3    3    0  502 -0.14046321302E+04  0.40725709719E+03 -0.10646871411E+04  0.18089799565E+04  0.10100000352E+00 0. -1.
</event>
<event>
 5   0  0.1545375E-06  0.2971163E+04  0.7818609E-02  0.8252014E-01
       -4   -1    0    0    0  501  0.00000000000E+00  0.00000000000E+00  0.16465508646E+04  0.16465513544E+04  0.12699999809E+01 0.  1.
        4   -1    0    0  501    0  0.00000000000E+00  0.00000000000E+00 -0.13403480313E+04  0.13403486330E+04  0.12699999809E+01 0. -1.
    10030    2    1    2    0    0  0.00000000000E+00  0.00000000000E+00  0.30620283333E+03  0.29868999874E+04  0.29711633007E+04 0.  0.
        3    1    3    3  502    0  0.10928859821E+04  0.11797419218E+03 -0.85150878273E+03  0.13904621164E+04  0.10100000352E+00 0. -1.
       -3    1    3    3    0  502 -0.10928859821E+04 -0.11797419218E+03  0.11577116161E+04  0.15964378710E+04  0.10100000352E+00 0.  1.
</event>
<event>
 5   0  0.1686012E-06  0.2912446E+04  0.7818609E-02  0.8269184E-01
       -1   -1    0    0    0  501  0.00000000000E+00  0.00000000000E+00  0.10492011809E+04  0.10492011810E+04  0.50400001928E-02 0.  1.
        1   -1    0    0  501    0  0.00000000000E+00  0.00000000000E+00 -0.20211431578E+04  0.20211431579E+04  0.50400001928E-02 0. -1.
    10030    2    1    2    0    0  0.00000000000E+00  0.00000000000E+00 -0.97194197690E+03  0.30703443388E+04  0.29124462488E+04 0.  0.
        4    1    3    3  502    0  0.52318586483E+03  0.12963549492E+04 -0.56031463402E+02  0.13990713853E+04  0.12699999809E+01 0.  1.
       -4    1    3    3    0  502 -0.52318586483E+03 -0.12963549492E+04 -0.91591051350E+03  0.16712729535E+04  0.12699999809E+01 0. -1.
</event>
<event>
 5   0  0.1700885E-06  0.3042507E+04  0.7818609E-02  0.8231696E-01
       -1   -1    0    0    0  501  0.00000000000E+00  0.00000000000E+00  0.20310313974E+04  0.20310313974E+04  0.50400001928E-02 0.  1.
        1   -1    0    0  501    0  0.00000000000E+00  0.00000000000E+00 -0.11394273607E+04  0.11394273607E+04  0.50400001928E-02 0. -1.
    10030    2    1    2    0    0  0.00000000000E+00  0.00000000000E+00  0.89160403676E+03  0.31704587581E+04  0.30425073506E+04 0.  0.
        1    1    3    3  502    0  0.29372361529E+03 -0.11526887077E+04  0.14339686722E+04  0.18631239819E+04  0.50400001928E-02 0.  1.
       -1    1    3    3    0  502 -0.29372361529E+03  0.11526887077E+04 -0.54236463547E+03  0.13073347762E+04  0.50400001928E-02 0. -1.
</event>
<event>
 5   0  0.1709858E-06  0.2912509E+04  0.7818609E-02  0.8269165E-01
        1   -1    0    0  501    0  0.00000000000E+00  0.00000000000E+00  0.22785279021E+04  0.22785279021E+04  0.50400001928E-02 0. -1.
       -1   -1    0    0    0  501  0.00000000000E+00  0.00000000000E+00 -0.93072245907E+03  0.93072245908E+03  0.50400001928E-02 0.  1.
    10030    2    1    2    0    0  0.00000000000E+00  0.00000000000E+00  0.13478054430E+04  0.32092503612E+04  0.29125089474E+04 0.  0.
        3    1    3    3  502    0  0.13144438581E+04  0.28327588522E+03  0.12900419790E+04  0.18633883656E+04  0.10100000352E+00 0.  1.
       -3    1    3    3    0  502 -0.13144438581E+04 -0.28327588522E+03  0.57763463973E+02  0.13458619956E+04  0.10100000352E+00 0. -1.
</event>
<event>
 5   0  0.4935331E-06  0.2431643E+04  0.7818609E-02  0.8427751E-01
        2   -1    0    0  501    0  0.00000000000E+00  0.00000000000E+00  0.11289642157E+04  0.11289642157E+04  0.25500000920E-02 0.  1.
       -2   -1    0    0    0  501  0.00000000000E+00  0.00000000000E+00 -0.13093606893E+04  0.13093606893E+04  0.25500000920E-02 0. -1.
    10030    2    1    2    0    0  0.00000000000E+00  0.00000000000E+00 -0.18039647353E+03  0.24383249050E+04  0.24316425425E+04 0.  0.
        5    1    3    3  502    0 -0.11244488858E+04  0.11635862132E+03 -0.53894861768E+03  0.12523626983E+04  0.46999998093E+01 0. -1.
       -5    1    3    3    0  502  0.11244488858E+04 -0.11635862132E+03  0.35855214415E+03  0.11859622067E+04  0.46999998093E+01 0.  1.
</event>
<event>
 5   0  0.4532420E-06  0.3089919E+04  0.7818609E-02  0.8218510E-01
       -2   -1    0    0    0  501  0.00000000000E+00  0.00000000000E+00  0.14806656410E+04  0.14806656410E+04  0.25500000920E-02 0. -1.
        2   -1    0    0  501    0  0.00000000000E+00  0.00000000000E+00 -0.16120451195E+04  0.16120451195E+04  0.25500000920E-02 0.  1.
    10030    2    1    2    0    0  0.00000000000E+00  0.00000000000E+00 -0.13137947856E+03  0.30927107605E+04  0.30899189764E+04 0.  0.
        4    1    3    3  502    0 -0.45028931168E+03 -0.14551604516E+04 -0.32408147333E+03  0.15573319551E+04  0.12699999809E+01 0.  1.
       -4    1    3    3    0  502  0.45028931168E+03  0.14551604516E+04  0.19270199477E+03  0.15353788053E+04  0.12699999809E+01 0. -1.
</event>
<event>
 5   0  0.1672907E-06  0.3049509E+04  0.7818609E-02  0.8229733E-01
        1   -1    0    0  501    0  0.00000000000E+00  0.00000000000E+00  0.16561010726E+04  0.16561010726E+04  0.50400001928E-02 0. -1.
       -1   -1    0    0    0  501  0.00000000000E+00  0.00000000000E+00 -0.14038253724E+04  0.14038253725E+04  0.50400001928E-02 0.  1.
    10030    2    1    2    0    0  0.00000000000E+00  0.00000000000E+00  0.25227570015E+03  0.30599264451E+04  0.30495092753E+04 0.  0.
        5    1    3    3  502    0  0.13161507248E+04  0.38127900036E+03 -0.54489784484E+03  0.14746396705E+04  0.46999998093E+01 0.  1.
       -5    1    3    3    0  502 -0.13161507248E+04 -0.38127900036E+03  0.79717354499E+03  0.15852867745E+04  0.46999998093E+01 0. -1.
</event>
<event>
 5   0  0.4532420E-06  0.3007334E+04  0.7818609E-02  0.8241640E-01
        2   -1    0    0  501    0  0.00000000000E+00  0.00000000000E+00  0.21868228414E+04  0.21868228414E+04  0.25500000920E-02 0. -1.
       -2   -1    0    0    0  501  0.00000000000E+00  0.00000000000E+00 -0.10339263837E+04  0.10339263837E+04  0.25500000920E-02 0.  1.
    10030    2    1    2    0    0  0.00000000000E+00  0.00000000000E+00  0.11528964577E+04  0.32207492251E+04  0.30073335911E+04 0.  0.
        4    1    3    3  502    0  0.19069940849E+02 -0.13543238821E+04  0.12758264497E+04  0.18607234032E+04  0.12699999809E+01 0. -1.
       -4    1    3    3    0  502 -0.19069940849E+02  0.13543238821E+04 -0.12292999197E+03  0.13600258219E+04  0.12699999809E+01 0.  1.
</event>
<event>
 5   0  0.1672907E-06  0.3005304E+04  0.7818609E-02  0.8242218E-01
        1   -1    0    0  501    0  0.00000000000E+00  0.00000000000E+00  0.18410526620E+04  0.18410526620E+04  0.50400001928E-02 0.  1.
       -1   -1    0    0    0  501  0.00000000000E+00  0.00000000000E+00 -0.12264524494E+04  0.12264524494E+04  0.50400001928E-02 0. -1.
    10030    2    1    2    0    0  0.00000000000E+00  0.00000000000E+00  0.61460021261E+03  0.30675051114E+04  0.30053043418E+04 0.  0.
        5    1    3    3  502    0  0.14397814602E+04  0.40449567032E+02  0.74433800233E+03  0.16213167403E+04  0.46999998093E+01 0.  1.
       -5    1    3    3    0  502 -0.14397814602E+04 -0.40449567032E+02 -0.12973778972E+03  0.14461883711E+04  0.46999998093E+01 0. -1.
</event>
<event>
 5   0  0.4702748E-06  0.2966890E+04  0.7818609E-02  0.8253249E-01
       -2   -1    0    0    0  501  0.00000000000E+00  0.00000000000E+00  0.11805224758E+04  0.11805224759E+04  0.25500000920E-02 0. -1.
        2   -1    0    0  501    0  0.00000000000E+00  0.00000000000E+00 -0.18640973573E+04  0.18640973573E+04  0.25500000920E-02 0.  1.
    10030    2    1    2    0    0  0.00000000000E+00  0.00000000000E+00 -0.68357488143E+03  0.30446198331E+04  0.29668898378E+04 0.  0.
        2    1    3    3  502    0  0.96852221205E+03  0.28122706153E+03 -0.14581699155E+04  0.17729589498E+04  0.25500000920E-02 0.  1.
       -2    1    3    3    0  502 -0.96852221205E+03 -0.28122706153E+03  0.77459503404E+03  0.12716608833E+04  0.25500000920E-02 0. -1.
</event>
<event>
 5   0  0.4768570E-06  0.3001865E+04  0.7818609E-02  0.8243198E-01
       -2   -1    0    0    0  501  0.00000000000E+00  0.00000000000E+00  0.10618347717E+04  0.10618347717E+04  0.25500000920E-02 0.  1.
        2   -1    0    0  501    0  0.00000000000E+00  0.00000000000E+00 -0.21216094733E+04  0.21216094733E+04  0.25500000920E-02 0. -1.
    10030    2    1    2    0    0  0.00000000000E+00  0.00000000000E+00 -0.10597747015E+04  0.31834442450E+04  0.30018652273E+04 0.  0.
        1    1    3    3  502    0 -0.13224664245E+04  0.61836723385E+03 -0.89954523305E+03  0.17147819413E+04  0.50400001928E-02 0. -1.
       -1    1    3    3    0  502  0.13224664245E+04 -0.61836723385E+03 -0.16022946850E+03  0.14686623037E+04  0.50400001928E-02 0.  1.
</event>
<event>
 5   0  0.1686012E-06  0.2950905E+04  0.7818609E-02  0.8257891E-01
       -1   -1    0    0    0  501  0.00000000000E+00  0.00000000000E+00  0.10162178931E+04  0.10162178931E+04  0.50400001928E-02 0. -1.
        1   -1    0    0  501    0  0.00000000000E+00  0.00000000000E+00 -0.21422181314E+04  0.21422181314E+04  0.50400001928E-02 0.  1.
    10030    2    1    2    0    0  0.00000000000E+00  0.00000000000E+00 -0.11260002383E+04  0.31584360245E+04  0.29509052144E+04 0.  0.
        4    1    3    3  502    0  0.14533573903E+04  0.13216960517E+03 -0.33036127890E+03  0.14962809549E+04  0.12699999809E+01 0. -1.
       -4    1    3    3    0  502 -0.14533573903E+04 -0.13216960517E+03 -0.79563895940E+03  0.16621550696E+04  0.12699999809E+01 0.  1.
</event>
<event>
 5   0  0.4768570E-06  0.2982282E+04  0.7818609E-02  0.8248809E-01
        2   -1    0    0  501    0  0.00000000000E+00  0.00000000000E+00  0.17148645906E+04  0.17148645906E+04  0.25500000920E-02 0. -1.
       -2   -1    0    0    0  501  0.00000000000E+00  0.00000000000E+00 -0.12966047567E+04  0.12966047567E+04  0.25500000920E-02 0.  1.
    10030    2    1    2    0    0  0.00000000000E+00  0.00000000000E+00  0.41825983395E+03  0.30114693473E+04  0.29822820693E+04 0.  0.
        1    1    3    3  502    0 -0.10585241015E+04 -0.36341195767E+03  0.12041467151E+04  0.16439315180E+04  0.50400001928E-02 0. -1.
       -1    1    3    3    0  502  0.10585241015E+04  0.36341195767E+03 -0.78588688112E+03  0.13675378293E+04  0.50400001928E-02 0.  1.
</event>
<event>
 5   0  0.1734885E-06  0.2998300E+04  0.7818609E-02  0.8244217E-01
        1   -1    0    0  501    0  0.00000000000E+00  0.00000000000E+00  0.15061154223E+04  0.15061154223E+04  0.50400001928E-02 0. -1.
       -1   -1    0    0    0  501  0.00000000000E+00  0.00000000000E+00 -0.14922166526E+04  0.14922166526E+04  0.50400001928E-02 0.  1.
    10030    2    1    2    0    0  0.00000000000E+00  0.00000000000E+00  0.13898769752E+02  0.29983320749E+04  0.29982998609E+04 0.  0.
        2    1    3    3  502    0  0.13931548046E+04 -0.48475283117E+03 -0.26060703014E+03  0.14979257796E+04  0.25500000920E-02 0.  1.
       -2    1    3    3    0  502 -0.13931548046E+04  0.48475283117E+03  0.27450579989E+03  0.15004062954E+04  0.25500000920E-02 0. -1.
</event>
<event>
 5   0  0.4532420E-06  0.3035403E+04  0.7818609E-02  0.8233693E-01
       -2   -1    0    0    0  501  0.00000000000E+00  0.00000000000E+00  0.11670129007E+04  0.11670129007E+04  0.25500000920E-02 0. -1.
        2   -1    0    0  501    0  0.00000000000E+00  0.00000000000E+00 -0.19737726820E+04  0.19737726820E+04  0.25500000920E-02 0.  1.
    10030    2    1    2    0    0  0.00000000000E+00  0.00000000000E+00 -0.80675978127E+03  0.31407855828E+04  0.30354032240E+04 0.  0.
        4    1    3    3  502    0 -0.13923612152E+04 -0.54072483456E+03 -0.68172371428E+03  0.16418897454E+04  0.12699999809E+01 0.  1.
       -4    1    3    3    0  502  0.13923612152E+04  0.54072483456E+03 -0.12503606699E+03  0.14988958374E+04  0.12699999809E+01 0. -1.
</event>
<event>
 5   0  0.5003556E-06  0.3022944E+04  0.7818609E-02  0.8237209E-01
        2   -1    0    0  501    0  0.00000000000E+00  0.00000000000E+00  0.24459227432E+04  0.24459227432E+04  0.25500000920E-02 0.  1.
       -2   -1    0    0    0  501  0.00000000000E+00  0.00000000000E+00 -0.93402309869E+03  0.93402309869E+03  0.25500000920E-02 0. -1.
    10030    2    1    2    0    0  0.00000000000E+00  0.00000000000E+00  0.15118996445E+04  0.33799458419E+04  0.30229444849E+04 0.  0.
        3    1    3    3  502    0 -0.42210223240E+03 -0.13178018519E+04  0.14358561991E+04  0.19941050750E+04  0.10100000352E+00 0.  1.
       -3    1    3    3    0  502  0.42210223240E+03  0.13178018519E+04  0.76043445450E+02  0.13858407669E+04  0.10100000352E+00 0. -1.
</event>
<event>
 5   0  0.1734885E-06  0.3015032E+04  0.7818609E-02  0.8239451E-01
       -1   -1    0    0    0  501  0.00000000000E+00  0.00000000000E+00  0.80520996357E+03  0.80520996359E+03  0.50400001928E-02 0. -1.
        1   -1    0    0  501    0  0.00000000000E+00  0.00000000000E+00 -0.28223755264E+04  0.28223755264E+04  0.50400001928E-02 0.  1.
    10030    2    1    2    0    0  0.00000000000E+00  0.00000000000E+00 -0.20171655628E+04  0.36275854899E+04  0.30150322684E+04 0.  0.
        2    1    3    3  502    0  0.13669624992E+04 -0.20583005413E+03 -0.28502807455E+03  0.14114508453E+04  0.25500000920E-02 0. -1.
       -2    1    3    3    0  502 -0.13669624992E+04  0.20583005413E+03 -0.17321374882E+04  0.22161346447E+04  0.25500000920E-02 0.  1.
</event>
<event>
 5   0  0.1686012E-06  0.3023581E+04  0.7818609E-02  0.8237029E-01
        1   -1    0    0  501    0  0.00000000000E+00  0.00000000000E+00  0.25027534203E+04  0.25027534203E+04  0.50400001928E-02 0. -1.
       -1   -1    0    0    0  501  0.00000000000E+00  0.00000000000E+00 -0.91319861027E+03  0.91319861029E+03  0.50400001928E-02 0.  1.
    10030    2    1    2    0    0  0.00000000000E+00  0.00000000000E+00  0.15895548100E+04  0.34159520306E+04  0.30235812841E+04 0.  0.
        4    1    3    3  502    0 -0.85751348305E+03 -0.81106664691E+03 -0.27245237805E+03  0.12113589024E+04  0.12699999809E+01 0.  1.
       -4    1    3    3    0  502  0.85751348305E+03  0.81106664691E+03  0.18620071881E+04  0.22045931282E+04  0.12699999809E+01 0. -1.
</event>
<event>
 5   0  0.1709858E-06  0.2963017E+04  0.7818609E-02  0.8254371E-01
       -1   -1    0    0    0  501  0.00000000000E+00  0.00000000000E+00  0.10809950638E+04  0.10809950638E+04  0.50400001928E-02 0.  1.
        1   -1    0    0  501    0  0.00000000000E+00  0.00000000000E+00 -0.20304134223E+04  0.20304134223E+04  0.50400001928E-02 0. -1.
    10030    2    1    2    0    0  0.00000000000E+00  0.00000000000E+00 -0.94941835846E+03  0.31114084861E+04  0.29630166298E+04 0.  0.
        3    1    3    3  502    0 -0.22481042391E+03 -0.51191400614E+03 -0.19153776167E+04  0.19953112793E+04  0.10100000352E+00 0. -1.
       -3    1    3    3    0  502  0.22481042391E+03  0.51191400614E+03  0.96595925825E+03  0.11160972069E+04  0.10100000352E+00 0.  1.
</event>
<event>
 5   0  0.1709858E-06  0.2839733E+04  0.7818609E-02  0.8291038E-01
        1   -1    0    0  501    0  0.00000000000E+00  0.00000000000E+00  0.12245066246E+04  0.12245066246E+04  0.50400001928E-02 0. -1.
       -1   -1    0    0    0  501  0.00000000000E+00  0.00000000000E+00 -0.16463946973E+04  0.16463946973E+04  0.50400001928E-02 0.  1.
    10030    2    1    2    0    0  0.00000000000E+00  0.00000000000E+00 -0.42188807267E+03  0.28709013219E+04  0.28397332364E+04 0.  0.
        3    1    3    3  502    0 -0.49344367427E+03 -0.58100936231E+03  0.10001030288E+04  0.12574834461E+04  0.10100000352E+00 0. -1.
       -3    1    3    3    0  502  0.49344367427E+03  0.58100936231E+03 -0.14219911015E+04  0.16134178757E+04  0.10100000352E+00 0.  1.
</event>
<event>
 5   0  0.4768570E-06  0.3114763E+04  0.7818609E-02  0.8211698E-01
        2   -1    0    0  501    0  0.00000000000E+00  0.00000000000E+00  0.11767406263E+04  0.11767406263E+04  0.25500000920E-02 0.  1.
       -2   -1    0    0    0  501  0.00000000000E+00  0.00000000000E+00 -0.20611478086E+04  0.20611478086E+04  0.25500000920E-02 0. -1.
    10030    2    1    2    0    0  0.00000000000E+00  0.00000000000E+00 -0.88440718230E+03  0.32378884349E+04  0.31147625034E+04 0.  0.
        1    1    3    3  502    0  0.57425451238E+03  0.10681125983E+04 -0.14579702780E+04  0.18963939726E+04  0.50400001928E-02 0. -1.
       -1    1    3    3    0  502 -0.57425451238E+03 -0.10681125983E+04  0.57356309574E+03  0.13414944623E+04  0.50400001928E-02 0.  1.
</event>
<event>
 5   0  0.4935331E-06  0.3073100E+04  0.7818609E-02  0.8223159E-01
        2   -1    0    0  501    0  0.00000000000E+00  0.00000000000E+00  0.21765295221E+04  0.21765295221E+04  0.25500000920E-02 0.  1.
       -2   -1    0    0    0  501  0.00000000000E+00  0.00000000000E+00 -0.10847480828E+04  0.10847480828E+04  0.25500000920E-02 0. -1.
    10030    2    1    2    0    0  0.00000000000E+00  0.00000000000E+00  0.10917814393E+04  0.32612776049E+04  0.30731002107E+04 0.  0.
        5    1    3    3  502    0  0.54802372078E+03  0.12287270862E+04  0.13335405726E+04  0.18943211976E+04  0.46999998093E+01 0. -1.
       -5    1    3    3    0  502 -0.54802372078E+03 -0.12287270862E+04 -0.24175913330E+03  0.13669564073E+04  0.46999998093E+01 0.  1.
</event>
<event>
 5   0  0.4702748E-06  0.3090236E+04  0.7818609E-02  0.8218423E-01
       -2   -1    0    0    0  501  0.00000000000E+00  0.00000000000E+00  0.91523577907E+03  0.91523577908E+03  0.25500000920E-02 0.  1.
        2   -1    0    0  501    0  0.00000000000E+00  0.00000000000E+00 -0.26084972372E+04  0.26084972372E+04  0.25500000920E-02 0. -1.
    10030    2    1    2    0    0  0.00000000000E+00  0.00000000000E+00 -0.16932614581E+04  0.35237330163E+04  0.30902362376E+04 0.  0.
        2    1    3    3  502    0  0.45875517646E+03 -0.14696485711E+04 -0.99559665511E+03  0.18334491905E+04  0.25500000920E-02 0.  1.
       -2    1    3    3    0  502 -0.45875517646E+03  0.14696485711E+04 -0.69766480303E+03  0.16902838258E+04  0.25500000920E-02 0. -1.
</event>
<event>
 5   0  0.1709858E-06  0.2998894E+04  0.7818609E-02  0.8244047E-01
       -1   -1    0    0    0  501  0.00000000000E+00  0.00000000000E+00  0.11591204368E+04  0.11591204368E+04  0.50400001928E-02 0.  1.
        1   -1    0    0  501    0  0.00000000000E+00  0.00000000000E+00 -0.19396962113E+04  0.19396962114E+04  0.50400001928E-02 0. -1.
    10030    2    1    2    0    0  0.00000000000E+00  0.00000000000E+00 -0.78057577452E+03  0.30988166482E+04  0.29988941427E+04 0.  0.
        3    1    3    3  502    0  0.99185459039E+03  0.10753871401E+03 -0.15469606893E+04  0.18407681788E+04  0.10100000352E+00 0. -1.
       -3    1    3    3    0  502 -0.99185459039E+03 -0.10753871401E+03  0.76638491483E+03  0.12580484694E+04  0.10100000352E+00 0.  1.
</event>
<event>
 5   0  0.4702748E-06  0.3000464E+04  0.7818609E-02  0.8243598E-01
       -2   -1    0    0    0  501  0.00000000000E+00  0.00000000000E+00  0.11105801421E+04  0.11105801421E+04  0.25500000920E-02 0. -1.
        2   -1    0    0  501    0  0.00000000000E+00  0.00000000000E+00 -0.20265948413E+04  0.20265948413E+04  0.25500000920E-02 0.  1.
    10030    2    1    2    0    0  0.00000000000E+00  0.00000000000E+00 -0.91601469920E+03  0.31371749833E+04  0.30004639553E+04 0.  0.
        2    1    3    3  502    0 -0.14185586601E+04  0.43404660501E+03 -0.69178103862E+03  0.16368463987E+04  0.25500000920E-02 0.  1.
       -2    1    3    3    0  502  0.14185586601E+04 -0.43404660501E+03 -0.22423366058E+03  0.15003285847E+04  0.25500000920E-02 0. -1.
</event>
<event>
 5   0  0.1700885E-06  0.2979508E+04  0.7818609E-02  0.8249607E-01
        1   -1    0    0  501    0  0.00000000000E+00  0.00000000000E+00  0.21756122091E+04  0.21756122091E+04  0.50400001928E-02 0.  1.
       -1   -1    0    0    0  501  0.00000000000E+00  0.00000000000E+00 -0.10201116596E+04  0.10201116596E+04  0.50400001928E-02 0. -1.
    10030    2    1    2    0    0  0.00000000000E+00  0.00000000000E+00  0.11555005495E+04  0.31957238687E+04  0.29795082690E+04 0.  0.
        1    1    3    3  502    0 -0.11786159339E+04 -0.65480474391E+03  0.12573406235E+04  0.18435862377E+04  0.50400001928E-02 0.  1.
       -1    1    3    3    0  502  0.11786159339E+04  0.65480474391E+03 -0.10184007404E+03  0.13521376310E+04  0.50400001928E-02 0. -1.
</event>
<event>
 5   0  0.1672907E-06  0.3001616E+04  0.7818609E-02  0.8243270E-01
        1   -1    0    0  501    0  0.00000000000E+00  0.00000000000E+00  0.17862361628E+04  0.17862361628E+04  0.50400001928E-02 0.  1.
       -1   -1    0    0    0  501  0.00000000000E+00  0.00000000000E+00 -0.12609894759E+04  0.12609894759E+04  0.50400001928E-02 0. -1.
    10030    2    1    2    0    0  0.00000000000E+00  0.00000000000E+00  0.52524668692E+03  0.30472256387E+04  0.30016162331E+04 0.  0.
        5    1    3    3  502    0  0.14968995685E+04  0.62301639798E+02  0.35235819383E+03  0.15390803096E+04  0.46999998093E+01 0. -1.
       -5    1    3    3    0  502 -0.14968995685E+04 -0.62301639798E+02  0.17288849309E+03  0.15081453291E+04  0.46999998093E+01 0.  1.
</event>
<event>
 5   0  0.4532420E-06  0.2994725E+04  0.7818609E-02  0.8245239E-01
       -2   -1    0    0    0  501  0.00000000000E+00  0.00000000000E+00  0.12512013621E+04  0.12512013621E+04  0.25500000920E-02 0.  1.
        2   -1    0    0  501    0  0.00000000000E+00  0.00000000000E+00 -0.17919539213E+04  0.17919539213E+04  0.25500000920E-02 0. -1.
    10030    2    1    2    0    0  0.00000000000E+00  0.00000000000E+00 -0.54075255922E+03  0.30431552834E+04  0.29947254880E+04 0.  0.
        4    1    3    3  502    0  0.31470813089E+03  0.63959138384E+03 -0.16084761827E+04  0.17593508999E+04  0.12699999809E+01 0. -1.
       -4    1    3    3    0  502 -0.31470813089E+03 -0.63959138384E+03  0.10677236235E+04  0.12838043834E+04  0.12699999809E+01 0.  1.
</event>
<event>
 5   0  0.1709858E-06  0.2993773E+04  0.7818609E-02  0.8245511E-01
        1   -1    0    0  501    0  0.00000000000E+00  0.00000000000E+00  0.17989599763E+04  0.17989599763E+04  0.50400001928E-02 0.  1.
       -1   -1    0    0    0  501  0.00000000000E+00  0.00000000000E+00 -0.12455360715E+04  0.12455360715E+04  0.50400001928E-02 0. -1.
    10030    2    1    2    0    0  0.00000000000E+00  0.00000000000E+00  0.55342390480E+03  0.30444960477E+04  0.29937732323E+04 0.  0.
        3    1    3    3  502    0 -0.10156022445E+04  0.10987771216E+04  0.32116118782E+03  0.15303279389E+04  0.10100000352E+00 0.  1.
       -3    1    3    3    0  502  0.10156022445E+04 -0.10987771216E+04  0.23226271698E+03  0.15141681088E+04  0.10100000352E+00 0. -1.
</event>
<event>
 5   0  0.1700885E-06  0.3020480E+04  0.7818609E-02  0.8237907E-01
        1   -1    0    0  501    0  0.00000000000E+00  0.00000000000E+00  0.22403561944E+04  0.22403561944E+04  0.50400001928E-02 0. -1.
       -1   -1    0    0    0  501  0.00000000000E+00  0.00000000000E+00 -0.10180634686E+04  0.10180634686E+04  0.50400001928E-02 0.  1.
    10030    2    1    2    0    0  0.00000000000E+00  0.00000000000E+00  0.12222927258E+04  0.32584196630E+04  0.30204799607E+04 0.  0.
        1    1    3    3  502    0  0.13237775204E+04  0.37408984453E+03 -0.61247262680E+02  0.13769827023E+04  0.50400001928E-02 0.  1.
       -1    1    3    3    0  502 -0.13237775204E+04 -0.37408984453E+03  0.12835399885E+04  0.18814369607E+04  0.50400001928E-02 0. -1.
</event>
<event>
 5   0  0.1734885E-06  0.2991683E+04  0.7818609E-02  0.8246110E-01
        1   -1    0    0  501    0  0.00000000000E+00  0.00000000000E+00  0.24746238491E+04  0.24746238491E+04  0.50400001928E-02 0.  1.
       -1   -1    0    0    0  501  0.00000000000E+00  0.00000000000E+00 -0.90419488123E+03  0.90419488124E+03  0.50400001928E-02 0. -1.
    10030    2    1    2    0    0  0.00000000000E+00  0.00000000000E+00  0.15704289679E+04  0.33788187304E+04  0.29916832836E+04 0.  0.
        2    1    3    3  502    0 -0.63845745987E+03  0.44280157691E+03  0.22288387725E+04  0.23603862901E+04  0.25500000920E-02 0.  1.
       -2    1    3    3    0  502  0.63845745987E+03 -0.44280157691E+03 -0.65840980462E+03  0.10184324403E+04  0.25500000920E-02 0. -1.
</event>
<event>
 5   0  0.1686012E-06  0.2995878E+04  0.7818609E-02  0.8244909E-01
        1   -1    0    0  501    0  0.00000000000E+00  0.00000000000E+00  0.26742571184E+04  0.26742571184E+04  0.50400001928E-02 0.  1.
       -1   -1    0    0    0  501  0.00000000000E+00  0.00000000000E+00 -0.83904466748E+03  0.83904466750E+03  0.50400001928E-02 0. -1.
    10030    2    1    2    0    0  0.00000000000E+00  0.00000000000E+00  0.18352124509E+04  0.35133017859E+04  0.29958779512E+04 0.  0.
        4    1    3    3  502    0  0.36510638144E+03  0.17303750650E+03 -0.77393668222E+03  0.87305455122E+03  0.12699999809E+01 0. -1.
       -4    1    3    3    0  502 -0.36510638144E+03 -0.17303750650E+03  0.26091491331E+04  0.26402472346E+04  0.12699999809E+01 0.  1.
</event>
<event>
 5   0  0.1545375E-06  0.3009687E+04  0.7818609E-02  0.8240970E-01
        3   -1    0    0  501    0  0.00000000000E+00  0.00000000000E+00  0.16132280254E+04  0.16132280285E+04  0.10100000352E+00 0.  1.
       -3   -1    0    0    0  501  0.00000000000E+00  0.00000000000E+00 -0.14037409728E+04  0.14037409764E+04  0.10100000352E+00 0. -1.
    10030    2    1    2    0    0  0.00000000000E+00  0.00000000000E+00  0.20948705262E+03  0.30169690049E+04  0.30096872182E+04 0.  0.
        4    1    3    3  502    0  0.11253160113E+04 -0.83991287526E+02  0.11027234602E+04  0.15777804994E+04  0.12699999809E+01 0.  1.
       -4    1    3    3    0  502 -0.11253160113E+04  0.83991287526E+02 -0.89323640757E+03  0.14391885055E+04  0.12699999809E+01 0. -1.
</event>
<event>
 5   0  0.4768570E-06  0.3002587E+04  0.7818609E-02  0.8242992E-01
        2   -1    0    0  501    0  0.00000000000E+00  0.00000000000E+00  0.27403577119E+04  0.27403577119E+04  0.25500000920E-02 0.  1.
       -2   -1    0    0    0  501  0.00000000000E+00  0.00000000000E+00 -0.82247750492E+03  0.82247750493E+03  0.25500000920E-02 0. -1.
    10030    2    1    2    0    0  0.00000000000E+00  0.00000000000E+00  0.19178802070E+04  0.35628352168E+04  0.30025872667E+04 0.  0.
        1    1    3    3  502    0 -0.55429073086E+03  0.29098690736E+03 -0.66020791157E+03  0.90982750074E+03  0.50400001928E-02 0. -1.
       -1    1    3    3    0  502  0.55429073086E+03 -0.29098690736E+03  0.25780881185E+04  0.26530077161E+04  0.50400001928E-02 0.  1.
</event>
<event>
 5   0  0.1734885E-06  0.3000338E+04  0.7818609E-02  0.8243635E-01
        1   -1    0    0  501    0  0.00000000000E+00  0.00000000000E+00  0.15467886263E+04  0.15467886263E+04  0.50400001928E-02 0.  1.
       -1   -1    0    0    0  501  0.00000000000E+00  0.00000000000E+00 -0.14549539926E+04  0.14549539926E+04  0.50400001928E-02 0. -1.
    10030    2    1    2    0    0  0.00000000000E+00  0.00000000000E+00  0.91834633635E+02  0.30017426189E+04  0.30003375060E+04 0.  0.
        2    1    3    3  502    0  0.27332481680E+03  0.11678160882E+03  0.15170350966E+04  0.15458783535E+04  0.25500000920E-02 0.  1.
       -2    1    3    3    0  502 -0.27332481680E+03 -0.11678160882E+03 -0.14252004629E+04  0.14558642654E+04  0.25500000920E-02 0. -1.
</event>
<event>
 5   0  0.5003556E-06  0.3084066E+04  0.7818609E-02  0.8220125E-01
        2   -1    0    0  501    0  0.00000000000E+00  0.00000000000E+00  0.15989269215E+04  0.15989269215E+04  0.25500000920E-02 0. -1.
       -2   -1    0    0    0  501  0.00000000000E+00  0.00000000000E+00 -0.14871630654E+04  0.14871630654E+04  0.25500000920E-02 0.  1.
    10030    2    1    2    0    0  0.00000000000E+00  0.00000000000E+00  0.11176385608E+03  0.30860899869E+04  0.30840655388E+04 0.  0.
        3    1    3    3  502    0  0.75513560107E+02 -0.35901012394E+03 -0.14428577159E+04  0.14887675995E+04  0.10100000352E+00 0.  1.
       -3    1    3    3    0  502 -0.75513560107E+02  0.35901012394E+03  0.15546215720E+04  0.15973223874E+04  0.10100000352E+00 0. -1.
</event>
<event>
 5   0  0.1686012E-06  0.3010833E+04  0.7818609E-02  0.8240644E-01
       -1   -1    0    0    0  501  0.00000000000E+00  0.00000000000E+00  0.14436489617E+04  0.14436489617E+04  0.50400001928E-02 0. -1.
        1   -1    0    0  501    0  0.00000000000E+00  0.00000000000E+00 -0.15698269032E+04  0.15698269032E+04  0.50400001928E-02 0.  1.
    10030    2    1    2    0    0  0.00000000000E+00  0.00000000000E+00 -0.12617794151E+03  0.30134758649E+04  0.30108330933E+04 0.  0.
        4    1    3    3  502    0  0.29812309889E+03 -0.14750049600E+04 -0.10508234439E+03  0.15084962467E+04  0.12699999809E+01 0. -1.
       -4    1    3    3    0  502 -0.29812309889E+03  0.14750049600E+04 -0.21095597127E+02  0.15049796182E+04  0.12699999809E+01 0.  1.
</event>
<event>
 5   0  0.4768570E-06  0.3007302E+04  0.7818609E-02  0.8241649E-01
        2   -1    0    0  501    0  0.00000000000E+00  0.00000000000E+00  0.12880042233E+04  0.12880042233E+04  0.25500000920E-02 0.  1.
       -2   -1    0    0    0  501  0.00000000000E+00  0.00000000000E+00 -0.17554034248E+04  0.17554034248E+04  0.25500000920E-02 0. -1.
    10030    2    1    2    0    0  0.00000000000E+00  0.00000000000E+00 -0.46739920155E+03  0.30434076481E+04  0.30073024621E+04 0.  0.
        1    1    3    3  502    0  0.11843759324E+04 -0.52464113091E+03  0.53899343806E+03  0.14030354920E+04  0.50400001928E-02 0. -1.
       -1    1    3    3    0  502 -0.11843759324E+04  0.52464113091E+03 -0.10063926396E+04  0.16403721561E+04  0.50400001928E-02 0.  1.
</event>
<event>
 5   0  0.1709858E-06  0.2985994E+04  0.7818609E-02  0.8247742E-01
        1   -1    0    0  501    0  0.00000000000E+00  0.00000000000E+00  0.99101293763E+03  0.99101293764E+03  0.50400001928E-02 0.  1.
       -1   -1    0    0    0  501  0.00000000000E+00  0.00000000000E+00 -0.22492541382E+04  0.22492541382E+04  0.50400001928E-02 0. -1.
    10030    2    1    2    0    0  0.00000000000E+00  0.00000000000E+00 -0.12582412006E+04  0.32402670758E+04  0.29859939390E+04 0.  0.
        3    1    3    3  502    0 -0.12186475622E+04 -0.62271156394E+02 -0.15626445371E+04  0.19826339897E+04  0.10100000352E+00 0. -1.
       -3    1    3    3    0  502  0.12186475622E+04  0.62271156394E+02  0.30440333654E+03  0.12576330861E+04  0.10100000352E+00 0.  1.
</event>
<event>
 5   0  0.4532420E-06  0.2975834E+04  0.7818609E-02  0.8250666E-01
        2   -1    0    0  501    0  0.00000000000E+00  0.00000000000E+00  0.20701411805E+04  0.20701411805E+04  0.25500000920E-02 0. -1.
       -2   -1    0    0    0  501  0.00000000000E+00  0.00000000000E+00 -0.10694421876E+04  0.10694421876E+04  0.25500000920E-02 0.  1.
    10030    2    1    2    0    0  0.00000000000E+00  0.00000000000E+00  0.10006989929E+04  0.31395833681E+04  0.29758335388E+04 0.  0.
        4    1    3    3  502    0 -0.39779325832E+02  0.99315542439E+03 -0.66780579558E+03  0.11974582603E+04  0.12699999809E+01 0.  1.
       -4    1    3    3    0  502  0.39779325832E+02 -0.99315542439E+03  0.16685047885E+04  0.19421251077E+04  0.12699999809E+01 0. -1.
</event>
<event>
 5   0  0.4532420E-06  0.2993753E+04  0.7818609E-02  0.8245517E-01
       -2   -1    0    0    0  501  0.00000000000E+00  0.00000000000E+00  0.10105630523E+04  0.10105630523E+04  0.25500000920E-02 0.  1.
        2   -1    0    0  501    0  0.00000000000E+00  0.00000000000E+00 -0.22172187601E+04  0.22172187601E+04  0.25500000920E-02 0. -1.
    10030    2    1    2    0    0  0.00000000000E+00  0.00000000000E+00 -0.12066557078E+04  0.32277818123E+04  0.29937530678E+04 0.  0.
        4    1    3    3  502    0  0.42982781950E+03 -0.38529345431E+03  0.88573503103E+03  0.10572280541E+04  0.12699999809E+01 0.  1.
       -4    1    3    3    0  502 -0.42982781950E+03  0.38529345431E+03 -0.20923907388E+04  0.21705537582E+04  0.12699999809E+01 0. -1.
</event>
<event>
 5   0  0.4935331E-06  0.2963245E+04  0.7818609E-02  0.8254305E-01
       -2   -1    0    0    0  501  0.00000000000E+00  0.00000000000E+00  0.11148372369E+04  0.11148372369E+04  0.25500000920E-02 0. -1.
        2   -1    0    0  501    0  0.00000000000E+00  0.00000000000E+00 -0.19690814331E+04  0.19690814331E+04  0.25500000920E-02 0.  1.
    10030    2    1    2    0    0  0.00000000000E+00  0.00000000000E+00 -0.85424419619E+03  0.30839186700E+04  0.29632450483E+04 0.  0.
        5    1    3    3  502    0 -0.96399527904E+03 -0.10968884600E+04 -0.16645873576E+03  0.14697556914E+04  0.46999998093E+01 0. -1.
       -5    1    3    3    0  502  0.96399527904E+03  0.10968884600E+04 -0.68778546043E+03  0.16141629785E+04  0.46999998093E+01 0.  1.
</event>
<event>
 5   0  0.4702748E-06  0.3159172E+04  0.7818609E-02  0.8199684E-01
        2   -1    0    0  501    0  0.00000000000E+00  0.00000000000E+00  0.16762846807E+04  0.16762846807E+04  0.25500000920E-02 0.  1.
       -2   -1    0    0    0  501  0.00000000000E+00  0.00000000000E+00 -0.14884656808E+04  0.14884656808E+04  0.25500000920E-02 0. -1.
    10030    2    1    2    0    0  0.00000000000E+00  0.00000000000E+00  0.18781899992E+03  0.31647503615E+04  0.31591721818E+04 0.  0.
        2    1    3    3  502    0  0.14003207087E+04 -0.56928021173E+03  0.55310099390E+03  0.16096268996E+04  0.25500000920E-02 0.  1.
       -2    1    3    3    0  502 -0.14003207087E+04  0.56928021173E+03 -0.36528199397E+03  0.15551234619E+04  0.25500000920E-02 0. -1.
</event>
<event>
 5   0  0.5003556E-06  0.2988268E+04  0.7818609E-02  0.8247089E-01
       -2   -1    0    0    0  501  0.00000000000E+00  0.00000000000E+00  0.11693254672E+04  0.11693254672E+04  0.25500000920E-02 0. -1.
        2   -1    0    0  501    0  0.00000000000E+00  0.00000000000E+00 -0.19091658468E+04  0.19091658468E+04  0.25500000920E-02 0.  1.
    10030    2    1    2    0    0  0.00000000000E+00  0.00000000000E+00 -0.73984037961E+03  0.30784913141E+04  0.29882678902E+04 0.  0.
        3    1    3    3  502    0  0.10743202178E+04  0.54128549569E+03 -0.12828372300E+04  0.17586430243E+04  0.10100000352E+00 0.  1.
       -3    1    3    3    0  502 -0.10743202178E+04 -0.54128549569E+03  0.54299685042E+03  0.13198482897E+04  0.10100000352E+00 0. -1.
</event>
<event>
 5   0  0.5003556E-06  0.3080720E+04  0.7818609E-02  0.8221049E-01
       -2   -1    0    0    0  501  0.00000000000E+00  0.00000000000E+00  0.80798020535E+03  0.80798020536E+03  0.25500000920E-02 0. -1.
        2   -1    0    0  501    0  0.00000000000E+00  0.00000000000E+00 -0.29365937528E+04  0.29365937528E+04  0.25500000920E-02 0.  1.
    10030    2    1    2    0    0  0.00000000000E+00  0.00000000000E+00 -0.21286135475E+04  0.37445739582E+04  0.30807204505E+04 0.  0.
        3    1    3    3  502    0  0.11017459461E+04  0.58382748535E+03 -0.21636408244E+04  0.24972064972E+04  0.10100000352E+00 0.  1.
       -3    1    3    3    0  502 -0.11017459461E+04 -0.58382748535E+03  0.35027276909E+02  0.12473674610E+04  0.10100000352E+00 0. -1.
</event>
<event>
 5   0  0.4702748E-06  0.2968514E+04  0.7818609E-02  0.8252780E-01
       -2   -1    0    0    0  501  0.00000000000E+00  0.00000000000E+00  0.27297930594E+04  0.27297930594E+04  0.25500000920E-02 0.  1.
        2   -1    0    0  501    0  0.00000000000E+00  0.00000000000E+00 -0.80702765133E+03  0.80702765133E+03  0.25500000920E-02 0. -1.
    10030    2    1    2    0    0  0.00000000000E+00  0.00000000000E+00  0.19227654081E+04  0.35368207108E+04  0.29685137570E+04 0.  0.
        2    1    3    3  502    0 -0.14827447550E+04  0.15774699032E+02  0.88382309882E+03  0.17262456718E+04  0.25500000920E-02 0.  1.
       -2    1    3    3    0  502  0.14827447550E+04 -0.15774699032E+02  0.10389423093E+04  0.18105750389E+04  0.25500000920E-02 0. -1.
</event>
<event>
 5   0  0.1734885E-06  0.2972125E+04  0.7818609E-02  0.8251736E-01
       -1   -1    0    0    0  501  0.00000000000E+00  0.00000000000E+00  0.20199408265E+04  0.20199408265E+04  0.50400001928E-02 0.  1.
        1   -1    0    0  501    0  0.00000000000E+00  0.00000000000E+00 -0.10932902312E+04  0.10932902313E+04  0.50400001928E-02 0. -1.
    10030    2    1    2    0    0  0.00000000000E+00  0.00000000000E+00  0.92665059529E+03  0.31132310578E+04  0.29721248785E+04 0.  0.
        2    1    3    3  502    0  0.35110062627E+03  0.10944527804E+04 -0.52335257832E+03  0.12629316923E+04  0.25500000920E-02 0. -1.
       -2    1    3    3    0  502 -0.35110062627E+03 -0.10944527804E+04  0.14500031736E+04  0.18502993654E+04  0.25500000920E-02 0.  1.
</event>
<event>
 5   0  0.5003556E-06  0.2979340E+04  0.7818609E-02  0.8249655E-01
        2   -1    0    0  501    0  0.00000000000E+00  0.00000000000E+00  0.16826720465E+04  0.16826720465E+04  0.25500000920E-02 0. -1.
       -2   -1    0    0    0  501  0.00000000000E+00  0.00000000000E+00 -0.13188055176E+04  0.13188055176E+04  0.25500000920E-02 0.  1.
    10030    2    1    2    0    0  0.00000000000E+00  0.00000000000E+00  0.36386652895E+03  0.30014775641E+04  0.29793403157E+04 0.  0.
        3    1    3    3  502    0  0.56414542328E+03 -0.76379796121E+03  0.13382726544E+04  0.16409208061E+04  0.10100000352E+00 0. -1.
       -3    1    3    3    0  502 -0.56414542328E+03  0.76379796121E+03 -0.97440612544E+03  0.13605567580E+04  0.10100000352E+00 0.  1.
</event>
<event>
 5   0  0.1700885E-06  0.2873544E+04  0.7818609E-02  0.8280793E-01
       -1   -1    0    0    0  501  0.00000000000E+00  0.00000000000E+00  0.15278126970E+04  0.15278126970E+04  0.50400001928E-02 0. -1.
        1   -1    0    0  501    0  0.00000000000E+00  0.00000000000E+00 -0.13511564146E+04  0.13511564146E+04  0.50400001928E-02 0.  1.
    10030    2    1    2    0    0  0.00000000000E+00  0.00000000000E+00  0.17665628242E+03  0.28789691115E+04  0.28735441015E+04 0.  0.
        1    1    3    3  502    0  0.63441710321E+03  0.12665525556E+04 -0.15227830028E+03  0.14247207157E+04  0.50400001928E-02 0.  1.
       -1    1    3    3    0  502 -0.63441710321E+03 -0.12665525556E+04  0.32893458270E+03  0.14542483958E+04  0.50400001928E-02 0. -1.
</event>
<event>
 5   0  0.4768570E-06  0.2512625E+04  0.7818609E-02  0.8398501E-01
       -2   -1    0    0    0  501  0.00000000000E+00  0.00000000000E+00  0.13957030337E+04  0.13957030337E+04  0.25500000920E-02 0. -1.
        2   -1    0    0  501    0  0.00000000000E+00  0.00000000000E+00 -0.11308435030E+04  0.11308435030E+04  0.25500000920E-02 0.  1.
    10030    2    1    2    0    0  0.00000000000E+00  0.00000000000E+00  0.26485953067E+03  0.25265465366E+04  0.25126254856E+04 0.  0.
        1    1    3    3  502    0 -0.10612518466E+04 -0.52996401513E+03 -0.28363119055E+03  0.12196573254E+04  0.50400001928E-02 0.  1.
       -1    1    3    3    0  502  0.10612518466E+04  0.52996401513E+03  0.54849072123E+03  0.13068892112E+04  0.50400001928E-02 0. -1.
</event>
<event>
 5   0  0.4702748E-06  0.3007719E+04  0.7818609E-02  0.8241530E-01
       -2   -1    0    0    0  501  0.00000000000E+00  0.00000000000E+00  0.92346216548E+03  0.92346216548E+03  0.25500000920E-02 0. -1.
        2   -1    0    0  501    0  0.00000000000E+00  0.00000000000E+00 -0.24490366227E+04  0.24490366227E+04  0.25500000920E-02 0.  1.
    10030    2    1    2    0    0  0.00000000000E+00  0.00000000000E+00 -0.15255744572E+04  0.33724987882E+04  0.30077185127E+04 0.  0.
        2    1    3    3  502    0  0.10229310095E+04  0.11022054652E+04 -0.78370221371E+03  0.16957104403E+04  0.25500000920E-02 0.  1.
       -2    1    3    3    0  502 -0.10229310095E+04 -0.11022054652E+04 -0.74187224348E+03  0.16767883478E+04  0.25500000920E-02 0. -1.
</event>
<event>
 5   0  0.1734885E-06  0.2986318E+04  0.7818609E-02  0.8247649E-01
        1   -1    0    0  501    0  0.00000000000E+00  0.00000000000E+00  0.86009744540E+03  0.86009744542E+03  0.50400001928E-02 0. -1.
       -1   -1    0    0    0  501  0.00000000000E+00  0.00000000000E+00 -0.25921764247E+04  0.25921764247E+04  0.50400001928E-02 0.  1.
    10030    2    1    2    0    0  0.00000000000E+00  0.00000000000E+00 -0.17320789793E+04  0.34522738702E+04  0.29863183494E+04 0.  0.
        2    1    3    3  502    0  0.10998368381E+04  0.56010836620E+03 -0.18374913176E+04  0.22135349092E+04  0.25500000920E-02 0.  1.
       -2    1    3    3    0  502 -0.10998368381E+04 -0.56010836620E+03  0.10541233824E+03  0.12387389609E+04  0.25500000920E-02 0. -1.
</event>
<event>
 5   0  0.4935331E-06  0.3102290E+04  0.7818609E-02  0.8215110E-01
        2   -1    0    0  501    0  0.00000000000E+00  0.00000000000E+00  0.25193488880E+04  0.25193488880E+04  0.25500000920E-02 0. -1.
       -2   -1    0    0    0  501  0.00000000000E+00  0.00000000000E+00 -0.95502858745E+03  0.95502858745E+03  0.25500000920E-02 0.  1.
    10030    2    1    2    0    0  0.00000000000E+00  0.00000000000E+00  0.15643203005E+04  0.34743774754E+04  0.31022896124E+04 0.  0.
        5    1    3    3  502    0  0.19732190145E+03 -0.54981126391E+03 -0.82712733057E+03  0.10126154599E+04  0.46999998093E+01 0.  1.
       -5    1    3    3    0  502 -0.19732190145E+03  0.54981126391E+03  0.23914476311E+04  0.24617620155E+04  0.46999998093E+01 0. -1.
</event>
<event>
 5   0  0.1709858E-06  0.2975485E+04  0.7818609E-02  0.8250766E-01
        1   -1    0    0  501    0  0.00000000000E+00  0.00000000000E+00  0.10571972443E+04  0.10571972443E+04  0.50400001928E-02 0. -1.
       -1   -1    0    0    0  501  0.00000000000E+00  0.00000000000E+00 -0.20936272984E+04  0.20936272984E+04  0.50400001928E-02 0.  1.
    10030    2    1    2    0    0  0.00000000000E+00  0.00000000000E+00 -0.10364300542E+04  0.31508245427E+04  0.29754845054E+04 0.  0.
        3    1    3    3  502    0 -0.30629726423E+03  0.99795826744E+03 -0.16406980734E+04  0.19446410712E+04  0.10100000352E+00 0.  1.
       -3    1    3    3    0  502  0.30629726423E+03 -0.99795826744E+03  0.60426801925E+03  0.12061834715E+04  0.10100000352E+00 0. -1.
</event>
<event>
 5   0  0.1709858E-06  0.2990207E+04  0.7818609E-02  0.8246533E-01
        1   -1    0    0  501    0  0.00000000000E+00  0.00000000000E+00  0.19870754858E+04  0.19870754858E+04  0.50400001928E-02 0. -1.
       -1   -1    0    0    0  501  0.00000000000E+00  0.00000000000E+00 -0.11249370398E+04  0.11249370399E+04  0.50400001928E-02 0.  1.
    10030    2    1    2    0    0  0.00000000000E+00  0.00000000000E+00  0.86213844598E+03  0.31120125257E+04  0.29902072269E+04 0.  0.
        3    1    3    3  502    0 -0.17132880555E+03  0.57320908888E+03 -0.99493204605E+03  0.11609530592E+04  0.10100000352E+00 0.  1.
       -3    1    3    3    0  502  0.17132880555E+03 -0.57320908888E+03  0.18570704920E+04  0.19510594665E+04  0.10100000352E+00 0. -1.
</event>
<event>
 5   0  0.1686012E-06  0.3001847E+04  0.7818609E-02  0.8243204E-01
       -1   -1    0    0    0  501  0.00000000000E+00  0.00000000000E+00  0.14322849682E+04  0.14322849682E+04  0.50400001928E-02 0.  1.
        1   -1    0    0  501    0  0.00000000000E+00  0.00000000000E+00 -0.15728509882E+04  0.15728509882E+04  0.50400001928E-02 0. -1.
    10030    2    1    2    0    0  0.00000000000E+00  0.00000000000E+00 -0.14056601997E+03  0.30051359564E+04  0.30018466500E+04 0.  0.
        4    1    3    3  502    0 -0.10244643035E+04 -0.42769045122E+03 -0.10815002313E+04  0.15498679281E+04  0.12699999809E+01 0. -1.
       -4    1    3    3    0  502  0.10244643035E+04  0.42769045122E+03  0.94093421137E+03  0.14552680283E+04  0.12699999809E+01 0.  1.
</event>
<event>
 5   0  0.4532420E-06  0.3097530E+04  0.7818609E-02  0.8216416E-01
       -2   -1    0    0    0  501  0.00000000000E+00  0.00000000000E+00  0.11499573352E+04  0.11499573352E+04  0.25500000920E-02 0. -1.
        2   -1    0    0  501    0  0.00000000000E+00  0.00000000000E+00 -0.20858802260E+04  0.20858802260E+04  0.25500000920E-02 0.  1.
    10030    2    1    2    0    0  0.00000000000E+00  0.00000000000E+00 -0.93592289085E+03  0.32358375612E+04  0.30975301556E+04 0.  0.
        4    1    3    3  502    0 -0.65303134004E+03  0.13025672868E+04  0.80395870633E+02  0.14593137348E+04  0.12699999809E+01 0. -1.
       -4    1    3    3    0  502  0.65303134004E+03 -0.13025672868E+04 -0.10163187615E+04  0.17765238263E+04  0.12699999809E+01 0.  1.
</event>
<event>
 5   0  0.4702748E-06  0.3008862E+04  0.7818609E-02  0.8241205E-01
       -2   -1    0    0    0  501  0.00000000000E+00  0.00000000000E+00  0.20132261057E+04  0.20132261057E+04  0.25500000920E-02 0.  1.
        2   -1    0    0  501    0  0.00000000000E+00  0.00000000000E+00 -0.11242217314E+04  0.11242217314E+04  0.25500000920E-02 0. -1.
    10030    2    1    2    0    0  0.00000000000E+00  0.00000000000E+00  0.88900437427E+03  0.31374478371E+04  0.30088619365E+04 0.  0.
        2    1    3    3  502    0  0.69613579367E+03 -0.25462050082E+03  0.18096005288E+04  0.19555282449E+04  0.25500000920E-02 0.  1.
       -2    1    3    3    0  502 -0.69613579367E+03  0.25462050082E+03 -0.92059615456E+03  0.11819195922E+04  0.25500000920E-02 0. -1.
</event>
<event>
 5   0  0.4532420E-06  0.2999170E+04  0.7818609E-02  0.8243968E-01
        2   -1    0    0  501    0  0.00000000000E+00  0.00000000000E+00  0.15684355650E+04  0.15684355650E+04  0.25500000920E-02 0.  1.
       -2   -1    0    0    0  501  0.00000000000E+00  0.00000000000E+00 -0.14337571843E+04  0.14337571843E+04  0.25500000920E-02 0. -1.
    10030    2    1    2    0    0  0.00000000000E+00  0.00000000000E+00  0.13467838067E+03  0.30021927493E+04  0.29991703916E+04 0.  0.
        4    1    3    3  502    0 -0.95481746722E+03  0.49584599140E+03 -0.97832562869E+03  0.14541878460E+04  0.12699999809E+01 0. -1.
       -4    1    3    3    0  502  0.95481746722E+03 -0.49584599140E+03  0.11130040094E+04  0.15480049033E+04  0.12699999809E+01 0.  1.
</event>
<event>
 5   0  0.4768570E-06  0.2787393E+04  0.7818609E-02  0.8307193E-01
       -2   -1    0    0    0  501  0.00000000000E+00  0.00000000000E+00  0.17549204947E+04  0.17549204947E+04  0.25500000920E-02 0. -1.
        2   -1    0    0  501    0  0.00000000000E+00  0.00000000000E+00 -0.11068254132E+04  0.11068254132E+04  0.25500000920E-02 0.  1.
    10030    2    1    2    0    0  0.00000000000E+00  0.00000000000E+00  0.64809508149E+03  0.28617459080E+04  0.27873934791E+04 0.  0.
        1    1    3    3  502    0  0.11743228988E+04  0.57515813660E+03 -0.17104963425E+03  0.13187490778E+04  0.50400001928E-02 0. -1.
       -1    1    3    3    0  502 -0.11743228988E+04 -0.57515813660E+03  0.81914471574E+03  0.15429968302E+04  0.50400001928E-02 0.  1.
</event>
<event>
 5   0  0.5003556E-06  0.3088237E+04  0.7818609E-02  0.8218973E-01
       -2   -1    0    0    0  501  0.00000000000E+00  0.00000000000E+00  0.13658061035E+04  0.13658061035E+04  0.25500000920E-02 0.  1.
        2   -1    0    0  501    0  0.00000000000E+00  0.00000000000E+00 -0.17457109049E+04  0.17457109049E+04  0.25500000920E-02 0. -1.
    10030    2    1    2    0    0  0.00000000000E+00  0.00000000000E+00 -0.37990480139E+03  0.31115170085E+04  0.30882374319E+04 0.  0.
        3    1    3    3  502    0 -0.12644206996E+04 -0.59071144636E+03 -0.85569262029E+03  0.16370429405E+04  0.10100000352E+00 0. -1.
       -3    1    3    3    0  502  0.12644206996E+04  0.59071144636E+03  0.47578781890E+03  0.14744740680E+04  0.10100000352E+00 0.  1.
</event>
<event>
 5   0  0.1700885E-06  0.3023815E+04  0.7818609E-02  0.8236963E-01
        1   -1    0    0  501    0  0.00000000000E+00  0.00000000000E+00  0.22460495440E+04  0.22460495440E+04  0.50400001928E-02 0. -1.
       -1   -1    0    0    0  501  0.00000000000E+00  0.00000000000E+00 -0.10177267130E+04  0.10177267130E+04  0.50400001928E-02 0.  1.
    10030    2    1    2    0    0  0.00000000000E+00  0.00000000000E+00  0.12283228310E+04  0.32637762571E+04  0.30238152191E+04 0.  0.
        1    1    3    3  502    0  0.14336824217E+04  0.45500753552E+03  0.77922710419E+03  0.16940106327E+04  0.50400001928E-02 0. -1.
       -1    1    3    3    0  502 -0.14336824217E+04 -0.45500753552E+03  0.44909572682E+03  0.15697656244E+04  0.50400001928E-02 0.  1.
</event>
<event>
 5   0  0.4702748E-06  0.3005296E+04  0.7818609E-02  0.8242220E-01
       -2   -1    0    0    0  501  0.00000000000E+00  0.00000000000E+00  0.14730215868E+04  0.14730215868E+04  0.25500000920E-02 0.  1.
        2   -1    0    0  501    0  0.00000000000E+00  0.00000000000E+00 -0.15328700896E+04  0.15328700896E+04  0.25500000920E-02 0. -1.
    10030    2    1    2    0    0  0.00000000000E+00  0.00000000000E+00 -0.59848502753E+02  0.30058916764E+04  0.30052958136E+04 0.  0.
        2    1    3    3  502    0  0.73907063436E+03  0.62464991438E+03  0.11198852593E+04  0.14800526720E+04  0.25500000920E-02 0.  1.
       -2    1    3    3    0  502 -0.73907063436E+03 -0.62464991438E+03 -0.11797337620E+04  0.15258390044E+04  0.25500000920E-02 0. -1.
</event>
<event>
 5   0  0.1686012E-06  0.3025531E+04  0.7818609E-02  0.8236478E-01
       -1   -1    0    0    0  501  0.00000000000E+00  0.00000000000E+00  0.14936862669E+04  0.14936862670E+04  0.50400001928E-02 0.  1.
        1   -1    0    0  501    0  0.00000000000E+00  0.00000000000E+00 -0.15320887215E+04  0.15320887215E+04  0.50400001928E-02 0. -1.
    10030    2    1    2    0    0  0.00000000000E+00  0.00000000000E+00 -0.38402454548E+02  0.30257749884E+04  0.30255312810E+04 0.  0.
        4    1    3    3  502    0  0.54130250358E+03  0.82994843838E+03  0.11239724112E+04  0.14983785919E+04  0.12699999809E+01 0.  1.
       -4    1    3    3    0  502 -0.54130250358E+03 -0.82994843838E+03 -0.11623748657E+04  0.15273963965E+04  0.12699999809E+01 0. -1.
</event>
<event>
 5   0  0.4702748E-06  0.3040630E+04  0.7818609E-02  0.8232223E-01
        2   -1    0    0  501    0  0.00000000000E+00  0.00000000000E+00  0.17118934055E+04  0.17118934055E+04  0.25500000920E-02 0. -1.
       -2   -1    0    0    0  501  0.00000000000E+00  0.00000000000E+00 -0.13501760161E+04  0.13501760161E+04  0.25500000920E-02 0.  1.
    10030    2    1    2    0    0  0.00000000000E+00  0.00000000000E+00  0.36171738932E+03  0.30620694216E+04  0.30406298152E+04 0.  0.
        2    1    3    3  502    0  0.49169726609E+03  0.46178081433E+03 -0.11912274490E+04  0.13689523575E+04  0.25500000920E-02 0.  1.
       -2    1    3    3    0  502 -0.49169726609E+03 -0.46178081433E+03  0.15529448383E+04  0.16931170641E+04  0.25500000920E-02 0. -1.
</event>
<event>
 5   0  0.4532420E-06  0.3101623E+04  0.7818609E-02  0.8215293E-01
       -2   -1    0    0    0  501  0.00000000000E+00  0.00000000000E+00  0.11263891835E+04  0.11263891835E+04  0.25500000920E-02 0. -1.
        2   -1    0    0  501    0  0.00000000000E+00  0.00000000000E+00 -0.21351553898E+04  0.21351553898E+04  0.25500000920E-02 0.  1.
    10030    2    1    2    0    0  0.00000000000E+00  0.00000000000E+00 -0.10087662063E+04  0.32615445734E+04  0.31016227600E+04 0.  0.
        4    1    3    3  502    0 -0.22668889283E+03  0.20114071684E+03  0.10949466392E+04  0.11361140778E+04  0.12699999809E+01 0. -1.
       -4    1    3    3    0  502  0.22668889283E+03 -0.20114071684E+03 -0.21037128455E+04  0.21254304956E+04  0.12699999809E+01 0.  1.
</event>
<event>
 5   0  0.1700885E-06  0.2989239E+04  0.7818609E-02  0.8246810E-01
       -1   -1    0    0    0  501  0.00000000000E+00  0.00000000000E+00  0.17889559407E+04  0.17889559407E+04  0.50400001928E-02 0.  1.
        1   -1    0    0  501    0  0.00000000000E+00  0.00000000000E+00 -0.12487103805E+04  0.12487103805E+04  0.50400001928E-02 0. -1.
    10030    2    1    2    0    0  0.00000000000E+00  0.00000000000E+00  0.54024556017E+03  0.30376663212E+04  0.29892392701E+04 0.  0.
        1    1    3    3  502    0 -0.10795888262E+03  0.12457023323E+04  0.11022032253E+04  0.16668177378E+04  0.50400001928E-02 0.  1.
       -1    1    3    3    0  502  0.10795888262E+03 -0.12457023323E+04 -0.56195766515E+03  0.13708485834E+04  0.50400001928E-02 0. -1.
</event>
<event>
 5   0  0.1672907E-06  0.2951306E+04  0.7818609E-02  0.8257774E-01
        1   -1    0    0  501    0  0.00000000000E+00  0.00000000000E+00  0.28277501430E+04  0.28277501430E+04  0.50400001928E-02 0.  1.
       -1   -1    0    0    0  501  0.00000000000E+00  0.00000000000E+00 -0.77006511164E+03  0.77006511165E+03  0.50400001928E-02 0. -1.
    10030    2    1    2    0    0  0.00000000000E+00  0.00000000000E+00  0.20576850313E+04  0.35978152546E+04  0.29513059683E+04 0.  0.
        5    1    3    3  502    0 -0.14312229060E+04  0.33978536115E+03  0.88627756620E+03  0.17173709886E+04  0.46999998093E+01 0.  1.
       -5    1    3    3    0  502  0.14312229060E+04 -0.33978536115E+03  0.11714074651E+04  0.18804442660E+04  0.46999998093E+01 0. -1.
</event>
<event>
 5   0  0.5003556E-06  0.3003954E+04  0.7818609E-02  0.8242603E-01
        2   -1    0    0  501    0  0.00000000000E+00  0.00000000000E+00  0.21581790271E+04  0.21581790271E+04  0.25500000920E-02 0.  1.
       -2   -1    0    0    0  501  0.00000000000E+00  0.00000000000E+00 -0.10452957052E+04  0.10452957052E+04  0.25500000920E-02 0. -1.
    10030    2    1    2    0    0  0.00000000000E+00  0.00000000000E+00  0.11128833220E+04  0.32034747323E+04  0.30039542394E+04 0.  0.
        3    1    3    3  502    0 -0.13278601352E+04  0.20539150026E+03  0.12722442191E+04  0.18504063257E+04  0.10100000352E+00 0. -1.
       -3    1    3    3    0  502  0.13278601352E+04 -0.20539150026E+03 -0.15936089712E+03  0.13530684066E+04  0.10100000352E+00 0.  1.
</event>
<event>
 5   0  0.1672907E-06  0.2999565E+04  0.7818609E-02  0.8243855E-01
        1   -1    0    0  501    0  0.00000000000E+00  0.00000000000E+00  0.16159811943E+04  0.16159811943E+04  0.50400001928E-02 0. -1.
       -1   -1    0    0    0  501  0.00000000000E+00  0.00000000000E+00 -0.13919390632E+04  0.13919390633E+04  0.50400001928E-02 0.  1.
    10030    2    1    2    0    0  0.00000000000E+00  0.00000000000E+00  0.22404213109E+03  0.30079202576E+04  0.29995648684E+04 0.  0.
        5    1    3    3  502    0 -0.40916352289E+03  0.12492343464E+04  0.83606001171E+03  0.15578894935E+04  0.46999998093E+01 0. -1.
       -5    1    3    3    0  502  0.40916352289E+03 -0.12492343464E+04 -0.61201788062E+03  0.14500307641E+04  0.46999998093E+01 0.  1.
</event>
<event>
 5   0  0.1686012E-06  0.2942743E+04  0.7818609E-02  0.8260272E-01
        1   -1    0    0  501    0  0.00000000000E+00  0.00000000000E+00  0.24015857308E+04  0.24015857308E+04  0.50400001928E-02 0. -1.
       -1   -1    0    0    0  501  0.00000000000E+00  0.00000000000E+00 -0.90146054384E+03  0.90146054386E+03  0.50400001928E-02 0.  1.
    10030    2    1    2    0    0  0.00000000000E+00  0.00000000000E+00  0.15001251870E+04  0.33030462747E+04  0.29427434676E+04 0.  0.
        4    1    3    3  502    0  0.62534903122E+03 -0.12088807155E+04  0.12262174318E+03  0.13665620001E+04  0.12699999809E+01 0.  1.
       -4    1    3    3    0  502 -0.62534903122E+03  0.12088807155E+04  0.13775034438E+04  0.19364842746E+04  0.12699999809E+01 0. -1.
</event>
<event>
 5   0  0.4532420E-06  0.2990548E+04  0.7818609E-02  0.8246435E-01
        2   -1    0    0  501    0  0.00000000000E+00  0.00000000000E+00  0.17423348867E+04  0.17423348867E+04  0.25500000920E-02 0.  1.
       -2   -1    0    0    0  501  0.00000000000E+00  0.00000000000E+00 -0.12832457691E+04  0.12832457692E+04  0.25500000920E-02 0. -1.
    10030    2    1    2    0    0  0.00000000000E+00  0.00000000000E+00  0.45908911757E+03  0.30255806559E+04  0.29905476902E+04 0.  0.
        4    1    3    3  502    0 -0.14506121345E+04  0.46786800442E+02  0.59344928642E+03  0.15680077289E+04  0.12699999809E+01 0.  1.
       -4    1    3    3    0  502  0.14506121345E+04 -0.46786800442E+02 -0.13436016886E+03  0.14575729269E+04  0.12699999809E+01 0. -1.
</event>
<event>
 5   0  0.4768570E-06  0.2838993E+04  0.7818609E-02  0.8291264E-01
       -2   -1    0    0    0  501  0.00000000000E+00  0.00000000000E+00  0.16242289793E+04  0.16242289793E+04  0.25500000920E-02 0. -1.
        2   -1    0    0  501    0  0.00000000000E+00  0.00000000000E+00 -0.12405705501E+04  0.12405705501E+04  0.25500000920E-02 0.  1.
    10030    2    1    2    0    0  0.00000000000E+00  0.00000000000E+00  0.38365842920E+03  0.28647995294E+04  0.28389932288E+04 0.  0.
        1    1    3    3  502    0 -0.83916956753E+03 -0.41729159610E+03 -0.88399167273E+03  0.12883241505E+04  0.50400001928E-02 0.  1.
       -1    1    3    3    0  502  0.83916956753E+03  0.41729159610E+03  0.12676501019E+04  0.15764753789E+04  0.50400001928E-02 0. -1.
</event>
<event>
 5   0  0.1734885E-06  0.2999928E+04  0.7818609E-02  0.8243751E-01
       -1   -1    0    0    0  501  0.00000000000E+00  0.00000000000E+00  0.93105313722E+03  0.93105313723E+03  0.50400001928E-02 0.  1.
        1   -1    0    0  501    0  0.00000000000E+00  0.00000000000E+00 -0.24165027498E+04  0.24165027498E+04  0.50400001928E-02 0. -1.
    10030    2    1    2    0    0  0.00000000000E+00  0.00000000000E+00 -0.14854496126E+04  0.33475558870E+04  0.29999283100E+04 0.  0.
        2    1    3    3  502    0 -0.77991435480E+03 -0.43851929222E+03 -0.20861086956E+04  0.22698931826E+04  0.25500000920E-02 0. -1.
       -2    1    3    3    0  502  0.77991435480E+03  0.43851929222E+03  0.60065908305E+03  0.10776627044E+04  0.25500000920E-02 0.  1.
</event>
<event>
 5   0  0.4702748E-06  0.3147997E+04  0.7818609E-02  0.8202688E-01
       -2   -1    0    0    0  501  0.00000000000E+00  0.00000000000E+00  0.17428852636E+04  0.17428852636E+04  0.25500000920E-02 0. -1.
        2   -1    0    0  501    0  0.00000000000E+00  0.00000000000E+00 -0.14214765940E+04  0.14214765940E+04  0.25500000920E-02 0.  1.
    10030    2    1    2    0    0  0.00000000000E+00  0.00000000000E+00  0.32140866960E+03  0.31643618575E+04  0.31479965744E+04 0.  0.
        2    1    3    3  502    0  0.10151503353E+04 -0.69762903670E+03  0.11457241843E+04  0.16822307756E+04  0.25500000920E-02 0.  1.
       -2    1    3    3    0  502 -0.10151503353E+04  0.69762903670E+03 -0.82431551468E+03  0.14821310819E+04  0.25500000920E-02 0. -1.
</event>
<event>
 5   0  0.4768570E-06  0.3004048E+04  0.7818609E-02  0.8242576E-01
       -2   -1    0    0    0  501  0.00000000000E+00  0.00000000000E+00  0.99266955448E+03  0.99266955448E+03  0.25500000920E-02 0. -1.
        2   -1    0    0  501    0  0.00000000000E+00  0.00000000000E+00 -0.22727365910E+04  0.22727365910E+04  0.25500000920E-02 0.  1.
    10030    2    1    2    0    0  0.00000000000E+00  0.00000000000E+00 -0.12800670365E+04  0.32654061455E+04  0.30040482148E+04 0.  0.
        1    1    3    3  502    0 -0.67573333995E+03  0.98713110740E+03 -0.16273718087E+04  0.20197480966E+04  0.50400001928E-02 0.  1.
       -1    1    3    3    0  502  0.67573333995E+03 -0.98713110740E+03  0.34730477219E+03  0.12456580489E+04  0.50400001928E-02 0. -1.
</event>
<event>
 5   0  0.5003556E-06  0.3181303E+04  0.7818609E-02  0.8193773E-01
       -2   -1    0    0    0  501  0.00000000000E+00  0.00000000000E+00  0.11343205387E+04  0.11343205387E+04  0.25500000920E-02 0. -1.
        2   -1    0    0  501    0  0.00000000000E+00  0.00000000000E+00 -0.22305617887E+04  0.22305617887E+04  0.25500000920E-02 0.  1.
    10030    2    1    2    0    0  0.00000000000E+00  0.00000000000E+00 -0.10962412500E+04  0.33648823274E+04  0.31813029090E+04 0.  0.
        3    1    3    3  502    0  0.75395962531E+03 -0.31481564925E+03  0.89540864403E+03  0.12121553777E+04  0.10100000352E+00 0. -1.
       -3    1    3    3    0  502 -0.75395962531E+03  0.31481564925E+03 -0.19916498940E+04  0.21527269497E+04  0.10100000352E+00 0.  1.
</event>
<event>
 5   0  0.4702748E-06  0.2407166E+04  0.7818609E-02  0.8436825E-01
        2   -1    0    0  501    0  0.00000000000E+00  0.00000000000E+00  0.11733848055E+04  0.11733848055E+04  0.25500000920E-02 0.  1.
       -2   -1    0    0    0  501  0.00000000000E+00  0.00000000000E+00 -0.12345588574E+04  0.12345588574E+04  0.25500000920E-02 0. -1.
    10030    2    1    2    0    0  0.00000000000E+00  0.00000000000E+00 -0.61174051920E+02  0.24079436630E+04  0.24071664711E+04 0.  0.
        2    1    3    3  502    0  0.64801541564E+03  0.64332400087E+03 -0.81494659310E+03  0.12238985655E+04  0.25500000920E-02 0. -1.
       -2    1    3    3    0  502 -0.64801541564E+03 -0.64332400087E+03  0.75377254118E+03  0.11840450975E+04  0.25500000920E-02 0.  1.
</event>
<event>
 5   0  0.1672907E-06  0.3009294E+04  0.7818609E-02  0.8241082E-01
        1   -1    0    0  501    0  0.00000000000E+00  0.00000000000E+00  0.18697356311E+04  0.18697356311E+04  0.50400001928E-02 0. -1.
       -1   -1    0    0    0  501  0.00000000000E+00  0.00000000000E+00 -0.12108463949E+04  0.12108463949E+04  0.50400001928E-02 0.  1.
    10030    2    1    2    0    0  0.00000000000E+00  0.00000000000E+00  0.65888923619E+03  0.30805820260E+04  0.30092940357E+04 0.  0.
        5    1    3    3  502    0 -0.85249372733E+03  0.28054518694E+03 -0.90684377392E+03  0.12758678918E+04  0.46999998093E+01 0.  1.
       -5    1    3    3    0  502  0.85249372733E+03 -0.28054518694E+03  0.15657330101E+04  0.18047141342E+04  0.46999998093E+01 0. -1.
</event>
<event>
 5   0  0.4532420E-06  0.3049384E+04  0.7818609E-02  0.8229768E-01
       -2   -1    0    0    0  501  0.00000000000E+00  0.00000000000E+00  0.15439925407E+04  0.15439925407E+04  0.25500000920E-02 0.  1.
        2   -1    0    0  501    0  0.00000000000E+00  0.00000000000E+00 -0.15056327502E+04  0.15056327502E+04  0.25500000920E-02 0. -1.
    10030    2    1    2    0    0  0.00000000000E+00  0.00000000000E+00  0.38359790468E+02  0.30496252909E+04  0.30493840265E+04 0.  0.
        4    1    3    3  502    0  0.95312812844E+02 -0.10990554619E+04  0.10717253647E+04  0.15380521158E+04  0.12699999809E+01 0.  1.
       -4    1    3    3    0  502 -0.95312812844E+02  0.10990554619E+04 -0.10333655742E+04  0.15115731751E+04  0.12699999809E+01 0. -1.
</event>
<event>
 5   0  0.1709858E-06  0.2776436E+04  0.7818609E-02  0.8310621E-01
       -1   -1    0    0    0  501  0.00000000000E+00  0.00000000000E+00  0.88237513468E+03  0.88237513470E+03  0.50400001928E-02 0. -1.
        1   -1    0    0  501    0  0.00000000000E+00  0.00000000000E+00 -0.21840481762E+04  0.21840481762E+04  0.50400001928E-02 0.  1.
    10030    2    1    2    0    0  0.00000000000E+00  0.00000000000E+00 -0.13016730415E+04  0.30664233109E+04  0.27764364237E+04 0.  0.
        3    1    3    3  502    0 -0.14453706869E+02  0.64364841249E+03  0.70752287815E+03  0.95659856881E+03  0.10100000352E+00 0. -1.
       -3    1    3    3    0  502  0.14453706869E+02 -0.64364841249E+03 -0.20091959196E+04  0.21098247421E+04  0.10100000352E+00 0.  1.
</event>
<event>
 5   0  0.1709858E-06  0.2841578E+04  0.7818609E-02  0.8290475E-01
       -1   -1    0    0    0  501  0.00000000000E+00  0.00000000000E+00  0.13019319396E+04  0.13019319396E+04  0.50400001928E-02 0.  1.
        1   -1    0    0  501    0  0.00000000000E+00  0.00000000000E+00 -0.15504969055E+04  0.15504969055E+04  0.50400001928E-02 0. -1.
    10030    2    1    2    0    0  0.00000000000E+00  0.00000000000E+00 -0.24856496587E+03  0.28524288451E+04  0.28415780430E+04 0.  0.
        3    1    3    3  502    0  0.12060116120E+03 -0.11701068426E+04 -0.92416073796E+03  0.14959170241E+04  0.10100000352E+00 0. -1.
       -3    1    3    3    0  502 -0.12060116120E+03  0.11701068426E+04  0.67559577209E+03  0.13565118210E+04  0.10100000352E+00 0.  1.
</event>
<event>
 5   0  0.5003556E-06  0.2979440E+04  0.7818609E-02  0.8249626E-01
       -2   -1    0    0    0  501  0.00000000000E+00  0.00000000000E+00  0.10558583986E+04  0.10558583986E+04  0.25500000920E-02 0.  1.
        2   -1    0    0  501    0  0.00000000000E+00  0.00000000000E+00 -0.21018594299E+04  0.21018594299E+04  0.25500000920E-02 0. -1.
    10030    2    1    2    0    0  0.00000000000E+00  0.00000000000E+00 -0.10460010312E+04  0.31577178285E+04  0.29794401701E+04 0.  0.
        3    1    3    3  502    0  0.78899139171E+03  0.33012393837E+03 -0.18157296166E+04  0.20070782949E+04  0.10100000352E+00 0. -1.
       -3    1    3    3    0  502 -0.78899139171E+03 -0.33012393837E+03  0.76972858541E+03  0.11506395336E+04  0.10100000352E+00 0.  1.
</event>
<event>
 5   0  0.1709858E-06  0.2930922E+04  0.7818609E-02  0.8263736E-01
       -1   -1    0    0    0  501  0.00000000000E+00  0.00000000000E+00  0.19637167575E+04  0.19637167575E+04  0.50400001928E-02 0.  1.
        1   -1    0    0  501    0  0.00000000000E+00  0.00000000000E+00 -0.10936283119E+04  0.10936283119E+04  0.50400001928E-02 0. -1.
    10030    2    1    2    0    0  0.00000000000E+00  0.00000000000E+00  0.87008844561E+03  0.30573450694E+04  0.29309222047E+04 0.  0.
        3    1    3    3  502    0 -0.10382728396E+04  0.96729479070E+03  0.53327623095E+02  0.14200399808E+04  0.10100000352E+00 0.  1.
       -3    1    3    3    0  502  0.10382728396E+04 -0.96729479070E+03  0.81676082252E+03  0.16373050886E+04  0.10100000352E+00 0. -1.
</event>
<event>
 5   0  0.1686012E-06  0.3014547E+04  0.7818609E-02  0.8239589E-01
        1   -1    0    0  501    0  0.00000000000E+00  0.00000000000E+00  0.11916143612E+04  0.11916143612E+04  0.50400001928E-02 0. -1.
       -1   -1    0    0    0  501  0.00000000000E+00  0.00000000000E+00 -0.19065513586E+04  0.19065513587E+04  0.50400001928E-02 0.  1.
    10030    2    1    2    0    0  0.00000000000E+00  0.00000000000E+00 -0.71493699748E+03  0.30981657198E+04  0.30145473818E+04 0.  0.
        4    1    3    3  502    0  0.27222027118E+03  0.20449692764E+03 -0.18665122161E+04  0.18973118709E+04  0.12699999809E+01 0.  1.
       -4    1    3    3    0  502 -0.27222027118E+03 -0.20449692764E+03  0.11515752186E+04  0.12008538490E+04  0.12699999809E+01 0. -1.
</event>
<event>
 5   0  0.1672907E-06  0.2987613E+04  0.7818609E-02  0.8247277E-01
        1   -1    0    0  501    0  0.00000000000E+00  0.00000000000E+00  0.84312476078E+03  0.84312476079E+03  0.50400001928E-02 0. -1.
       -1   -1    0    0    0  501  0.00000000000E+00  0.00000000000E+00 -0.26466525081E+04  0.26466525081E+04  0.50400001928E-02 0.  1.
    10030    2    1    2    0    0  0.00000000000E+00  0.00000000000E+00 -0.18035277473E+04  0.34897772689E+04  0.29876132700E+04 0.  0.
        5    1    3    3  502    0  0.50363721625E+03  0.38343134916E+03  0.67871889052E+03  0.92809022592E+03  0.46999998093E+01 0. -1.
       -5    1    3    3    0  502 -0.50363721625E+03 -0.38343134916E+03 -0.24822466378E+04  0.25616870429E+04  0.46999998093E+01 0.  1.
</event>
<event>
 5   0  0.1686012E-06  0.2921501E+04  0.7818609E-02  0.8266509E-01
        1   -1    0    0  501    0  0.00000000000E+00  0.00000000000E+00  0.16371875887E+04  0.16371875887E+04  0.50400001928E-02 0. -1.
       -1   -1    0    0    0  501  0.00000000000E+00  0.00000000000E+00 -0.13033277802E+04  0.13033277802E+04  0.50400001928E-02 0.  1.
    10030    2    1    2    0    0  0.00000000000E+00  0.00000000000E+00  0.33385980852E+03  0.29405153690E+04  0.29215010292E+04 0.  0.
        4    1    3    3  502    0 -0.11269036801E+04  0.57175184260E+03 -0.57062747054E+03  0.13865170020E+04  0.12699999809E+01 0.  1.
       -4    1    3    3    0  502  0.11269036801E+04 -0.57175184260E+03  0.90448727906E+03  0.15539983670E+04  0.12699999809E+01 0. -1.
</event>
<event>
 5   0  0.5003556E-06  0.2925623E+04  0.7818609E-02  0.8265294E-01
       -2   -1    0    0    0  501  0.00000000000E+00  0.00000000000E+00  0.16005556157E+04  0.16005556157E+04  0.25500000920E-02 0.  1.
        2   -1    0    0  501    0  0.00000000000E+00  0.00000000000E+00 -0.13369216945E+04  0.13369216945E+04  0.25500000920E-02 0. -1.
    10030    2    1    2    0    0  0.00000000000E+00  0.00000000000E+00  0.26363392119E+03  0.29374773102E+04  0.29256230283E+04 0.  0.
        3    1    3    3  502    0  0.14591946774E+04  0.81891618573E+02  0.69418774812E+02  0.14631385171E+04  0.10100000352E+00 0.  1.
       -3    1    3    3    0  502 -0.14591946774E+04 -0.81891618573E+02  0.19421514637E+03  0.14743387931E+04  0.10100000352E+00 0. -1.
</event>
<event>
 5   0  0.1700885E-06  0.2998427E+04  0.7818609E-02  0.8244180E-01
       -1   -1    0    0    0  501  0.00000000000E+00  0.00000000000E+00  0.79515057971E+03  0.79515057972E+03  0.50400001928E-02 0.  1.
        1   -1    0    0  501    0  0.00000000000E+00  0.00000000000E+00 -0.28266864897E+04  0.28266864897E+04  0.50400001928E-02 0. -1.
    10030    2    1    2    0    0  0.00000000000E+00  0.00000000000E+00 -0.20315359100E+04  0.36218370695E+04  0.29984271884E+04 0.  0.
        1    1    3    3  502    0  0.55155341661E+03  0.18026362479E+02 -0.26995410596E+04  0.27553689506E+04  0.50400001928E-02 0. -1.
       -1    1    3    3    0  502 -0.55155341661E+03 -0.18026362479E+02  0.66800514961E+03  0.86646811889E+03  0.50400001928E-02 0.  1.
</event>
<event>
 5   0  0.5003556E-06  0.3023798E+04  0.7818609E-02  0.8236968E-01
       -2   -1    0    0    0  501  0.00000000000E+00  0.00000000000E+00  0.91804961942E+03  0.91804961942E+03  0.25500000920E-02 0. -1.
        2   -1    0    0  501    0  0.00000000000E+00  0.00000000000E+00 -0.24898863735E+04  0.24898863735E+04  0.25500000920E-02 0.  1.
    10030    2    1    2    0    0  0.00000000000E+00  0.00000000000E+00 -0.15718367541E+04  0.34079359929E+04  0.30237984308E+04 0.  0.
        3    1    3    3  502    0  0.28983011750E+03 -0.24911641425E+03  0.86271096998E+03  0.94357337435E+03  0.10100000352E+00 0. -1.
       -3    1    3    3    0  502 -0.28983011750E+03  0.24911641425E+03 -0.24345477240E+04  0.24643626185E+04  0.10100000352E+00 0.  1.
</event>
<event>
 5   0  0.4532420E-06  0.2986408E+04  0.7818609E-02  0.8247623E-01
       -2   -1    0    0    0  501  0.00000000000E+00  0.00000000000E+00  0.79304907552E+03  0.79304907553E+03  0.25500000920E-02 0. -1.
        2   -1    0    0  501    0  0.00000000000E+00  0.00000000000E+00 -0.28115017999E+04  0.28115017999E+04  0.25500000920E-02 0.  1.
    10030    2    1    2    0    0  0.00000000000E+00  0.00000000000E+00 -0.20184527244E+04  0.36045508755E+04  0.29864084806E+04 0.  0.
        4    1    3    3  502    0 -0.10017607432E+04 -0.10574371872E+04 -0.14058074293E+04  0.20243502989E+04  0.12699999809E+01 0. -1.
       -4    1    3    3    0  502  0.10017607432E+04  0.10574371872E+04 -0.61264529514E+03  0.15802005766E+04  0.12699999809E+01 0.  1.
</event>
<event>
 5   0  0.1700885E-06  0.3502024E+04  0.7818609E-02  0.8113310E-01
        1   -1    0    0  501    0  0.00000000000E+00  0.00000000000E+00  0.13788161778E+04  0.13788161778E+04  0.50400001928E-02 0.  1.
       -1   -1    0    0    0  501  0.00000000000E+00  0.00000000000E+00 -0.22236783903E+04  0.22236783903E+04  0.50400001928E-02 0. -1.
    10030    2    1    2    0    0  0.00000000000E+00  0.00000000000E+00 -0.84486221256E+03  0.36024945681E+04  0.35020244081E+04 0.  0.
        1    1    3    3  502    0 -0.57246682821E+03  0.69869985575E+03 -0.19655142252E+04  0.21631333586E+04  0.50400001928E-02 0. -1.
       -1    1    3    3    0  502  0.57246682821E+03 -0.69869985575E+03  0.11206520126E+04  0.14393612094E+04  0.50400001928E-02 0.  1.
</event>
<event>
 5   0  0.1700885E-06  0.2995616E+04  0.7818609E-02  0.8244984E-01
       -1   -1    0    0    0  501  0.00000000000E+00  0.00000000000E+00  0.10560723216E+04  0.10560723216E+04  0.50400001928E-02 0.  1.
        1   -1    0    0  501    0  0.00000000000E+00  0.00000000000E+00 -0.21243136034E+04  0.21243136034E+04  0.50400001928E-02 0. -1.
    10030    2    1    2    0    0  0.00000000000E+00  0.00000000000E+00 -0.10682412818E+04  0.31803859251E+04  0.29956159961E+04 0.  0.
        1    1    3    3  502    0 -0.25265464314E+03 -0.11632673976E+04 -0.14992593345E+04  0.19143677701E+04  0.50400001928E-02 0. -1.
       -1    1    3    3    0  502  0.25265464314E+03  0.11632673976E+04  0.43101805274E+03  0.12660181550E+04  0.50400001928E-02 0.  1.
</event>
<event>
 5   0  0.4702748E-06  0.3005101E+04  0.7818609E-02  0.8242276E-01
       -2   -1    0    0    0  501  0.00000000000E+00  0.00000000000E+00  0.14263817663E+04  0.14263817663E+04  0.25500000920E-02 0. -1.
        2   -1    0    0  501    0  0.00000000000E+00  0.00000000000E+00 -0.15827864300E+04  0.15827864300E+04  0.25500000920E-02 0.  1.
    10030    2    1    2    0    0  0.00000000000E+00  0.00000000000E+00 -0.15640466368E+03  0.30091681964E+04  0.30051007995E+04 0.  0.
        2    1    3    3  502    0 -0.80309194202E+03 -0.12654123665E+04  0.28865628016E+02  0.14990191290E+04  0.25500000920E-02 0. -1.
       -2    1    3    3    0  502  0.80309194202E+03  0.12654123665E+04 -0.18527029169E+03  0.15101490674E+04  0.25500000920E-02 0.  1.
</event>
<event>
 5   0  0.5003556E-06  0.2800052E+04  0.7818609E-02  0.8303252E-01
       -2   -1    0    0    0  501  0.00000000000E+00  0.00000000000E+00  0.12072494878E+04  0.12072494878E+04  0.25500000920E-02 0.  1.
        2   -1    0    0  501    0  0.00000000000E+00  0.00000000000E+00 -0.16235856271E+04  0.16235856271E+04  0.25500000920E-02 0. -1.
    10030    2    1    2    0    0  0.00000000000E+00  0.00000000000E+00 -0.41633613926E+03  0.28308351149E+04  0.28000520829E+04 0.  0.
        3    1    3    3  502    0 -0.32825643097E+03 -0.12982979216E+04 -0.62099919920E+03  0.14761333928E+04  0.10100000352E+00 0. -1.
       -3    1    3    3    0  502  0.32825643097E+03  0.12982979216E+04  0.20466305994E+03  0.13547017221E+04  0.10100000352E+00 0.  1.
</event>
<event>
 5   0  0.1686012E-06  0.2923477E+04  0.7818609E-02  0.8265926E-01
        1   -1    0    0  501    0  0.00000000000E+00  0.00000000000E+00  0.18125330333E+04  0.18125330333E+04  0.50400001928E-02 0. -1.
       -1   -1    0    0    0  501  0.00000000000E+00  0.00000000000E+00 -0.11788364971E+04  0.11788364971E+04  0.50400001928E-02 0.  1.
    10030    2    1    2    0    0  0.00000000000E+00  0.00000000000E+00  0.63369653617E+03  0.29913695304E+04  0.29234774443E+04 0.  0.
        4    1    3    3  502    0 -0.10502776407E+04 -0.59250117694E+03 -0.52849606238E+03  0.13166056616E+04  0.12699999809E+01 0.  1.
       -4    1    3    3    0  502  0.10502776407E+04  0.59250117694E+03  0.11621925986E+04  0.16747638688E+04  0.12699999809E+01 0. -1.
</event>
<event>
 5   0  0.1734885E-06  0.3019700E+04  0.7818609E-02  0.8238128E-01
        1   -1    0    0  501    0  0.00000000000E+00  0.00000000000E+00  0.14769692412E+04  0.14769692412E+04  0.50400001928E-02 0.  1.
       -1   -1    0    0    0  501  0.00000000000E+00  0.00000000000E+00 -0.15434623609E+04  0.15434623609E+04  0.50400001928E-02 0. -1.
    10030    2    1    2    0    0  0.00000000000E+00  0.00000000000E+00 -0.66493119751E+02  0.30204316021E+04  0.30196996089E+04 0.  0.
        2    1    3    3  502    0  0.10305183316E+04 -0.76823170553E+03 -0.82558657682E+03  0.15276587253E+04  0.25500000920E-02 0. -1.
       -2    1    3    3    0  502 -0.10305183316E+04  0.76823170553E+03  0.75909345707E+03  0.14927728768E+04  0.25500000920E-02 0.  1.
</event>
<event>
 5   0  0.1700885E-06  0.2976696E+04  0.7818609E-02  0.8250417E-01
        1   -1    0    0  501    0  0.00000000000E+00  0.00000000000E+00  0.19468788107E+04  0.19468788107E+04  0.50400001928E-02 0. -1.
       -1   -1    0    0    0  501  0.00000000000E+00  0.00000000000E+00 -0.11378105199E+04  0.11378105199E+04  0.50400001928E-02 0.  1.
    10030    2    1    2    0    0  0.00000000000E+00  0.00000000000E+00  0.80906829075E+03  0.30846893306E+04  0.29766956122E+04 0.  0.
        1    1    3    3  502    0 -0.69929260854E+03 -0.11282044043E+04  0.11022543409E+04  0.17253463311E+04  0.50400001928E-02 0. -1.
       -1    1    3    3    0  502  0.69929260854E+03  0.11282044043E+04 -0.29318605018E+03  0.13593429995E+04  0.50400001928E-02 0.  1.
</event>
<event>
 5   0  0.4702748E-06  0.3002557E+04  0.7818609E-02  0.8243001E-01
       -2   -1    0    0    0  501  0.00000000000E+00  0.00000000000E+00  0.16665484098E+04  0.16665484098E+04  0.25500000920E-02 0.  1.
        2   -1    0    0  501    0  0.00000000000E+00  0.00000000000E+00 -0.13523986633E+04  0.13523986633E+04  0.25500000920E-02 0. -1.
    10030    2    1    2    0    0  0.00000000000E+00  0.00000000000E+00  0.31414974645E+03  0.30189470731E+04  0.30025574711E+04 0.  0.
        2    1    3    3  502    0  0.99496000832E+03 -0.31137061676E+03 -0.92907204833E+03  0.13964497664E+04  0.25500000920E-02 0. -1.
       -2    1    3    3    0  502 -0.99496000832E+03  0.31137061676E+03  0.12432217948E+04  0.16224973067E+04  0.25500000920E-02 0.  1.
</event>
<event>
 5   0  0.1672907E-06  0.3047648E+04  0.7818609E-02  0.8230254E-01
        1   -1    0    0  501    0  0.00000000000E+00  0.00000000000E+00  0.15136254898E+04  0.15136254898E+04  0.50400001928E-02 0. -1.
       -1   -1    0    0    0  501  0.00000000000E+00  0.00000000000E+00 -0.15340908499E+04  0.15340908499E+04  0.50400001928E-02 0.  1.
    10030    2    1    2    0    0  0.00000000000E+00  0.00000000000E+00 -0.20465360092E+02  0.30477163397E+04  0.30476476267E+04 0.  0.
        5    1    3    3  502    0 -0.27897828193E+03  0.84357861405E+03 -0.12482279434E+04  0.15321712856E+04  0.46999998093E+01 0.  1.
       -5    1    3    3    0  502  0.27897828193E+03 -0.84357861405E+03  0.12277625833E+04  0.15155450540E+04  0.46999998093E+01 0. -1.
</event>
<event>
 5   0  0.1709858E-06  0.3028856E+04  0.7818609E-02  0.8235539E-01
       -1   -1    0    0    0  501  0.00000000000E+00  0.00000000000E+00  0.10967059194E+04  0.10967059194E+04  0.50400001928E-02 0. -1.
        1   -1    0    0  501    0  0.00000000000E+00  0.00000000000E+00 -0.20912553972E+04  0.20912553972E+04  0.50400001928E-02 0.  1.
    10030    2    1    2    0    0  0.00000000000E+00  0.00000000000E+00 -0.99454947782E+03  0.31879613165E+04  0.30288560038E+04 0.  0.
        3    1    3    3  502    0 -0.10552820433E+04 -0.90599341734E+03  0.13340751549E+03  0.13972264808E+04  0.10100000352E+00 0. -1.
       -3    1    3    3    0  502  0.10552820433E+04  0.90599341734E+03 -0.11279569933E+04  0.17907348358E+04  0.10100000352E+00 0.  1.
</event>
<event>
 5   0  0.5003556E-06  0.3084951E+04  0.7818609E-02  0.8219880E-01
       -2   -1    0    0    0  501  0.00000000000E+00  0.00000000000E+00  0.17842238563E+04  0.17842238563E+04  0.25500000920E-02 0.  1.
        2   -1    0    0  501    0  0.00000000000E+00  0.00000000000E+00 -0.13334819337E+04  0.13334819337E+04  0.25500000920E-02 0. -1.
    10030    2    1    2    0    0  0.00000000000E+00  0.00000000000E+00  0.45074192255E+03  0.31177057900E+04  0.30849507471E+04 0.  0.
        3    1    3    3  502    0  0.87185697649E+03 -0.28971782399E+03 -0.10267999584E+04  0.13778204418E+04  0.10100000352E+00 0. -1.
       -3    1    3    3    0  502 -0.87185697649E+03  0.28971782399E+03  0.14775418809E+04  0.17398853483E+04  0.10100000352E+00 0.  1.
</event>
<event>
 5   0  0.5003556E-06  0.3009400E+04  0.7818609E-02  0.8241052E-01
        2   -1    0    0  501    0  0.00000000000E+00  0.00000000000E+00  0.20760604897E+04  0.20760604897E+04  0.25500000920E-02 0.  1.
       -2   -1    0    0    0  501  0.00000000000E+00  0.00000000000E+00 -0.10905855492E+04  0.10905855492E+04  0.25500000920E-02 0. -1.
    10030    2    1    2    0    0  0.00000000000E+00  0.00000000000E+00  0.98547494048E+03  0.31666460390E+04  0.30093996540E+04 0.  0.
        3    1    3    3  502    0 -0.92490942627E+03  0.37924215600E+03  0.16761532740E+04  0.19516075086E+04  0.10100000352E+00 0.  1.
       -3    1    3    3    0  502  0.92490942627E+03 -0.37924215600E+03 -0.69067833348E+03  0.12150385303E+04  0.10100000352E+00 0. -1.
</event>
<event>
 5   0  0.1700885E-06  0.3023124E+04  0.7818609E-02  0.8237158E-01
        1   -1    0    0  501    0  0.00000000000E+00  0.00000000000E+00  0.27779754492E+04  0.27779754492E+04  0.50400001928E-02 0.  1.
       -1   -1    0    0    0  501  0.00000000000E+00  0.00000000000E+00 -0.82247662930E+03  0.82247662931E+03  0.50400001928E-02 0. -1.
    10030    2    1    2    0    0  0.00000000000E+00  0.00000000000E+00  0.19554988199E+04  0.36004520785E+04  0.30231241349E+04 0.  0.
        1    1    3    3  502    0  0.72683014352E+03 -0.13247075274E+04  0.92882104989E+03  0.17736517791E+04  0.50400001928E-02 0. -1.
       -1    1    3    3    0  502 -0.72683014352E+03  0.13247075274E+04  0.10266777700E+04  0.18268002995E+04  0.50400001928E-02 0.  1.
</event>
<event>
 5   0  0.4768570E-06  0.2996456E+04  0.7818609E-02  0.8244744E-01
       -2   -1    0    0    0  501  0.00000000000E+00  0.00000000000E+00  0.99605053915E+03  0.99605053915E+03  0.25500000920E-02 0.  1.
        2   -1    0    0  501    0  0.00000000000E+00  0.00000000000E+00 -0.22535877603E+04  0.22535877603E+04  0.25500000920E-02 0. -1.
    10030    2    1    2    0    0  0.00000000000E+00  0.00000000000E+00 -0.12575372211E+04  0.32496382994E+04  0.29964561092E+04 0.  0.
        1    1    3    3  502    0 -0.19419159405E+03 -0.46327256791E+03  0.90200341003E+03  0.10324446712E+04  0.50400001928E-02 0.  1.
       -1    1    3    3    0  502  0.19419159405E+03  0.46327256791E+03 -0.21595406312E+04  0.22171936282E+04  0.50400001928E-02 0. -1.
</event>
<event>
 5   0  0.1686012E-06  0.2990208E+04  0.7818609E-02  0.8246533E-01
       -1   -1    0    0    0  501  0.00000000000E+00  0.00000000000E+00  0.10895606337E+04  0.10895606337E+04  0.50400001928E-02 0.  1.
        1   -1    0    0  501    0  0.00000000000E+00  0.00000000000E+00 -0.20515935544E+04  0.20515935545E+04  0.50400001928E-02 0. -1.
    10030    2    1    2    0    0  0.00000000000E+00  0.00000000000E+00 -0.96203292080E+03  0.31411541881E+04  0.29902077341E+04 0.  0.
        4    1    3    3  502    0  0.11485720055E+04  0.19349601938E+03 -0.14657124690E+04  0.18721573160E+04  0.12699999809E+01 0. -1.
       -4    1    3    3    0  502 -0.11485720055E+04 -0.19349601938E+03  0.50367954816E+03  0.12689968721E+04  0.12699999809E+01 0.  1.
</event>
<event>
 5   0  0.1700885E-06  0.2999994E+04  0.7818609E-02  0.8243733E-01
        1   -1    0    0  501    0  0.00000000000E+00  0.00000000000E+00  0.14213583728E+04  0.14213583729E+04  0.50400001928E-02 0.  1.
       -1   -1    0    0    0  501  0.00000000000E+00  0.00000000000E+00 -0.15829867469E+04  0.15829867469E+04  0.50400001928E-02 0. -1.
    10030    2    1    2    0    0  0.00000000000E+00  0.00000000000E+00 -0.16162837407E+03  0.30043451198E+04  0.29999943112E+04 0.  0.
        1    1    3    3  502    0  0.65261177363E+03 -0.13973065473E+03  0.12644748896E+04  0.14297984226E+04  0.50400001928E-02 0.  1.
       -1    1    3    3    0  502 -0.65261177363E+03  0.13973065473E+03 -0.14261032636E+04  0.15745466972E+04  0.50400001928E-02 0. -1.
</event>
<event>
 5   0  0.1734885E-06  0.2900260E+04  0.7818609E-02  0.8272800E-01
       -1   -1    0    0    0  501  0.00000000000E+00  0.00000000000E+00  0.15996511313E+04  0.15996511313E+04  0.50400001928E-02 0. -1.
        1   -1    0    0  501    0  0.00000000000E+00  0.00000000000E+00 -0.13145844819E+04  0.13145844819E+04  0.50400001928E-02 0.  1.
    10030    2    1    2    0    0  0.00000000000E+00  0.00000000000E+00  0.28506664944E+03  0.29142356132E+04  0.29002596806E+04 0.  0.
        2    1    3    3  502    0 -0.21632468522E+03  0.56203802528E+03  0.14680541031E+04  0.15867784852E+04  0.25500000920E-02 0. -1.
       -2    1    3    3    0  502  0.21632468522E+03 -0.56203802528E+03 -0.11829874537E+04  0.13274571281E+04  0.25500000920E-02 0.  1.
</event>
<event>
 5   0  0.4768570E-06  0.2965162E+04  0.7818609E-02  0.8253750E-01
       -2   -1    0    0    0  501  0.00000000000E+00  0.00000000000E+00  0.17022961620E+04  0.17022961620E+04  0.25500000920E-02 0.  1.
        2   -1    0    0  501    0  0.00000000000E+00  0.00000000000E+00 -0.12912244602E+04  0.12912244602E+04  0.25500000920E-02 0. -1.
    10030    2    1    2    0    0  0.00000000000E+00  0.00000000000E+00  0.41107170180E+03  0.29935206223E+04  0.29651620144E+04 0.  0.
        1    1    3    3  502    0  0.94864858315E+03 -0.92724361135E+03  0.87393396176E+03  0.15885450635E+04  0.50400001928E-02 0.  1.
       -1    1    3    3    0  502 -0.94864858315E+03  0.92724361135E+03 -0.46286225996E+03  0.14049755588E+04  0.50400001928E-02 0. -1.
</event>
<event>
 5   0  0.1686012E-06  0.2943713E+04  0.7818609E-02  0.8259989E-01
       -1   -1    0    0    0  501  0.00000000000E+00  0.00000000000E+00  0.11772233065E+04  0.11772233065E+04  0.50400001928E-02 0.  1.
        1   -1    0    0  501    0  0.00000000000E+00  0.00000000000E+00 -0.18402303182E+04  0.18402303182E+04  0.50400001928E-02 0. -1.
    10030    2    1    2    0    0  0.00000000000E+00  0.00000000000E+00 -0.66300701168E+03  0.30174536247E+04  0.29437133148E+04 0.  0.
        4    1    3    3  502    0 -0.61885217280E+03  0.55604669537E+03  0.91307552762E+03  0.12352629158E+04  0.12699999809E+01 0.  1.
       -4    1    3    3    0  502  0.61885217280E+03 -0.55604669537E+03 -0.15760825393E+04  0.17821907089E+04  0.12699999809E+01 0. -1.
</event>
<event>
 5   0  0.1734885E-06  0.3017591E+04  0.7818609E-02  0.8238725E-01
       -1   -1    0    0    0  501  0.00000000000E+00  0.00000000000E+00  0.16756640062E+04  0.16756640062E+04  0.50400001928E-02 0.  1.
        1   -1    0    0  501    0  0.00000000000E+00  0.00000000000E+00 -0.13585443453E+04  0.13585443453E+04  0.50400001928E-02 0. -1.
    10030    2    1    2    0    0  0.00000000000E+00  0.00000000000E+00  0.31711966093E+03  0.30342083515E+04  0.30175909996E+04 0.  0.
        2    1    3    3  502    0  0.12043795476E+04  0.72579163459E+03  0.70852727366E+03  0.15745839098E+04  0.25500000920E-02 0. -1.
       -2    1    3    3    0  502 -0.12043795476E+04 -0.72579163459E+03 -0.39140761273E+03  0.14596244417E+04  0.25500000920E-02 0.  1.
</event>
<event>
 5   0  0.4702748E-06  0.2990049E+04  0.7818609E-02  0.8246578E-01
       -2   -1    0    0    0  501  0.00000000000E+00  0.00000000000E+00  0.22565179372E+04  0.22565179372E+04  0.25500000920E-02 0. -1.
        2   -1    0    0  501    0  0.00000000000E+00  0.00000000000E+00 -0.99050748976E+03  0.99050748976E+03  0.25500000920E-02 0.  1.
    10030    2    1    2    0    0  0.00000000000E+00  0.00000000000E+00  0.12660104474E+04  0.32470254269E+04  0.29900487739E+04 0.  0.
        2    1    3    3  502    0  0.13572627490E+04 -0.54273264761E+03  0.29239768941E+03  0.14907103358E+04  0.25500000920E-02 0.  1.
       -2    1    3    3    0  502 -0.13572627490E+04  0.54273264761E+03  0.97361275799E+03  0.17563150911E+04  0.25500000920E-02 0. -1.
</event>
<event>
 5   0  0.1709858E-06  0.2610047E+04  0.7818609E-02  0.8364796E-01
        1   -1    0    0  501    0  0.00000000000E+00  0.00000000000E+00  0.24823947838E+04  0.24823947838E+04  0.50400001928E-02 0. -1.
       -1   -1    0    0    0  501  0.00000000000E+00  0.00000000000E+00 -0.68606588271E+03  0.68606588273E+03  0.50400001928E-02 0.  1.
    10030    2    1    2    0    0  0.00000000000E+00  0.00000000000E+00  0.17963289011E+04  0.31684606666E+04  0.26100470254E+04 0.  0.
        3    1    3    3  502    0 -0.66695735866E+03 -0.32579731158E+03  0.22011722865E+04  0.23229583405E+04  0.10100000352E+00 0. -1.
       -3    1    3    3    0  502  0.66695735866E+03  0.32579731158E+03 -0.40484338540E+03  0.84550232608E+03  0.10100000352E+00 0.  1.
</event>
<event>
 5   0  0.4935331E-06  0.2994703E+04  0.7818609E-02  0.8245245E-01
       -2   -1    0    0    0  501  0.00000000000E+00  0.00000000000E+00  0.87454397689E+03  0.87454397689E+03  0.25500000920E-02 0. -1.
        2   -1    0    0  501    0  0.00000000000E+00  0.00000000000E+00 -0.25636924272E+04  0.25636924272E+04  0.25500000920E-02 0.  1.
    10030    2    1    2    0    0  0.00000000000E+00  0.00000000000E+00 -0.16891484503E+04  0.34382364041E+04  0.29947031711E+04 0.  0.
        5    1    3    3  502    0  0.51195131852E+03 -0.11837809449E+04  0.28747461716E+02  0.12900697596E+04  0.46999998093E+01 0. -1.
       -5    1    3    3    0  502 -0.51195131852E+03  0.11837809449E+04 -0.17178959120E+04  0.21481666445E+04  0.46999998093E+01 0.  1.
</event>
<event>
 5   0  0.1709858E-06  0.2990940E+04  0.7818609E-02  0.8246323E-01
        1   -1    0    0  501    0  0.00000000000E+00  0.00000000000E+00  0.18232517833E+04  0.18232517833E+04  0.50400001928E-02 0.  1.
       -1   -1    0    0    0  501  0.00000000000E+00  0.00000000000E+00 -0.12266167286E+04  0.12266167286E+04  0.50400001928E-02 0. -1.
    10030    2    1    2    0    0  0.00000000000E+00  0.00000000000E+00  0.59663505471E+03  0.30498685118E+04  0.29909404125E+04 0.  0.
        3    1    3    3  502    0  0.41852420581E+03 -0.10779931352E+04 -0.66862656350E+03  0.13357743829E+04  0.10100000352E+00 0. -1.
       -3    1    3    3    0  502 -0.41852420581E+03  0.10779931352E+04  0.12652616182E+04  0.17140941290E+04  0.10100000352E+00 0.  1.
</event>
<event>
 5   0  0.4702748E-06  0.3010021E+04  0.7818609E-02  0.8240875E-01
        2   -1    0    0  501    0  0.00000000000E+00  0.00000000000E+00  0.11319133939E+04  0.11319133939E+04  0.25500000920E-02 0.  1.
       -2   -1    0    0    0  501  0.00000000000E+00  0.00000000000E+00 -0.20010864169E+04  0.20010864169E+04  0.25500000920E-02 0. -1.
    10030    2    1    2    0    0  0.00000000000E+00  0.00000000000E+00 -0.86917302295E+03  0.31329998108E+04  0.30100209419E+04 0.  0.
        2    1    3    3  502    0 -0.66690568328E+03 -0.10573488279E+04  0.43769021098E+03  0.13245083824E+04  0.25500000920E-02 0.  1.
       -2    1    3    3    0  502  0.66690568328E+03  0.10573488279E+04 -0.13068632339E+04  0.18084914284E+04  0.25500000920E-02 0. -1.
</event>
<event>
 5   0  0.4702748E-06  0.2990310E+04  0.7818609E-02  0.8246503E-01
        2   -1    0    0  501    0  0.00000000000E+00  0.00000000000E+00  0.20417823053E+04  0.20417823053E+04  0.25500000920E-02 0.  1.
       -2   -1    0    0    0  501  0.00000000000E+00  0.00000000000E+00 -0.10948711333E+04  0.10948711333E+04  0.25500000920E-02 0. -1.
    10030    2    1    2    0    0  0.00000000000E+00  0.00000000000E+00  0.94691117198E+03  0.31366534386E+04  0.29903100217E+04 0.  0.
        2    1    3    3  502    0 -0.10112409897E+04 -0.48597501238E+03  0.15101071193E+04  0.18812771098E+04  0.25500000920E-02 0.  1.
       -2    1    3    3    0  502  0.10112409897E+04  0.48597501238E+03 -0.56319594734E+03  0.12553763288E+04  0.25500000920E-02 0. -1.
</event>
<event>
 5   0  0.1700885E-06  0.3005604E+04  0.7818609E-02  0.8242132E-01
       -1   -1    0    0    0  501  0.00000000000E+00  0.00000000000E+00  0.99344698902E+03  0.99344698903E+03  0.50400001928E-02 0.  1.
        1   -1    0    0  501    0  0.00000000000E+00  0.00000000000E+00 -0.22733111440E+04  0.22733111440E+04  0.50400001928E-02 0. -1.
    10030    2    1    2    0    0  0.00000000000E+00  0.00000000000E+00 -0.12798641550E+04  0.32667581330E+04  0.30056041730E+04 0.  0.
        1    1    3    3  502    0  0.49324432870E+03  0.41433402681E+03  0.83577802032E+03  0.10552191966E+04  0.50400001928E-02 0.  1.
       -1    1    3    3    0  502 -0.49324432870E+03 -0.41433402681E+03 -0.21156421753E+04  0.22115389365E+04  0.50400001928E-02 0. -1.
</event>
<event>
 5   0  0.5003556E-06  0.3024575E+04  0.7818609E-02  0.8236748E-01
       -2   -1    0    0    0  501  0.00000000000E+00  0.00000000000E+00  0.76741028986E+03  0.76741028986E+03  0.25500000920E-02 0. -1.
        2   -1    0    0  501    0  0.00000000000E+00  0.00000000000E+00 -0.29801710496E+04  0.29801710496E+04  0.25500000920E-02 0.  1.
    10030    2    1    2    0    0  0.00000000000E+00  0.00000000000E+00 -0.22127607597E+04  0.37475813394E+04  0.30245752951E+04 0.  0.
        3    1    3    3  502    0 -0.43331145690E+03  0.13453658149E+04 -0.17727578285E+04  0.22672534757E+04  0.10100000352E+00 0.  1.
       -3    1    3    3    0  502  0.43331145690E+03 -0.13453658149E+04 -0.44000293127E+03  0.14803278638E+04  0.10100000352E+00 0. -1.
</event>
<event>
 5   0  0.4702748E-06  0.2996116E+04  0.7818609E-02  0.8244841E-01
        2   -1    0    0  501    0  0.00000000000E+00  0.00000000000E+00  0.17281058215E+04  0.17281058215E+04  0.25500000920E-02 0. -1.
       -2   -1    0    0    0  501  0.00000000000E+00  0.00000000000E+00 -0.12986343174E+04  0.12986343174E+04  0.25500000920E-02 0.  1.
    10030    2    1    2    0    0  0.00000000000E+00  0.00000000000E+00  0.42947150412E+03  0.30267401389E+04  0.29961158348E+04 0.  0.
        2    1    3    3  502    0 -0.14524613502E+03 -0.12218699609E+04 -0.64846564960E+03  0.13908883276E+04  0.25500000920E-02 0.  1.
       -2    1    3    3    0  502  0.14524613502E+03  0.12218699609E+04  0.10779371537E+04  0.16358518113E+04  0.25500000920E-02 0. -1.
</event>
<event>
 5   0  0.1709858E-06  0.2984850E+04  0.7818609E-02  0.8248070E-01
        1   -1    0    0  501    0  0.00000000000E+00  0.00000000000E+00  0.18747753971E+04  0.18747753971E+04  0.50400001928E-02 0.  1.
       -1   -1    0    0    0  501  0.00000000000E+00  0.00000000000E+00 -0.11880528352E+04  0.11880528352E+04  0.50400001928E-02 0. -1.
    10030    2    1    2    0    0  0.00000000000E+00  0.00000000000E+00  0.68672256187E+03  0.30628282323E+04  0.29848498964E+04 0.  0.
        3    1    3    3  502    0 -0.87465263377E+03 -0.12090458858E+04  0.31989391606E+03  0.15261524535E+04  0.10100000352E+00 0.  1.
       -3    1    3    3    0  502  0.87465263377E+03  0.12090458858E+04  0.36682864581E+03  0.15366757788E+04  0.10100000352E+00 0. -1.
</event>
<event>
 5   0  0.1672907E-06  0.3003237E+04  0.7818609E-02  0.8242807E-01
        1   -1    0    0  501    0  0.00000000000E+00  0.00000000000E+00  0.19869091527E+04  0.19869091527E+04  0.50400001928E-02 0.  1.
       -1   -1    0    0    0  501  0.00000000000E+00  0.00000000000E+00 -0.11348573031E+04  0.11348573031E+04  0.50400001928E-02 0. -1.
    10030    2    1    2    0    0  0.00000000000E+00  0.00000000000E+00  0.85205184964E+03  0.31217664558E+04  0.30032371618E+04 0.  0.
        5    1    3    3  502    0 -0.96181065444E+02  0.31396832584E+03 -0.10970717317E+04  0.11451704596E+04  0.46999998093E+01 0. -1.
       -5    1    3    3    0  502  0.96181065444E+02 -0.31396832584E+03  0.19491235813E+04  0.19765959962E+04  0.46999998093E+01 0.  1.
</event>
<event>
 5   0  0.1686012E-06  0.3008302E+04  0.7818609E-02  0.8241364E-01
        1   -1    0    0  501    0  0.00000000000E+00  0.00000000000E+00  0.19527242132E+04  0.19527242132E+04  0.50400001928E-02 0.  1.
       -1   -1    0    0    0  501  0.00000000000E+00  0.00000000000E+00 -0.11586226555E+04  0.11586226555E+04  0.50400001928E-02 0. -1.
    10030    2    1    2    0    0  0.00000000000E+00  0.00000000000E+00  0.79410155768E+03  0.31113468688E+04  0.30083021879E+04 0.  0.
        4    1    3    3  502    0 -0.68176648700E+03  0.27057145511E+03  0.17552167177E+04  0.19023148515E+04  0.12699999809E+01 0.  1.
       -4    1    3    3    0  502  0.68176648700E+03 -0.27057145511E+03 -0.96111516002E+03  0.12090320173E+04  0.12699999809E+01 0. -1.
</event>
<event>
 5   0  0.5003556E-06  0.3005459E+04  0.7818609E-02  0.8242174E-01
       -2   -1    0    0    0  501  0.00000000000E+00  0.00000000000E+00  0.88818542525E+03  0.88818542526E+03  0.25500000920E-02 0.  1.
        2   -1    0    0  501    0  0.00000000000E+00  0.00000000000E+00 -0.25424817980E+04  0.25424817980E+04  0.25500000920E-02 0. -1.
    10030    2    1    2    0    0  0.00000000000E+00  0.00000000000E+00 -0.16542963727E+04  0.34306672232E+04  0.30054585520E+04 0.  0.
        3    1    3    3  502    0 -0.11585037441E+04 -0.54098824675E+03  0.74111356669E+02  0.12807387367E+04  0.10100000352E+00 0.  1.
       -3    1    3    3    0  502  0.11585037441E+04  0.54098824675E+03 -0.17284077294E+04  0.21499284866E+04  0.10100000352E+00 0. -1.
</event>
<event>
 5   0  0.4702748E-06  0.3014026E+04  0.7818609E-02  0.8239737E-01
        2   -1    0    0  501    0  0.00000000000E+00  0.00000000000E+00  0.11584794289E+04  0.11584794289E+04  0.25500000920E-02 0.  1.
       -2   -1    0    0    0  501  0.00000000000E+00  0.00000000000E+00 -0.19604040342E+04  0.19604040342E+04  0.25500000920E-02 0. -1.
    10030    2    1    2    0    0  0.00000000000E+00  0.00000000000E+00 -0.80192460535E+03  0.31188834631E+04  0.30140257105E+04 0.  0.
        2    1    3    3  502    0 -0.78958077550E+03 -0.88439324395E+03 -0.13636498709E+04  0.18069671224E+04  0.25500000920E-02 0. -1.
       -2    1    3    3    0  502  0.78958077550E+03  0.88439324395E+03  0.56172526557E+03  0.13119163407E+04  0.25500000920E-02 0.  1.
</event>
<event>
 5   0  0.4532420E-06  0.2998467E+04  0.7818609E-02  0.8244169E-01
        2   -1    0    0  501    0  0.00000000000E+00  0.00000000000E+00  0.19980554074E+04  0.19980554074E+04  0.25500000920E-02 0.  1.
       -2   -1    0    0    0  501  0.00000000000E+00  0.00000000000E+00 -0.11249440861E+04  0.11249440861E+04  0.25500000920E-02 0. -1.
    10030    2    1    2    0    0  0.00000000000E+00  0.00000000000E+00  0.87311132134E+03  0.31229994935E+04  0.29984666843E+04 0.  0.
        4    1    3    3  502    0  0.11977453560E+03 -0.69495125127E+03 -0.94141769379E+03  0.11762534030E+04  0.12699999809E+01 0. -1.
       -4    1    3    3    0  502 -0.11977453560E+03  0.69495125127E+03  0.18145290151E+04  0.19467460904E+04  0.12699999809E+01 0.  1.
</event>
<event>
 5   0  0.1734885E-06  0.3009099E+04  0.7818609E-02  0.8241137E-01
       -1   -1    0    0    0  501  0.00000000000E+00  0.00000000000E+00  0.23245661147E+04  0.23245661147E+04  0.50400001928E-02 0.  1.
        1   -1    0    0  501    0  0.00000000000E+00  0.00000000000E+00 -0.97380306994E+03  0.97380306995E+03  0.50400001928E-02 0. -1.
    10030    2    1    2    0    0  0.00000000000E+00  0.00000000000E+00  0.13507630447E+04  0.32983691846E+04  0.30090992797E+04 0.  0.
        2    1    3    3  502    0 -0.12943735556E+04 -0.73444607839E+03  0.91766302442E+03  0.17484048072E+04  0.25500000920E-02 0.  1.
       -2    1    3    3    0  502  0.12943735556E+04  0.73444607839E+03  0.43310002030E+03  0.15499643774E+04  0.25500000920E-02 0. -1.
</event>
<event>
 5   0  0.4768570E-06  0.2955673E+04  0.7818609E-02  0.8256503E-01
        2   -1    0    0  501    0  0.00000000000E+00  0.00000000000E+00  0.27315757743E+04  0.27315757743E+04  0.25500000920E-02 0.  1.
       -2   -1    0    0    0  501  0.00000000000E+00  0.00000000000E+00 -0.79953886355E+03  0.79953886356E+03  0.25500000920E-02 0. -1.
    10030    2    1    2    0    0  0.00000000000E+00  0.00000000000E+00  0.19320369107E+04  0.35311146378E+04  0.29556731824E+04 0.  0.
        1    1    3    3  502    0 -0.13846763325E+04  0.35121313676E+03  0.51373417034E+03  0.15180915687E+04  0.50400001928E-02 0. -1.
       -1    1    3    3    0  502  0.13846763325E+04 -0.35121313676E+03  0.14183027404E+04  0.20130230691E+04  0.50400001928E-02 0.  1.
</event>
<event>
 5   0  0.4702748E-06  0.2801611E+04  0.7818609E-02  0.8302768E-01
       -2   -1    0    0    0  501  0.00000000000E+00  0.00000000000E+00  0.10371841723E+04  0.10371841723E+04  0.25500000920E-02 0. -1.
        2   -1    0    0  501    0  0.00000000000E+00  0.00000000000E+00 -0.18919076186E+04  0.18919076186E+04  0.25500000920E-02 0.  1.
    10030    2    1    2    0    0  0.00000000000E+00  0.00000000000E+00 -0.85472344631E+03  0.29290917909E+04  0.28016114202E+04 0.  0.
        2    1    3    3  502    0  0.13036998485E+04  0.29347898495E+03  0.11865603174E+02  0.13363771931E+04  0.25500000920E-02 0. -1.
       -2    1    3    3    0  502 -0.13036998485E+04 -0.29347898495E+03 -0.86658904948E+03  0.15927145979E+04  0.25500000920E-02 0.  1.
</event>
<event>
 5   0  0.1700885E-06  0.2996922E+04  0.7818609E-02  0.8244610E-01
        1   -1    0    0  501    0  0.00000000000E+00  0.00000000000E+00  0.16160568478E+04  0.16160568478E+04  0.50400001928E-02 0. -1.
       -1   -1    0    0    0  501  0.00000000000E+00  0.00000000000E+00 -0.13894226941E+04  0.13894226941E+04  0.50400001928E-02 0.  1.
    10030    2    1    2    0    0  0.00000000000E+00  0.00000000000E+00  0.22663415374E+03  0.30054795419E+04  0.29969224610E+04 0.  0.
        1    1    3    3  502    0  0.20805359131E+03 -0.11363144597E+04  0.10704473407E+04  0.15749140794E+04  0.50400001928E-02 0. -1.
       -1    1    3    3    0  502 -0.20805359131E+03  0.11363144597E+04 -0.84381318698E+03  0.14305654626E+04  0.50400001928E-02 0.  1.
</event>
<event>
 5   0  0.1672907E-06  0.3004142E+04  0.7818609E-02  0.8242549E-01
        1   -1    0    0  501    0  0.00000000000E+00  0.00000000000E+00  0.12906599035E+04  0.12906599035E+04  0.50400001928E-02 0.  1.
       -1   -1    0    0    0  501  0.00000000000E+00  0.00000000000E+00 -0.17481111352E+04  0.17481111352E+04  0.50400001928E-02 0. -1.
    10030    2    1    2    0    0  0.00000000000E+00  0.00000000000E+00 -0.45745123168E+03  0.30387710387E+04  0.30041417737E+04 0.  0.
        5    1    3    3  502    0  0.14979418724E+04 -0.42029335611E+02 -0.12458968723E+03  0.15037090804E+04  0.46999998093E+01 0.  1.
       -5    1    3    3    0  502 -0.14979418724E+04  0.42029335611E+02 -0.33286154446E+03  0.15350619584E+04  0.46999998093E+01 0. -1.
</event>
<event>
 5   0  0.1686012E-06  0.2987484E+04  0.7818609E-02  0.8247314E-01
        1   -1    0    0  501    0  0.00000000000E+00  0.00000000000E+00  0.18929091238E+04  0.18929091239E+04  0.50400001928E-02 0. -1.
       -1   -1    0    0    0  501  0.00000000000E+00  0.00000000000E+00 -0.11787491561E+04  0.11787491561E+04  0.50400001928E-02 0.  1.
    10030    2    1    2    0    0  0.00000000000E+00  0.00000000000E+00  0.71415996776E+03  0.30716582799E+04  0.29874839128E+04 0.  0.
        4    1    3    3  502    0 -0.13369549975E+04  0.65778535070E+03  0.46556682479E+03  0.15610523099E+04  0.12699999809E+01 0. -1.
       -4    1    3    3    0  502  0.13369549975E+04 -0.65778535070E+03  0.24859314297E+03  0.15106059700E+04  0.12699999809E+01 0.  1.
</event>
<event>
 5   0  0.1709858E-06  0.3001697E+04  0.7818609E-02  0.8243247E-01
        1   -1    0    0  501    0  0.00000000000E+00  0.00000000000E+00  0.17107727412E+04  0.17107727412E+04  0.50400001928E-02 0. -1.
       -1   -1    0    0    0  501  0.00000000000E+00  0.00000000000E+00 -0.13166832833E+04  0.13166832833E+04  0.50400001928E-02 0.  1.
    10030    2    1    2    0    0  0.00000000000E+00  0.00000000000E+00  0.39408945792E+03  0.30274560244E+04  0.30016967667E+04 0.  0.
        3    1    3    3  502    0  0.11866924329E+04  0.52161154246E+03 -0.56590461318E+03  0.14144135085E+04  0.10100000352E+00 0.  1.
       -3    1    3    3    0  502 -0.11866924329E+04 -0.52161154246E+03  0.95999407111E+03  0.16130425160E+04  0.10100000352E+00 0. -1.
</event>
<event>
 5   0  0.5003556E-06  0.2980907E+04  0.7818609E-02  0.8249204E-01
        2   -1    0    0  501    0  0.00000000000E+00  0.00000000000E+00  0.16210418584E+04  0.16210418584E+04  0.25500000920E-02 0. -1.
       -2   -1    0    0    0  501  0.00000000000E+00  0.00000000000E+00 -0.13703850616E+04  0.13703850616E+04  0.25500000920E-02 0.  1.
    10030    2    1    2    0    0  0.00000000000E+00  0.00000000000E+00  0.25065679678E+03  0.29914269201E+04  0.29809069406E+04 0.  0.
        3    1    3    3  502    0  0.87438879030E+03 -0.11980874303E+04  0.27241403483E+03  0.15080380180E+04  0.10100000352E+00 0.  1.
       -3    1    3    3    0  502 -0.87438879030E+03  0.11980874303E+04 -0.21757238050E+02  0.14833889021E+04  0.10100000352E+00 0. -1.
</event>
<event>
 5   0  0.1686012E-06  0.3018747E+04  0.7818609E-02  0.8238398E-01
        1   -1    0    0  501    0  0.00000000000E+00  0.00000000000E+00  0.13047139324E+04  0.13047139324E+04  0.50400001928E-02 0.  1.
       -1   -1    0    0    0  501  0.00000000000E+00  0.00000000000E+00 -0.17461365935E+04  0.17461365935E+04  0.50400001928E-02 0. -1.
    10030    2    1    2    0    0  0.00000000000E+00  0.00000000000E+00 -0.44142266106E+03  0.30508505259E+04  0.30187472511E+04 0.  0.
        4    1    3    3  502    0 -0.64554501997E+03  0.20806608901E+03  0.11420301719E+04  0.13282523844E+04  0.12699999809E+01 0.  1.
       -4    1    3    3    0  502  0.64554501997E+03 -0.20806608901E+03 -0.15834528330E+04  0.17225981416E+04  0.12699999809E+01 0. -1.
</event>
<event>
 5   0  0.4768570E-06  0.2993625E+04  0.7818609E-02  0.8245554E-01
       -2   -1    0    0    0  501  0.00000000000E+00  0.00000000000E+00  0.13350575027E+04  0.13350575027E+04  0.25500000920E-02 0. -1.
        2   -1    0    0  501    0  0.00000000000E+00  0.00000000000E+00 -0.16781654199E+04  0.16781654199E+04  0.25500000920E-02 0.  1.
    10030    2    1    2    0    0  0.00000000000E+00  0.00000000000E+00 -0.34310791724E+03  0.30132229227E+04  0.29936247826E+04 0.  0.
        1    1    3    3  502    0 -0.82358662609E+03  0.12280993435E+04  0.62182566676E+02  0.14799964865E+04  0.50400001928E-02 0. -1.
       -1    1    3    3    0  502  0.82358662609E+03 -0.12280993435E+04 -0.40529048391E+03  0.15332264362E+04  0.50400001928E-02 0.  1.
</event>
<event>
 5   0  0.1734885E-06  0.3035742E+04  0.7818609E-02  0.8233598E-01
        1   -1    0    0  501    0  0.00000000000E+00  0.00000000000E+00  0.17692167663E+04  0.17692167663E+04  0.50400001928E-02 0. -1.
       -1   -1    0    0    0  501  0.00000000000E+00  0.00000000000E+00 -0.13022326766E+04  0.13022326766E+04  0.50400001928E-02 0.  1.
    10030    2    1    2    0    0  0.00000000000E+00  0.00000000000E+00  0.46698408973E+03  0.30714494429E+04  0.30357416787E+04 0.  0.
        2    1    3    3  502    0 -0.13961174236E+04  0.49576982990E+03 -0.10054328643E+03  0.14849378900E+04  0.25500000920E-02 0.  1.
       -2    1    3    3    0  502  0.13961174236E+04 -0.49576982990E+03  0.56752737616E+03  0.15865115529E+04  0.25500000920E-02 0. -1.
</event>
<event>
 5   0  0.1709858E-06  0.2975239E+04  0.7818609E-02  0.8250837E-01
       -1   -1    0    0    0  501  0.00000000000E+00  0.00000000000E+00  0.16251676000E+04  0.16251676000E+04  0.50400001928E-02 0.  1.
        1   -1    0    0  501    0  0.00000000000E+00  0.00000000000E+00 -0.13617125410E+04  0.13617125410E+04  0.50400001928E-02 0. -1.
    10030    2    1    2    0    0  0.00000000000E+00  0.00000000000E+00  0.26345505902E+03  0.29868801410E+04  0.29752385465E+04 0.  0.
        3    1    3    3  502    0 -0.10141590859E+04  0.47285920375E+03  0.11158164332E+04  0.15802407414E+04  0.10100000352E+00 0.  1.
       -3    1    3    3    0  502  0.10141590859E+04 -0.47285920375E+03 -0.85236137414E+03  0.14066393996E+04  0.10100000352E+00 0. -1.
</event>
<event>
 5   0  0.4532420E-06  0.2967769E+04  0.7818609E-02  0.8252995E-01
       -2   -1    0    0    0  501  0.00000000000E+00  0.00000000000E+00  0.89837458206E+03  0.89837458206E+03  0.25500000920E-02 0.  1.
        2   -1    0    0  501    0  0.00000000000E+00  0.00000000000E+00 -0.24509961859E+04  0.24509961859E+04  0.25500000920E-02 0. -1.
    10030    2    1    2    0    0  0.00000000000E+00  0.00000000000E+00 -0.15526216038E+04  0.33493707679E+04  0.29677686393E+04 0.  0.
        4    1    3    3  502    0 -0.13419523200E+04 -0.28913041063E+03 -0.14122131644E+04  0.19694618701E+04  0.12699999809E+01 0. -1.
       -4    1    3    3    0  502  0.13419523200E+04  0.28913041063E+03 -0.14040843947E+03  0.13799088978E+04  0.12699999809E+01 0.  1.
</event>
<event>
 5   0  0.1686012E-06  0.2977814E+04  0.7818609E-02  0.8250095E-01
        1   -1    0    0  501    0  0.00000000000E+00  0.00000000000E+00  0.19279718416E+04  0.19279718416E+04  0.50400001928E-02 0. -1.
       -1   -1    0    0    0  501  0.00000000000E+00  0.00000000000E+00 -0.11498320885E+04  0.11498320885E+04  0.50400001928E-02 0.  1.
    10030    2    1    2    0    0  0.00000000000E+00  0.00000000000E+00  0.77813975315E+03  0.30778039301E+04  0.29778138889E+04 0.  0.
        4    1    3    3  502    0  0.61647709471E+03 -0.11246146678E+04 -0.39265987702E+03  0.13412626705E+04  0.12699999809E+01 0.  1.
       -4    1    3    3    0  502 -0.61647709471E+03  0.11246146678E+04  0.11707996302E+04  0.17365412596E+04  0.12699999809E+01 0. -1.
</event>
<event>
 5   0  0.4702748E-06  0.3041826E+04  0.7818609E-02  0.8231887E-01
        2   -1    0    0  501    0  0.00000000000E+00  0.00000000000E+00  0.13219814819E+04  0.13219814819E+04  0.25500000920E-02 0.  1.
       -2   -1    0    0    0  501  0.00000000000E+00  0.00000000000E+00 -0.17497798700E+04  0.17497798700E+04  0.25500000920E-02 0. -1.
    10030    2    1    2    0    0  0.00000000000E+00  0.00000000000E+00 -0.42779838812E+03  0.30717613519E+04  0.30418261525E+04 0.  0.
        2    1    3    3  502    0  0.12940288594E+03  0.13968021873E+04 -0.80736897788E+03  0.16185320892E+04  0.25500000920E-02 0. -1.
       -2    1    3    3    0  502 -0.12940288594E+03 -0.13968021873E+04  0.37957058976E+03  0.14532292627E+04  0.25500000920E-02 0.  1.
</event>
<event>
 5   0  0.1672907E-06  0.3012533E+04  0.7818609E-02  0.8240161E-01
        1   -1    0    0  501    0  0.00000000000E+00  0.00000000000E+00  0.14037414817E+04  0.14037414817E+04  0.50400001928E-02 0.  1.
       -1   -1    0    0    0  501  0.00000000000E+00  0.00000000000E+00 -0.16162793708E+04  0.16162793708E+04  0.50400001928E-02 0. -1.
    10030    2    1    2    0    0  0.00000000000E+00  0.00000000000E+00 -0.21253788910E+03  0.30200208526E+04  0.30125327543E+04 0.  0.
        5    1    3    3  502    0 -0.92308475543E+03 -0.84341621682E+03  0.73568766955E+03  0.14507566362E+04  0.46999998093E+01 0.  1.
       -5    1    3    3    0  502  0.92308475543E+03  0.84341621682E+03 -0.94822555865E+03  0.15692642163E+04  0.46999998093E+01 0. -1.
</event>
<event>
 5   0  0.5003556E-06  0.3014512E+04  0.7818609E-02  0.8239599E-01
        2   -1    0    0  501    0  0.00000000000E+00  0.00000000000E+00  0.23524870962E+04  0.23524870962E+04  0.25500000920E-02 0. -1.
       -2   -1    0    0    0  501  0.00000000000E+00  0.00000000000E+00 -0.96571040069E+03  0.96571040069E+03  0.25500000920E-02 0.  1.
    10030    2    1    2    0    0  0.00000000000E+00  0.00000000000E+00  0.13867766955E+04  0.33181974969E+04  0.30145124025E+04 0.  0.
        3    1    3    3  502    0 -0.41332549468E+03 -0.13590478908E+04  0.13866279495E+03  0.14272618943E+04  0.10100000352E+00 0.  1.
       -3    1    3    3    0  502  0.41332549468E+03  0.13590478908E+04  0.12481139006E+04  0.18909356026E+04  0.10100000352E+00 0. -1.
</event>
<event>
 5   0  0.1734885E-06  0.3025780E+04  0.7818609E-02  0.8236407E-01
       -1   -1    0    0    0  501  0.00000000000E+00  0.00000000000E+00  0.16835569055E+04  0.16835569055E+04  0.50400001928E-02 0. -1.
        1   -1    0    0  501    0  0.00000000000E+00  0.00000000000E+00 -0.13595238259E+04  0.13595238259E+04  0.50400001928E-02 0.  1.
    10030    2    1    2    0    0  0.00000000000E+00  0.00000000000E+00  0.32403307959E+03  0.30430807314E+04  0.30257797179E+04 0.  0.
        2    1    3    3  502    0 -0.25723876087E+03  0.14867699542E+04  0.27300628335E+03  0.15333587667E+04  0.25500000920E-02 0. -1.
       -2    1    3    3    0  502  0.25723876087E+03 -0.14867699542E+04  0.51026796237E+02  0.15097219647E+04  0.25500000920E-02 0.  1.
</event>
<event>
 5   0  0.4702748E-06  0.2992964E+04  0.7818609E-02  0.8245743E-01
        2   -1    0    0  501    0  0.00000000000E+00  0.00000000000E+00  0.15378470206E+04  0.15378470206E+04  0.25500000920E-02 0. -1.
       -2   -1    0    0    0  501  0.00000000000E+00  0.00000000000E+00 -0.14562300759E+04  0.14562300759E+04  0.25500000920E-02 0.  1.
    10030    2    1    2    0    0  0.00000000000E+00  0.00000000000E+00  0.81616944742E+02  0.29940770965E+04  0.29929644726E+04 0.  0.
        2    1    3    3  502    0  0.13193817105E+04  0.63278430742E+03 -0.27279651198E+03  0.14884898437E+04  0.25500000920E-02 0.  1.
       -2    1    3    3    0  502 -0.13193817105E+04 -0.63278430742E+03  0.35441345672E+03  0.15055872529E+04  0.25500000920E-02 0. -1.
</event>
<event>
 5   0  0.4768570E-06  0.2658351E+04  0.7818609E-02  0.8348647E-01
       -2   -1    0    0    0  501  0.00000000000E+00  0.00000000000E+00  0.12871878335E+04  0.12871878335E+04  0.25500000920E-02 0.  1.
        2   -1    0    0  501    0  0.00000000000E+00  0.00000000000E+00 -0.13725326309E+04  0.13725326309E+04  0.25500000920E-02 0. -1.
    10030    2    1    2    0    0  0.00000000000E+00  0.00000000000E+00 -0.85344797354E+02  0.26597204645E+04  0.26583508449E+04 0.  0.
        1    1    3    3  502    0  0.77834562029E+03 -0.23577402728E+03  0.10091998504E+04  0.12961078792E+04  0.50400001928E-02 0.  1.
       -1    1    3    3    0  502 -0.77834562029E+03  0.23577402728E+03 -0.10945446478E+04  0.13636125852E+04  0.50400001928E-02 0. -1.
</event>
<event>
 5   0  0.1709858E-06  0.3007068E+04  0.7818609E-02  0.8241715E-01
       -1   -1    0    0    0  501  0.00000000000E+00  0.00000000000E+00  0.10330040827E+04  0.10330040828E+04  0.50400001928E-02 0.  1.
        1   -1    0    0  501    0  0.00000000000E+00  0.00000000000E+00 -0.21883886166E+04  0.21883886166E+04  0.50400001928E-02 0. -1.
    10030    2    1    2    0    0  0.00000000000E+00  0.00000000000E+00 -0.11553845339E+04  0.32213926994E+04  0.30070679245E+04 0.  0.
        3    1    3    3  502    0  0.79616860817E+03  0.42696636363E+03  0.70981185270E+03  0.11489201908E+04  0.10100000352E+00 0. -1.
       -3    1    3    3    0  502 -0.79616860817E+03 -0.42696636363E+03 -0.18651963866E+04  0.20724725086E+04  0.10100000352E+00 0.  1.
</event>
<event>
 5   0  0.1686012E-06  0.3167538E+04  0.7818609E-02  0.8197443E-01
        1   -1    0    0  501    0  0.00000000000E+00  0.00000000000E+00  0.16140972126E+04  0.16140972126E+04  0.50400001928E-02 0. -1.
       -1   -1    0    0    0  501  0.00000000000E+00  0.00000000000E+00 -0.15540108555E+04  0.15540108555E+04  0.50400001928E-02 0.  1.
    10030    2    1    2    0    0  0.00000000000E+00  0.00000000000E+00  0.60086357095E+02  0.31681080681E+04  0.31675382178E+04 0.  0.
        4    1    3    3  502    0 -0.34024211958E+03 -0.69359547668E+03 -0.13527696859E+04  0.15578275968E+04  0.12699999809E+01 0.  1.
       -4    1    3    3    0  502  0.34024211958E+03  0.69359547668E+03  0.14128560430E+04  0.16102804714E+04  0.12699999809E+01 0. -1.
</event>
<event>
 5   0  0.4702748E-06  0.3038948E+04  0.7818609E-02  0.8232696E-01
       -2   -1    0    0    0  501  0.00000000000E+00  0.00000000000E+00  0.10648900663E+04  0.10648900663E+04  0.25500000920E-02 0.  1.
        2   -1    0    0  501    0  0.00000000000E+00  0.00000000000E+00 -0.21681119291E+04  0.21681119291E+04  0.25500000920E-02 0. -1.
    10030    2    1    2    0    0  0.00000000000E+00  0.00000000000E+00 -0.11032218628E+04  0.32330019954E+04  0.30389477494E+04 0.  0.
        2    1    3    3  502    0 -0.71454727037E+03 -0.70724355059E+03 -0.17636735020E+04  0.20301023283E+04  0.25500000920E-02 0. -1.
       -2    1    3    3    0  502  0.71454727037E+03  0.70724355059E+03  0.66045163919E+03  0.12028996671E+04  0.25500000920E-02 0.  1.
</event>
<event>
 5   0  0.4532420E-06  0.3008599E+04  0.7818609E-02  0.8241280E-01
       -2   -1    0    0    0  501  0.00000000000E+00  0.00000000000E+00  0.98028554118E+03  0.98028554119E+03  0.25500000920E-02 0.  1.
        2   -1    0    0  501    0  0.00000000000E+00  0.00000000000E+00 -0.23084257753E+04  0.23084257753E+04  0.25500000920E-02 0. -1.
    10030    2    1    2    0    0  0.00000000000E+00  0.00000000000E+00 -0.13281402341E+04  0.32887113165E+04  0.30085986176E+04 0.  0.
        4    1    3    3  502    0 -0.74853911256E+03  0.12080289599E+04 -0.12032153907E+04  0.18620885211E+04  0.12699999809E+01 0. -1.
       -4    1    3    3    0  502  0.74853911256E+03 -0.12080289599E+04 -0.12492484342E+03  0.14266227954E+04  0.12699999809E+01 0.  1.
</event>
<event>
 5   0  0.5003556E-06  0.2920950E+04  0.7818609E-02  0.8266671E-01
       -2   -1    0    0    0  501  0.00000000000E+00  0.00000000000E+00  0.10358898988E+04  0.10358898988E+04  0.25500000920E-02 0.  1.
        2   -1    0    0  501    0  0.00000000000E+00  0.00000000000E+00 -0.20590867819E+04  0.20590867819E+04  0.25500000920E-02 0. -1.
    10030    2    1    2    0    0  0.00000000000E+00  0.00000000000E+00 -0.10231968831E+04  0.30949766808E+04  0.29209499812E+04 0.  0.
        3    1    3    3  502    0  0.10587897561E+04 -0.72328378946E+03 -0.12524039290E+04  0.17923980583E+04  0.10100000352E+00 0. -1.
       -3    1    3    3    0  502 -0.10587897561E+04  0.72328378946E+03  0.22920704593E+03  0.13025786225E+04  0.10100000352E+00 0.  1.
</event>
<event>
 5   0  0.4935331E-06  0.3073512E+04  0.7818609E-02  0.8223045E-01
        2   -1    0    0  501    0  0.00000000000E+00  0.00000000000E+00  0.17828311892E+04  0.17828311892E+04  0.25500000920E-02 0. -1.
       -2   -1    0    0    0  501  0.00000000000E+00  0.00000000000E+00 -0.13246450366E+04  0.13246450366E+04  0.25500000920E-02 0.  1.
    10030    2    1    2    0    0  0.00000000000E+00  0.00000000000E+00  0.45818615258E+03  0.31074762258E+04  0.30735116631E+04 0.  0.
        5    1    3    3  502    0 -0.13240314303E+04  0.66604187604E+03  0.63969095838E+03  0.16142792885E+04  0.46999998093E+01 0. -1.
       -5    1    3    3    0  502  0.13240314303E+04 -0.66604187604E+03 -0.18150480580E+03  0.14931969373E+04  0.46999998093E+01 0.  1.
</event>
<event>
 5   0  0.1686012E-06  0.3007926E+04  0.7818609E-02  0.8241471E-01
       -1   -1    0    0    0  501  0.00000000000E+00  0.00000000000E+00  0.14138799045E+04  0.14138799045E+04  0.50400001928E-02 0. -1.
        1   -1    0    0  501    0  0.00000000000E+00  0.00000000000E+00 -0.15997860318E+04  0.15997860318E+04  0.50400001928E-02 0.  1.
    10030    2    1    2    0    0  0.00000000000E+00  0.00000000000E+00 -0.18590612727E+03  0.30136659364E+04  0.30079264100E+04 0.  0.
        4    1    3    3  502    0 -0.64862623654E+03 -0.51705124414E+03  0.11639708292E+04  0.14292962212E+04  0.12699999809E+01 0. -1.
       -4    1    3    3    0  502  0.64862623654E+03  0.51705124414E+03 -0.13498769565E+04  0.15843697152E+04  0.12699999809E+01 0.  1.
</event>
<event>
 5   0  0.1672907E-06  0.3109200E+04  0.7818609E-02  0.8213218E-01
        1   -1    0    0  501    0  0.00000000000E+00  0.00000000000E+00  0.13010150352E+04  0.13010150352E+04  0.50400001928E-02 0.  1.
       -1   -1    0    0    0  501  0.00000000000E+00  0.00000000000E+00 -0.18576121064E+04  0.18576121064E+04  0.50400001928E-02 0. -1.
    10030    2    1    2    0    0  0.00000000000E+00  0.00000000000E+00 -0.55659707124E+03  0.31586271416E+04  0.31092000772E+04 0.  0.
        5    1    3    3  502    0  0.10405948291E+04 -0.32300183651E+03 -0.14047956990E+04  0.17778191220E+04  0.46999998093E+01 0. -1.
       -5    1    3    3    0  502 -0.10405948291E+04  0.32300183651E+03  0.84819862776E+03  0.13808080195E+04  0.46999998093E+01 0.  1.
</event>
<event>
 5   0  0.1700885E-06  0.3002654E+04  0.7818609E-02  0.8242973E-01
        1   -1    0    0  501    0  0.00000000000E+00  0.00000000000E+00  0.23147204591E+04  0.23147204591E+04  0.50400001928E-02 0.  1.
       -1   -1    0    0    0  501  0.00000000000E+00  0.00000000000E+00 -0.97376012976E+03  0.97376012978E+03  0.50400001928E-02 0. -1.
    10030    2    1    2    0    0  0.00000000000E+00  0.00000000000E+00  0.13409603294E+04  0.32884805889E+04  0.30026538227E+04 0.  0.
        1    1    3    3  502    0  0.34712284870E+03 -0.56778510842E+03 -0.80340017992E+03  0.10432286665E+04  0.50400001928E-02 0. -1.
       -1    1    3    3    0  502 -0.34712284870E+03  0.56778510842E+03  0.21443605093E+04  0.22452519225E+04  0.50400001928E-02 0.  1.
</event>
<event>
 5   0  0.4532420E-06  0.2999937E+04  0.7818609E-02  0.8243749E-01
        2   -1    0    0  501    0  0.00000000000E+00  0.00000000000E+00  0.12720206537E+04  0.12720206537E+04  0.25500000920E-02 0. -1.
       -2   -1    0    0    0  501  0.00000000000E+00  0.00000000000E+00 -0.17687647767E+04  0.17687647767E+04  0.25500000920E-02 0.  1.
    10030    2    1    2    0    0  0.00000000000E+00  0.00000000000E+00 -0.49674412294E+03  0.30407854304E+04  0.29999368844E+04 0.  0.
        4    1    3    3  502    0  0.12511830847E+04 -0.16325401391E+03  0.57371571864E+03  0.13860960729E+04  0.12699999809E+01 0. -1.
       -4    1    3    3    0  502 -0.12511830847E+04  0.16325401391E+03 -0.10704598416E+04  0.16546893575E+04  0.12699999809E+01 0.  1.
</event>
<event>
 5   0  0.4532420E-06  0.3002904E+04  0.7818609E-02  0.8242902E-01
       -2   -1    0    0    0  501  0.00000000000E+00  0.00000000000E+00  0.17197594510E+04  0.17197594510E+04  0.25500000920E-02 0. -1.
        2   -1    0    0  501    0  0.00000000000E+00  0.00000000000E+00 -0.13108565717E+04  0.13108565717E+04  0.25500000920E-02 0.  1.
    10030    2    1    2    0    0  0.00000000000E+00  0.00000000000E+00  0.40890287931E+03  0.30306160227E+04  0.30029039133E+04 0.  0.
        4    1    3    3  502    0 -0.10044212464E+04 -0.56914871009E+03 -0.76438897386E+03  0.13845881737E+04  0.12699999809E+01 0.  1.
       -4    1    3    3    0  502  0.10044212464E+04  0.56914871009E+03  0.11732918532E+04  0.16460278491E+04  0.12699999809E+01 0. -1.
</event>
<event>
 5   0  0.1545375E-06  0.2997223E+04  0.7818609E-02  0.8244524E-01
        3   -1    0    0  501    0  0.00000000000E+00  0.00000000000E+00  0.16480196833E+04  0.16480196864E+04  0.10100000352E+00 0. -1.
       -3   -1    0    0    0  501  0.00000000000E+00  0.00000000000E+00 -0.13627489582E+04  0.13627489619E+04  0.10100000352E+00 0.  1.
    10030    2    1    2    0    0  0.00000000000E+00  0.00000000000E+00  0.28527072516E+03  0.30107686484E+04  0.29972234597E+04 0.  0.
        3    1    3    3  502    0  0.63197467544E+03  0.96305359320E+02 -0.12189127136E+04  0.13763774650E+04  0.10100000352E+00 0.  1.
       -3    1    3    3    0  502 -0.63197467544E+03 -0.96305359320E+02  0.15041834388E+04  0.16343911834E+04  0.10100000352E+00 0. -1.
</event>
<event>
 5   0  0.4702748E-06  0.2944210E+04  0.7818609E-02  0.8259844E-01
       -2   -1    0    0    0  501  0.00000000000E+00  0.00000000000E+00  0.25567764161E+04  0.25567764161E+04  0.25500000920E-02 0. -1.
        2   -1    0    0  501    0  0.00000000000E+00  0.00000000000E+00 -0.84758833493E+03  0.84758833493E+03  0.25500000920E-02 0.  1.
    10030    2    1    2    0    0  0.00000000000E+00  0.00000000000E+00  0.17091880811E+04  0.34043647510E+04  0.29442104988E+04 0.  0.
        2    1    3    3  502    0  0.32136423456E+03  0.11325962757E+04  0.18764863645E+04  0.22152314487E+04  0.25500000920E-02 0. -1.
       -2    1    3    3    0  502 -0.32136423456E+03 -0.11325962757E+04 -0.16729828341E+03  0.11891333023E+04  0.25500000920E-02 0.  1.
</event>
<event>
 5   0  0.1734885E-06  0.3009230E+04  0.7818609E-02  0.8241100E-01
        1   -1    0    0  501    0  0.00000000000E+00  0.00000000000E+00  0.23786258692E+04  0.23786258692E+04  0.50400001928E-02 0.  1.
       -1   -1    0    0    0  501  0.00000000000E+00  0.00000000000E+00 -0.95175353462E+03  0.95175353463E+03  0.50400001928E-02 0. -1.
    10030    2    1    2    0    0  0.00000000000E+00  0.00000000000E+00  0.14268723346E+04  0.33303794038E+04  0.30092295217E+04 0.  0.
        2    1    3    3  502    0  0.52257252353E+02  0.10277513123E+04 -0.50137017796E+03  0.11447163997E+04  0.25500000920E-02 0. -1.
       -2    1    3    3    0  502 -0.52257252353E+02 -0.10277513123E+04  0.19282425125E+04  0.21856630041E+04  0.25500000920E-02 0.  1.
</event>
<event>
 5   0  0.1709858E-06  0.3009987E+04  0.7818609E-02  0.8240885E-01
       -1   -1    0    0    0  501  0.00000000000E+00  0.00000000000E+00  0.93593264523E+03  0.93593264525E+03  0.50400001928E-02 0.  1.
        1   -1    0    0  501    0  0.00000000000E+00  0.00000000000E+00 -0.24200509848E+04  0.24200509848E+04  0.50400001928E-02 0. -1.
    10030    2    1    2    0    0  0.00000000000E+00  0.00000000000E+00 -0.14841183396E+04  0.33559836301E+04  0.30099865248E+04 0.  0.
        3    1    3    3  502    0 -0.48603380212E+03 -0.14216058838E+04 -0.84060813652E+03  0.17215731745E+04  0.10100000352E+00 0.  1.
       -3    1    3    3    0  502  0.48603380212E+03  0.14216058838E+04 -0.64351020309E+03  0.16344104556E+04  0.10100000352E+00 0. -1.
</event>
<event>
 5   0  0.4935331E-06  0.2986343E+04  0.7818609E-02  0.8247641E-01
        2   -1    0    0  501    0  0.00000000000E+00  0.00000000000E+00  0.16029910635E+04  0.16029910635E+04  0.25500000920E-02 0.  1.
       -2   -1    0    0    0  501  0.00000000000E+00  0.00000000000E+00 -0.13908758987E+04  0.13908758987E+04  0.25500000920E-02 0. -1.
    10030    2    1    2    0    0  0.00000000000E+00  0.00000000000E+00  0.21211516477E+03  0.29938669621E+04  0.29863433399E+04 0.  0.
        5    1    3    3  502    0 -0.45436822006E+03  0.35851671212E+03  0.14859535655E+04  0.15946989688E+04  0.46999998093E+01 0.  1.
       -5    1    3    3    0  502  0.45436822006E+03 -0.35851671212E+03 -0.12738384008E+04  0.13991679933E+04  0.46999998093E+01 0. -1.
</event>
<event>
 5   0  0.4768570E-06  0.3036884E+04  0.7818609E-02  0.8233276E-01
        2   -1    0    0  501    0  0.00000000000E+00  0.00000000000E+00  0.11328079551E+04  0.11328079551E+04  0.25500000920E-02 0. -1.
       -2   -1    0    0    0  501  0.00000000000E+00  0.00000000000E+00 -0.20353546803E+04  0.20353546803E+04  0.25500000920E-02 0.  1.
    10030    2    1    2    0    0  0.00000000000E+00  0.00000000000E+00 -0.90254672518E+03  0.31681626355E+04  0.30368839118E+04 0.  0.
        1    1    3    3  502    0  0.14105311162E+04  0.56212274923E+03 -0.46094552466E+03  0.15868367250E+04  0.50400001928E-02 0.  1.
       -1    1    3    3    0  502 -0.14105311162E+04 -0.56212274923E+03 -0.44160120052E+03  0.15813259105E+04  0.50400001928E-02 0. -1.
</event>
<event>
 5   0  0.1686012E-06  0.3035638E+04  0.7818609E-02  0.8233627E-01
        1   -1    0    0  501    0  0.00000000000E+00  0.00000000000E+00  0.16565971474E+04  0.16565971474E+04  0.50400001928E-02 0. -1.
       -1   -1    0    0    0  501  0.00000000000E+00  0.00000000000E+00 -0.13906664709E+04  0.13906664710E+04  0.50400001928E-02 0.  1.
    10030    2    1    2    0    0  0.00000000000E+00  0.00000000000E+00  0.26593067644E+03  0.30472636183E+04  0.30356377312E+04 0.  0.
        4    1    3    3  502    0 -0.50230989868E+03 -0.35597766491E+03 -0.12596969013E+04  0.14020960125E+04  0.12699999809E+01 0.  1.
       -4    1    3    3    0  502  0.50230989868E+03  0.35597766491E+03  0.15256275778E+04  0.16451676058E+04  0.12699999809E+01 0. -1.
</event>
<event>
 5   0  0.1686012E-06  0.3008930E+04  0.7818609E-02  0.8241185E-01
       -1   -1    0    0    0  501  0.00000000000E+00  0.00000000000E+00  0.15216778276E+04  0.15216778276E+04  0.50400001928E-02 0.  1.
        1   -1    0    0  501    0  0.00000000000E+00  0.00000000000E+00 -0.14874468383E+04  0.14874468383E+04  0.50400001928E-02 0. -1.
    10030    2    1    2    0    0  0.00000000000E+00  0.00000000000E+00  0.34230989235E+02  0.30091246659E+04  0.30089299584E+04 0.  0.
        4    1    3    3  502    0 -0.10503761139E+04 -0.10047598689E+04  0.40518813557E+03  0.15089769425E+04  0.12699999809E+01 0.  1.
       -4    1    3    3    0  502  0.10503761139E+04  0.10047598689E+04 -0.37095714633E+03  0.15001477234E+04  0.12699999809E+01 0. -1.
</event>
<event>
 5   0  0.1672907E-06  0.3005046E+04  0.7818609E-02  0.8242291E-01
        1   -1    0    0  501    0  0.00000000000E+00  0.00000000000E+00  0.17424936729E+04  0.17424936729E+04  0.50400001928E-02 0.  1.
       -1   -1    0    0    0  501  0.00000000000E+00  0.00000000000E+00 -0.12956004579E+04  0.12956004579E+04  0.50400001928E-02 0. -1.
    10030    2    1    2    0    0  0.00000000000E+00  0.00000000000E+00  0.44689321502E+03  0.30380941308E+04  0.30050461564E+04 0.  0.
        5    1    3    3  502    0  0.60418036527E+03 -0.12647134208E+04  0.77071250294E+03  0.15995479995E+04  0.46999998093E+01 0. -1.
       -5    1    3    3    0  502 -0.60418036527E+03  0.12647134208E+04 -0.32381928792E+03  0.14385461313E+04  0.46999998093E+01 0.  1.
</event>
<event>
 5   0  0.4532420E-06  0.3005532E+04  0.7818609E-02  0.8242153E-01
       -2   -1    0    0    0  501  0.00000000000E+00  0.00000000000E+00  0.17362012188E+04  0.17362012188E+04  0.25500000920E-02 0.  1.
        2   -1    0    0  501    0  0.00000000000E+00  0.00000000000E+00 -0.13007161151E+04  0.13007161151E+04  0.25500000920E-02 0. -1.
    10030    2    1    2    0    0  0.00000000000E+00  0.00000000000E+00  0.43548510378E+03  0.30369173339E+04  0.30055315033E+04 0.  0.
        4    1    3    3  502    0 -0.11264798135E+04 -0.86501101584E+03 -0.27840689316E+03  0.14473122811E+04  0.12699999809E+01 0. -1.
       -4    1    3    3    0  502  0.11264798135E+04  0.86501101584E+03  0.71389199693E+03  0.15896050528E+04  0.12699999809E+01 0.  1.
</event>
<event>
 5   0  0.1672907E-06  0.3014285E+04  0.7818609E-02  0.8239663E-01
        1   -1    0    0  501    0  0.00000000000E+00  0.00000000000E+00  0.20413004073E+04  0.20413004073E+04  0.50400001928E-02 0.  1.
       -1   -1    0    0    0  501  0.00000000000E+00  0.00000000000E+00 -0.11127605498E+04  0.11127605498E+04  0.50400001928E-02 0. -1.
    10030    2    1    2    0    0  0.00000000000E+00  0.00000000000E+00  0.92853985752E+03  0.31540609571E+04  0.30142850320E+04 0.  0.
        5    1    3    3  502    0 -0.83661519444E+03 -0.77490273412E+03 -0.56684762744E+03  0.12734745987E+04  0.46999998093E+01 0. -1.
       -5    1    3    3    0  502  0.83661519444E+03  0.77490273412E+03  0.14953874850E+04  0.18805863583E+04  0.46999998093E+01 0.  1.
</event>
<event>
 5   0  0.5003556E-06  0.2982598E+04  0.7818609E-02  0.8248718E-01
        2   -1    0    0  501    0  0.00000000000E+00  0.00000000000E+00  0.13343367537E+04  0.13343367537E+04  0.25500000920E-02 0.  1.
       -2   -1    0    0    0  501  0.00000000000E+00  0.00000000000E+00 -0.16667249782E+04  0.16667249782E+04  0.25500000920E-02 0. -1.
    10030    2    1    2    0    0  0.00000000000E+00  0.00000000000E+00 -0.33238822451E+03  0.30010617319E+04  0.29825977917E+04 0.  0.
        3    1    3    3  502    0  0.39221090831E+03 -0.11711927160E+04 -0.10071013454E+04  0.15936671248E+04  0.10100000352E+00 0. -1.
       -3    1    3    3    0  502 -0.39221090831E+03  0.11711927160E+04  0.67471312088E+03  0.14073946071E+04  0.10100000352E+00 0.  1.
</event>
<event>
 5   0  0.5003556E-06  0.2992700E+04  0.7818609E-02  0.8245819E-01
       -2   -1    0    0    0  501  0.00000000000E+00  0.00000000000E+00  0.19069549690E+04  0.19069549690E+04  0.25500000920E-02 0.  1.
        2   -1    0    0  501    0  0.00000000000E+00  0.00000000000E+00 -0.11741559906E+04  0.11741559906E+04  0.25500000920E-02 0. -1.
    10030    2    1    2    0    0  0.00000000000E+00  0.00000000000E+00  0.73279897832E+03  0.30811109596E+04  0.29926995176E+04 0.  0.
        3    1    3    3  502    0  0.30398636077E+03 -0.31793586286E+03  0.18388868487E+04  0.18907659223E+04  0.10100000352E+00 0.  1.
       -3    1    3    3    0  502 -0.30398636077E+03  0.31793586286E+03 -0.11060878704E+04  0.11903450373E+04  0.10100000352E+00 0. -1.
</event>
<event>
 5   0  0.1672907E-06  0.2961337E+04  0.7818609E-02  0.8254858E-01
       -1   -1    0    0    0  501  0.00000000000E+00  0.00000000000E+00  0.18664126578E+04  0.18664126578E+04  0.50400001928E-02 0. -1.
        1   -1    0    0  501    0  0.00000000000E+00  0.00000000000E+00 -0.11746489657E+04  0.11746489657E+04  0.50400001928E-02 0.  1.
    10030    2    1    2    0    0  0.00000000000E+00  0.00000000000E+00  0.69176369210E+03  0.30410616236E+04  0.29613373318E+04 0.  0.
        5    1    3    3  502    0  0.47048567404E+03 -0.13925346280E+04  0.52914680538E+03  0.15622188999E+04  0.46999998093E+01 0. -1.
       -5    1    3    3    0  502 -0.47048567404E+03  0.13925346280E+04  0.16261688672E+03  0.14788427237E+04  0.46999998093E+01 0.  1.
</event>
<event>
 5   0  0.5003556E-06  0.2995613E+04  0.7818609E-02  0.8244985E-01
        2   -1    0    0  501    0  0.00000000000E+00  0.00000000000E+00  0.21132466292E+04  0.21132466292E+04  0.25500000920E-02 0.  1.
       -2   -1    0    0    0  501  0.00000000000E+00  0.00000000000E+00 -0.10616009974E+04  0.10616009974E+04  0.25500000920E-02 0. -1.
    10030    2    1    2    0    0  0.00000000000E+00  0.00000000000E+00  0.10516456319E+04  0.31748476266E+04  0.29956132789E+04 0.  0.
        3    1    3    3  502    0  0.58779189375E+03 -0.10471275357E+04  0.14746239069E+04  0.19017074074E+04  0.10100000352E+00 0.  1.
       -3    1    3    3    0  502 -0.58779189375E+03  0.10471275357E+04 -0.42297827504E+03  0.12731402192E+04  0.10100000352E+00 0. -1.
</event>
<event>
 5   0  0.4702748E-06  0.3026444E+04  0.7818609E-02  0.8236220E-01
        2   -1    0    0  501    0  0.00000000000E+00  0.00000000000E+00  0.12239436579E+04  0.12239436579E+04  0.25500000920E-02 0.  1.
       -2   -1    0    0    0  501  0.00000000000E+00  0.00000000000E+00 -0.18708711598E+04  0.18708711598E+04  0.25500000920E-02 0. -1.
    10030    2    1    2    0    0  0.00000000000E+00  0.00000000000E+00 -0.64692750186E+03  0.30948148178E+04  0.30264440460E+04 0.  0.
        2    1    3    3  502    0 -0.31990583883E+02  0.14354154082E+03 -0.18635461830E+04  0.18693399764E+04  0.25500000920E-02 0. -1.
       -2    1    3    3    0  502  0.31990583883E+02 -0.14354154082E+03  0.12166186811E+04  0.12254748413E+04  0.25500000920E-02 0.  1.
</event>
<event>
 5   0  0.4768570E-06  0.2991083E+04  0.7818609E-02  0.8246282E-01
       -2   -1    0    0    0  501  0.00000000000E+00  0.00000000000E+00  0.14415515610E+04  0.14415515610E+04  0.25500000920E-02 0.  1.
        2   -1    0    0  501    0  0.00000000000E+00  0.00000000000E+00 -0.15515536980E+04  0.15515536980E+04  0.25500000920E-02 0. -1.
    10030    2    1    2    0    0  0.00000000000E+00  0.00000000000E+00 -0.11000213702E+03  0.29931052590E+04  0.29910831853E+04 0.  0.
        1    1    3    3  502    0 -0.18463816864E+03 -0.16467228345E+03  0.14209321186E+04  0.14423093635E+04  0.50400001928E-02 0.  1.
       -1    1    3    3    0  502  0.18463816864E+03  0.16467228345E+03 -0.15309342557E+04  0.15507958955E+04  0.50400001928E-02 0. -1.
</event>
<event>
 5   0  0.1700885E-06  0.2962864E+04  0.7818609E-02  0.8254416E-01
        1   -1    0    0  501    0  0.00000000000E+00  0.00000000000E+00  0.19659519422E+04  0.19659519422E+04  0.50400001928E-02 0.  1.
       -1   -1    0    0    0  501  0.00000000000E+00  0.00000000000E+00 -0.11163246037E+04  0.11163246037E+04  0.50400001928E-02 0. -1.
    10030    2    1    2    0    0  0.00000000000E+00  0.00000000000E+00  0.84962733854E+03  0.30822765459E+04  0.29628638327E+04 0.  0.
        1    1    3    3  502    0 -0.32707165145E+03  0.13172738547E+04 -0.19279201490E+03  0.13708957052E+04  0.50400001928E-02 0. -1.
       -1    1    3    3    0  502  0.32707165145E+03 -0.13172738547E+04  0.10424193534E+04  0.17113808407E+04  0.50400001928E-02 0.  1.
</event>
<event>
 5   0  0.4532420E-06  0.2996144E+04  0.7818609E-02  0.8244833E-01
        2   -1    0    0  501    0  0.00000000000E+00  0.00000000000E+00  0.28196085495E+04  0.28196085495E+04  0.25500000920E-02 0. -1.
       -2   -1    0    0    0  501  0.00000000000E+00  0.00000000000E+00 -0.79593310034E+03  0.79593310034E+03  0.25500000920E-02 0.  1.
    10030    2    1    2    0    0  0.00000000000E+00  0.00000000000E+00  0.20236754491E+04  0.36155416498E+04  0.29961440383E+04 0.  0.
        4    1    3    3  502    0  0.58549077276E+03 -0.12756543413E+04  0.38003022034E+03  0.14541382413E+04  0.12699999809E+01 0. -1.
       -4    1    3    3    0  502 -0.58549077276E+03  0.12756543413E+04  0.16436452288E+04  0.21614034085E+04  0.12699999809E+01 0.  1.
</event>
<event>
 5   0  0.4532420E-06  0.2984930E+04  0.7818609E-02  0.8248047E-01
        2   -1    0    0  501    0  0.00000000000E+00  0.00000000000E+00  0.13805311191E+04  0.13805311191E+04  0.25500000920E-02 0. -1.
       -2   -1    0    0    0  501  0.00000000000E+00  0.00000000000E+00 -0.16134740944E+04  0.16134740944E+04  0.25500000920E-02 0.  1.
    10030    2    1    2    0    0  0.00000000000E+00  0.00000000000E+00 -0.23294297526E+03  0.29940052135E+04  0.29849296120E+04 0.  0.
        4    1    3    3  502    0 -0.46601969005E+03 -0.14168433886E+04 -0.63111572239E+02  0.14928510384E+04  0.12699999809E+01 0. -1.
       -4    1    3    3    0  502  0.46601969005E+03  0.14168433886E+04 -0.16983140302E+03  0.15011541752E+04  0.12699999809E+01 0.  1.
</event>
<event>
 5   0  0.4935331E-06  0.2969131E+04  0.7818609E-02  0.8252601E-01
       -2   -1    0    0    0  501  0.00000000000E+00  0.00000000000E+00  0.12660422604E+04  0.12660422604E+04  0.25500000920E-02 0. -1.
        2   -1    0    0  501    0  0.00000000000E+00  0.00000000000E+00 -0.17408065506E+04  0.17408065506E+04  0.25500000920E-02 0.  1.
    10030    2    1    2    0    0  0.00000000000E+00  0.00000000000E+00 -0.47476429015E+03  0.30068488110E+04  0.29691309572E+04 0.  0.
        5    1    3    3  502    0 -0.38415598249E+03  0.10996538929E+04 -0.11694533343E+04  0.16505931341E+04  0.46999998093E+01 0.  1.
       -5    1    3    3    0  502  0.38415598249E+03 -0.10996538929E+04  0.69468904419E+03  0.13562556769E+04  0.46999998093E+01 0. -1.
</event>
<event>
 5   0  0.1686012E-06  0.3118306E+04  0.7818609E-02  0.8210732E-01
       -1   -1    0    0    0  501  0.00000000000E+00  0.00000000000E+00  0.13662374657E+04  0.13662374657E+04  0.50400001928E-02 0.  1.
        1   -1    0    0  501    0  0.00000000000E+00  0.00000000000E+00 -0.17793085768E+04  0.17793085768E+04  0.50400001928E-02 0. -1.
    10030    2    1    2    0    0  0.00000000000E+00  0.00000000000E+00 -0.41307111115E+03  0.31455460425E+04  0.31183059764E+04 0.  0.
        4    1    3    3  502    0  0.72541784159E+02  0.68013678631E+03  0.12068134690E+04  0.13871729238E+04  0.12699999809E+01 0.  1.
       -4    1    3    3    0  502 -0.72541784159E+02 -0.68013678631E+03 -0.16198845802E+04  0.17583731187E+04  0.12699999809E+01 0. -1.
</event>
<event>
 5   0  0.1734885E-06  0.3035018E+04  0.7818609E-02  0.8233801E-01
        1   -1    0    0  501    0  0.00000000000E+00  0.00000000000E+00  0.18588882720E+04  0.18588882720E+04  0.50400001928E-02 0.  1.
       -1   -1    0    0    0  501  0.00000000000E+00  0.00000000000E+00 -0.12388233760E+04  0.12388233760E+04  0.50400001928E-02 0. -1.
    10030    2    1    2    0    0  0.00000000000E+00  0.00000000000E+00  0.62006489599E+03  0.30977116481E+04  0.30350184479E+04 0.  0.
        2    1    3    3  502    0 -0.85799681536E+03 -0.40001909651E+03  0.15205589149E+04  0.17911653264E+04  0.25500000920E-02 0.  1.
       -2    1    3    3    0  502  0.85799681536E+03  0.40001909651E+03 -0.90049401888E+03  0.13065463217E+04  0.25500000920E-02 0. -1.
</event>
<event>
 5   0  0.5003556E-06  0.3006504E+04  0.7818609E-02  0.8241876E-01
       -2   -1    0    0    0  501  0.00000000000E+00  0.00000000000E+00  0.11671127237E+04  0.11671127237E+04  0.25500000920E-02 0. -1.
        2   -1    0    0  501    0  0.00000000000E+00  0.00000000000E+00 -0.19362025858E+04  0.19362025858E+04  0.25500000920E-02 0.  1.
    10030    2    1    2    0    0  0.00000000000E+00  0.00000000000E+00 -0.76908986216E+03  0.31033153095E+04  0.30065040652E+04 0.  0.
        3    1    3    3  502    0 -0.12482279843E+04 -0.58156530444E+03 -0.10068475029E+04  0.17058819444E+04  0.10100000352E+00 0.  1.
       -3    1    3    3    0  502  0.12482279843E+04  0.58156530444E+03  0.23775764069E+03  0.13974333651E+04  0.10100000352E+00 0. -1.
</event>
<event>
 5   0  0.4532420E-06  0.2999958E+04  0.7818609E-02  0.8243743E-01
        2   -1    0    0  501    0  0.00000000000E+00  0.00000000000E+00  0.18326438017E+04  0.18326438017E+04  0.25500000920E-02 0.  1.
       -2   -1    0    0    0  501  0.00000000000E+00  0.00000000000E+00 -0.12276998215E+04  0.12276998215E+04  0.25500000920E-02 0. -1.
    10030    2    1    2    0    0  0.00000000000E+00  0.00000000000E+00  0.60494398020E+03  0.30603436233E+04  0.29999576453E+04 0.  0.
        4    1    3    3  502    0  0.14321074814E+04 -0.20897018140E+03  0.70453026451E+03  0.16096474401E+04  0.12699999809E+01 0.  1.
       -4    1    3    3    0  502 -0.14321074814E+04  0.20897018140E+03 -0.99586284301E+02  0.14506961832E+04  0.12699999809E+01 0. -1.
</event>
<event>
 5   0  0.4532420E-06  0.2994392E+04  0.7818609E-02  0.8245334E-01
        2   -1    0    0  501    0  0.00000000000E+00  0.00000000000E+00  0.22291560081E+04  0.22291560081E+04  0.25500000920E-02 0. -1.
       -2   -1    0    0    0  501  0.00000000000E+00  0.00000000000E+00 -0.10055805437E+04  0.10055805437E+04  0.25500000920E-02 0.  1.
    10030    2    1    2    0    0  0.00000000000E+00  0.00000000000E+00  0.12235754645E+04  0.32347365518E+04  0.29943920322E+04 0.  0.
        4    1    3    3  502    0  0.47115652229E+03  0.12174043668E+04  0.14038012532E+04  0.19169562937E+04  0.12699999809E+01 0. -1.
       -4    1    3    3    0  502 -0.47115652229E+03 -0.12174043668E+04 -0.18022578870E+03  0.13177802581E+04  0.12699999809E+01 0.  1.
</event>
<event>
 5   0  0.1709858E-06  0.2972010E+04  0.7818609E-02  0.8251769E-01
       -1   -1    0    0    0  501  0.00000000000E+00  0.00000000000E+00  0.10425221253E+04  0.10425221253E+04  0.50400001928E-02 0.  1.
        1   -1    0    0  501    0  0.00000000000E+00  0.00000000000E+00 -0.21181423640E+04  0.21181423640E+04  0.50400001928E-02 0. -1.
    10030    2    1    2    0    0  0.00000000000E+00  0.00000000000E+00 -0.10756202388E+04  0.31606644893E+04  0.29720096090E+04 0.  0.
        3    1    3    3  502    0 -0.10441817180E+04 -0.10739122457E+03  0.58079499373E+03  0.11996546046E+04  0.10100000352E+00 0.  1.
       -3    1    3    3    0  502  0.10441817180E+04  0.10739122457E+03 -0.16564152325E+04  0.19610098847E+04  0.10100000352E+00 0. -1.
</event>
<event>
 5   0  0.1700885E-06  0.2861696E+04  0.7818609E-02  0.8284366E-01
       -1   -1    0    0    0  501  0.00000000000E+00  0.00000000000E+00  0.69959758440E+03  0.69959758442E+03  0.50400001928E-02 0.  1.
        1   -1    0    0  501    0  0.00000000000E+00  0.00000000000E+00 -0.29264332513E+04  0.29264332513E+04  0.50400001928E-02 0. -1.
    10030    2    1    2    0    0  0.00000000000E+00  0.00000000000E+00 -0.22268356669E+04  0.36260308357E+04  0.28616957445E+04 0.  0.
        1    1    3    3  502    0  0.14276406738E+04 -0.72763571499E+02 -0.11922753608E+04  0.18614437855E+04  0.50400001928E-02 0. -1.
       -1    1    3    3    0  502 -0.14276406738E+04  0.72763571499E+02 -0.10345603061E+04  0.17645870502E+04  0.50400001928E-02 0.  1.
</event>
<event>
 5   0  0.1686012E-06  0.2985284E+04  0.7818609E-02  0.8247946E-01
       -1   -1    0    0    0  501  0.00000000000E+00  0.00000000000E+00  0.16448024682E+04  0.16448024682E+04  0.50400001928E-02 0.  1.
        1   -1    0    0  501    0  0.00000000000E+00  0.00000000000E+00 -0.13545581518E+04  0.13545581519E+04  0.50400001928E-02 0. -1.
    10030    2    1    2    0    0  0.00000000000E+00  0.00000000000E+00  0.29024431636E+03  0.29993606201E+04  0.29852843024E+04 0.  0.
        4    1    3    3  502    0  0.10835586509E+04  0.97790142814E+03  0.45898661930E+03  0.15300525752E+04  0.12699999809E+01 0.  1.
       -4    1    3    3    0  502 -0.10835586509E+04 -0.97790142814E+03 -0.16874230294E+03  0.14693080449E+04  0.12699999809E+01 0. -1.
</event>
<event>
 5   0  0.4768570E-06  0.2983557E+04  0.7818609E-02  0.8248442E-01
       -2   -1    0    0    0  501  0.00000000000E+00  0.00000000000E+00  0.13436716373E+04  0.13436716373E+04  0.25500000920E-02 0. -1.
        2   -1    0    0  501    0  0.00000000000E+00  0.00000000000E+00 -0.16562100140E+04  0.16562100140E+04  0.25500000920E-02 0.  1.
    10030    2    1    2    0    0  0.00000000000E+00  0.00000000000E+00 -0.31253837668E+03  0.29998816514E+04  0.29835565497E+04 0.  0.
        1    1    3    3  502    0 -0.94546781260E+03 -0.61926549742E+03  0.82271294959E+03  0.13979469727E+04  0.50400001928E-02 0. -1.
       -1    1    3    3    0  502  0.94546781260E+03  0.61926549742E+03 -0.11352513263E+04  0.16019346787E+04  0.50400001928E-02 0.  1.
</event>
<event>
 5   0  0.4532420E-06  0.3009372E+04  0.7818609E-02  0.8241060E-01
       -2   -1    0    0    0  501  0.00000000000E+00  0.00000000000E+00  0.19194912519E+04  0.19194912519E+04  0.25500000920E-02 0. -1.
        2   -1    0    0  501    0  0.00000000000E+00  0.00000000000E+00 -0.11795211241E+04  0.11795211241E+04  0.25500000920E-02 0.  1.
    10030    2    1    2    0    0  0.00000000000E+00  0.00000000000E+00  0.73997012778E+03  0.30990123761E+04  0.30093723460E+04 0.  0.
        4    1    3    3  502    0  0.25278534898E+03 -0.16434291617E+02  0.18973741346E+04  0.19142102126E+04  0.12699999809E+01 0. -1.
       -4    1    3    3    0  502 -0.25278534898E+03  0.16434291617E+02 -0.11574040068E+04  0.11848021634E+04  0.12699999809E+01 0.  1.
</event>
<event>
 5   0  0.1672907E-06  0.3010669E+04  0.7818609E-02  0.8240691E-01
       -1   -1    0    0    0  501  0.00000000000E+00  0.00000000000E+00  0.13857032772E+04  0.13857032772E+04  0.50400001928E-02 0. -1.
        1   -1    0    0  501    0  0.00000000000E+00  0.00000000000E+00 -0.16352935825E+04  0.16352935825E+04  0.50400001928E-02 0.  1.
    10030    2    1    2    0    0  0.00000000000E+00  0.00000000000E+00 -0.24959030524E+03  0.30209968597E+04  0.30106688137E+04 0.  0.
        5    1    3    3  502    0  0.11336151293E+04 -0.86125592634E+03  0.36592703815E+03  0.14699556862E+04  0.46999998093E+01 0.  1.
       -5    1    3    3    0  502 -0.11336151293E+04  0.86125592634E+03 -0.61551734339E+03  0.15510411735E+04  0.46999998093E+01 0. -1.
</event>
<event>
 5   0  0.4768570E-06  0.2949166E+04  0.7818609E-02  0.8258398E-01
       -2   -1    0    0    0  501  0.00000000000E+00  0.00000000000E+00  0.11710627572E+04  0.11710627572E+04  0.25500000920E-02 0. -1.
        2   -1    0    0  501    0  0.00000000000E+00  0.00000000000E+00 -0.18567701829E+04  0.18567701829E+04  0.25500000920E-02 0.  1.
    10030    2    1    2    0    0  0.00000000000E+00  0.00000000000E+00 -0.68570742571E+03  0.30278329401E+04  0.29491655836E+04 0.  0.
        1    1    3    3  502    0  0.14354388959E+04 -0.31522586975E+03 -0.21904581146E+03  0.14858779359E+04  0.50400001928E-02 0. -1.
       -1    1    3    3    0  502 -0.14354388959E+04  0.31522586975E+03 -0.46666161425E+03  0.15419550042E+04  0.50400001928E-02 0.  1.
</event>
<event>
 5   0  0.1709858E-06  0.3011372E+04  0.7818609E-02  0.8240491E-01
       -1   -1    0    0    0  501  0.00000000000E+00  0.00000000000E+00  0.10608903323E+04  0.10608903323E+04  0.50400001928E-02 0. -1.
        1   -1    0    0  501    0  0.00000000000E+00  0.00000000000E+00 -0.21369695966E+04  0.21369695966E+04  0.50400001928E-02 0.  1.
    10030    2    1    2    0    0  0.00000000000E+00  0.00000000000E+00 -0.10760792643E+04  0.31978599289E+04  0.30113720364E+04 0.  0.
        3    1    3    3  502    0  0.84124721602E+02 -0.81735914036E+03  0.80181605053E+03  0.11480687794E+04  0.10100000352E+00 0. -1.
       -3    1    3    3    0  502 -0.84124721602E+02  0.81735914036E+03 -0.18778953148E+04  0.20497911495E+04  0.10100000352E+00 0.  1.
</event>
<event>
 5   0  0.1545375E-06  0.2991319E+04  0.7818609E-02  0.8246214E-01
        3   -1    0    0  501    0  0.00000000000E+00  0.00000000000E+00  0.21818127218E+04  0.21818127241E+04  0.10100000352E+00 0.  1.
       -3   -1    0    0    0  501  0.00000000000E+00  0.00000000000E+00 -0.10252927961E+04  0.10252928011E+04  0.10100000352E+00 0. -1.
    10030    2    1    2    0    0  0.00000000000E+00  0.00000000000E+00  0.11565199257E+04  0.32071055253E+04  0.29913186911E+04 0.  0.
        4    1    3    3  502    0  0.46827244605E+03  0.10658630682E+04 -0.42843799771E+03  0.12405256526E+04  0.12699999809E+01 0. -1.
       -4    1    3    3    0  502 -0.46827244605E+03 -0.10658630682E+04  0.15849579234E+04  0.19665798727E+04  0.12699999809E+01 0.  1.
</event>
<event>
 5   0  0.1672907E-06  0.3038911E+04  0.7818609E-02  0.8232706E-01
       -1   -1    0    0    0  501  0.00000000000E+00  0.00000000000E+00  0.14162727267E+04  0.14162727267E+04  0.50400001928E-02 0.  1.
        1   -1    0    0  501    0  0.00000000000E+00  0.00000000000E+00 -0.16301556585E+04  0.16301556585E+04  0.50400001928E-02 0. -1.
    10030    2    1    2    0    0  0.00000000000E+00  0.00000000000E+00 -0.21388293178E+03  0.30464283853E+04  0.30389109888E+04 0.  0.
        5    1    3    3  502    0  0.15603510262E+03 -0.86168921234E+03  0.11378498305E+04  0.14358201763E+04  0.46999998093E+01 0.  1.
       -5    1    3    3    0  502 -0.15603510262E+03  0.86168921234E+03 -0.13517327623E+04  0.16106082089E+04  0.46999998093E+01 0. -1.
</event>
<event>
 5   0  0.1734885E-06  0.2988839E+04  0.7818609E-02  0.8246925E-01
       -1   -1    0    0    0  501  0.00000000000E+00  0.00000000000E+00  0.14306661540E+04  0.14306661540E+04  0.50400001928E-02 0. -1.
        1   -1    0    0  501    0  0.00000000000E+00  0.00000000000E+00 -0.15610137057E+04  0.15610137057E+04  0.50400001928E-02 0.  1.
    10030    2    1    2    0    0  0.00000000000E+00  0.00000000000E+00 -0.13034755173E+03  0.29916798597E+04  0.29888388880E+04 0.  0.
        2    1    3    3  502    0  0.65489961887E+03 -0.10973591177E+04 -0.84063524061E+03  0.15296268015E+04  0.25500000920E-02 0.  1.
       -2    1    3    3    0  502 -0.65489961887E+03  0.10973591177E+04  0.71028768887E+03  0.14620530582E+04  0.25500000920E-02 0. -1.
</event>
<event>
 5   0  0.4935331E-06  0.3011538E+04  0.7818609E-02  0.8240444E-01
       -2   -1    0    0    0  501  0.00000000000E+00  0.00000000000E+00  0.14039916450E+04  0.14039916450E+04  0.25500000920E-02 0. -1.
        2   -1    0    0  501    0  0.00000000000E+00  0.00000000000E+00 -0.16149240224E+04  0.16149240224E+04  0.25500000920E-02 0.  1.
    10030    2    1    2    0    0  0.00000000000E+00  0.00000000000E+00 -0.21093237743E+03  0.30189156674E+04  0.30115377034E+04 0.  0.
        5    1    3    3  502    0 -0.35878976336E+03  0.42531261029E+03  0.12971388534E+04  0.14114574757E+04  0.46999998093E+01 0. -1.
       -5    1    3    3    0  502  0.35878976336E+03 -0.42531261029E+03 -0.15080712308E+04  0.16074581917E+04  0.46999998093E+01 0.  1.
</event>
<event>
 5   0  0.4532420E-06  0.2931221E+04  0.7818609E-02  0.8263649E-01
       -2   -1    0    0    0  501  0.00000000000E+00  0.00000000000E+00  0.19167080313E+04  0.19167080313E+04  0.25500000920E-02 0.  1.
        2   -1    0    0  501    0  0.00000000000E+00  0.00000000000E+00 -0.11206784604E+04  0.11206784604E+04  0.25500000920E-02 0. -1.
    10030    2    1    2    0    0  0.00000000000E+00  0.00000000000E+00  0.79602957093E+03  0.30373864917E+04  0.29312205005E+04 0.  0.
        4    1    3    3  502    0 -0.12926727943E+04 -0.21141202328E+02 -0.31732309256E+03  0.13312195392E+04  0.12699999809E+01 0. -1.
       -4    1    3    3    0  502  0.12926727943E+04  0.21141202328E+02  0.11133526635E+04  0.17061669525E+04  0.12699999809E+01 0.  1.
</event>
<event>
 5   0  0.1700885E-06  0.2950513E+04  0.7818609E-02  0.8258005E-01
       -1   -1    0    0    0  501  0.00000000000E+00  0.00000000000E+00  0.10434980185E+04  0.10434980185E+04  0.50400001928E-02 0.  1.
        1   -1    0    0  501    0  0.00000000000E+00  0.00000000000E+00 -0.20856599598E+04  0.20856599598E+04  0.50400001928E-02 0. -1.
    10030    2    1    2    0    0  0.00000000000E+00  0.00000000000E+00 -0.10421619413E+04  0.31291579783E+04  0.29505131996E+04 0.  0.
        1    1    3    3  502    0  0.69264122253E+03 -0.26116798169E+02 -0.19022162041E+04  0.20245642587E+04  0.50400001928E-02 0. -1.
       -1    1    3    3    0  502 -0.69264122253E+03  0.26116798169E+02  0.86005426281E+03  0.11045937196E+04  0.50400001928E-02 0.  1.
</event>
<event>
 5   0  0.4935331E-06  0.2971058E+04  0.7818609E-02  0.8252044E-01
        2   -1    0    0  501    0  0.00000000000E+00  0.00000000000E+00  0.22310899606E+04  0.22310899606E+04  0.25500000920E-02 0. -1.
       -2   -1    0    0    0  501  0.00000000000E+00  0.00000000000E+00 -0.98911162341E+03  0.98911162341E+03  0.25500000920E-02 0.  1.
    10030    2    1    2    0    0  0.00000000000E+00  0.00000000000E+00  0.12419783372E+04  0.32202015841E+04  0.29710584060E+04 0.  0.
        5    1    3    3  502    0  0.92716419316E+03  0.10439890641E+04  0.71282181492E+02  0.13980879251E+04  0.46999998093E+01 0.  1.
       -5    1    3    3    0  502 -0.92716419316E+03 -0.10439890641E+04  0.11706961557E+04  0.18221136589E+04  0.46999998093E+01 0. -1.
</event>
<event>
 5   0  0.1672907E-06  0.2959047E+04  0.7818609E-02  0.8255523E-01
       -1   -1    0    0    0  501  0.00000000000E+00  0.00000000000E+00  0.15899667260E+04  0.15899667260E+04  0.50400001928E-02 0.  1.
        1   -1    0    0  501    0  0.00000000000E+00  0.00000000000E+00 -0.13767517454E+04  0.13767517455E+04  0.50400001928E-02 0. -1.
    10030    2    1    2    0    0  0.00000000000E+00  0.00000000000E+00  0.21321498052E+03  0.29667184714E+04  0.29590467825E+04 0.  0.
        5    1    3    3  502    0 -0.61872336429E+03 -0.13233545505E+04  0.34148288321E+03  0.15002394867E+04  0.46999998093E+01 0.  1.
       -5    1    3    3    0  502  0.61872336429E+03  0.13233545505E+04 -0.12826790269E+03  0.14664789848E+04  0.46999998093E+01 0. -1.
</event>
<event>
 5   0  0.5003556E-06  0.3015965E+04  0.7818609E-02  0.8239187E-01
       -2   -1    0    0    0  501  0.00000000000E+00  0.00000000000E+00  0.15996797521E+04  0.15996797521E+04  0.25500000920E-02 0.  1.
        2   -1    0    0  501    0  0.00000000000E+00  0.00000000000E+00 -0.14215416780E+04  0.14215416780E+04  0.25500000920E-02 0. -1.
    10030    2    1    2    0    0  0.00000000000E+00  0.00000000000E+00  0.17813807402E+03  0.30212214301E+04  0.30159651451E+04 0.  0.
        3    1    3    3  502    0 -0.11110278331E+04  0.14054775220E+03 -0.92257958152E+03  0.14509616159E+04  0.10100000352E+00 0. -1.
       -3    1    3    3    0  502  0.11110278331E+04 -0.14054775220E+03  0.11007176555E+04  0.15702598141E+04  0.10100000352E+00 0.  1.
</event>
<event>
 5   0  0.4935331E-06  0.2939460E+04  0.7818609E-02  0.8261233E-01
       -2   -1    0    0    0  501  0.00000000000E+00  0.00000000000E+00  0.14125649867E+04  0.14125649867E+04  0.25500000920E-02 0.  1.
        2   -1    0    0  501    0  0.00000000000E+00  0.00000000000E+00 -0.15292083890E+04  0.15292083890E+04  0.25500000920E-02 0. -1.
    10030    2    1    2    0    0  0.00000000000E+00  0.00000000000E+00 -0.11664340229E+03  0.29417733758E+04  0.29394599693E+04 0.  0.
        5    1    3    3  502    0 -0.15729536754E+03  0.76593239328E+03 -0.13037648052E+04  0.15202693909E+04  0.46999998093E+01 0. -1.
       -5    1    3    3    0  502  0.15729536754E+03 -0.76593239328E+03  0.11871214029E+04  0.14215039849E+04  0.46999998093E+01 0.  1.
</event>
<event>
 5   0  0.1686012E-06  0.2647096E+04  0.7818609E-02  0.8352377E-01
       -1   -1    0    0    0  501  0.00000000000E+00  0.00000000000E+00  0.11167219506E+04  0.11167219506E+04  0.50400001928E-02 0.  1.
        1   -1    0    0  501    0  0.00000000000E+00  0.00000000000E+00 -0.15686802837E+04  0.15686802837E+04  0.50400001928E-02 0. -1.
    10030    2    1    2    0    0  0.00000000000E+00  0.00000000000E+00 -0.45195833306E+03  0.26854022343E+04  0.26470963007E+04 0.  0.
        4    1    3    3  502    0 -0.10774830119E+04 -0.58874495350E+02 -0.10034520034E+04  0.14735512829E+04  0.12699999809E+01 0. -1.
       -4    1    3    3    0  502  0.10774830119E+04  0.58874495350E+02  0.55149367037E+03  0.12118509514E+04  0.12699999809E+01 0.  1.
</event>
<event>
 5   0  0.5003556E-06  0.3000221E+04  0.7818609E-02  0.8243668E-01
       -2   -1    0    0    0  501  0.00000000000E+00  0.00000000000E+00  0.11594664219E+04  0.11594664219E+04  0.25500000920E-02 0. -1.
        2   -1    0    0  501    0  0.00000000000E+00  0.00000000000E+00 -0.19408335404E+04  0.19408335404E+04  0.25500000920E-02 0.  1.
    10030    2    1    2    0    0  0.00000000000E+00  0.00000000000E+00 -0.78136711842E+03  0.31002999623E+04  0.30002208723E+04 0.  0.
        3    1    3    3  502    0  0.74726160099E+03  0.12809417476E+04 -0.62432206473E+03  0.16090337821E+04  0.10100000352E+00 0.  1.
       -3    1    3    3    0  502 -0.74726160099E+03 -0.12809417476E+04 -0.15704505369E+03  0.14912661802E+04  0.10100000352E+00 0. -1.
</event>
<event>
 5   0  0.4702748E-06  0.2969493E+04  0.7818609E-02  0.8252496E-01
       -2   -1    0    0    0  501  0.00000000000E+00  0.00000000000E+00  0.10225616388E+04  0.10225616388E+04  0.25500000920E-02 0.  1.
        2   -1    0    0  501    0  0.00000000000E+00  0.00000000000E+00 -0.21558335562E+04  0.21558335562E+04  0.25500000920E-02 0. -1.
    10030    2    1    2    0    0  0.00000000000E+00  0.00000000000E+00 -0.11332719173E+04  0.31783951950E+04  0.29694933535E+04 0.  0.
        2    1    3    3  502    0  0.10669342183E+04 -0.44977668999E+03 -0.15614420175E+04  0.19439004272E+04  0.25500000920E-02 0. -1.
       -2    1    3    3    0  502 -0.10669342183E+04  0.44977668999E+03  0.42817010012E+03  0.12344947678E+04  0.25500000920E-02 0.  1.
</event>
<event>
 5   0  0.4532420E-06  0.3000264E+04  0.7818609E-02  0.8243655E-01
        2   -1    0    0  501    0  0.00000000000E+00  0.00000000000E+00  0.16334751894E+04  0.16334751894E+04  0.25500000920E-02 0.  1.
       -2   -1    0    0    0  501  0.00000000000E+00  0.00000000000E+00 -0.13776742654E+04  0.13776742654E+04  0.25500000920E-02 0. -1.
    10030    2    1    2    0    0  0.00000000000E+00  0.00000000000E+00  0.25580092406E+03  0.30111494548E+04  0.30002644761E+04 0.  0.
        4    1    3    3  502    0  0.17753478049E+03  0.57549475407E+03 -0.12510136767E+04  0.13884342413E+04  0.12699999809E+01 0. -1.
       -4    1    3    3    0  502 -0.17753478049E+03 -0.57549475407E+03  0.15068146007E+04  0.16227152135E+04  0.12699999809E+01 0.  1.
</event>
<event>
 5   0  0.4935331E-06  0.2998090E+04  0.7818609E-02  0.8244277E-01
       -2   -1    0    0    0  501  0.00000000000E+00  0.00000000000E+00  0.11148207277E+04  0.11148207277E+04  0.25500000920E-02 0.  1.
        2   -1    0    0  501    0  0.00000000000E+00  0.00000000000E+00 -0.20156923029E+04  0.20156923029E+04  0.25500000920E-02 0. -1.
    10030    2    1    2    0    0  0.00000000000E+00  0.00000000000E+00 -0.90087157517E+03  0.31305130306E+04  0.29980897651E+04 0.  0.
        5    1    3    3  502    0 -0.28538307929E+03  0.64608489321E+03 -0.18310487349E+04  0.19625571968E+04  0.46999998093E+01 0. -1.
       -5    1    3    3    0  502  0.28538307929E+03 -0.64608489321E+03  0.93017715974E+03  0.11679558338E+04  0.46999998093E+01 0.  1.
</event>
<event>
 5   0  0.4768570E-06  0.3007886E+04  0.7818609E-02  0.8241482E-01
        2   -1    0    0  501    0  0.00000000000E+00  0.00000000000E+00  0.22658952417E+04  0.22658952417E+04  0.25500000920E-02 0.  1.
       -2   -1    0    0    0  501  0.00000000000E+00  0.00000000000E+00 -0.99821257586E+03  0.99821257587E+03  0.25500000920E-02 0. -1.
    10030    2    1    2    0    0  0.00000000000E+00  0.00000000000E+00  0.12676826658E+04  0.32641078175E+04  0.30078863847E+04 0.  0.
        1    1    3    3  502    0 -0.19821117875E+03 -0.93720037076E+03  0.18920048863E+04  0.21206873169E+04  0.50400001928E-02 0.  1.
       -1    1    3    3    0  502  0.19821117875E+03  0.93720037076E+03 -0.62432222045E+03  0.11434205007E+04  0.50400001928E-02 0. -1.
</event>
<event>
 5   0  0.4768570E-06  0.2990623E+04  0.7818609E-02  0.8246414E-01
        2   -1    0    0  501    0  0.00000000000E+00  0.00000000000E+00  0.12945890542E+04  0.12945890542E+04  0.25500000920E-02 0.  1.
       -2   -1    0    0    0  501  0.00000000000E+00  0.00000000000E+00 -0.17271550219E+04  0.17271550219E+04  0.25500000920E-02 0. -1.
    10030    2    1    2    0    0  0.00000000000E+00  0.00000000000E+00 -0.43256596768E+03  0.30217440760E+04  0.29906226684E+04 0.  0.
        1    1    3    3  502    0  0.68199262679E+03 -0.16563623579E+03 -0.15504045709E+04  0.17018530016E+04  0.50400001928E-02 0. -1.
       -1    1    3    3    0  502 -0.68199262679E+03  0.16563623579E+03  0.11178386032E+04  0.13198910744E+04  0.50400001928E-02 0.  1.
</event>
<event>
 5   0  0.1700885E-06  0.2978072E+04  0.7818609E-02  0.8250021E-01
        1   -1    0    0  501    0  0.00000000000E+00  0.00000000000E+00  0.16512081925E+04  0.16512081925E+04  0.50400001928E-02 0.  1.
       -1   -1    0    0    0  501  0.00000000000E+00  0.00000000000E+00 -0.13427910635E+04  0.13427910635E+04  0.50400001928E-02 0. -1.
    10030    2    1    2    0    0  0.00000000000E+00  0.00000000000E+00  0.30841712899E+03  0.29939992560E+04  0.29780715941E+04 0.  0.
        1    1    3    3  502    0 -0.11339768992E+04 -0.65259724539E+03 -0.56053740625E+03  0.14233723885E+04  0.50400001928E-02 0. -1.
       -1    1    3    3    0  502  0.11339768992E+04  0.65259724539E+03  0.86895453524E+03  0.15706268675E+04  0.50400001928E-02 0.  1.
</event>
<event>
 5   0  0.1734885E-06  0.3006336E+04  0.7818609E-02  0.8241924E-01
        1   -1    0    0  501    0  0.00000000000E+00  0.00000000000E+00  0.19747340680E+04  0.19747340680E+04  0.50400001928E-02 0.  1.
       -1   -1    0    0    0  501  0.00000000000E+00  0.00000000000E+00 -0.11442121059E+04  0.11442121059E+04  0.50400001928E-02 0. -1.
    10030    2    1    2    0    0  0.00000000000E+00  0.00000000000E+00  0.83052196206E+03  0.31189461739E+04  0.30063363927E+04 0.  0.
        2    1    3    3  502    0 -0.27124248750E+03  0.14183358176E+04  0.84834902900E+03  0.16747970186E+04  0.25500000920E-02 0. -1.
       -2    1    3    3    0  502  0.27124248750E+03 -0.14183358176E+04 -0.17827066945E+02  0.14441491553E+04  0.25500000920E-02 0.  1.
</event>
<event>
 5   0  0.4768570E-06  0.3008214E+04  0.7818609E-02  0.8241389E-01
        2   -1    0    0  501    0  0.00000000000E+00  0.00000000000E+00  0.14048123721E+04  0.14048123721E+04  0.25500000920E-02 0.  1.
       -2   -1    0    0    0  501  0.00000000000E+00  0.00000000000E+00 -0.16104196489E+04  0.16104196489E+04  0.25500000920E-02 0. -1.
    10030    2    1    2    0    0  0.00000000000E+00  0.00000000000E+00 -0.20560727673E+03  0.30152320210E+04  0.30082137205E+04 0.  0.
        1    1    3    3  502    0  0.30081836465E+03  0.83724769036E+03 -0.13184241576E+04  0.15905086114E+04  0.50400001928E-02 0. -1.
       -1    1    3    3    0  502 -0.30081836465E+03 -0.83724769036E+03  0.11128168809E+04  0.14247234096E+04  0.50400001928E-02 0.  1.
</event>
<event>
 5   0  0.1672907E-06  0.2987108E+04  0.7818609E-02  0.8247422E-01
        1   -1    0    0  501    0  0.00000000000E+00  0.00000000000E+00  0.19973326780E+04  0.19973326780E+04  0.50400001928E-02 0. -1.
       -1   -1    0    0    0  501  0.00000000000E+00  0.00000000000E+00 -0.11168416182E+04  0.11168416182E+04  0.50400001928E-02 0.  1.
    10030    2    1    2    0    0  0.00000000000E+00  0.00000000000E+00  0.88049105980E+03  0.31141742961E+04  0.29871084748E+04 0.  0.
        5    1    3    3  502    0 -0.11461070225E+04 -0.51290994959E+03 -0.40288630311E+03  0.13187029182E+04  0.46999998093E+01 0.  1.
       -5    1    3    3    0  502  0.11461070225E+04  0.51290994959E+03  0.12833773629E+04  0.17954713779E+04  0.46999998093E+01 0. -1.
</event>
<event>
 5   0  0.4935331E-06  0.3071417E+04  0.7818609E-02  0.8223626E-01
       -2   -1    0    0    0  501  0.00000000000E+00  0.00000000000E+00  0.11388238330E+04  0.11388238330E+04  0.25500000920E-02 0. -1.
        2   -1    0    0  501    0  0.00000000000E+00  0.00000000000E+00 -0.20709084595E+04  0.20709084595E+04  0.25500000920E-02 0.  1.
    10030    2    1    2    0    0  0.00000000000E+00  0.00000000000E+00 -0.93208462657E+03  0.32097322925E+04  0.30714165524E+04 0.  0.
        5    1    3    3  502    0 -0.45190919993E+03 -0.40525522632E+03 -0.19402149534E+04  0.20329559461E+04  0.46999998093E+01 0.  1.
       -5    1    3    3    0  502  0.45190919993E+03  0.40525522632E+03  0.10081303268E+04  0.11767763464E+04  0.46999998093E+01 0. -1.
</event>
<event>
 5   0  0.1709858E-06  0.2929083E+04  0.7818609E-02  0.8264277E-01
       -1   -1    0    0    0  501  0.00000000000E+00  0.00000000000E+00  0.96268179443E+03  0.96268179445E+03  0.50400001928E-02 0. -1.
        1   -1    0    0  501    0  0.00000000000E+00  0.00000000000E+00 -0.22280278136E+04  0.22280278136E+04  0.50400001928E-02 0.  1.
    10030    2    1    2    0    0  0.00000000000E+00  0.00000000000E+00 -0.12653460192E+04  0.31907096081E+04  0.29290830058E+04 0.  0.
        3    1    3    3  502    0 -0.91915879279E+03 -0.96283013753E+03 -0.12979499554E+04  0.18591849981E+04  0.10100000352E+00 0.  1.
       -3    1    3    3    0  502  0.91915879279E+03  0.96283013753E+03  0.32603936256E+02  0.13315246100E+04  0.10100000352E+00 0. -1.
</event>
<event>
 5   0  0.4702748E-06  0.2992281E+04  0.7818609E-02  0.8245939E-01
       -2   -1    0    0    0  501  0.00000000000E+00  0.00000000000E+00  0.14646327500E+04  0.14646327500E+04  0.25500000920E-02 0. -1.
        2   -1    0    0  501    0  0.00000000000E+00  0.00000000000E+00 -0.15283259278E+04  0.15283259278E+04  0.25500000920E-02 0.  1.
    10030    2    1    2    0    0  0.00000000000E+00  0.00000000000E+00 -0.63693177746E+02  0.29929586778E+04  0.29922808735E+04 0.  0.
        2    1    3    3  502    0  0.42405584504E+03 -0.85861940581E+03  0.11179291565E+04  0.14720109520E+04  0.25500000920E-02 0. -1.
       -2    1    3    3    0  502 -0.42405584504E+03  0.85861940581E+03 -0.11816223343E+04  0.15209477258E+04  0.25500000920E-02 0.  1.
</event>
<event>
 5   0  0.1686012E-06  0.2982131E+04  0.7818609E-02  0.8248852E-01
       -1   -1    0    0    0  501  0.00000000000E+00  0.00000000000E+00  0.14710766008E+04  0.14710766009E+04  0.50400001928E-02 0.  1.
        1   -1    0    0  501    0  0.00000000000E+00  0.00000000000E+00 -0.15113261305E+04  0.15113261305E+04  0.50400001928E-02 0. -1.
    10030    2    1    2    0    0  0.00000000000E+00  0.00000000000E+00 -0.40249529690E+02  0.29824027314E+04  0.29821311218E+04 0.  0.
        4    1    3    3  502    0  0.23087241251E+03  0.10327819608E+04  0.10303680886E+04  0.14770242585E+04  0.12699999809E+01 0.  1.
       -4    1    3    3    0  502 -0.23087241251E+03 -0.10327819608E+04 -0.10706176183E+04  0.15053784729E+04  0.12699999809E+01 0. -1.
</event>
<event>
 5   0  0.1672907E-06  0.3020212E+04  0.7818609E-02  0.8237983E-01
        1   -1    0    0  501    0  0.00000000000E+00  0.00000000000E+00  0.14750202882E+04  0.14750202883E+04  0.50400001928E-02 0. -1.
       -1   -1    0    0    0  501  0.00000000000E+00  0.00000000000E+00 -0.15460267638E+04  0.15460267638E+04  0.50400001928E-02 0.  1.
    10030    2    1    2    0    0  0.00000000000E+00  0.00000000000E+00 -0.71006475573E+02  0.30210470521E+04  0.30202124712E+04 0.  0.
        5    1    3    3  502    0 -0.28236980791E+03 -0.11761196455E+04  0.86885312916E+03  0.14892675982E+04  0.46999998093E+01 0. -1.
       -5    1    3    3    0  502  0.28236980791E+03  0.11761196455E+04 -0.93985960474E+03  0.15317794539E+04  0.46999998093E+01 0.  1.
</event>
<event>
 5   0  0.1709858E-06  0.2535557E+04  0.7818609E-02  0.8390427E-01
        1   -1    0    0  501    0  0.00000000000E+00  0.00000000000E+00  0.23034784739E+04  0.23034784739E+04  0.50400001928E-02 0. -1.
       -1   -1    0    0    0  501  0.00000000000E+00  0.00000000000E+00 -0.69775444319E+03  0.69775444321E+03  0.50400001928E-02 0.  1.
    10030    2    1    2    0    0  0.00000000000E+00  0.00000000000E+00  0.16057240307E+04  0.30012329172E+04  0.25355570118E+04 0.  0.
        3    1    3    3  502    0  0.45214484605E+03  0.35911784680E+03  0.21388035982E+04  0.22153738807E+04  0.10100000352E+00 0. -1.
       -3    1    3    3    0  502 -0.45214484605E+03 -0.35911784680E+03 -0.53307956743E+03  0.78585903641E+03  0.10100000352E+00 0.  1.
</event>
<event>
 5   0  0.1734885E-06  0.3025909E+04  0.7818609E-02  0.8236371E-01
        1   -1    0    0  501    0  0.00000000000E+00  0.00000000000E+00  0.23583911658E+04  0.23583911658E+04  0.50400001928E-02 0. -1.
       -1   -1    0    0    0  501  0.00000000000E+00  0.00000000000E+00 -0.97059023176E+03  0.97059023177E+03  0.50400001928E-02 0.  1.
    10030    2    1    2    0    0  0.00000000000E+00  0.00000000000E+00  0.13878009340E+04  0.33289813976E+04  0.30259090721E+04 0.  0.
        2    1    3    3  502    0 -0.11691283387E+03  0.13599889318E+04  0.14117851947E+04  0.19637657552E+04  0.25500000920E-02 0. -1.
       -2    1    3    3    0  502  0.11691283387E+03 -0.13599889318E+04 -0.23984260660E+02  0.13652156424E+04  0.25500000920E-02 0.  1.
</event>
<event>
 5   0  0.5003556E-06  0.2892225E+04  0.7818609E-02  0.8275194E-01
        2   -1    0    0  501    0  0.00000000000E+00  0.00000000000E+00  0.20258951467E+04  0.20258951467E+04  0.25500000920E-02 0. -1.
       -2   -1    0    0    0  501  0.00000000000E+00  0.00000000000E+00 -0.10322557189E+04  0.10322557189E+04  0.25500000920E-02 0.  1.
    10030    2    1    2    0    0  0.00000000000E+00  0.00000000000E+00  0.99363942786E+03  0.30581508656E+04  0.28922253377E+04 0.  0.
        3    1    3    3  502    0 -0.67312730450E+03  0.83616765280E+03  0.15214130144E+04  0.18619812787E+04  0.10100000352E+00 0. -1.
       -3    1    3    3    0  502  0.67312730450E+03 -0.83616765280E+03 -0.52777358658E+03  0.11961695869E+04  0.10100000352E+00 0.  1.
</event>
<event>
 5   0  0.4768570E-06  0.2909625E+04  0.7818609E-02  0.8270020E-01
        2   -1    0    0  501    0  0.00000000000E+00  0.00000000000E+00  0.16494107532E+04  0.16494107532E+04  0.25500000920E-02 0. -1.
       -2   -1    0    0    0  501  0.00000000000E+00  0.00000000000E+00 -0.12831728019E+04  0.12831728019E+04  0.25500000920E-02 0.  1.
    10030    2    1    2    0    0  0.00000000000E+00  0.00000000000E+00  0.36623795133E+03  0.29325835551E+04  0.29096247302E+04 0.  0.
        1    1    3    3  502    0  0.60236923053E+03  0.31135450589E+03 -0.11141614658E+04  0.13042799125E+04  0.50400001928E-02 0.  1.
       -1    1    3    3    0  502 -0.60236923053E+03 -0.31135450589E+03  0.14803994171E+04  0.16283036426E+04  0.50400001928E-02 0. -1.
</event>
<event>
 5   0  0.1734885E-06  0.3003192E+04  0.7818609E-02  0.8242820E-01
        1   -1    0    0  501    0  0.00000000000E+00  0.00000000000E+00  0.14173915263E+04  0.14173915263E+04  0.50400001928E-02 0.  1.
       -1   -1    0    0    0  501  0.00000000000E+00  0.00000000000E+00 -0.15908032284E+04  0.15908032284E+04  0.50400001928E-02 0. -1.
    10030    2    1    2    0    0  0.00000000000E+00  0.00000000000E+00 -0.17341170218E+03  0.30081947547E+04  0.30031923122E+04 0.  0.
        2    1    3    3  502    0 -0.72827582566E+03  0.28229160902E+03 -0.13713071844E+04  0.15781500641E+04  0.25500000920E-02 0. -1.
       -2    1    3    3    0  502  0.72827582566E+03 -0.28229160902E+03  0.11978954822E+04  0.14300446906E+04  0.25500000920E-02 0.  1.
</event>
<event>
 5   0  0.1686012E-06  0.3025810E+04  0.7818609E-02  0.8236399E-01
        1   -1    0    0  501    0  0.00000000000E+00  0.00000000000E+00  0.16085678055E+04  0.16085678055E+04  0.50400001928E-02 0. -1.
       -1   -1    0    0    0  501  0.00000000000E+00  0.00000000000E+00 -0.14229311645E+04  0.14229311645E+04  0.50400001928E-02 0.  1.
    10030    2    1    2    0    0  0.00000000000E+00  0.00000000000E+00  0.18563664097E+03  0.30314989701E+04  0.30258098161E+04 0.  0.
        4    1    3    3  502    0  0.88988040947E+03 -0.73518891643E+03  0.10726601159E+04  0.15757510029E+04  0.12699999809E+01 0. -1.
       -4    1    3    3    0  502 -0.88988040947E+03  0.73518891643E+03 -0.88702347490E+03  0.14557479672E+04  0.12699999809E+01 0.  1.
</event>
<event>
 5   0  0.1709858E-06  0.2994731E+04  0.7818609E-02  0.8245237E-01
        1   -1    0    0  501    0  0.00000000000E+00  0.00000000000E+00  0.19000236561E+04  0.19000236561E+04  0.50400001928E-02 0. -1.
       -1   -1    0    0    0  501  0.00000000000E+00  0.00000000000E+00 -0.11800400923E+04  0.11800400923E+04  0.50400001928E-02 0.  1.
    10030    2    1    2    0    0  0.00000000000E+00  0.00000000000E+00  0.71998356382E+03  0.30800637484E+04  0.29947314340E+04 0.  0.
        3    1    3    3  502    0  0.11013420132E+04  0.15422496015E+03 -0.67125735859E+03  0.12989711391E+04  0.10100000352E+00 0.  1.
       -3    1    3    3    0  502 -0.11013420132E+04 -0.15422496015E+03  0.13912409224E+04  0.17810926093E+04  0.10100000352E+00 0. -1.
</event>
<event>
 5   0  0.1686012E-06  0.2944180E+04  0.7818609E-02  0.8259853E-01
       -1   -1    0    0    0  501  0.00000000000E+00  0.00000000000E+00  0.12963243960E+04  0.12963243960E+04  0.50400001928E-02 0. -1.
        1   -1    0    0  501    0  0.00000000000E+00  0.00000000000E+00 -0.16716867612E+04  0.16716867612E+04  0.50400001928E-02 0.  1.
    10030    2    1    2    0    0  0.00000000000E+00  0.00000000000E+00 -0.37536236519E+03  0.29680111573E+04  0.29441795673E+04 0.  0.
        4    1    3    3  502    0  0.81861809987E+03 -0.11731722171E+04 -0.53773547363E+03  0.15282767083E+04  0.12699999809E+01 0.  1.
       -4    1    3    3    0  502 -0.81861809987E+03  0.11731722171E+04  0.16237310844E+03  0.14397344490E+04  0.12699999809E+01 0. -1.
</event>
<event>
 5   0  0.4702748E-06  0.3009261E+04  0.7818609E-02  0.8241091E-01
        2   -1    0    0  501    0  0.00000000000E+00  0.00000000000E+00  0.24056152499E+04  0.24056152499E+04  0.25500000920E-02 0.  1.
       -2   -1    0    0    0  501  0.00000000000E+00  0.00000000000E+00 -0.94109513669E+03  0.94109513669E+03  0.25500000920E-02 0. -1.
    10030    2    1    2    0    0  0.00000000000E+00  0.00000000000E+00  0.14645201132E+04  0.33467103866E+04  0.30092609142E+04 0.  0.
        2    1    3    3  502    0 -0.11145756995E+03  0.35410872252E+03  0.23538828052E+04  0.23829771375E+04  0.25500000920E-02 0.  1.
       -2    1    3    3    0  502  0.11145756995E+03 -0.35410872252E+03 -0.88936269205E+03  0.96373324903E+03  0.25500000920E-02 0. -1.
</event>
<event>
 5   0  0.4768570E-06  0.3021880E+04  0.7818609E-02  0.8237511E-01
       -2   -1    0    0    0  501  0.00000000000E+00  0.00000000000E+00  0.83416778917E+03  0.83416778918E+03  0.25500000920E-02 0.  1.
        2   -1    0    0  501    0  0.00000000000E+00  0.00000000000E+00 -0.27367863925E+04  0.27367863925E+04  0.25500000920E-02 0. -1.
    10030    2    1    2    0    0  0.00000000000E+00  0.00000000000E+00 -0.19026186033E+04  0.35709541817E+04  0.30218795836E+04 0.  0.
        1    1    3    3  502    0  0.37671149396E+03  0.12533155384E+04 -0.58967443336E+02  0.13100337965E+04  0.50400001928E-02 0.  1.
       -1    1    3    3    0  502 -0.37671149396E+03 -0.12533155384E+04 -0.18436511600E+04  0.22609203852E+04  0.50400001928E-02 0. -1.
</event>
<event>
 5   0  0.1700885E-06  0.3036298E+04  0.7818609E-02  0.8233441E-01
        1   -1    0    0  501    0  0.00000000000E+00  0.00000000000E+00  0.21452699958E+04  0.21452699958E+04  0.50400001928E-02 0. -1.
       -1   -1    0    0    0  501  0.00000000000E+00  0.00000000000E+00 -0.10743525576E+04  0.10743525576E+04  0.50400001928E-02 0.  1.
    10030    2    1    2    0    0  0.00000000000E+00  0.00000000000E+00  0.10709174382E+04  0.32196225534E+04  0.30362979477E+04 0.  0.
        1    1    3    3  502    0 -0.81853855662E+03  0.12709744482E+04  0.68313278677E+03  0.16589309271E+04  0.50400001928E-02 0.  1.
       -1    1    3    3    0  502  0.81853855662E+03 -0.12709744482E+04  0.38778465140E+03  0.15606916263E+04  0.50400001928E-02 0. -1.
</event>
<event>
 5   0  0.4702748E-06  0.3020997E+04  0.7818609E-02  0.8237760E-01
       -2   -1    0    0    0  501  0.00000000000E+00  0.00000000000E+00  0.95188905077E+03  0.95188905078E+03  0.25500000920E-02 0. -1.
        2   -1    0    0  501    0  0.00000000000E+00  0.00000000000E+00 -0.23969237890E+04  0.23969237890E+04  0.25500000920E-02 0.  1.
    10030    2    1    2    0    0  0.00000000000E+00  0.00000000000E+00 -0.14450347382E+04  0.33488128398E+04  0.30209968621E+04 0.  0.
        2    1    3    3  502    0  0.10112360959E+04 -0.40148189065E+03  0.43894741021E+03  0.11732267381E+04  0.25500000920E-02 0. -1.
       -2    1    3    3    0  502 -0.10112360959E+04  0.40148189065E+03 -0.18839821484E+04  0.21755861016E+04  0.25500000920E-02 0.  1.
</event>
<event>
 5   0  0.1709858E-06  0.2970126E+04  0.7818609E-02  0.8252313E-01
       -1   -1    0    0    0  501  0.00000000000E+00  0.00000000000E+00  0.10168282857E+04  0.10168282857E+04  0.50400001928E-02 0.  1.
        1   -1    0    0  501    0  0.00000000000E+00  0.00000000000E+00 -0.21689124245E+04  0.21689124245E+04  0.50400001928E-02 0. -1.
    10030    2    1    2    0    0  0.00000000000E+00  0.00000000000E+00 -0.11520841388E+04  0.31857407102E+04  0.29701255882E+04 0.  0.
        3    1    3    3  502    0 -0.10406953757E+04  0.63038440084E+03  0.33722682336E+03  0.12625978372E+04  0.10100000352E+00 0.  1.
       -3    1    3    3    0  502  0.10406953757E+04 -0.63038440084E+03 -0.14893109622E+04  0.19231428730E+04  0.10100000352E+00 0. -1.
</event>
<event>
 5   0  0.4768570E-06  0.2968140E+04  0.7818609E-02  0.8252888E-01
        2   -1    0    0  501    0  0.00000000000E+00  0.00000000000E+00  0.17568178907E+04  0.17568178907E+04  0.25500000920E-02 0.  1.
       -2   -1    0    0    0  501  0.00000000000E+00  0.00000000000E+00 -0.12536665334E+04  0.12536665334E+04  0.25500000920E-02 0. -1.
    10030    2    1    2    0    0  0.00000000000E+00  0.00000000000E+00  0.50315135724E+03  0.30104844241E+04  0.29681400202E+04 0.  0.
        1    1    3    3  502    0  0.85717877620E+03 -0.49188435453E+03  0.13745100877E+04  0.16929216325E+04  0.50400001928E-02 0.  1.
       -1    1    3    3    0  502 -0.85717877620E+03  0.49188435453E+03 -0.87135873048E+03  0.13175627916E+04  0.50400001928E-02 0. -1.
</event>
<event>
 5   0  0.1709858E-06  0.3063877E+04  0.7818609E-02  0.8225722E-01
        1   -1    0    0  501    0  0.00000000000E+00  0.00000000000E+00  0.31789519651E+04  0.31789519651E+04  0.50400001928E-02 0. -1.
       -1   -1    0    0    0  501  0.00000000000E+00  0.00000000000E+00 -0.73824203146E+03  0.73824203147E+03  0.50400001928E-02 0.  1.
    10030    2    1    2    0    0  0.00000000000E+00  0.00000000000E+00  0.24407099337E+04  0.39171939966E+04  0.30638772539E+04 0.  0.
        3    1    3    3  502    0 -0.21857390751E+03 -0.14364715544E+04  0.18409401128E+04  0.23452687669E+04  0.10100000352E+00 0.  1.
       -3    1    3    3    0  502  0.21857390751E+03  0.14364715544E+04  0.59976982085E+03  0.15719252297E+04  0.10100000352E+00 0. -1.
</event>
<event>
 5   0  0.4935331E-06  0.3016941E+04  0.7818609E-02  0.8238910E-01
       -2   -1    0    0    0  501  0.00000000000E+00  0.00000000000E+00  0.11167483587E+04  0.11167483587E+04  0.25500000920E-02 0. -1.
        2   -1    0    0  501    0  0.00000000000E+00  0.00000000000E+00 -0.20375973710E+04  0.20375973710E+04  0.25500000920E-02 0.  1.
    10030    2    1    2    0    0  0.00000000000E+00  0.00000000000E+00 -0.92084901227E+03  0.31543457296E+04  0.30169411792E+04 0.  0.
        5    1    3    3  502    0 -0.12455955353E+04 -0.74512820630E+03 -0.88990930981E+03  0.17025524811E+04  0.46999998093E+01 0.  1.
       -5    1    3    3    0  502  0.12455955353E+04  0.74512820630E+03 -0.30939702457E+02  0.14517932485E+04  0.46999998093E+01 0. -1.
</event>
<event>
 5   0  0.4768570E-06  0.2966267E+04  0.7818609E-02  0.8253430E-01
       -2   -1    0    0    0  501  0.00000000000E+00  0.00000000000E+00  0.98407449211E+03  0.98407449211E+03  0.25500000920E-02 0. -1.
        2   -1    0    0  501    0  0.00000000000E+00  0.00000000000E+00 -0.22352836975E+04  0.22352836975E+04  0.25500000920E-02 0.  1.
    10030    2    1    2    0    0  0.00000000000E+00  0.00000000000E+00 -0.12512092054E+04  0.32193581896E+04  0.29662674656E+04 0.  0.
        1    1    3    3  502    0 -0.14428520752E+03 -0.14568271168E+04 -0.88363360274E+03  0.17099625181E+04  0.50400001928E-02 0. -1.
       -1    1    3    3    0  502  0.14428520752E+03  0.14568271168E+04 -0.36757560263E+03  0.15093956715E+04  0.50400001928E-02 0.  1.
</event>
<event>
 5   0  0.1734885E-06  0.2984151E+04  0.7818609E-02  0.8248271E-01
        1   -1    0    0  501    0  0.00000000000E+00  0.00000000000E+00  0.30596302450E+04  0.30596302450E+04  0.50400001928E-02 0.  1.
       -1   -1    0    0    0  501  0.00000000000E+00  0.00000000000E+00 -0.72763336794E+03  0.72763336796E+03  0.50400001928E-02 0. -1.
    10030    2    1    2    0    0  0.00000000000E+00  0.00000000000E+00  0.23319968770E+04  0.37872636129E+04  0.29841508406E+04 0.  0.
        2    1    3    3  502    0  0.27200481826E+03 -0.89897641875E+03  0.26373878829E+04  0.27996357027E+04  0.25500000920E-02 0.  1.
       -2    1    3    3    0  502 -0.27200481826E+03  0.89897641875E+03 -0.30539100591E+03  0.98762791026E+03  0.25500000920E-02 0. -1.
</event>
<event>
 5   0  0.4702748E-06  0.3011045E+04  0.7818609E-02  0.8240584E-01
       -2   -1    0    0    0  501  0.00000000000E+00  0.00000000000E+00  0.19293197694E+04  0.19293197694E+04  0.25500000920E-02 0. -1.
        2   -1    0    0  501    0  0.00000000000E+00  0.00000000000E+00 -0.11748174756E+04  0.11748174756E+04  0.25500000920E-02 0.  1.
    10030    2    1    2    0    0  0.00000000000E+00  0.00000000000E+00  0.75450229387E+03  0.31041372450E+04  0.30110453873E+04 0.  0.
        2    1    3    3  502    0 -0.67402465563E+03 -0.93685523044E+03 -0.61938022673E+03  0.13098239670E+04  0.25500000920E-02 0.  1.
       -2    1    3    3    0  502  0.67402465563E+03  0.93685523044E+03  0.13738825206E+04  0.17943132780E+04  0.25500000920E-02 0. -1.
</event>
<event>
 5   0  0.4768570E-06  0.3049626E+04  0.7818609E-02  0.8229700E-01
        2   -1    0    0  501    0  0.00000000000E+00  0.00000000000E+00  0.17106953399E+04  0.17106953399E+04  0.25500000920E-02 0.  1.
       -2   -1    0    0    0  501  0.00000000000E+00  0.00000000000E+00 -0.13591287606E+04  0.13591287606E+04  0.25500000920E-02 0. -1.
    10030    2    1    2    0    0  0.00000000000E+00  0.00000000000E+00  0.35156657939E+03  0.30698241005E+04  0.30496263621E+04 0.  0.
        1    1    3    3  502    0  0.78692821031E+03 -0.10616254435E+04  0.94157842425E+03  0.16226134843E+04  0.50400001928E-02 0.  1.
       -1    1    3    3    0  502 -0.78692821031E+03  0.10616254435E+04 -0.59001184486E+03  0.14472106162E+04  0.50400001928E-02 0. -1.
</event>
<event>
 5   0  0.1734885E-06  0.3027175E+04  0.7818609E-02  0.8236013E-01
       -1   -1    0    0    0  501  0.00000000000E+00  0.00000000000E+00  0.11413089469E+04  0.11413089469E+04  0.50400001928E-02 0.  1.
        1   -1    0    0  501    0  0.00000000000E+00  0.00000000000E+00 -0.20072976035E+04  0.20072976035E+04  0.50400001928E-02 0. -1.
    10030    2    1    2    0    0  0.00000000000E+00  0.00000000000E+00 -0.86598865663E+03  0.31486065505E+04  0.30271747317E+04 0.  0.
        2    1    3    3  502    0 -0.10303824571E+04 -0.46420554229E+03 -0.14802459318E+04  0.18623379962E+04  0.25500000920E-02 0. -1.
       -2    1    3    3    0  502  0.10303824571E+04  0.46420554229E+03  0.61425727520E+03  0.12862685542E+04  0.25500000920E-02 0.  1.
</event>
<event>
 5   0  0.1686012E-06  0.2869562E+04  0.7818609E-02  0.8281992E-01
       -1   -1    0    0    0  501  0.00000000000E+00  0.00000000000E+00  0.11812456120E+04  0.11812456120E+04  0.50400001928E-02 0.  1.
        1   -1    0    0  501    0  0.00000000000E+00  0.00000000000E+00 -0.17427338982E+04  0.17427338982E+04  0.50400001928E-02 0. -1.
    10030    2    1    2    0    0  0.00000000000E+00  0.00000000000E+00 -0.56148828627E+03  0.29239795102E+04  0.28695621758E+04 0.  0.
        4    1    3    3  502    0  0.37438094333E+02 -0.33238602384E+03 -0.17024496937E+04  0.17349981706E+04  0.12699999809E+01 0. -1.
       -4    1    3    3    0  502 -0.37438094333E+02  0.33238602384E+03  0.11409614074E+04  0.11889813396E+04  0.12699999809E+01 0.  1.
</event>
<event>
 5   0  0.4935331E-06  0.2993289E+04  0.7818609E-02  0.8245650E-01
        2   -1    0    0  501    0  0.00000000000E+00  0.00000000000E+00  0.14065216819E+04  0.14065216819E+04  0.25500000920E-02 0.  1.
       -2   -1    0    0    0  501  0.00000000000E+00  0.00000000000E+00 -0.15925424655E+04  0.15925424655E+04  0.25500000920E-02 0. -1.
    10030    2    1    2    0    0  0.00000000000E+00  0.00000000000E+00 -0.18602078353E+03  0.29990641474E+04  0.29932894996E+04 0.  0.
        5    1    3    3  502    0 -0.59691922706E+03 -0.13200634359E+04  0.28327155672E+03  0.14761927053E+04  0.46999998093E+01 0.  1.
       -5    1    3    3    0  502  0.59691922706E+03  0.13200634359E+04 -0.46929234025E+03  0.15228714421E+04  0.46999998093E+01 0. -1.
</event>
<event>
 5   0  0.1672907E-06  0.3204441E+04  0.7818609E-02  0.8187645E-01
       -1   -1    0    0    0  501  0.00000000000E+00  0.00000000000E+00  0.99460849195E+03  0.99460849196E+03  0.50400001928E-02 0. -1.
        1   -1    0    0  501    0  0.00000000000E+00  0.00000000000E+00 -0.25810260462E+04  0.25810260462E+04  0.50400001928E-02 0.  1.
    10030    2    1    2    0    0  0.00000000000E+00  0.00000000000E+00 -0.15864175543E+04  0.35756345382E+04  0.32044409332E+04 0.  0.
        5    1    3    3  502    0 -0.83445165908E+03 -0.12344736287E+04 -0.14503730883E+04  0.20793842590E+04  0.46999998093E+01 0. -1.
       -5    1    3    3    0  502  0.83445165908E+03  0.12344736287E+04 -0.13604446600E+03  0.14962502792E+04  0.46999998093E+01 0.  1.
</event>
<event>
 5   0  0.1709858E-06  0.3005062E+04  0.7818609E-02  0.8242287E-01
        1   -1    0    0  501    0  0.00000000000E+00  0.00000000000E+00  0.74667553959E+03  0.74667553960E+03  0.50400001928E-02 0. -1.
       -1   -1    0    0    0  501  0.00000000000E+00  0.00000000000E+00 -0.30235339466E+04  0.30235339466E+04  0.50400001928E-02 0.  1.
    10030    2    1    2    0    0  0.00000000000E+00  0.00000000000E+00 -0.22768584070E+04  0.37702094862E+04  0.30050616240E+04 0.  0.
        3    1    3    3  502    0 -0.98454398342E+03  0.74525527098E+03 -0.64379075310E+02  0.12364776382E+04  0.10100000352E+00 0. -1.
       -3    1    3    3    0  502  0.98454398342E+03 -0.74525527098E+03 -0.22124793317E+04  0.25337318480E+04  0.10100000352E+00 0.  1.
</event>
<event>
 5   0  0.5003556E-06  0.2622709E+04  0.7818609E-02  0.8360528E-01
        2   -1    0    0  501    0  0.00000000000E+00  0.00000000000E+00  0.11567538406E+04  0.11567538406E+04  0.25500000920E-02 0. -1.
       -2   -1    0    0    0  501  0.00000000000E+00  0.00000000000E+00 -0.14866175933E+04  0.14866175933E+04  0.25500000920E-02 0.  1.
    10030    2    1    2    0    0  0.00000000000E+00  0.00000000000E+00 -0.32986375271E+03  0.26433714340E+04  0.26227089893E+04 0.  0.
        3    1    3    3  502    0 -0.10683050185E+04 -0.34675489866E+03 -0.84712181640E+03  0.14068155367E+04  0.10100000352E+00 0.  1.
       -3    1    3    3    0  502  0.10683050185E+04  0.34675489866E+03  0.51725806369E+03  0.12365558973E+04  0.10100000352E+00 0. -1.
</event>
<event>
 5   0  0.4935331E-06  0.2771549E+04  0.7818609E-02  0.8312156E-01
        2   -1    0    0  501    0  0.00000000000E+00  0.00000000000E+00  0.16121021050E+04  0.16121021050E+04  0.25500000920E-02 0.  1.
       -2   -1    0    0    0  501  0.00000000000E+00  0.00000000000E+00 -0.11912212728E+04  0.11912212728E+04  0.25500000920E-02 0. -1.
    10030    2    1    2    0    0  0.00000000000E+00  0.00000000000E+00  0.42088083225E+03  0.28033233778E+04  0.27715485357E+04 0.  0.
        5    1    3    3  502    0  0.12712860553E+04 -0.36569897635E+03 -0.20714170393E+03  0.13389674198E+04  0.46999998093E+01 0. -1.
       -5    1    3    3    0  502 -0.12712860553E+04  0.36569897635E+03  0.62802253617E+03  0.14643559580E+04  0.46999998093E+01 0.  1.
</event>
<event>
 5   0  0.1672907E-06  0.2982176E+04  0.7818609E-02  0.8248839E-01
        1   -1    0    0  501    0  0.00000000000E+00  0.00000000000E+00  0.17392508063E+04  0.17392508063E+04  0.50400001928E-02 0.  1.
       -1   -1    0    0    0  501  0.00000000000E+00  0.00000000000E+00 -0.12783343155E+04  0.12783343156E+04  0.50400001928E-02 0. -1.
    10030    2    1    2    0    0  0.00000000000E+00  0.00000000000E+00  0.46091649072E+03  0.30175851218E+04  0.29821763791E+04 0.  0.
        5    1    3    3  502    0  0.24146421736E+03 -0.10951143858E+04  0.12248479779E+04  0.16606791217E+04  0.46999998093E+01 0.  1.
       -5    1    3    3    0  502 -0.24146421736E+03  0.10951143858E+04 -0.76393148717E+03  0.13569060002E+04  0.46999998093E+01 0. -1.
</event>
<event>
 5   0  0.1734885E-06  0.3010288E+04  0.7818609E-02  0.8240799E-01
       -1   -1    0    0    0  501  0.00000000000E+00  0.00000000000E+00  0.11939076174E+04  0.11939076174E+04  0.50400001928E-02 0. -1.
        1   -1    0    0  501    0  0.00000000000E+00  0.00000000000E+00 -0.18975151992E+04  0.18975151992E+04  0.50400001928E-02 0.  1.
    10030    2    1    2    0    0  0.00000000000E+00  0.00000000000E+00 -0.70360758181E+03  0.30914228166E+04  0.30102875945E+04 0.  0.
        2    1    3    3  502    0  0.49310702415E+03  0.98187744727E+03  0.70462055211E+03  0.13052693137E+04  0.25500000920E-02 0. -1.
       -2    1    3    3    0  502 -0.49310702415E+03 -0.98187744727E+03 -0.14082281339E+04  0.17861535029E+04  0.25500000920E-02 0.  1.
</event>
<event>
 5   0  0.4532420E-06  0.2982600E+04  0.7818609E-02  0.8248717E-01
       -2   -1    0    0    0  501  0.00000000000E+00  0.00000000000E+00  0.10085792609E+04  0.10085792609E+04  0.25500000920E-02 0.  1.
        2   -1    0    0  501    0  0.00000000000E+00  0.00000000000E+00 -0.22050580090E+04  0.22050580090E+04  0.25500000920E-02 0. -1.
    10030    2    1    2    0    0  0.00000000000E+00  0.00000000000E+00 -0.11964787480E+04  0.32136372699E+04  0.29826000583E+04 0.  0.
        4    1    3    3  502    0  0.13760524298E+04 -0.56230691850E+03 -0.46955235654E+03  0.15589067928E+04  0.12699999809E+01 0.  1.
       -4    1    3    3    0  502 -0.13760524298E+04  0.56230691850E+03 -0.72692639149E+03  0.16547304771E+04  0.12699999809E+01 0. -1.
</event>
<event>
 5   0  0.4935331E-06  0.2974240E+04  0.7818609E-02  0.8251125E-01
        2   -1    0    0  501    0  0.00000000000E+00  0.00000000000E+00  0.16995915280E+04  0.16995915280E+04  0.25500000920E-02 0.  1.
       -2   -1    0    0    0  501  0.00000000000E+00  0.00000000000E+00 -0.13012105482E+04  0.13012105482E+04  0.25500000920E-02 0. -1.
    10030    2    1    2    0    0  0.00000000000E+00  0.00000000000E+00  0.39838097974E+03  0.30008020762E+04  0.29742403561E+04 0.  0.
        5    1    3    3  502    0 -0.50758983098E+03 -0.42575569510E+03 -0.11440856875E+04  0.13220701566E+04  0.46999998093E+01 0. -1.
       -5    1    3    3    0  502  0.50758983098E+03  0.42575569510E+03  0.15424666673E+04  0.16787319197E+04  0.46999998093E+01 0.  1.
</event>
<event>
 5   0  0.1700885E-06  0.2993163E+04  0.7818609E-02  0.8245686E-01
        1   -1    0    0  501    0  0.00000000000E+00  0.00000000000E+00  0.15420146314E+04  0.15420146314E+04  0.50400001928E-02 0.  1.
       -1   -1    0    0    0  501  0.00000000000E+00  0.00000000000E+00 -0.14524869231E+04  0.14524869232E+04  0.50400001928E-02 0. -1.
    10030    2    1    2    0    0  0.00000000000E+00  0.00000000000E+00  0.89527708278E+02  0.29945015546E+04  0.29931629341E+04 0.  0.
        1    1    3    3  502    0  0.10039617769E+04  0.75622825293E+03  0.85749141010E+03  0.15215491903E+04  0.50400001928E-02 0.  1.
       -1    1    3    3    0  502 -0.10039617769E+04 -0.75622825293E+03 -0.76796370183E+03  0.14729523643E+04  0.50400001928E-02 0. -1.
</event>
<event>
 5   0  0.4702748E-06  0.3079362E+04  0.7818609E-02  0.8221425E-01
       -2   -1    0    0    0  501  0.00000000000E+00  0.00000000000E+00  0.15804767775E+04  0.15804767775E+04  0.25500000920E-02 0. -1.
        2   -1    0    0  501    0  0.00000000000E+00  0.00000000000E+00 -0.14999381392E+04  0.14999381392E+04  0.25500000920E-02 0.  1.
    10030    2    1    2    0    0  0.00000000000E+00  0.00000000000E+00  0.80538638292E+02  0.30804149166E+04  0.30793618797E+04 0.  0.
        2    1    3    3  502    0 -0.64191672576E+03  0.37131467141E+03 -0.13095199853E+04  0.15049166954E+04  0.25500000920E-02 0.  1.
       -2    1    3    3    0  502  0.64191672576E+03 -0.37131467141E+03  0.13900586236E+04  0.15754982212E+04  0.25500000920E-02 0. -1.
</event>
<event>
 5   0  0.1734885E-06  0.2923567E+04  0.7818609E-02  0.8265900E-01
        1   -1    0    0  501    0  0.00000000000E+00  0.00000000000E+00  0.19064285333E+04  0.19064285333E+04  0.50400001928E-02 0.  1.
       -1   -1    0    0    0  501  0.00000000000E+00  0.00000000000E+00 -0.11208451881E+04  0.11208451881E+04  0.50400001928E-02 0. -1.
    10030    2    1    2    0    0  0.00000000000E+00  0.00000000000E+00  0.78558334521E+03  0.30272737214E+04  0.29235671691E+04 0.  0.
        2    1    3    3  502    0 -0.11400927249E+03 -0.81431747739E+03  0.16442579636E+04  0.18383947669E+04  0.25500000920E-02 0.  1.
       -2    1    3    3    0  502  0.11400927249E+03  0.81431747739E+03 -0.85867461838E+03  0.11888789545E+04  0.25500000920E-02 0. -1.
</event>
<event>
 5   0  0.4768570E-06  0.3026413E+04  0.7818609E-02  0.8236229E-01
        2   -1    0    0  501    0  0.00000000000E+00  0.00000000000E+00  0.15845122725E+04  0.15845122725E+04  0.25500000920E-02 0.  1.
       -2   -1    0    0    0  501  0.00000000000E+00  0.00000000000E+00 -0.14451092564E+04  0.14451092564E+04  0.25500000920E-02 0. -1.
    10030    2    1    2    0    0  0.00000000000E+00  0.00000000000E+00  0.13940301613E+03  0.30296215289E+04  0.30264126300E+04 0.  0.
        1    1    3    3  502    0 -0.37597554935E+02 -0.60993170598E+03 -0.13160939586E+04  0.14510456816E+04  0.50400001928E-02 0. -1.
       -1    1    3    3    0  502  0.37597554935E+02  0.60993170598E+03  0.14554969747E+04  0.15785758473E+04  0.50400001928E-02 0.  1.
</event>
<event>
 5   0  0.1709858E-06  0.2996368E+04  0.7818609E-02  0.8244769E-01
       -1   -1    0    0    0  501  0.00000000000E+00  0.00000000000E+00  0.14817920083E+04  0.14817920083E+04  0.50400001928E-02 0. -1.
        1   -1    0    0  501    0  0.00000000000E+00  0.00000000000E+00 -0.15147569191E+04  0.15147569191E+04  0.50400001928E-02 0.  1.
    10030    2    1    2    0    0  0.00000000000E+00  0.00000000000E+00 -0.32964910848E+02  0.29965489274E+04  0.29963675991E+04 0.  0.
        3    1    3    3  502    0  0.28233086023E+03 -0.14713090520E+04 -0.68047864069E+01  0.14981680001E+04  0.10100000352E+00 0.  1.
       -3    1    3    3    0  502 -0.28233086023E+03  0.14713090520E+04 -0.26160124441E+02  0.14983809273E+04  0.10100000352E+00 0. -1.
</event>
<event>
 5   0  0.1709858E-06  0.2976517E+04  0.7818609E-02  0.8250469E-01
       -1   -1    0    0    0  501  0.00000000000E+00  0.00000000000E+00  0.17197648322E+04  0.17197648322E+04  0.50400001928E-02 0.  1.
        1   -1    0    0  501    0  0.00000000000E+00  0.00000000000E+00 -0.12879160749E+04  0.12879160749E+04  0.50400001928E-02 0. -1.
    10030    2    1    2    0    0  0.00000000000E+00  0.00000000000E+00  0.43184875733E+03  0.30076809072E+04  0.29765166034E+04 0.  0.
        3    1    3    3  502    0 -0.12535833227E+04  0.16670427436E+03 -0.57692529175E+03  0.13900015340E+04  0.10100000352E+00 0. -1.
       -3    1    3    3    0  502  0.12535833227E+04 -0.16670427436E+03  0.10087740491E+04  0.16176793732E+04  0.10100000352E+00 0.  1.
</event>
<event>
 5   0  0.4532420E-06  0.2978905E+04  0.7818609E-02  0.8249780E-01
       -2   -1    0    0    0  501  0.00000000000E+00  0.00000000000E+00  0.18199942860E+04  0.18199942860E+04  0.25500000920E-02 0. -1.
        2   -1    0    0  501    0  0.00000000000E+00  0.00000000000E+00 -0.12189426002E+04  0.12189426002E+04  0.25500000920E-02 0.  1.
    10030    2    1    2    0    0  0.00000000000E+00  0.00000000000E+00  0.60105168584E+03  0.30389368862E+04  0.29789048775E+04 0.  0.
        4    1    3    3  502    0 -0.18145282493E+03 -0.12768084719E+04 -0.45967727311E+03  0.13691127820E+04  0.12699999809E+01 0.  1.
       -4    1    3    3    0  502  0.18145282493E+03  0.12768084719E+04  0.10607289590E+04  0.16698241042E+04  0.12699999809E+01 0. -1.
</event>
<event>
 5   0  0.4768570E-06  0.2946847E+04  0.7818609E-02  0.8259074E-01
        2   -1    0    0  501    0  0.00000000000E+00  0.00000000000E+00  0.22348667866E+04  0.22348667866E+04  0.25500000920E-02 0.  1.
       -2   -1    0    0    0  501  0.00000000000E+00  0.00000000000E+00 -0.97141191226E+03  0.97141191226E+03  0.25500000920E-02 0. -1.
    10030    2    1    2    0    0  0.00000000000E+00  0.00000000000E+00  0.12634548743E+04  0.32062786989E+04  0.29468465985E+04 0.  0.
        1    1    3    3  502    0  0.61440712094E+02  0.73804949539E+03  0.20176340888E+04  0.21492648360E+04  0.50400001928E-02 0.  1.
       -1    1    3    3    0  502 -0.61440712094E+02 -0.73804949539E+03 -0.75417921449E+03  0.10570138629E+04  0.50400001928E-02 0. -1.
</event>
<event>
 5   0  0.1734885E-06  0.3080870E+04  0.7818609E-02  0.8221008E-01
       -1   -1    0    0    0  501  0.00000000000E+00  0.00000000000E+00  0.10537281307E+04  0.10537281307E+04  0.50400001928E-02 0. -1.
        1   -1    0    0  501    0  0.00000000000E+00  0.00000000000E+00 -0.22519464476E+04  0.22519464476E+04  0.50400001928E-02 0.  1.
    10030    2    1    2    0    0  0.00000000000E+00  0.00000000000E+00 -0.11982183168E+04  0.33056745783E+04  0.30808695660E+04 0.  0.
        2    1    3    3  502    0 -0.47317850140E+03 -0.12331275346E+04  0.25147633889E+03  0.13445228744E+04  0.25500000920E-02 0. -1.
       -2    1    3    3    0  502  0.47317850140E+03  0.12331275346E+04 -0.14496946557E+04  0.19611517039E+04  0.25500000920E-02 0.  1.
</event>
<event>
 5   0  0.1686012E-06  0.3021838E+04  0.7818609E-02  0.8237522E-01
       -1   -1    0    0    0  501  0.00000000000E+00  0.00000000000E+00  0.20533793815E+04  0.20533793815E+04  0.50400001928E-02 0.  1.
        1   -1    0    0  501    0  0.00000000000E+00  0.00000000000E+00 -0.11117656877E+04  0.11117656877E+04  0.50400001928E-02 0. -1.
    10030    2    1    2    0    0  0.00000000000E+00  0.00000000000E+00  0.94161369386E+03  0.31651450692E+04  0.30218383413E+04 0.  0.
        4    1    3    3  502    0 -0.14583512390E+03  0.13218705062E+04 -0.28032492726E+03  0.13591148576E+04  0.12699999809E+01 0. -1.
       -4    1    3    3    0  502  0.14583512390E+03 -0.13218705062E+04  0.12219386211E+04  0.18060302116E+04  0.12699999809E+01 0.  1.
</event>
<event>
 5   0  0.1672907E-06  0.2997798E+04  0.7818609E-02  0.8244360E-01
        1   -1    0    0  501    0  0.00000000000E+00  0.00000000000E+00  0.16013599426E+04  0.16013599426E+04  0.50400001928E-02 0.  1.
       -1   -1    0    0    0  501  0.00000000000E+00  0.00000000000E+00 -0.14029942633E+04  0.14029942633E+04  0.50400001928E-02 0. -1.
    10030    2    1    2    0    0  0.00000000000E+00  0.00000000000E+00  0.19836567930E+03  0.30043542058E+04  0.29977984007E+04 0.  0.
        5    1    3    3  502    0 -0.14554601135E+02 -0.14762962498E+04  0.35862010236E+03  0.15193067239E+04  0.46999998093E+01 0.  1.
       -5    1    3    3    0  502  0.14554601135E+02  0.14762962498E+04 -0.16025442305E+03  0.14850474819E+04  0.46999998093E+01 0. -1.
</event>
<event>
 5   0  0.4702748E-06  0.2969504E+04  0.7818609E-02  0.8252493E-01
        2   -1    0    0  501    0  0.00000000000E+00  0.00000000000E+00  0.23090699469E+04  0.23090699469E+04  0.25500000920E-02 0. -1.
       -2   -1    0    0    0  501  0.00000000000E+00  0.00000000000E+00 -0.95470847584E+03  0.95470847584E+03  0.25500000920E-02 0.  1.
    10030    2    1    2    0    0  0.00000000000E+00  0.00000000000E+00  0.13543614710E+04  0.32637784227E+04  0.29695040997E+04 0.  0.
        2    1    3    3  502    0  0.88755129656E+03  0.47483690223E+03 -0.52243476905E+03  0.11340879488E+04  0.25500000920E-02 0.  1.
       -2    1    3    3    0  502 -0.88755129656E+03 -0.47483690223E+03  0.18767962401E+04  0.21296904739E+04  0.25500000920E-02 0. -1.
</event>
<event>
 5   0  0.1686012E-06  0.2978875E+04  0.7818609E-02  0.8249789E-01
        1   -1    0    0  501    0  0.00000000000E+00  0.00000000000E+00  0.26776625518E+04  0.26776625518E+04  0.50400001928E-02 0. -1.
       -1   -1    0    0    0  501  0.00000000000E+00  0.00000000000E+00 -0.82849253345E+03  0.82849253346E+03  0.50400001928E-02 0.  1.
    10030    2    1    2    0    0  0.00000000000E+00  0.00000000000E+00  0.18491700183E+04  0.35061550852E+04  0.29788745736E+04 0.  0.
        4    1    3    3  502    0 -0.70080634252E+03 -0.19351235648E+03 -0.60545354017E+03  0.94612481420E+03  0.12699999809E+01 0.  1.
       -4    1    3    3    0  502  0.70080634252E+03  0.19351235648E+03  0.24546235585E+04  0.25600302710E+04  0.12699999809E+01 0. -1.
</event>
<event>
 5   0  0.4935331E-06  0.3016858E+04  0.7818609E-02  0.8238933E-01
        2   -1    0    0  501    0  0.00000000000E+00  0.00000000000E+00  0.17055462892E+04  0.17055462892E+04  0.25500000920E-02 0.  1.
       -2   -1    0    0    0  501  0.00000000000E+00  0.00000000000E+00 -0.13340929856E+04  0.13340929856E+04  0.25500000920E-02 0. -1.
    10030    2    1    2    0    0  0.00000000000E+00  0.00000000000E+00  0.37145330363E+03  0.30396392749E+04  0.30168575314E+04 0.  0.
        5    1    3    3  502    0 -0.98102952199E+03 -0.62650843613E+03 -0.78089468737E+03  0.14016955255E+04  0.46999998093E+01 0. -1.
       -5    1    3    3    0  502  0.98102952199E+03  0.62650843613E+03  0.11523479910E+04  0.16379437493E+04  0.46999998093E+01 0.  1.
</event>
<event>
 5   0  0.1672907E-06  0.2977183E+04  0.7818609E-02  0.8250277E-01
        1   -1    0    0  501    0  0.00000000000E+00  0.00000000000E+00  0.16033039496E+04  0.16033039496E+04  0.50400001928E-02 0.  1.
       -1   -1    0    0    0  501  0.00000000000E+00  0.00000000000E+00 -0.13820865842E+04  0.13820865843E+04  0.50400001928E-02 0. -1.
    10030    2    1    2    0    0  0.00000000000E+00  0.00000000000E+00  0.22121736533E+03  0.29853905338E+04  0.29771831514E+04 0.  0.
        5    1    3    3  502    0 -0.81568240553E+03  0.10804408569E+04  0.73134067797E+03  0.15386914925E+04  0.46999998093E+01 0. -1.
       -5    1    3    3    0  502  0.81568240553E+03 -0.10804408569E+04 -0.51012331264E+03  0.14466990413E+04  0.46999998093E+01 0.  1.
</event>
<event>
 5   0  0.1700885E-06  0.3066916E+04  0.7818609E-02  0.8224877E-01
       -1   -1    0    0    0  501  0.00000000000E+00  0.00000000000E+00  0.25473558535E+04  0.25473558535E+04  0.50400001928E-02 0. -1.
        1   -1    0    0  501    0  0.00000000000E+00  0.00000000000E+00 -0.92311135576E+03  0.92311135577E+03  0.50400001928E-02 0.  1.
    10030    2    1    2    0    0  0.00000000000E+00  0.00000000000E+00  0.16242444977E+04  0.34704672093E+04  0.30669157899E+04 0.  0.
        1    1    3    3  502    0  0.12697505831E+04 -0.41780908009E+02 -0.15964328261E+03  0.12804288990E+04  0.50400001928E-02 0.  1.
       -1    1    3    3    0  502 -0.12697505831E+04  0.41780908009E+02  0.17838877803E+04  0.21900383103E+04  0.50400001928E-02 0. -1.
</event>
<event>
 5   0  0.4702748E-06  0.2994992E+04  0.7818609E-02  0.8245162E-01
        2   -1    0    0  501    0  0.00000000000E+00  0.00000000000E+00  0.23358761590E+04  0.23358761590E+04  0.25500000920E-02 0. -1.
       -2   -1    0    0    0  501  0.00000000000E+00  0.00000000000E+00 -0.96002280396E+03  0.96002280396E+03  0.25500000920E-02 0.  1.
    10030    2    1    2    0    0  0.00000000000E+00  0.00000000000E+00  0.13758533550E+04  0.32958989629E+04  0.29949920733E+04 0.  0.
        2    1    3    3  502    0  0.32398002461E+03  0.13426117243E+04  0.51054835163E+02  0.13820911312E+04  0.25500000920E-02 0. -1.
       -2    1    3    3    0  502 -0.32398002461E+03 -0.13426117243E+04  0.13247985198E+04  0.19138078317E+04  0.25500000920E-02 0.  1.
</event>
<event>
 5   0  0.1672907E-06  0.2990232E+04  0.7818609E-02  0.8246526E-01
       -1   -1    0    0    0  501  0.00000000000E+00  0.00000000000E+00  0.15457126964E+04  0.15457126964E+04  0.50400001928E-02 0.  1.
        1   -1    0    0  501    0  0.00000000000E+00  0.00000000000E+00 -0.14461758791E+04  0.14461758791E+04  0.50400001928E-02 0. -1.
    10030    2    1    2    0    0  0.00000000000E+00  0.00000000000E+00  0.99536817241E+02  0.29918885755E+04  0.29902323773E+04 0.  0.
        5    1    3    3  502    0  0.82143014680E+03 -0.12262827558E+04  0.28829811015E+03  0.15038799066E+04  0.46999998093E+01 0. -1.
       -5    1    3    3    0  502 -0.82143014680E+03  0.12262827558E+04 -0.18876129290E+03  0.14880086689E+04  0.46999998093E+01 0.  1.
</event>
<event>
 5   0  0.4768570E-06  0.2893919E+04  0.7818609E-02  0.8274689E-01
        2   -1    0    0  501    0  0.00000000000E+00  0.00000000000E+00  0.30650607130E+04  0.30650607130E+04  0.25500000920E-02 0.  1.
       -2   -1    0    0    0  501  0.00000000000E+00  0.00000000000E+00 -0.68308327240E+03  0.68308327241E+03  0.25500000920E-02 0. -1.
    10030    2    1    2    0    0  0.00000000000E+00  0.00000000000E+00  0.23819774406E+04  0.37481439854E+04  0.28939189360E+04 0.  0.
        1    1    3    3  502    0 -0.10776913563E+04  0.79539262718E+03  0.48203494183E+03  0.14235258255E+04  0.50400001928E-02 0.  1.
       -1    1    3    3    0  502  0.10776913563E+04 -0.79539262718E+03  0.18999424988E+04  0.23246181599E+04  0.50400001928E-02 0. -1.
</event>
<event>
 5   0  0.1700885E-06  0.3423230E+04  0.7818609E-02  0.8132228E-01
       -1   -1    0    0    0  501  0.00000000000E+00  0.00000000000E+00  0.18903238689E+04  0.18903238689E+04  0.50400001928E-02 0.  1.
        1   -1    0    0  501    0  0.00000000000E+00  0.00000000000E+00 -0.15498013214E+04  0.15498013215E+04  0.50400001928E-02 0. -1.
    10030    2    1    2    0    0  0.00000000000E+00  0.00000000000E+00  0.34052254747E+03  0.34401251904E+04  0.34232303049E+04 0.  0.
        1    1    3    3  502    0  0.50459196462E+03  0.14154811928E+03 -0.14671906297E+04  0.15579785829E+04  0.50400001928E-02 0. -1.
       -1    1    3    3    0  502 -0.50459196462E+03 -0.14154811928E+03  0.18077131772E+04  0.18821466074E+04  0.50400001928E-02 0.  1.
</event>
<event>
 5   0  0.1734885E-06  0.3006708E+04  0.7818609E-02  0.8241818E-01
       -1   -1    0    0    0  501  0.00000000000E+00  0.00000000000E+00  0.85210899814E+03  0.85210899816E+03  0.50400001928E-02 0. -1.
        1   -1    0    0  501    0  0.00000000000E+00  0.00000000000E+00 -0.26523280185E+04  0.26523280185E+04  0.50400001928E-02 0.  1.
    10030    2    1    2    0    0  0.00000000000E+00  0.00000000000E+00 -0.18002190204E+04  0.35044370167E+04  0.30067075486E+04 0.  0.
        2    1    3    3  502    0  0.80007343583E+03  0.12125633569E+04 -0.44923215060E+03  0.15206041307E+04  0.25500000920E-02 0.  1.
       -2    1    3    3    0  502 -0.80007343583E+03 -0.12125633569E+04 -0.13509868698E+04  0.19838328860E+04  0.25500000920E-02 0. -1.
</event>
<event>
 5   0  0.4532420E-06  0.3017756E+04  0.7818609E-02  0.8238679E-01
        2   -1    0    0  501    0  0.00000000000E+00  0.00000000000E+00  0.14968059371E+04  0.14968059371E+04  0.25500000920E-02 0. -1.
       -2   -1    0    0    0  501  0.00000000000E+00  0.00000000000E+00 -0.15210474649E+04  0.15210474649E+04  0.25500000920E-02 0.  1.
    10030    2    1    2    0    0  0.00000000000E+00  0.00000000000E+00 -0.24241527803E+02  0.30178534020E+04  0.30177560379E+04 0.  0.
        4    1    3    3  502    0  0.26610666231E+03 -0.30772363530E+03 -0.14651661536E+04  0.15205985868E+04  0.12699999809E+01 0.  1.
       -4    1    3    3    0  502 -0.26610666231E+03  0.30772363530E+03  0.14409246258E+04  0.14972548152E+04  0.12699999809E+01 0. -1.
</event>
<event>
 5   0  0.4702748E-06  0.2956588E+04  0.7818609E-02  0.8256237E-01
       -2   -1    0    0    0  501  0.00000000000E+00  0.00000000000E+00  0.13334795268E+04  0.13334795268E+04  0.25500000920E-02 0. -1.
        2   -1    0    0  501    0  0.00000000000E+00  0.00000000000E+00 -0.16388351430E+04  0.16388351430E+04  0.25500000920E-02 0.  1.
    10030    2    1    2    0    0  0.00000000000E+00  0.00000000000E+00 -0.30535561621E+03  0.29723146699E+04  0.29565879734E+04 0.  0.
        2    1    3    3  502    0  0.88558402639E+03 -0.76944250853E+03 -0.10569356197E+04  0.15790547001E+04  0.25500000920E-02 0.  1.
       -2    1    3    3    0  502 -0.88558402639E+03  0.76944250853E+03  0.75158000348E+03  0.13932599698E+04  0.25500000920E-02 0. -1.
</event>
<event>
 5   0  0.4532420E-06  0.2898674E+04  0.7818609E-02  0.8273272E-01
        2   -1    0    0  501    0  0.00000000000E+00  0.00000000000E+00  0.24692190847E+04  0.24692190847E+04  0.25500000920E-02 0. -1.
       -2   -1    0    0    0  501  0.00000000000E+00  0.00000000000E+00 -0.85070524015E+03  0.85070524015E+03  0.25500000920E-02 0.  1.
    10030    2    1    2    0    0  0.00000000000E+00  0.00000000000E+00  0.16185138445E+04  0.33199243248E+04  0.28986739136E+04 0.  0.
        4    1    3    3  502    0 -0.78204985267E+03  0.26013979298E+03  0.21746946598E+04  0.23256339265E+04  0.12699999809E+01 0. -1.
       -4    1    3    3    0  502  0.78204985267E+03 -0.26013979298E+03 -0.55618081528E+03  0.99429039829E+03  0.12699999809E+01 0.  1.
</event>
<event>
 5   0  0.1734885E-06  0.3013769E+04  0.7818609E-02  0.8239810E-01
        1   -1    0    0  501    0  0.00000000000E+00  0.00000000000E+00  0.21419226221E+04  0.21419226221E+04  0.50400001928E-02 0.  1.
       -1   -1    0    0    0  501  0.00000000000E+00  0.00000000000E+00 -0.10601229485E+04  0.10601229485E+04  0.50400001928E-02 0. -1.
    10030    2    1    2    0    0  0.00000000000E+00  0.00000000000E+00  0.10817996736E+04  0.32020455706E+04  0.30137692849E+04 0.  0.
        2    1    3    3  502    0 -0.10917177673E+04  0.44992240949E+03  0.15355594972E+04  0.19370650034E+04  0.25500000920E-02 0.  1.
       -2    1    3    3    0  502  0.10917177673E+04 -0.44992240949E+03 -0.45375982362E+03  0.12649805672E+04  0.25500000920E-02 0. -1.
</event>
<event>
 5   0  0.4768570E-06  0.3002841E+04  0.7818609E-02  0.8242920E-01
        2   -1    0    0  501    0  0.00000000000E+00  0.00000000000E+00  0.14174627951E+04  0.14174627951E+04  0.25500000920E-02 0.  1.
       -2   -1    0    0    0  501  0.00000000000E+00  0.00000000000E+00 -0.15903514174E+04  0.15903514174E+04  0.25500000920E-02 0. -1.
    10030    2    1    2    0    0  0.00000000000E+00  0.00000000000E+00 -0.17288862226E+03  0.30078142125E+04  0.30028412980E+04 0.  0.
        1    1    3    3  502    0  0.75734566537E+03 -0.50062082245E+03 -0.12842801992E+04  0.15727584986E+04  0.50400001928E-02 0. -1.
       -1    1    3    3    0  502 -0.75734566537E+03  0.50062082245E+03  0.11113915769E+04  0.14350557139E+04  0.50400001928E-02 0.  1.
</event>
<event>
 5   0  0.1686012E-06  0.2981585E+04  0.7818609E-02  0.8249009E-01
        1   -1    0    0  501    0  0.00000000000E+00  0.00000000000E+00  0.20526804086E+04  0.20526804086E+04  0.50400001928E-02 0. -1.
       -1   -1    0    0    0  501  0.00000000000E+00  0.00000000000E+00 -0.10827124986E+04  0.10827124987E+04  0.50400001928E-02 0.  1.
    10030    2    1    2    0    0  0.00000000000E+00  0.00000000000E+00  0.96996790993E+03  0.31353929073E+04  0.29815853059E+04 0.  0.
        4    1    3    3  502    0  0.15607652722E+03  0.67698924951E+03 -0.90206805890E+03  0.11385968216E+04  0.12699999809E+01 0.  1.
       -4    1    3    3    0  502 -0.15607652722E+03 -0.67698924951E+03  0.18720359688E+04  0.19967960857E+04  0.12699999809E+01 0. -1.
</event>
<event>
 5   0  0.1734885E-06  0.2862031E+04  0.7818609E-02  0.8284265E-01
        1   -1    0    0  501    0  0.00000000000E+00  0.00000000000E+00  0.20638750591E+04  0.20638750591E+04  0.50400001928E-02 0. -1.
       -1   -1    0    0    0  501  0.00000000000E+00  0.00000000000E+00 -0.99221383119E+03  0.99221383120E+03  0.50400001928E-02 0.  1.
    10030    2    1    2    0    0  0.00000000000E+00  0.00000000000E+00  0.10716612279E+04  0.30560888903E+04  0.28620310128E+04 0.  0.
        2    1    3    3  502    0  0.47965939673E+03  0.80335861484E+03 -0.62033425269E+03  0.11226187180E+04  0.25500000920E-02 0.  1.
       -2    1    3    3    0  502 -0.47965939673E+03 -0.80335861484E+03  0.16919954806E+04  0.19334701723E+04  0.25500000920E-02 0. -1.
</event>
<event>
 5   0  0.1700885E-06  0.3004578E+04  0.7818609E-02  0.8242425E-01
        1   -1    0    0  501    0  0.00000000000E+00  0.00000000000E+00  0.16570847601E+04  0.16570847601E+04  0.50400001928E-02 0. -1.
       -1   -1    0    0    0  501  0.00000000000E+00  0.00000000000E+00 -0.13619530553E+04  0.13619530553E+04  0.50400001928E-02 0.  1.
    10030    2    1    2    0    0  0.00000000000E+00  0.00000000000E+00  0.29513170484E+03  0.30190378154E+04  0.30045776089E+04 0.  0.
        1    1    3    3  502    0  0.35026772891E+02  0.98466208299E+03  0.12870807927E+04  0.16209143282E+04  0.50400001928E-02 0. -1.
       -1    1    3    3    0  502 -0.35026772891E+02 -0.98466208299E+03 -0.99194908786E+03  0.13981234872E+04  0.50400001928E-02 0.  1.
</event>
<event>
 5   0  0.4768570E-06  0.2893234E+04  0.7818609E-02  0.8274893E-01
        2   -1    0    0  501    0  0.00000000000E+00  0.00000000000E+00  0.21045632429E+04  0.21045632429E+04  0.25500000920E-02 0. -1.
       -2   -1    0    0    0  501  0.00000000000E+00  0.00000000000E+00 -0.99436355951E+03  0.99436355951E+03  0.25500000920E-02 0.  1.
    10030    2    1    2    0    0  0.00000000000E+00  0.00000000000E+00  0.11101996834E+04  0.30989268024E+04  0.28932341747E+04 0.  0.
        1    1    3    3  502    0 -0.57623173547E+03 -0.60440300385E+03 -0.71013192477E+03  0.10961903825E+04  0.50400001928E-02 0.  1.
       -1    1    3    3    0  502  0.57623173547E+03  0.60440300385E+03  0.18203316081E+04  0.20027364199E+04  0.50400001928E-02 0. -1.
</event>
<event>
 5   0  0.1709858E-06  0.2707122E+04  0.7818609E-02  0.8332698E-01
       -1   -1    0    0    0  501  0.00000000000E+00  0.00000000000E+00  0.13076637387E+04  0.13076637387E+04  0.50400001928E-02 0. -1.
        1   -1    0    0  501    0  0.00000000000E+00  0.00000000000E+00 -0.14010688309E+04  0.14010688309E+04  0.50400001928E-02 0.  1.
    10030    2    1    2    0    0  0.00000000000E+00  0.00000000000E+00 -0.93405092184E+02  0.27087325696E+04  0.27071216490E+04 0.  0.
        3    1    3    3  502    0 -0.62223403162E+03 -0.27403098147E+03 -0.12178086595E+04  0.13947494794E+04  0.10100000352E+00 0.  1.
       -3    1    3    3    0  502  0.62223403162E+03  0.27403098147E+03  0.11244035673E+04  0.13139830902E+04  0.10100000352E+00 0. -1.
</event>
<event>
 5   0  0.1672907E-06  0.2879318E+04  0.7818609E-02  0.8279058E-01
        1   -1    0    0  501    0  0.00000000000E+00  0.00000000000E+00  0.23149944557E+04  0.23149944557E+04  0.50400001928E-02 0. -1.
       -1   -1    0    0    0  501  0.00000000000E+00  0.00000000000E+00 -0.89530179086E+03  0.89530179088E+03  0.50400001928E-02 0.  1.
    10030    2    1    2    0    0  0.00000000000E+00  0.00000000000E+00  0.14196926648E+04  0.32102962466E+04  0.28793184486E+04 0.  0.
        5    1    3    3  502    0 -0.92429909467E+02  0.10297210009E+04  0.18268726955E+04  0.20991318595E+04  0.46999998093E+01 0. -1.
       -5    1    3    3    0  502  0.92429909467E+02 -0.10297210009E+04 -0.40718003066E+03  0.11111643871E+04  0.46999998093E+01 0.  1.
</event>
<event>
 5   0  0.1709858E-06  0.3019422E+04  0.7818609E-02  0.8238207E-01
        1   -1    0    0  501    0  0.00000000000E+00  0.00000000000E+00  0.14878853382E+04  0.14878853382E+04  0.50400001928E-02 0.  1.
       -1   -1    0    0    0  501  0.00000000000E+00  0.00000000000E+00 -0.15318563457E+04  0.15318563457E+04  0.50400001928E-02 0. -1.
    10030    2    1    2    0    0  0.00000000000E+00  0.00000000000E+00 -0.43971007552E+02  0.30197416839E+04  0.30194215320E+04 0.  0.
        3    1    3    3  502    0 -0.19726043115E+03 -0.78112989866E+03  0.12549235382E+04  0.14912775373E+04  0.10100000352E+00 0.  1.
       -3    1    3    3    0  502  0.19726043115E+03  0.78112989866E+03 -0.12988945458E+04  0.15284641466E+04  0.10100000352E+00 0. -1.
</event>
<event>
 5   0  0.4702748E-06  0.2709117E+04  0.7818609E-02  0.8332053E-01
        2   -1    0    0  501    0  0.00000000000E+00  0.00000000000E+00  0.13231225064E+04  0.13231225064E+04  0.25500000920E-02 0. -1.
       -2   -1    0    0    0  501  0.00000000000E+00  0.00000000000E+00 -0.13867417223E+04  0.13867417223E+04  0.25500000920E-02 0.  1.
    10030    2    1    2    0    0  0.00000000000E+00  0.00000000000E+00 -0.63619215913E+02  0.27098642288E+04  0.27091173348E+04 0.  0.
        2    1    3    3  502    0 -0.21554517234E+03 -0.12883310308E+04  0.32685948881E+03  0.13465116753E+04  0.25500000920E-02 0. -1.
       -2    1    3    3    0  502  0.21554517234E+03  0.12883310308E+04 -0.39047870472E+03  0.13633525535E+04  0.25500000920E-02 0.  1.
</event>
<event>
 5   0  0.4702748E-06  0.2978081E+04  0.7818609E-02  0.8250018E-01
       -2   -1    0    0    0  501  0.00000000000E+00  0.00000000000E+00  0.10941281929E+04  0.10941281929E+04  0.25500000920E-02 0.  1.
        2   -1    0    0  501    0  0.00000000000E+00  0.00000000000E+00 -0.20264917894E+04  0.20264917894E+04  0.25500000920E-02 0. -1.
    10030    2    1    2    0    0  0.00000000000E+00  0.00000000000E+00 -0.93236359656E+03  0.31206199823E+04  0.29780811268E+04 0.  0.
        2    1    3    3  502    0  0.13119599086E+04 -0.56698945665E+03 -0.28423516771E+02  0.14295187099E+04  0.25500000920E-02 0.  1.
       -2    1    3    3    0  502 -0.13119599086E+04  0.56698945665E+03 -0.90394007979E+03  0.16911012724E+04  0.25500000920E-02 0. -1.
</event>
<event>
 5   0  0.4532420E-06  0.3001459E+04  0.7818609E-02  0.8243315E-01
       -2   -1    0    0    0  501  0.00000000000E+00  0.00000000000E+00  0.16222818357E+04  0.16222818357E+04  0.25500000920E-02 0.  1.
        2   -1    0    0  501    0  0.00000000000E+00  0.00000000000E+00 -0.13882842817E+04  0.13882842817E+04  0.25500000920E-02 0. -1.
    10030    2    1    2    0    0  0.00000000000E+00  0.00000000000E+00  0.23399755396E+03  0.30105661174E+04  0.30014585607E+04 0.  0.
        4    1    3    3  502    0 -0.28073361822E+03 -0.11456466838E+04  0.10476444671E+04  0.15776178976E+04  0.12699999809E+01 0.  1.
       -4    1    3    3    0  502  0.28073361822E+03  0.11456466838E+04 -0.81364691311E+03  0.14329482198E+04  0.12699999809E+01 0. -1.
</event>
<event>
 5   0  0.1709858E-06  0.2693758E+04  0.7818609E-02  0.8337033E-01
        1   -1    0    0  501    0  0.00000000000E+00  0.00000000000E+00  0.30798875922E+04  0.30798875922E+04  0.50400001928E-02 0.  1.
       -1   -1    0    0    0  501  0.00000000000E+00  0.00000000000E+00 -0.58900960531E+03  0.58900960534E+03  0.50400001928E-02 0. -1.
    10030    2    1    2    0    0  0.00000000000E+00  0.00000000000E+00  0.24908779869E+04  0.36688971976E+04  0.26937582484E+04 0.  0.
        3    1    3    3  502    0  0.91657292123E+03 -0.98220350185E+03  0.13764582839E+04  0.19233998691E+04  0.10100000352E+00 0. -1.
       -3    1    3    3    0  502 -0.91657292123E+03  0.98220350185E+03  0.11144197031E+04  0.17454973285E+04  0.10100000352E+00 0.  1.
</event>
<event>
 5   0  0.1686012E-06  0.3023536E+04  0.7818609E-02  0.8237042E-01
       -1   -1    0    0    0  501  0.00000000000E+00  0.00000000000E+00  0.98156266276E+03  0.98156266277E+03  0.50400001928E-02 0.  1.
        1   -1    0    0  501    0  0.00000000000E+00  0.00000000000E+00 -0.23283713903E+04  0.23283713903E+04  0.50400001928E-02 0. -1.
    10030    2    1    2    0    0  0.00000000000E+00  0.00000000000E+00 -0.13468087275E+04  0.33099340531E+04  0.30235359576E+04 0.  0.
        4    1    3    3  502    0 -0.10312995122E+04  0.10700635100E+04 -0.36997409200E+03  0.15315015642E+04  0.12699999809E+01 0.  1.
       -4    1    3    3    0  502  0.10312995122E+04 -0.10700635100E+04 -0.97683463553E+03  0.17784324889E+04  0.12699999809E+01 0. -1.
</event>
<event>
 5   0  0.4935331E-06  0.3039575E+04  0.7818609E-02  0.8232519E-01
       -2   -1    0    0    0  501  0.00000000000E+00  0.00000000000E+00  0.13253628500E+04  0.13253628500E+04  0.25500000920E-02 0.  1.
        2   -1    0    0  501    0  0.00000000000E+00  0.00000000000E+00 -0.17427335941E+04  0.17427335941E+04  0.25500000920E-02 0. -1.
    10030    2    1    2    0    0  0.00000000000E+00  0.00000000000E+00 -0.41737074408E+03  0.30680964441E+04  0.30395752092E+04 0.  0.
        5    1    3    3  502    0 -0.32882449343E+03 -0.12237557257E+04  0.63825196644E+03  0.14188344817E+04  0.46999998093E+01 0.  1.
       -5    1    3    3    0  502  0.32882449343E+03  0.12237557257E+04 -0.10556227105E+04  0.16492619624E+04  0.46999998093E+01 0. -1.
</event>
<event>
 5   0  0.1672907E-06  0.3043594E+04  0.7818609E-02  0.8231391E-01
        1   -1    0    0  501    0  0.00000000000E+00  0.00000000000E+00  0.18035013669E+04  0.18035013669E+04  0.50400001928E-02 0.  1.
       -1   -1    0    0    0  501  0.00000000000E+00  0.00000000000E+00 -0.12840946643E+04  0.12840946643E+04  0.50400001928E-02 0. -1.
    10030    2    1    2    0    0  0.00000000000E+00  0.00000000000E+00  0.51940670254E+03  0.30875960312E+04  0.30435942452E+04 0.  0.
        5    1    3    3  502    0  0.78041155696E+03  0.18223134700E+03 -0.10526741178E+04  0.13230250755E+04  0.46999998093E+01 0. -1.
       -5    1    3    3    0  502 -0.78041155696E+03 -0.18223134700E+03  0.15720808204E+04  0.17645709557E+04  0.46999998093E+01 0.  1.
</event>
<event>
 5   0  0.1734885E-06  0.3022482E+04  0.7818609E-02  0.8237340E-01
       -1   -1    0    0    0  501  0.00000000000E+00  0.00000000000E+00  0.15952992221E+04  0.15952992221E+04  0.50400001928E-02 0.  1.
        1   -1    0    0  501    0  0.00000000000E+00  0.00000000000E+00 -0.14316121466E+04  0.14316121466E+04  0.50400001928E-02 0. -1.
    10030    2    1    2    0    0  0.00000000000E+00  0.00000000000E+00  0.16368707553E+03  0.30269113688E+04  0.30224822540E+04 0.  0.
        2    1    3    3  502    0  0.12774892431E+04 -0.19973766643E+03  0.86527874419E+03  0.15558217144E+04  0.25500000920E-02 0.  1.
       -2    1    3    3    0  502 -0.12774892431E+04  0.19973766643E+03 -0.70159166866E+03  0.14710896544E+04  0.25500000920E-02 0. -1.
</event>
<event>
 5   0  0.5003556E-06  0.2984246E+04  0.7818609E-02  0.8248244E-01
       -2   -1    0    0    0  501  0.00000000000E+00  0.00000000000E+00  0.16051529240E+04  0.16051529241E+04  0.25500000920E-02 0. -1.
        2   -1    0    0  501    0  0.00000000000E+00  0.00000000000E+00 -0.13870522307E+04  0.13870522307E+04  0.25500000920E-02 0.  1.
    10030    2    1    2    0    0  0.00000000000E+00  0.00000000000E+00  0.21810069335E+03  0.29922051548E+04  0.29842459308E+04 0.  0.
        3    1    3    3  502    0 -0.67527426312E+03 -0.13228419285E+04  0.25269735955E+03  0.15065729534E+04  0.10100000352E+00 0.  1.
       -3    1    3    3    0  502  0.67527426312E+03  0.13228419285E+04 -0.34596666198E+02  0.14856322014E+04  0.10100000352E+00 0. -1.
</event>
<event>
 5   0  0.1709858E-06  0.2957736E+04  0.7818609E-02  0.8255904E-01
       -1   -1    0    0    0  501  0.00000000000E+00  0.00000000000E+00  0.15940084120E+04  0.15940084120E+04  0.50400001928E-02 0. -1.
        1   -1    0    0  501    0  0.00000000000E+00  0.00000000000E+00 -0.13720448035E+04  0.13720448035E+04  0.50400001928E-02 0.  1.
    10030    2    1    2    0    0  0.00000000000E+00  0.00000000000E+00  0.22196360854E+03  0.29660532155E+04  0.29577362684E+04 0.  0.
        3    1    3    3  502    0  0.91911094440E+03  0.78817416637E+03  0.96252651097E+03  0.15467516734E+04  0.10100000352E+00 0. -1.
       -3    1    3    3    0  502 -0.91911094440E+03 -0.78817416637E+03 -0.74056290243E+03  0.14193015421E+04  0.10100000352E+00 0.  1.
</event>
<event>
 5   0  0.1709858E-06  0.3030682E+04  0.7818609E-02  0.8235023E-01
        1   -1    0    0  501    0  0.00000000000E+00  0.00000000000E+00  0.16456237922E+04  0.16456237922E+04  0.50400001928E-02 0.  1.
       -1   -1    0    0    0  501  0.00000000000E+00  0.00000000000E+00 -0.13953723313E+04  0.13953723313E+04  0.50400001928E-02 0. -1.
    10030    2    1    2    0    0  0.00000000000E+00  0.00000000000E+00  0.25025146092E+03  0.30409961234E+04  0.30306817103E+04 0.  0.
        3    1    3    3  502    0  0.12867275164E+03  0.11816477472E+04  0.10682233532E+04  0.15981080120E+04  0.10100000352E+00 0.  1.
       -3    1    3    3    0  502 -0.12867275164E+03 -0.11816477472E+04 -0.81797189225E+03  0.14428881115E+04  0.10100000352E+00 0. -1.
</event>
<event>
 5   0  0.1709858E-06  0.3001578E+04  0.7818609E-02  0.8243280E-01
       -1   -1    0    0    0  501  0.00000000000E+00  0.00000000000E+00  0.11022652942E+04  0.11022652942E+04  0.50400001928E-02 0. -1.
        1   -1    0    0  501    0  0.00000000000E+00  0.00000000000E+00 -0.20433993422E+04  0.20433993422E+04  0.50400001928E-02 0.  1.
    10030    2    1    2    0    0  0.00000000000E+00  0.00000000000E+00 -0.94113404798E+03  0.31456646364E+04  0.30015783695E+04 0.  0.
        3    1    3    3  502    0  0.47622075085E+03 -0.11681204086E+04  0.38152921777E+03  0.13178983446E+04  0.10100000352E+00 0. -1.
       -3    1    3    3    0  502 -0.47622075085E+03  0.11681204086E+04 -0.13226632658E+04  0.18277662918E+04  0.10100000352E+00 0.  1.
</event>
<event>
 5   0  0.1734885E-06  0.2994556E+04  0.7818609E-02  0.8245287E-01
       -1   -1    0    0    0  501  0.00000000000E+00  0.00000000000E+00  0.28675841440E+04  0.28675841440E+04  0.50400001928E-02 0.  1.
        1   -1    0    0  501    0  0.00000000000E+00  0.00000000000E+00 -0.78178741474E+03  0.78178741475E+03  0.50400001928E-02 0. -1.
    10030    2    1    2    0    0  0.00000000000E+00  0.00000000000E+00  0.20857967292E+04  0.36493715587E+04  0.29945558565E+04 0.  0.
        2    1    3    3  502    0 -0.88093120131E+03 -0.53001760358E+03  0.23694475394E+04  0.25828743840E+04  0.25500000920E-02 0.  1.
       -2    1    3    3    0  502  0.88093120131E+03  0.53001760358E+03 -0.28365081019E+03  0.10664971747E+04  0.25500000920E-02 0. -1.
</event>
<event>
 5   0  0.1686012E-06  0.2958406E+04  0.7818609E-02  0.8255709E-01
       -1   -1    0    0    0  501  0.00000000000E+00  0.00000000000E+00  0.13394166645E+04  0.13394166645E+04  0.50400001928E-02 0. -1.
        1   -1    0    0  501    0  0.00000000000E+00  0.00000000000E+00 -0.16335778246E+04  0.16335778246E+04  0.50400001928E-02 0.  1.
    10030    2    1    2    0    0  0.00000000000E+00  0.00000000000E+00 -0.29416116006E+03  0.29729944891E+04  0.29584058958E+04 0.  0.
        4    1    3    3  502    0 -0.68007018494E+03 -0.10445367970E+03 -0.14629779687E+04  0.16166979240E+04  0.12699999809E+01 0.  1.
       -4    1    3    3    0  502  0.68007018494E+03  0.10445367970E+03  0.11688168086E+04  0.13562965651E+04  0.12699999809E+01 0. -1.
</event>
<event>
 5   0  0.1686012E-06  0.2910033E+04  0.7818609E-02  0.8269899E-01
        1   -1    0    0  501    0  0.00000000000E+00  0.00000000000E+00  0.15305948556E+04  0.15305948556E+04  0.50400001928E-02 0. -1.
       -1   -1    0    0    0  501  0.00000000000E+00  0.00000000000E+00 -0.13831698883E+04  0.13831698883E+04  0.50400001928E-02 0.  1.
    10030    2    1    2    0    0  0.00000000000E+00  0.00000000000E+00  0.14742496731E+03  0.29137647439E+04  0.29100327939E+04 0.  0.
        4    1    3    3  502    0 -0.66479351955E+03 -0.12901478278E+04 -0.29566590782E+02  0.14516568594E+04  0.12699999809E+01 0. -1.
       -4    1    3    3    0  502  0.66479351955E+03  0.12901478278E+04  0.17699155809E+03  0.14621078845E+04  0.12699999809E+01 0.  1.
</event>
<event>
 5   0  0.5003556E-06  0.3005733E+04  0.7818609E-02  0.8242096E-01
       -2   -1    0    0    0  501  0.00000000000E+00  0.00000000000E+00  0.12202547214E+04  0.12202547214E+04  0.25500000920E-02 0. -1.
        2   -1    0    0  501    0  0.00000000000E+00  0.00000000000E+00 -0.18509316665E+04  0.18509316665E+04  0.25500000920E-02 0.  1.
    10030    2    1    2    0    0  0.00000000000E+00  0.00000000000E+00 -0.63067694516E+03  0.30711863879E+04  0.30057332583E+04 0.  0.
        3    1    3    3  502    0  0.14051298043E+04 -0.16340281043E+03 -0.83385118191E+03  0.16420712680E+04  0.10100000352E+00 0.  1.
       -3    1    3    3    0  502 -0.14051298043E+04  0.16340281043E+03  0.20317423675E+03  0.14291151199E+04  0.10100000352E+00 0. -1.
</event>
<event>
 5   0  0.4532420E-06  0.3003793E+04  0.7818609E-02  0.8242649E-01
       -2   -1    0    0    0  501  0.00000000000E+00  0.00000000000E+00  0.11777454777E+04  0.11777454777E+04  0.25500000920E-02 0. -1.
        2   -1    0    0  501    0  0.00000000000E+00  0.00000000000E+00 -0.19152630462E+04  0.19152630462E+04  0.25500000920E-02 0.  1.
    10030    2    1    2    0    0  0.00000000000E+00  0.00000000000E+00 -0.73751756858E+03  0.30930085239E+04  0.30037925303E+04 0.  0.
        4    1    3    3  502    0 -0.27176335270E+03  0.89602828888E+03 -0.15779316650E+04  0.18348275032E+04  0.12699999809E+01 0.  1.
       -4    1    3    3    0  502  0.27176335270E+03 -0.89602828888E+03  0.84041409642E+03  0.12581810206E+04  0.12699999809E+01 0. -1.
</event>
<event>
 5   0  0.4532420E-06  0.2993429E+04  0.7818609E-02  0.8245610E-01
        2   -1    0    0  501    0  0.00000000000E+00  0.00000000000E+00  0.28939545832E+04  0.28939545832E+04  0.25500000920E-02 0. -1.
       -2   -1    0    0    0  501  0.00000000000E+00  0.00000000000E+00 -0.77408043493E+03  0.77408043494E+03  0.25500000920E-02 0.  1.
    10030    2    1    2    0    0  0.00000000000E+00  0.00000000000E+00  0.21198741483E+04  0.36680350182E+04  0.29934285510E+04 0.  0.
        4    1    3    3  502    0 -0.14513493560E+04  0.11517025288E+03  0.14852506089E+04  0.20798197336E+04  0.12699999809E+01 0. -1.
       -4    1    3    3    0  502  0.14513493560E+04 -0.11517025288E+03  0.63462353945E+03  0.15882152846E+04  0.12699999809E+01 0.  1.
</event>
<event>
 5   0  0.1672907E-06  0.2950799E+04  0.7818609E-02  0.8257922E-01
       -1   -1    0    0    0  501  0.00000000000E+00  0.00000000000E+00  0.16389585853E+04  0.16389585853E+04  0.50400001928E-02 0.  1.
        1   -1    0    0  501    0  0.00000000000E+00  0.00000000000E+00 -0.13281630781E+04  0.13281630781E+04  0.50400001928E-02 0. -1.
    10030    2    1    2    0    0  0.00000000000E+00  0.00000000000E+00  0.31079550724E+03  0.29671216634E+04  0.29507994033E+04 0.  0.
        5    1    3    3  502    0 -0.10996581065E+04  0.93689257371E+03  0.45666569473E+03  0.15151175838E+04  0.46999998093E+01 0.  1.
       -5    1    3    3    0  502  0.10996581065E+04 -0.93689257371E+03 -0.14587018749E+03  0.14520040797E+04  0.46999998093E+01 0. -1.
</event>
<event>
 5   0  0.1709858E-06  0.2745420E+04  0.7818609E-02  0.8320417E-01
        1   -1    0    0  501    0  0.00000000000E+00  0.00000000000E+00  0.19205791578E+04  0.19205791578E+04  0.50400001928E-02 0. -1.
       -1   -1    0    0    0  501  0.00000000000E+00  0.00000000000E+00 -0.98112702567E+03  0.98112702568E+03  0.50400001928E-02 0.  1.
    10030    2    1    2    0    0  0.00000000000E+00  0.00000000000E+00  0.93945213217E+03  0.29017061835E+04  0.27454195430E+04 0.  0.
        3    1    3    3  502    0 -0.73952508510E+03  0.96999723508E+03  0.11352877022E+04  0.16663343495E+04  0.10100000352E+00 0.  1.
       -3    1    3    3    0  502  0.73952508510E+03 -0.96999723508E+03 -0.19583556999E+03  0.12353718340E+04  0.10100000352E+00 0. -1.
</event>
<event>
 5   0  0.4532420E-06  0.3032274E+04  0.7818609E-02  0.8234574E-01
        2   -1    0    0  501    0  0.00000000000E+00  0.00000000000E+00  0.18767311710E+04  0.18767311710E+04  0.25500000920E-02 0. -1.
       -2   -1    0    0    0  501  0.00000000000E+00  0.00000000000E+00 -0.12248271969E+04  0.12248271969E+04  0.25500000920E-02 0.  1.
    10030    2    1    2    0    0  0.00000000000E+00  0.00000000000E+00  0.65190397403E+03  0.31015583679E+04  0.30322739847E+04 0.  0.
        4    1    3    3  502    0  0.94586685097E+03 -0.10827252708E+03 -0.88095898692E+03  0.12971034613E+04  0.12699999809E+01 0.  1.
       -4    1    3    3    0  502 -0.94586685097E+03  0.10827252708E+03  0.15328629610E+04  0.18044549066E+04  0.12699999809E+01 0. -1.
</event>
<event>
 5   0  0.4935331E-06  0.2998941E+04  0.7818609E-02  0.8244033E-01
       -2   -1    0    0    0  501  0.00000000000E+00  0.00000000000E+00  0.15388939345E+04  0.15388939345E+04  0.25500000920E-02 0.  1.
        2   -1    0    0  501    0  0.00000000000E+00  0.00000000000E+00 -0.14610574114E+04  0.14610574114E+04  0.25500000920E-02 0. -1.
    10030    2    1    2    0    0  0.00000000000E+00  0.00000000000E+00  0.77836523159E+02  0.29999513459E+04  0.29989414054E+04 0.  0.
        5    1    3    3  502    0  0.77876747952E+03  0.60530267280E+03  0.11686878987E+04  0.15292885952E+04  0.46999998093E+01 0.  1.
       -5    1    3    3    0  502 -0.77876747952E+03 -0.60530267280E+03 -0.10908513755E+04  0.14706627507E+04  0.46999998093E+01 0. -1.
</event>
<event>
 5   0  0.1672907E-06  0.3019241E+04  0.7818609E-02  0.8238258E-01
       -1   -1    0    0    0  501  0.00000000000E+00  0.00000000000E+00  0.12237163493E+04  0.12237163494E+04  0.50400001928E-02 0.  1.
        1   -1    0    0  501    0  0.00000000000E+00  0.00000000000E+00 -0.18623218792E+04  0.18623218792E+04  0.50400001928E-02 0. -1.
    10030    2    1    2    0    0  0.00000000000E+00  0.00000000000E+00 -0.63860552982E+03  0.30860382285E+04  0.30192407862E+04 0.  0.
        5    1    3    3  502    0  0.12559586733E+04  0.22422176104E+03  0.50553544069E+03  0.13723322335E+04  0.46999998093E+01 0.  1.
       -5    1    3    3    0  502 -0.12559586733E+04 -0.22422176104E+03 -0.11441409705E+04  0.17137059951E+04  0.46999998093E+01 0. -1.
</event>
<event>
 5   0  0.1709858E-06  0.2994252E+04  0.7818609E-02  0.8245374E-01
       -1   -1    0    0    0  501  0.00000000000E+00  0.00000000000E+00  0.98366101629E+03  0.98366101630E+03  0.50400001928E-02 0. -1.
        1   -1    0    0  501    0  0.00000000000E+00  0.00000000000E+00 -0.22786169018E+04  0.22786169018E+04  0.50400001928E-02 0.  1.
    10030    2    1    2    0    0  0.00000000000E+00  0.00000000000E+00 -0.12949558855E+04  0.32622779181E+04  0.29942522388E+04 0.  0.
        3    1    3    3  502    0 -0.61530770205E+03  0.81810651419E+03  0.54277979718E+03  0.11586680953E+04  0.10100000352E+00 0. -1.
       -3    1    3    3    0  502  0.61530770205E+03 -0.81810651419E+03 -0.18377356827E+04  0.21036098227E+04  0.10100000352E+00 0.  1.
</event>
<event>
 5   0  0.4702748E-06  0.2998578E+04  0.7818609E-02  0.8244137E-01
       -2   -1    0    0    0  501  0.00000000000E+00  0.00000000000E+00  0.93644338589E+03  0.93644338589E+03  0.25500000920E-02 0. -1.
        2   -1    0    0  501    0  0.00000000000E+00  0.00000000000E+00 -0.24004314013E+04  0.24004314013E+04  0.25500000920E-02 0.  1.
    10030    2    1    2    0    0  0.00000000000E+00  0.00000000000E+00 -0.14639880154E+04  0.33368747871E+04  0.29985784025E+04 0.  0.
        2    1    3    3  502    0 -0.14688410234E+04 -0.91369100494E+01 -0.10663783620E+04  0.18151419355E+04  0.25500000920E-02 0.  1.
       -2    1    3    3    0  502  0.14688410234E+04  0.91369100494E+01 -0.39760965338E+03  0.15217328516E+04  0.25500000920E-02 0. -1.
</event>
<event>
 5   0  0.4935331E-06  0.3039024E+04  0.7818609E-02  0.8232674E-01
       -2   -1    0    0    0  501  0.00000000000E+00  0.00000000000E+00  0.15714702940E+04  0.15714702940E+04  0.25500000920E-02 0.  1.
        2   -1    0    0  501    0  0.00000000000E+00  0.00000000000E+00 -0.14692717453E+04  0.14692717453E+04  0.25500000920E-02 0. -1.
    10030    2    1    2    0    0  0.00000000000E+00  0.00000000000E+00  0.10219854869E+03  0.30407420393E+04  0.30390241207E+04 0.  0.
        5    1    3    3  502    0  0.48178527571E+03 -0.31778198929E+03 -0.13553241238E+04  0.14731014952E+04  0.46999998093E+01 0. -1.
       -5    1    3    3    0  502 -0.48178527571E+03  0.31778198929E+03  0.14575226725E+04  0.15676405441E+04  0.46999998093E+01 0.  1.
</event>
<event>
 5   0  0.4768570E-06  0.3037030E+04  0.7818609E-02  0.8233235E-01
        2   -1    0    0  501    0  0.00000000000E+00  0.00000000000E+00  0.16580495662E+04  0.16580495662E+04  0.25500000920E-02 0. -1.
       -2   -1    0    0    0  501  0.00000000000E+00  0.00000000000E+00 -0.13907230549E+04  0.13907230549E+04  0.25500000920E-02 0.  1.
    10030    2    1    2    0    0  0.00000000000E+00  0.00000000000E+00  0.26732651135E+03  0.30487726211E+04  0.30370299689E+04 0.  0.
        1    1    3    3  502    0  0.15028364763E+04 -0.81164681134E+02 -0.69064538875E+02  0.15066104641E+04  0.50400001928E-02 0.  1.
       -1    1    3    3    0  502 -0.15028364763E+04  0.81164681134E+02  0.33639105023E+03  0.15421621571E+04  0.50400001928E-02 0. -1.
</event>
<event>
 5   0  0.4532420E-06  0.2501706E+04  0.7818609E-02  0.8402378E-01
        2   -1    0    0  501    0  0.00000000000E+00  0.00000000000E+00  0.14792868802E+04  0.14792868802E+04  0.25500000920E-02 0.  1.
       -2   -1    0    0    0  501  0.00000000000E+00  0.00000000000E+00 -0.10576939776E+04  0.10576939776E+04  0.25500000920E-02 0. -1.
    10030    2    1    2    0    0  0.00000000000E+00  0.00000000000E+00  0.42159290269E+03  0.25369808578E+04  0.25017056776E+04 0.  0.
        4    1    3    3  502    0 -0.11219140710E+03 -0.18748051831E+03  0.14597859500E+04  0.14760462355E+04  0.12699999809E+01 0.  1.
       -4    1    3    3    0  502  0.11219140710E+03  0.18748051831E+03 -0.10381930473E+04  0.10609346224E+04  0.12699999809E+01 0. -1.
</event>
<event>
 5   0  0.4935331E-06  0.2972744E+04  0.7818609E-02  0.8251557E-01
        2   -1    0    0  501    0  0.00000000000E+00  0.00000000000E+00  0.84996105267E+03  0.84996105267E+03  0.25500000920E-02 0.  1.
       -2   -1    0    0    0  501  0.00000000000E+00  0.00000000000E+00 -0.25992971566E+04  0.25992971566E+04  0.25500000920E-02 0. -1.
    10030    2    1    2    0    0  0.00000000000E+00  0.00000000000E+00 -0.17493361039E+04  0.34492582093E+04  0.29727437477E+04 0.  0.
        5    1    3    3  502    0 -0.94504203394E+03  0.11213598890E+04 -0.59348674776E+03  0.15820243539E+04  0.46999998093E+01 0. -1.
       -5    1    3    3    0  502  0.94504203394E+03 -0.11213598890E+04 -0.11558493562E+04  0.18672338554E+04  0.46999998093E+01 0.  1.
</event>
<event>
 5   0  0.5003556E-06  0.3060922E+04  0.7818609E-02  0.8226545E-01
       -2   -1    0    0    0  501  0.00000000000E+00  0.00000000000E+00  0.17217810548E+04  0.17217810548E+04  0.25500000920E-02 0.  1.
        2   -1    0    0  501    0  0.00000000000E+00  0.00000000000E+00 -0.13603998855E+04  0.13603998855E+04  0.25500000920E-02 0. -1.
    10030    2    1    2    0    0  0.00000000000E+00  0.00000000000E+00  0.36138116930E+03  0.30821809402E+04  0.30609219197E+04 0.  0.
        3    1    3    3  502    0 -0.15972677255E+02 -0.15282299740E+04  0.26230137153E+03  0.15506592145E+04  0.10100000352E+00 0.  1.
       -3    1    3    3    0  502  0.15972677255E+02  0.15282299740E+04  0.99079797765E+02  0.15315217257E+04  0.10100000352E+00 0. -1.
</event>
<event>
 5   0  0.1686012E-06  0.2919230E+04  0.7818609E-02  0.8267179E-01
       -1   -1    0    0    0  501  0.00000000000E+00  0.00000000000E+00  0.13678414459E+04  0.13678414459E+04  0.50400001928E-02 0.  1.
        1   -1    0    0  501    0  0.00000000000E+00  0.00000000000E+00 -0.15575463212E+04  0.15575463212E+04  0.50400001928E-02 0. -1.
    10030    2    1    2    0    0  0.00000000000E+00  0.00000000000E+00 -0.18970487535E+03  0.29253877671E+04  0.29192303177E+04 0.  0.
        4    1    3    3  502    0 -0.22791250193E+03  0.13661432262E+04  0.36675283188E+03  0.14327598108E+04  0.12699999809E+01 0. -1.
       -4    1    3    3    0  502  0.22791250193E+03 -0.13661432262E+04 -0.55645770722E+03  0.14926279562E+04  0.12699999809E+01 0.  1.
</event>
<event>
 5   0  0.4935331E-06  0.3013960E+04  0.7818609E-02  0.8239756E-01
        2   -1    0    0  501    0  0.00000000000E+00  0.00000000000E+00  0.19434978217E+04  0.19434978217E+04  0.25500000920E-02 0.  1.
       -2   -1    0    0    0  501  0.00000000000E+00  0.00000000000E+00 -0.11685060849E+04  0.11685060849E+04  0.25500000920E-02 0. -1.
    10030    2    1    2    0    0  0.00000000000E+00  0.00000000000E+00  0.77499173683E+03  0.31120039067E+04  0.30139602059E+04 0.  0.
        5    1    3    3  502    0  0.89182459974E+03 -0.10143017511E+04  0.10776768435E+04  0.17278798072E+04  0.46999998093E+01 0. -1.
       -5    1    3    3    0  502 -0.89182459974E+03  0.10143017511E+04 -0.30268510663E+03  0.13841240995E+04  0.46999998093E+01 0.  1.
</event>
<event>
 5   0  0.1672907E-06  0.2447601E+04  0.7818609E-02  0.8421894E-01
        1   -1    0    0  501    0  0.00000000000E+00  0.00000000000E+00  0.89300958475E+03  0.89300958476E+03  0.50400001928E-02 0. -1.
       -1   -1    0    0    0  501  0.00000000000E+00  0.00000000000E+00 -0.16771236749E+04  0.16771236749E+04  0.50400001928E-02 0.  1.
    10030    2    1    2    0    0  0.00000000000E+00  0.00000000000E+00 -0.78411409016E+03  0.25701332597E+04  0.24476008797E+04 0.  0.
        5    1    3    3  502    0  0.93750563969E+03  0.60254920400E+03 -0.92302219608E+03  0.14470571627E+04  0.46999998093E+01 0.  1.
       -5    1    3    3    0  502 -0.93750563969E+03 -0.60254920400E+03  0.13890810592E+03  0.11230760970E+04  0.46999998093E+01 0. -1.
</event>
<event>
 5   0  0.1672907E-06  0.3022445E+04  0.7818609E-02  0.8237351E-01
       -1   -1    0    0    0  501  0.00000000000E+00  0.00000000000E+00  0.10282087664E+04  0.10282087664E+04  0.50400001928E-02 0.  1.
        1   -1    0    0  501    0  0.00000000000E+00  0.00000000000E+00 -0.22211377045E+04  0.22211377045E+04  0.50400001928E-02 0. -1.
    10030    2    1    2    0    0  0.00000000000E+00  0.00000000000E+00 -0.11929289381E+04  0.32493464709E+04  0.30224448774E+04 0.  0.
        5    1    3    3  502    0 -0.93679446878E+03  0.11134694387E+04 -0.10349741533E+04  0.17856628057E+04  0.46999998093E+01 0. -1.
       -5    1    3    3    0  502  0.93679446878E+03 -0.11134694387E+04 -0.15795478481E+03  0.14636836652E+04  0.46999998093E+01 0.  1.
</event>
<event>
 5   0  0.1672907E-06  0.3042378E+04  0.7818609E-02  0.8231732E-01
       -1   -1    0    0    0  501  0.00000000000E+00  0.00000000000E+00  0.14012429192E+04  0.14012429192E+04  0.50400001928E-02 0. -1.
        1   -1    0    0  501    0  0.00000000000E+00  0.00000000000E+00 -0.16514023527E+04  0.16514023527E+04  0.50400001928E-02 0.  1.
    10030    2    1    2    0    0  0.00000000000E+00  0.00000000000E+00 -0.25015943348E+03  0.30526452719E+04  0.30423779210E+04 0.  0.
        5    1    3    3  502    0 -0.77489996860E+03 -0.98669983366E+03 -0.98818456757E+03  0.15970527082E+04  0.46999998093E+01 0.  1.
       -5    1    3    3    0  502  0.77489996860E+03  0.98669983366E+03  0.73802513409E+03  0.14555925637E+04  0.46999998093E+01 0. -1.
</event>
<event>
 5   0  0.1700885E-06  0.2977362E+04  0.7818609E-02  0.8250225E-01
       -1   -1    0    0    0  501  0.00000000000E+00  0.00000000000E+00  0.94821998541E+03  0.94821998542E+03  0.50400001928E-02 0.  1.
        1   -1    0    0  501    0  0.00000000000E+00  0.00000000000E+00 -0.23371911695E+04  0.23371911696E+04  0.50400001928E-02 0. -1.
    10030    2    1    2    0    0  0.00000000000E+00  0.00000000000E+00 -0.13889711841E+04  0.32854111550E+04  0.29773621726E+04 0.  0.
        1    1    3    3  502    0  0.79522620758E+03  0.11807392440E+04 -0.11750202809E+04  0.18458609222E+04  0.50400001928E-02 0. -1.
       -1    1    3    3    0  502 -0.79522620758E+03 -0.11807392440E+04 -0.21395090322E+03  0.14395502328E+04  0.50400001928E-02 0.  1.
</event>
<event>
 5   0  0.5003556E-06  0.2988899E+04  0.7818609E-02  0.8246908E-01
        2   -1    0    0  501    0  0.00000000000E+00  0.00000000000E+00  0.21445098492E+04  0.21445098492E+04  0.25500000920E-02 0. -1.
       -2   -1    0    0    0  501  0.00000000000E+00  0.00000000000E+00 -0.10414403105E+04  0.10414403105E+04  0.25500000920E-02 0.  1.
    10030    2    1    2    0    0  0.00000000000E+00  0.00000000000E+00  0.11030695388E+04  0.31859501597E+04  0.29888987960E+04 0.  0.
        3    1    3    3  502    0 -0.95864673947E+03 -0.10041803182E+04 -0.38104734457E+02  0.13888245618E+04  0.10100000352E+00 0. -1.
       -3    1    3    3    0  502  0.95864673947E+03  0.10041803182E+04  0.11411742732E+04  0.17971255979E+04  0.10100000352E+00 0.  1.
</event>
<event>
 5   0  0.1734885E-06  0.3001121E+04  0.7818609E-02  0.8243411E-01
       -1   -1    0    0    0  501  0.00000000000E+00  0.00000000000E+00  0.12400580014E+04  0.12400580014E+04  0.50400001928E-02 0. -1.
        1   -1    0    0  501    0  0.00000000000E+00  0.00000000000E+00 -0.18157877684E+04  0.18157877684E+04  0.50400001928E-02 0.  1.
    10030    2    1    2    0    0  0.00000000000E+00  0.00000000000E+00 -0.57572976709E+03  0.30558457698E+04  0.30011212245E+04 0.  0.
        2    1    3    3  502    0 -0.12845668341E+04  0.55229561582E+03  0.26661954383E+03  0.14234564902E+04  0.25500000920E-02 0. -1.
       -2    1    3    3    0  502  0.12845668341E+04 -0.55229561582E+03 -0.84234931091E+03  0.16323892796E+04  0.25500000920E-02 0.  1.
</event>
<event>
 5   0  0.1686012E-06  0.2982879E+04  0.7818609E-02  0.8248637E-01
        1   -1    0    0  501    0  0.00000000000E+00  0.00000000000E+00  0.17495055195E+04  0.17495055195E+04  0.50400001928E-02 0. -1.
       -1   -1    0    0    0  501  0.00000000000E+00  0.00000000000E+00 -0.12714406569E+04  0.12714406569E+04  0.50400001928E-02 0.  1.
    10030    2    1    2    0    0  0.00000000000E+00  0.00000000000E+00  0.47806486262E+03  0.30209461764E+04  0.29828794458E+04 0.  0.
        4    1    3    3  502    0  0.25290614240E+02  0.12816047110E+03 -0.12656350549E+04  0.12723593937E+04  0.12699999809E+01 0.  1.
       -4    1    3    3    0  502 -0.25290614240E+02 -0.12816047110E+03  0.17436999175E+04  0.17485867828E+04  0.12699999809E+01 0. -1.
</event>
<event>
 5   0  0.4702748E-06  0.3002602E+04  0.7818609E-02  0.8242988E-01
       -2   -1    0    0    0  501  0.00000000000E+00  0.00000000000E+00  0.97550974554E+03  0.97550974554E+03  0.25500000920E-02 0. -1.
        2   -1    0    0  501    0  0.00000000000E+00  0.00000000000E+00 -0.23104888870E+04  0.23104888870E+04  0.25500000920E-02 0.  1.
    10030    2    1    2    0    0  0.00000000000E+00  0.00000000000E+00 -0.13349791415E+04  0.32859986326E+04  0.30026018226E+04 0.  0.
        2    1    3    3  502    0 -0.54829315557E+03  0.40658197106E+03 -0.21308448059E+04  0.22375061722E+04  0.25500000920E-02 0.  1.
       -2    1    3    3    0  502  0.54829315557E+03 -0.40658197106E+03  0.79586566444E+03  0.10484924604E+04  0.25500000920E-02 0. -1.
</event>
<event>
 5   0  0.4702748E-06  0.2985775E+04  0.7818609E-02  0.8247805E-01
       -2   -1    0    0    0  501  0.00000000000E+00  0.00000000000E+00  0.11830417321E+04  0.11830417321E+04  0.25500000920E-02 0.  1.
        2   -1    0    0  501    0  0.00000000000E+00  0.00000000000E+00 -0.18838840192E+04  0.18838840192E+04  0.25500000920E-02 0. -1.
    10030    2    1    2    0    0  0.00000000000E+00  0.00000000000E+00 -0.70084228714E+03  0.30669257513E+04  0.29857752181E+04 0.  0.
        2    1    3    3  502    0  0.84024610442E+02 -0.10058871211E+04  0.77940314887E+03  0.12752796964E+04  0.25500000920E-02 0.  1.
       -2    1    3    3    0  502 -0.84024610442E+02  0.10058871211E+04 -0.14802454360E+04  0.17916460550E+04  0.25500000920E-02 0. -1.
</event>
<event>
 5   0  0.1700885E-06  0.3015497E+04  0.7818609E-02  0.8239319E-01
       -1   -1    0    0    0  501  0.00000000000E+00  0.00000000000E+00  0.25074125653E+04  0.25074125653E+04  0.50400001928E-02 0.  1.
        1   -1    0    0  501    0  0.00000000000E+00  0.00000000000E+00 -0.90663413678E+03  0.90663413680E+03  0.50400001928E-02 0. -1.
    10030    2    1    2    0    0  0.00000000000E+00  0.00000000000E+00  0.16007784285E+04  0.34140467021E+04  0.30154971907E+04 0.  0.
        1    1    3    3  502    0 -0.31521573329E+03  0.63380531653E+03 -0.70681211519E+03  0.10003266986E+04  0.50400001928E-02 0. -1.
       -1    1    3    3    0  502  0.31521573329E+03 -0.63380531653E+03  0.23075905437E+04  0.24137200035E+04  0.50400001928E-02 0.  1.
</event>
<event>
 5   0  0.4935331E-06  0.2984008E+04  0.7818609E-02  0.8248312E-01
        2   -1    0    0  501    0  0.00000000000E+00  0.00000000000E+00  0.15199219897E+04  0.15199219897E+04  0.25500000920E-02 0.  1.
       -2   -1    0    0    0  501  0.00000000000E+00  0.00000000000E+00 -0.14645986239E+04  0.14645986239E+04  0.25500000920E-02 0. -1.
    10030    2    1    2    0    0  0.00000000000E+00  0.00000000000E+00  0.55323365837E+02  0.29845206136E+04  0.29840078114E+04 0.  0.
        5    1    3    3  502    0 -0.16634613872E+03  0.54626175603E+03  0.14062964064E+04  0.15178157387E+04  0.46999998093E+01 0.  1.
       -5    1    3    3    0  502  0.16634613872E+03 -0.54626175603E+03 -0.13509730405E+04  0.14667048750E+04  0.46999998093E+01 0. -1.
</event>
<event>
 5   0  0.1709858E-06  0.2990254E+04  0.7818609E-02  0.8246519E-01
       -1   -1    0    0    0  501  0.00000000000E+00  0.00000000000E+00  0.14123282120E+04  0.14123282120E+04  0.50400001928E-02 0.  1.
        1   -1    0    0  501    0  0.00000000000E+00  0.00000000000E+00 -0.15827795704E+04  0.15827795705E+04  0.50400001928E-02 0. -1.
    10030    2    1    2    0    0  0.00000000000E+00  0.00000000000E+00 -0.17045135843E+03  0.29951077825E+04  0.29902536620E+04 0.  0.
        3    1    3    3  502    0  0.23179355852E+03 -0.94865624960E+00 -0.15646728439E+04  0.15817491180E+04  0.10100000352E+00 0. -1.
       -3    1    3    3    0  502 -0.23179355852E+03  0.94865624960E+00  0.13942214855E+04  0.14133586645E+04  0.10100000352E+00 0.  1.
</event>
<event>
 5   0  0.4532420E-06  0.3011799E+04  0.7818609E-02  0.8240370E-01
       -2   -1    0    0    0  501  0.00000000000E+00  0.00000000000E+00  0.10934064059E+04  0.10934064059E+04  0.25500000920E-02 0. -1.
        2   -1    0    0  501    0  0.00000000000E+00  0.00000000000E+00 -0.20740079666E+04  0.20740079666E+04  0.25500000920E-02 0.  1.
    10030    2    1    2    0    0  0.00000000000E+00  0.00000000000E+00 -0.98060156064E+03  0.31674143725E+04  0.30117991942E+04 0.  0.
        4    1    3    3  502    0 -0.52888895623E+03 -0.76931042188E+03 -0.17329484520E+04  0.19684191635E+04  0.12699999809E+01 0.  1.
       -4    1    3    3    0  502  0.52888895623E+03  0.76931042188E+03  0.75234689135E+03  0.11989952089E+04  0.12699999809E+01 0. -1.
</event>
<event>
 5   0  0.1734885E-06  0.2468333E+04  0.7818609E-02  0.8414355E-01
       -1   -1    0    0    0  501  0.00000000000E+00  0.00000000000E+00  0.11947570222E+04  0.11947570222E+04  0.50400001928E-02 0. -1.
        1   -1    0    0  501    0  0.00000000000E+00  0.00000000000E+00 -0.12748761429E+04  0.12748761429E+04  0.50400001928E-02 0.  1.
    10030    2    1    2    0    0  0.00000000000E+00  0.00000000000E+00 -0.80119120720E+02  0.24696331652E+04  0.24683332224E+04 0.  0.
        2    1    3    3  502    0 -0.11060423458E+04 -0.24800685261E+03 -0.52850735998E+03  0.12506626640E+04  0.25500000920E-02 0.  1.
       -2    1    3    3    0  502  0.11060423458E+04  0.24800685261E+03  0.44838823926E+03  0.12189705012E+04  0.25500000920E-02 0. -1.
</event>
<event>
 5   0  0.1709858E-06  0.3001604E+04  0.7818609E-02  0.8243273E-01
        1   -1    0    0  501    0  0.00000000000E+00  0.00000000000E+00  0.16129007433E+04  0.16129007433E+04  0.50400001928E-02 0. -1.
       -1   -1    0    0    0  501  0.00000000000E+00  0.00000000000E+00 -0.13964946440E+04  0.13964946440E+04  0.50400001928E-02 0.  1.
    10030    2    1    2    0    0  0.00000000000E+00  0.00000000000E+00  0.21640609924E+03  0.30093953873E+04  0.30016044038E+04 0.  0.
        3    1    3    3  502    0  0.75139790469E+03 -0.21819434956E+03 -0.11758239475E+04  0.14123631088E+04  0.10100000352E+00 0.  1.
       -3    1    3    3    0  502 -0.75139790469E+03  0.21819434956E+03  0.13922300467E+04  0.15970322785E+04  0.10100000352E+00 0. -1.
</event>
<event>
 5   0  0.1700885E-06  0.2989642E+04  0.7818609E-02  0.8246695E-01
        1   -1    0    0  501    0  0.00000000000E+00  0.00000000000E+00  0.14886410745E+04  0.14886410745E+04  0.50400001928E-02 0.  1.
       -1   -1    0    0    0  501  0.00000000000E+00  0.00000000000E+00 -0.15010269065E+04  0.15010269065E+04  0.50400001928E-02 0. -1.
    10030    2    1    2    0    0  0.00000000000E+00  0.00000000000E+00 -0.12385832013E+02  0.29896679810E+04  0.29896423244E+04 0.  0.
        1    1    3    3  502    0 -0.11097626913E+04 -0.40007430001E+03  0.91188774323E+03  0.14910304936E+04  0.50400001928E-02 0.  1.
       -1    1    3    3    0  502  0.11097626913E+04  0.40007430001E+03 -0.92427357524E+03  0.14986374874E+04  0.50400001928E-02 0. -1.
</event>
<event>
 5   0  0.1709858E-06  0.3000893E+04  0.7818609E-02  0.8243476E-01
        1   -1    0    0  501    0  0.00000000000E+00  0.00000000000E+00  0.13717375678E+04  0.13717375678E+04  0.50400001928E-02 0.  1.
       -1   -1    0    0    0  501  0.00000000000E+00  0.00000000000E+00 -0.16412318853E+04  0.16412318853E+04  0.50400001928E-02 0. -1.
    10030    2    1    2    0    0  0.00000000000E+00  0.00000000000E+00 -0.26949431757E+03  0.30129694531E+04  0.30008928235E+04 0.  0.
        3    1    3    3  502    0  0.12435716235E+03 -0.11553181510E+04 -0.10878379614E+04  0.15917337008E+04  0.10100000352E+00 0. -1.
       -3    1    3    3    0  502 -0.12435716235E+03  0.11553181510E+04  0.81834364380E+03  0.14212357523E+04  0.10100000352E+00 0.  1.
</event>
<event>
 5   0  0.4532420E-06  0.2604823E+04  0.7818609E-02  0.8366565E-01
       -2   -1    0    0    0  501  0.00000000000E+00  0.00000000000E+00  0.17152591030E+04  0.17152591030E+04  0.25500000920E-02 0. -1.
        2   -1    0    0  501    0  0.00000000000E+00  0.00000000000E+00 -0.98893246981E+03  0.98893246981E+03  0.25500000920E-02 0.  1.
    10030    2    1    2    0    0  0.00000000000E+00  0.00000000000E+00  0.72632663319E+03  0.27041915728E+04  0.26048227741E+04 0.  0.
        4    1    3    3  502    0  0.41710619808E+03  0.81823022452E+03  0.13218611188E+04  0.16095952010E+04  0.12699999809E+01 0. -1.
       -4    1    3    3    0  502 -0.41710619808E+03 -0.81823022452E+03 -0.59553448559E+03  0.10945963718E+04  0.12699999809E+01 0.  1.
</event>
<event>
 5   0  0.4768570E-06  0.2994983E+04  0.7818609E-02  0.8245165E-01
        2   -1    0    0  501    0  0.00000000000E+00  0.00000000000E+00  0.31490108790E+04  0.31490108790E+04  0.25500000920E-02 0. -1.
       -2   -1    0    0    0  501  0.00000000000E+00  0.00000000000E+00 -0.71212211456E+03  0.71212211457E+03  0.25500000920E-02 0.  1.
    10030    2    1    2    0    0  0.00000000000E+00  0.00000000000E+00  0.24368887644E+04  0.38611329936E+04  0.29949826617E+04 0.  0.
        1    1    3    3  502    0 -0.12152054123E+04  0.33255789675E+03  0.17493927599E+03  0.12719759035E+04  0.50400001928E-02 0.  1.
       -1    1    3    3    0  502  0.12152054123E+04 -0.33255789675E+03  0.22619494884E+04  0.25891570901E+04  0.50400001928E-02 0. -1.
</event>
<event>
 5   0  0.1734885E-06  0.3341066E+04  0.7818609E-02  0.8152524E-01
       -1   -1    0    0    0  501  0.00000000000E+00  0.00000000000E+00  0.13216928985E+04  0.13216928985E+04  0.50400001928E-02 0. -1.
        1   -1    0    0  501    0  0.00000000000E+00  0.00000000000E+00 -0.21114443440E+04  0.21114443440E+04  0.50400001928E-02 0.  1.
    10030    2    1    2    0    0  0.00000000000E+00  0.00000000000E+00 -0.78975144552E+03  0.34331372426E+04  0.33410662939E+04 0.  0.
        2    1    3    3  502    0  0.82922925931E+03  0.71592963466E+03 -0.16907818260E+04  0.20146760507E+04  0.25500000920E-02 0.  1.
       -2    1    3    3    0  502 -0.82922925931E+03 -0.71592963466E+03  0.90103038045E+03  0.14184611918E+04  0.25500000920E-02 0. -1.
</event>
<event>
 5   0  0.1734885E-06  0.2998910E+04  0.7818609E-02  0.8244042E-01
       -1   -1    0    0    0  501  0.00000000000E+00  0.00000000000E+00  0.98743316382E+03  0.98743316384E+03  0.50400001928E-02 0. -1.
        1   -1    0    0  501    0  0.00000000000E+00  0.00000000000E+00 -0.22769795760E+04  0.22769795760E+04  0.50400001928E-02 0.  1.
    10030    2    1    2    0    0  0.00000000000E+00  0.00000000000E+00 -0.12895464121E+04  0.32644127398E+04  0.29989098997E+04 0.  0.
        2    1    3    3  502    0  0.12355095871E+04 -0.83379267808E+03 -0.82254428497E+03  0.17024315759E+04  0.25500000920E-02 0. -1.
       -2    1    3    3    0  502 -0.12355095871E+04  0.83379267808E+03 -0.46700212716E+03  0.15619811639E+04  0.25500000920E-02 0.  1.
</event>
<event>
 5   0  0.1545375E-06  0.2451632E+04  0.7818609E-02  0.8420422E-01
        3   -1    0    0  501    0  0.00000000000E+00  0.00000000000E+00  0.13844197583E+04  0.13844197620E+04  0.10100000352E+00 0.  1.
       -3   -1    0    0    0  501  0.00000000000E+00  0.00000000000E+00 -0.10853827890E+04  0.10853827937E+04  0.10100000352E+00 0. -1.
    10030    2    1    2    0    0  0.00000000000E+00  0.00000000000E+00  0.29903696935E+03  0.24698025556E+04  0.24516324265E+04 0.  0.
        1    1    3    3  502    0 -0.65400597471E+03 -0.65896418623E+03  0.95586798047E+03  0.13325318795E+04  0.50400001928E-02 0.  1.
       -1    1    3    3    0  502  0.65400597471E+03  0.65896418623E+03 -0.65683101113E+03  0.11372706762E+04  0.50400001928E-02 0. -1.
</event>
<event>
 5   0  0.4532420E-06  0.2984335E+04  0.7818609E-02  0.8248218E-01
        2   -1    0    0  501    0  0.00000000000E+00  0.00000000000E+00  0.14998280944E+04  0.14998280944E+04  0.25500000920E-02 0.  1.
       -2   -1    0    0    0  501  0.00000000000E+00  0.00000000000E+00 -0.14845459571E+04  0.14845459571E+04  0.25500000920E-02 0. -1.
    10030    2    1    2    0    0  0.00000000000E+00  0.00000000000E+00  0.15282137277E+02  0.29843740515E+04  0.29843349235E+04 0.  0.
        4    1    3    3  502    0 -0.59433176874E+03  0.11559474827E+04 -0.72525140062E+03  0.14884340903E+04  0.12699999809E+01 0.  1.
       -4    1    3    3    0  502  0.59433176874E+03 -0.11559474827E+04  0.74053353790E+03  0.14959399613E+04  0.12699999809E+01 0. -1.
</event>
<event>
 5   0  0.1709858E-06  0.3018474E+04  0.7818609E-02  0.8238475E-01
        1   -1    0    0  501    0  0.00000000000E+00  0.00000000000E+00  0.11903354269E+04  0.11903354269E+04  0.50400001928E-02 0.  1.
       -1   -1    0    0    0  501  0.00000000000E+00  0.00000000000E+00 -0.19135750103E+04  0.19135750103E+04  0.50400001928E-02 0. -1.
    10030    2    1    2    0    0  0.00000000000E+00  0.00000000000E+00 -0.72323958334E+03  0.31039104372E+04  0.30184738706E+04 0.  0.
        3    1    3    3  502    0 -0.68870942701E+03 -0.81191269500E+03  0.73836486431E+03  0.12956487110E+04  0.10100000352E+00 0.  1.
       -3    1    3    3    0  502  0.68870942701E+03  0.81191269500E+03 -0.14616044476E+04  0.18082617263E+04  0.10100000352E+00 0. -1.
</event>
<event>
 5   0  0.4532420E-06  0.2967001E+04  0.7818609E-02  0.8253217E-01
        2   -1    0    0  501    0  0.00000000000E+00  0.00000000000E+00  0.17358408260E+04  0.17358408260E+04  0.25500000920E-02 0.  1.
       -2   -1    0    0    0  501  0.00000000000E+00  0.00000000000E+00 -0.12678430031E+04  0.12678430031E+04  0.25500000920E-02 0. -1.
    10030    2    1    2    0    0  0.00000000000E+00  0.00000000000E+00  0.46799782284E+03  0.30036838291E+04  0.29670009408E+04 0.  0.
        4    1    3    3  502    0  0.86189715291E+03 -0.73858022686E+03 -0.73300951950E+03  0.13511743123E+04  0.12699999809E+01 0. -1.
       -4    1    3    3    0  502 -0.86189715291E+03  0.73858022686E+03  0.12010073423E+04  0.16525095167E+04  0.12699999809E+01 0.  1.
</event>
<event>
 5   0  0.1709858E-06  0.2908305E+04  0.7818609E-02  0.8270411E-01
       -1   -1    0    0    0  501  0.00000000000E+00  0.00000000000E+00  0.13378372225E+04  0.13378372226E+04  0.50400001928E-02 0. -1.
        1   -1    0    0  501    0  0.00000000000E+00  0.00000000000E+00 -0.15805801172E+04  0.15805801172E+04  0.50400001928E-02 0.  1.
    10030    2    1    2    0    0  0.00000000000E+00  0.00000000000E+00 -0.24274289463E+03  0.29184173397E+04  0.29083046016E+04 0.  0.
        3    1    3    3  502    0  0.58424312708E+03  0.13304707524E+04 -0.17693952758E+03  0.14638306122E+04  0.10100000352E+00 0.  1.
       -3    1    3    3    0  502 -0.58424312708E+03 -0.13304707524E+04 -0.65803367046E+02  0.14545867275E+04  0.10100000352E+00 0. -1.
</event>
<event>
 5   0  0.1709858E-06  0.2950008E+04  0.7818609E-02  0.8258152E-01
        1   -1    0    0  501    0  0.00000000000E+00  0.00000000000E+00  0.15271479291E+04  0.15271479291E+04  0.50400001928E-02 0. -1.
       -1   -1    0    0    0  501  0.00000000000E+00  0.00000000000E+00 -0.14246405068E+04  0.14246405068E+04  0.50400001928E-02 0.  1.
    10030    2    1    2    0    0  0.00000000000E+00  0.00000000000E+00  0.10250742233E+03  0.29517884359E+04  0.29500079998E+04 0.  0.
        3    1    3    3  502    0 -0.13580204153E+04  0.52476256088E+03 -0.18562022699E+03  0.14676682433E+04  0.10100000352E+00 0. -1.
       -3    1    3    3    0  502  0.13580204153E+04 -0.52476256088E+03  0.28812764932E+03  0.14841201926E+04  0.10100000352E+00 0.  1.
</event>
<event>
 5   0  0.4532420E-06  0.2797471E+04  0.7818609E-02  0.8304054E-01
       -2   -1    0    0    0  501  0.00000000000E+00  0.00000000000E+00  0.11894420633E+04  0.11894420633E+04  0.25500000920E-02 0.  1.
        2   -1    0    0  501    0  0.00000000000E+00  0.00000000000E+00 -0.16448556537E+04  0.16448556537E+04  0.25500000920E-02 0. -1.
    10030    2    1    2    0    0  0.00000000000E+00  0.00000000000E+00 -0.45541359037E+03  0.28342977170E+04  0.27974706451E+04 0.  0.
        4    1    3    3  502    0 -0.41159529093E+02 -0.13882790646E+04 -0.59857458767E+02  0.13901789080E+04  0.12699999809E+01 0. -1.
       -4    1    3    3    0  502  0.41159529093E+02  0.13882790646E+04 -0.39555613160E+03  0.14441188089E+04  0.12699999809E+01 0.  1.
</event>
<event>
 5   0  0.4768570E-06  0.3018889E+04  0.7818609E-02  0.8238357E-01
       -2   -1    0    0    0  501  0.00000000000E+00  0.00000000000E+00  0.15388050940E+04  0.15388050940E+04  0.25500000920E-02 0.  1.
        2   -1    0    0  501    0  0.00000000000E+00  0.00000000000E+00 -0.14806443178E+04  0.14806443178E+04  0.25500000920E-02 0. -1.
    10030    2    1    2    0    0  0.00000000000E+00  0.00000000000E+00  0.58160776153E+02  0.30194494119E+04  0.30188892121E+04 0.  0.
        1    1    3    3  502    0 -0.12238083207E+03  0.21400876694E+03  0.15185330758E+04  0.15384146134E+04  0.50400001928E-02 0.  1.
       -1    1    3    3    0  502  0.12238083207E+03 -0.21400876694E+03 -0.14603722997E+04  0.14810347984E+04  0.50400001928E-02 0. -1.
</event>
<event>
 5   0  0.4702748E-06  0.2945437E+04  0.7818609E-02  0.8259486E-01
        2   -1    0    0  501    0  0.00000000000E+00  0.00000000000E+00  0.11591192765E+04  0.11591192765E+04  0.25500000920E-02 0.  1.
       -2   -1    0    0    0  501  0.00000000000E+00  0.00000000000E+00 -0.18711616419E+04  0.18711616419E+04  0.25500000920E-02 0. -1.
    10030    2    1    2    0    0  0.00000000000E+00  0.00000000000E+00 -0.71204236536E+03  0.30302809184E+04  0.29454368291E+04 0.  0.
        2    1    3    3  502    0 -0.87473634114E+03 -0.41139412189E+03  0.78706005478E+03  0.12465441508E+04  0.25500000920E-02 0.  1.
       -2    1    3    3    0  502  0.87473634114E+03  0.41139412189E+03 -0.14991024201E+04  0.17837367676E+04  0.25500000920E-02 0. -1.
</event>
<event>
 5   0  0.4532420E-06  0.3034304E+04  0.7818609E-02  0.8234003E-01
        2   -1    0    0  501    0  0.00000000000E+00  0.00000000000E+00  0.11839206423E+04  0.11839206424E+04  0.25500000920E-02 0. -1.
       -2   -1    0    0    0  501  0.00000000000E+00  0.00000000000E+00 -0.19441758938E+04  0.19441758938E+04  0.25500000920E-02 0.  1.
    10030    2    1    2    0    0  0.00000000000E+00  0.00000000000E+00 -0.76025525142E+03  0.31280965361E+04  0.30343038562E+04 0.  0.
        4    1    3    3  502    0  0.13133269544E+04  0.10782256088E+02 -0.11630800368E+04  0.17543376902E+04  0.12699999809E+01 0.  1.
       -4    1    3    3    0  502 -0.13133269544E+04 -0.10782256088E+02  0.40282478541E+03  0.13737588459E+04  0.12699999809E+01 0. -1.
</event>
<event>
 5   0  0.1700885E-06  0.3023476E+04  0.7818609E-02  0.8237059E-01
       -1   -1    0    0    0  501  0.00000000000E+00  0.00000000000E+00  0.80065787706E+03  0.80065787708E+03  0.50400001928E-02 0. -1.
        1   -1    0    0  501    0  0.00000000000E+00  0.00000000000E+00 -0.28543430627E+04  0.28543430627E+04  0.50400001928E-02 0.  1.
    10030    2    1    2    0    0  0.00000000000E+00  0.00000000000E+00 -0.20536851856E+04  0.36550009397E+04  0.30234763151E+04 0.  0.
        1    1    3    3  502    0  0.83125926346E+02 -0.90751715532E+03  0.43126902450E+03  0.10082114254E+04  0.50400001928E-02 0. -1.
       -1    1    3    3    0  502 -0.83125926346E+02  0.90751715532E+03 -0.24849542101E+04  0.26467895143E+04  0.50400001928E-02 0.  1.
</event>
<event>
 5   0  0.1709858E-06  0.2985559E+04  0.7818609E-02  0.8247867E-01
        1   -1    0    0  501    0  0.00000000000E+00  0.00000000000E+00  0.15184489920E+04  0.15184489920E+04  0.50400001928E-02 0.  1.
       -1   -1    0    0    0  501  0.00000000000E+00  0.00000000000E+00 -0.14675437127E+04  0.14675437127E+04  0.50400001928E-02 0. -1.
    10030    2    1    2    0    0  0.00000000000E+00  0.00000000000E+00  0.50905279254E+02  0.29859927047E+04  0.29855587559E+04 0.  0.
        3    1    3    3  502    0 -0.80216046816E+03  0.40917022618E+03 -0.11653121012E+04  0.14726961649E+04  0.10100000352E+00 0. -1.
       -3    1    3    3    0  502  0.80216046816E+03 -0.40917022618E+03  0.12162173805E+04  0.15132965398E+04  0.10100000352E+00 0.  1.
</event>
<event>
 5   0  0.4702748E-06  0.3000539E+04  0.7818609E-02  0.8243577E-01
        2   -1    0    0  501    0  0.00000000000E+00  0.00000000000E+00  0.72015932080E+03  0.72015932080E+03  0.25500000920E-02 0.  1.
       -2   -1    0    0    0  501  0.00000000000E+00  0.00000000000E+00 -0.31254311951E+04  0.31254311951E+04  0.25500000920E-02 0. -1.
    10030    2    1    2    0    0  0.00000000000E+00  0.00000000000E+00 -0.24052718743E+04  0.38455905159E+04  0.30005388894E+04 0.  0.
        2    1    3    3  502    0  0.24858099389E+03  0.80768915792E+03  0.38610044311E+03  0.92910055350E+03  0.25500000920E-02 0.  1.
       -2    1    3    3    0  502 -0.24858099389E+03 -0.80768915792E+03 -0.27913723174E+04  0.29164899624E+04  0.25500000920E-02 0. -1.
</event>
<event>
 5   0  0.1734885E-06  0.3044752E+04  0.7818609E-02  0.8231066E-01
       -1   -1    0    0    0  501  0.00000000000E+00  0.00000000000E+00  0.17701275598E+04  0.17701275598E+04  0.50400001928E-02 0. -1.
        1   -1    0    0  501    0  0.00000000000E+00  0.00000000000E+00 -0.13093006624E+04  0.13093006624E+04  0.50400001928E-02 0.  1.
    10030    2    1    2    0    0  0.00000000000E+00  0.00000000000E+00  0.46082689741E+03  0.30794282223E+04  0.30447523293E+04 0.  0.
        2    1    3    3  502    0  0.12072745114E+04 -0.14866981386E+03 -0.69544360526E+03  0.14011624701E+04  0.25500000920E-02 0.  1.
       -2    1    3    3    0  502 -0.12072745114E+04  0.14866981386E+03  0.11562705027E+04  0.16782657522E+04  0.25500000920E-02 0. -1.
</event>
<event>
 5   0  0.1686012E-06  0.2783331E+04  0.7818609E-02  0.8308462E-01
        1   -1    0    0  501    0  0.00000000000E+00  0.00000000000E+00  0.19349175663E+04  0.19349175663E+04  0.50400001928E-02 0. -1.
       -1   -1    0    0    0  501  0.00000000000E+00  0.00000000000E+00 -0.10009381219E+04  0.10009381219E+04  0.50400001928E-02 0.  1.
    10030    2    1    2    0    0  0.00000000000E+00  0.00000000000E+00  0.93397944440E+03  0.29358556881E+04  0.27833309216E+04 0.  0.
        4    1    3    3  502    0  0.28903243783E+03  0.95415620336E+03  0.14911653231E+04  0.17937473190E+04  0.12699999809E+01 0. -1.
       -4    1    3    3    0  502 -0.28903243783E+03 -0.95415620336E+03 -0.55718587873E+03  0.11421083692E+04  0.12699999809E+01 0.  1.
</event>
<event>
 5   0  0.1686012E-06  0.3019005E+04  0.7818609E-02  0.8238325E-01
        1   -1    0    0  501    0  0.00000000000E+00  0.00000000000E+00  0.17933092647E+04  0.17933092647E+04  0.50400001928E-02 0. -1.
       -1   -1    0    0    0  501  0.00000000000E+00  0.00000000000E+00 -0.12706104585E+04  0.12706104585E+04  0.50400001928E-02 0.  1.
    10030    2    1    2    0    0  0.00000000000E+00  0.00000000000E+00  0.52269880622E+03  0.30639197232E+04  0.30190048076E+04 0.  0.
        4    1    3    3  502    0 -0.10881070587E+03 -0.74533301780E+03  0.15889528815E+04  0.17584464592E+04  0.12699999809E+01 0. -1.
       -4    1    3    3    0  502  0.10881070587E+03  0.74533301780E+03 -0.10662540753E+04  0.13054732640E+04  0.12699999809E+01 0.  1.
</event>
<event>
 5   0  0.4702748E-06  0.3003075E+04  0.7818609E-02  0.8242853E-01
       -2   -1    0    0    0  501  0.00000000000E+00  0.00000000000E+00  0.16690275970E+04  0.16690275970E+04  0.25500000920E-02 0.  1.
        2   -1    0    0  501    0  0.00000000000E+00  0.00000000000E+00 -0.13508553960E+04  0.13508553960E+04  0.25500000920E-02 0. -1.
    10030    2    1    2    0    0  0.00000000000E+00  0.00000000000E+00  0.31817220109E+03  0.30198829930E+04  0.30030750477E+04 0.  0.
        2    1    3    3  502    0 -0.32683965994E+03 -0.74279238173E+03  0.14295057756E+04  0.16437917898E+04  0.25500000920E-02 0.  1.
       -2    1    3    3    0  502  0.32683965994E+03  0.74279238173E+03 -0.11113335745E+04  0.13760912032E+04  0.25500000920E-02 0. -1.
</event>
<event>
 5   0  0.1700885E-06  0.3012043E+04  0.7818609E-02  0.8240300E-01
        1   -1    0    0  501    0  0.00000000000E+00  0.00000000000E+00  0.11385041649E+04  0.11385041650E+04  0.50400001928E-02 0.  1.
       -1   -1    0    0    0  501  0.00000000000E+00  0.00000000000E+00 -0.19921763016E+04  0.19921763016E+04  0.50400001928E-02 0. -1.
    10030    2    1    2    0    0  0.00000000000E+00  0.00000000000E+00 -0.85367213670E+03  0.31306804666E+04  0.30120431715E+04 0.  0.
        1    1    3    3  502    0  0.10394191511E+04 -0.76930300520E+03  0.37550234760E+03  0.13465590587E+04  0.50400001928E-02 0.  1.
       -1    1    3    3    0  502 -0.10394191511E+04  0.76930300520E+03 -0.12291744843E+04  0.17841214079E+04  0.50400001928E-02 0. -1.
</event>
<event>
 5   0  0.4702748E-06  0.3030060E+04  0.7818609E-02  0.8235199E-01
        2   -1    0    0  501    0  0.00000000000E+00  0.00000000000E+00  0.21967043153E+04  0.21967043153E+04  0.25500000920E-02 0. -1.
       -2   -1    0    0    0  501  0.00000000000E+00  0.00000000000E+00 -0.10448904758E+04  0.10448904758E+04  0.25500000920E-02 0.  1.
    10030    2    1    2    0    0  0.00000000000E+00  0.00000000000E+00  0.11518138395E+04  0.32415947912E+04  0.30300596808E+04 0.  0.
        2    1    3    3  502    0 -0.28281293223E+01 -0.80904862144E+03  0.19462472879E+04  0.21077111225E+04  0.25500000920E-02 0. -1.
       -2    1    3    3    0  502  0.28281293223E+01  0.80904862144E+03 -0.79443344841E+03  0.11338836687E+04  0.25500000920E-02 0.  1.
</event>
<event>
 5   0  0.4702748E-06  0.2996849E+04  0.7818609E-02  0.8244631E-01
        2   -1    0    0  501    0  0.00000000000E+00  0.00000000000E+00  0.20062453584E+04  0.20062453584E+04  0.25500000920E-02 0.  1.
       -2   -1    0    0    0  501  0.00000000000E+00  0.00000000000E+00 -0.11191429202E+04  0.11191429202E+04  0.25500000920E-02 0. -1.
    10030    2    1    2    0    0  0.00000000000E+00  0.00000000000E+00  0.88710243821E+03  0.31253882786E+04  0.29968485374E+04 0.  0.
        2    1    3    3  502    0  0.76472712114E+03  0.79662623305E+03  0.14998384754E+04  0.18625080878E+04  0.25500000920E-02 0.  1.
       -2    1    3    3    0  502 -0.76472712114E+03 -0.79662623305E+03 -0.61273603717E+03  0.12628801908E+04  0.25500000920E-02 0. -1.
</event>
<event>
 5   0  0.4702748E-06  0.2979119E+04  0.7818609E-02  0.8249719E-01
       -2   -1    0    0    0  501  0.00000000000E+00  0.00000000000E+00  0.11267716116E+04  0.11267716116E+04  0.25500000920E-02 0.  1.
        2   -1    0    0  501    0  0.00000000000E+00  0.00000000000E+00 -0.19691541590E+04  0.19691541590E+04  0.25500000920E-02 0. -1.
    10030    2    1    2    0    0  0.00000000000E+00  0.00000000000E+00 -0.84238254736E+03  0.30959257707E+04  0.29791186652E+04 0.  0.
        2    1    3    3  502    0  0.70363975287E+03 -0.96153857727E+03 -0.13501773184E+04  0.18007343304E+04  0.25500000920E-02 0.  1.
       -2    1    3    3    0  502 -0.70363975287E+03  0.96153857727E+03  0.50779477108E+03  0.12951914403E+04  0.25500000920E-02 0. -1.
</event>
<event>
 5   0  0.4768570E-06  0.3007440E+04  0.7818609E-02  0.8241610E-01
        2   -1    0    0  501    0  0.00000000000E+00  0.00000000000E+00  0.25437034319E+04  0.25437034319E+04  0.25500000920E-02 0.  1.
       -2   -1    0    0    0  501  0.00000000000E+00  0.00000000000E+00 -0.88892983311E+03  0.88892983312E+03  0.25500000920E-02 0. -1.
    10030    2    1    2    0    0  0.00000000000E+00  0.00000000000E+00  0.16547735988E+04  0.34326332650E+04  0.30074400191E+04 0.  0.
        1    1    3    3  502    0 -0.96747798471E+03 -0.96187387761E+02  0.21366990441E+04  0.23474983428E+04  0.50400001928E-02 0.  1.
       -1    1    3    3    0  502  0.96747798471E+03  0.96187387761E+02 -0.48192544533E+03  0.10851349222E+04  0.50400001928E-02 0. -1.
</event>
<event>
 5   0  0.1734885E-06  0.2636826E+04  0.7818609E-02  0.8355799E-01
       -1   -1    0    0    0  501  0.00000000000E+00  0.00000000000E+00  0.61082719497E+03  0.61082719500E+03  0.50400001928E-02 0.  1.
        1   -1    0    0  501    0  0.00000000000E+00  0.00000000000E+00 -0.28456702844E+04  0.28456702844E+04  0.50400001928E-02 0. -1.
    10030    2    1    2    0    0  0.00000000000E+00  0.00000000000E+00 -0.22348430894E+04  0.34564974794E+04  0.26368259690E+04 0.  0.
        2    1    3    3  502    0  0.54579066294E+03  0.94471891866E+02 -0.26857439473E+04  0.27422678456E+04  0.25500000920E-02 0. -1.
       -2    1    3    3    0  502 -0.54579066294E+03 -0.94471891866E+02  0.45090085795E+03  0.71422963381E+03  0.25500000920E-02 0.  1.
</event>
<event>
 5   0  0.4532420E-06  0.3003091E+04  0.7818609E-02  0.8242849E-01
       -2   -1    0    0    0  501  0.00000000000E+00  0.00000000000E+00  0.90539929471E+03  0.90539929471E+03  0.25500000920E-02 0. -1.
        2   -1    0    0  501    0  0.00000000000E+00  0.00000000000E+00 -0.24902145021E+04  0.24902145021E+04  0.25500000920E-02 0.  1.
    10030    2    1    2    0    0  0.00000000000E+00  0.00000000000E+00 -0.15848152074E+04  0.33956137969E+04  0.30030907105E+04 0.  0.
        4    1    3    3  502    0 -0.10180091693E+04  0.59515599046E+03  0.25865285933E+03  0.12072515216E+04  0.12699999809E+01 0. -1.
       -4    1    3    3    0  502  0.10180091693E+04 -0.59515599046E+03 -0.18434680668E+04  0.21883622753E+04  0.12699999809E+01 0.  1.
</event>
<event>
 5   0  0.4935331E-06  0.2999420E+04  0.7818609E-02  0.8243896E-01
        2   -1    0    0  501    0  0.00000000000E+00  0.00000000000E+00  0.17635788328E+04  0.17635788328E+04  0.25500000920E-02 0.  1.
       -2   -1    0    0    0  501  0.00000000000E+00  0.00000000000E+00 -0.12753219325E+04  0.12753219325E+04  0.25500000920E-02 0. -1.
    10030    2    1    2    0    0  0.00000000000E+00  0.00000000000E+00  0.48825690034E+03  0.30389007654E+04  0.29994204542E+04 0.  0.
        5    1    3    3  502    0 -0.48124170230E+03  0.76515921014E+03 -0.96830449032E+03  0.13246500930E+04  0.46999998093E+01 0. -1.
       -5    1    3    3    0  502  0.48124170230E+03 -0.76515921014E+03  0.14565613907E+04  0.17142506724E+04  0.46999998093E+01 0.  1.
</event>
<event>
 5   0  0.1672907E-06  0.3017343E+04  0.7818609E-02  0.8238796E-01
       -1   -1    0    0    0  501  0.00000000000E+00  0.00000000000E+00  0.14537000942E+04  0.14537000942E+04  0.50400001928E-02 0.  1.
        1   -1    0    0  501    0  0.00000000000E+00  0.00000000000E+00 -0.15657221181E+04  0.15657221181E+04  0.50400001928E-02 0. -1.
    10030    2    1    2    0    0  0.00000000000E+00  0.00000000000E+00 -0.11202202394E+03  0.30194222123E+04  0.30173434611E+04 0.  0.
        5    1    3    3  502    0  0.10083298458E+03  0.30440842091E+03 -0.15312167565E+04  0.15644419525E+04  0.46999998093E+01 0. -1.
       -5    1    3    3    0  502 -0.10083298458E+03 -0.30440842091E+03  0.14191947325E+04  0.14549802598E+04  0.46999998093E+01 0.  1.
</event>
<event>
 5   0  0.4935331E-06  0.2975631E+04  0.7818609E-02  0.8250724E-01
        2   -1    0    0  501    0  0.00000000000E+00  0.00000000000E+00  0.14064777606E+04  0.14064777607E+04  0.25500000920E-02 0.  1.
       -2   -1    0    0    0  501  0.00000000000E+00  0.00000000000E+00 -0.15738569085E+04  0.15738569085E+04  0.25500000920E-02 0. -1.
    10030    2    1    2    0    0  0.00000000000E+00  0.00000000000E+00 -0.16737914781E+03  0.29803346691E+04  0.29756308509E+04 0.  0.
        5    1    3    3  502    0 -0.14113271211E+04 -0.11600216167E+03 -0.54077916088E+03  0.15158380306E+04  0.46999998093E+01 0. -1.
       -5    1    3    3    0  502  0.14113271211E+04  0.11600216167E+03  0.37340001307E+03  0.14644966385E+04  0.46999998093E+01 0.  1.
</event>
<event>
 5   0  0.1672907E-06  0.3017265E+04  0.7818609E-02  0.8238818E-01
       -1   -1    0    0    0  501  0.00000000000E+00  0.00000000000E+00  0.13691563548E+04  0.13691563548E+04  0.50400001928E-02 0.  1.
        1   -1    0    0  501    0  0.00000000000E+00  0.00000000000E+00 -0.16623174670E+04  0.16623174670E+04  0.50400001928E-02 0. -1.
    10030    2    1    2    0    0  0.00000000000E+00  0.00000000000E+00 -0.29316111220E+03  0.30314738218E+04  0.30172653338E+04 0.  0.
        5    1    3    3  502    0  0.42611619409E+03  0.61794055392E+02 -0.15992651049E+04  0.16562199377E+04  0.46999998093E+01 0. -1.
       -5    1    3    3    0  502 -0.42611619409E+03 -0.61794055392E+02  0.13061039927E+04  0.13752538842E+04  0.46999998093E+01 0.  1.
</event>
<event>
 5   0  0.4935331E-06  0.2988568E+04  0.7818609E-02  0.8247003E-01
       -2   -1    0    0    0  501  0.00000000000E+00  0.00000000000E+00  0.15974117962E+04  0.15974117962E+04  0.25500000920E-02 0.  1.
        2   -1    0    0  501    0  0.00000000000E+00  0.00000000000E+00 -0.13978143508E+04  0.13978143508E+04  0.25500000920E-02 0. -1.
    10030    2    1    2    0    0  0.00000000000E+00  0.00000000000E+00  0.19959744537E+03  0.29952261470E+04  0.29885683080E+04 0.  0.
        5    1    3    3  502    0  0.90567262928E+03 -0.47014361185E+03  0.11938280557E+04  0.15705175720E+04  0.46999998093E+01 0.  1.
       -5    1    3    3    0  502 -0.90567262928E+03  0.47014361185E+03 -0.99423061035E+03  0.14247085750E+04  0.46999998093E+01 0. -1.
</event>
<event>
 5   0  0.4702748E-06  0.3009007E+04  0.7818609E-02  0.8241164E-01
        2   -1    0    0  501    0  0.00000000000E+00  0.00000000000E+00  0.15242326654E+04  0.15242326654E+04  0.25500000920E-02 0. -1.
       -2   -1    0    0    0  501  0.00000000000E+00  0.00000000000E+00 -0.14850293791E+04  0.14850293791E+04  0.25500000920E-02 0.  1.
    10030    2    1    2    0    0  0.00000000000E+00  0.00000000000E+00  0.39203286347E+02  0.30092620445E+04  0.30090066725E+04 0.  0.
        2    1    3    3  502    0  0.10341045907E+04 -0.92775098535E+03  0.59708990511E+03  0.15121542746E+04  0.25500000920E-02 0. -1.
       -2    1    3    3    0  502 -0.10341045907E+04  0.92775098535E+03 -0.55788661876E+03  0.14971077699E+04  0.25500000920E-02 0.  1.
</event>
<event>
 5   0  0.1700885E-06  0.3002843E+04  0.7818609E-02  0.8242919E-01
        1   -1    0    0  501    0  0.00000000000E+00  0.00000000000E+00  0.12580445225E+04  0.12580445225E+04  0.50400001928E-02 0.  1.
       -1   -1    0    0    0  501  0.00000000000E+00  0.00000000000E+00 -0.17918817088E+04  0.17918817088E+04  0.50400001928E-02 0. -1.
    10030    2    1    2    0    0  0.00000000000E+00  0.00000000000E+00 -0.53383718632E+03  0.30499262312E+04  0.30028432984E+04 0.  0.
        1    1    3    3  502    0 -0.71482651306E+03 -0.12462309217E+04  0.17603703701E+03  0.14474313429E+04  0.50400001928E-02 0. -1.
       -1    1    3    3    0  502  0.71482651306E+03  0.12462309217E+04 -0.70987422332E+03  0.16024948883E+04  0.50400001928E-02 0.  1.
</event>
<event>
 5   0  0.1709858E-06  0.3132786E+04  0.7818609E-02  0.8206797E-01
        1   -1    0    0  501    0  0.00000000000E+00  0.00000000000E+00  0.12672729990E+04  0.12672729990E+04  0.50400001928E-02 0. -1.
       -1   -1    0    0    0  501  0.00000000000E+00  0.00000000000E+00 -0.19361150947E+04  0.19361150947E+04  0.50400001928E-02 0.  1.
    10030    2    1    2    0    0  0.00000000000E+00  0.00000000000E+00 -0.66884209570E+03  0.32033880938E+04  0.31327855864E+04 0.  0.
        3    1    3    3  502    0 -0.54692262101E+03 -0.75653779332E+03  0.95174659013E+03  0.13331524174E+04  0.10100000352E+00 0. -1.
       -3    1    3    3    0  502  0.54692262101E+03  0.75653779332E+03 -0.16205886858E+04  0.18702356763E+04  0.10100000352E+00 0.  1.
</event>
<event>
 5   0  0.4532420E-06  0.2997766E+04  0.7818609E-02  0.8244369E-01
       -2   -1    0    0    0  501  0.00000000000E+00  0.00000000000E+00  0.92402895512E+03  0.92402895512E+03  0.25500000920E-02 0. -1.
        2   -1    0    0  501    0  0.00000000000E+00  0.00000000000E+00 -0.24313630739E+04  0.24313630739E+04  0.25500000920E-02 0.  1.
    10030    2    1    2    0    0  0.00000000000E+00  0.00000000000E+00 -0.15073341188E+04  0.33553920290E+04  0.29977657552E+04 0.  0.
        4    1    3    3  502    0 -0.11598800127E+04 -0.67397773526E+02  0.30629309481E+03  0.12015328446E+04  0.12699999809E+01 0. -1.
       -4    1    3    3    0  502  0.11598800127E+04  0.67397773526E+02 -0.18136272136E+04  0.21538591845E+04  0.12699999809E+01 0.  1.
</event>
<event>
 5   0  0.4532420E-06  0.2890026E+04  0.7818609E-02  0.8275851E-01
       -2   -1    0    0    0  501  0.00000000000E+00  0.00000000000E+00  0.26197536166E+04  0.26197536166E+04  0.25500000920E-02 0. -1.
        2   -1    0    0  501    0  0.00000000000E+00  0.00000000000E+00 -0.79704523281E+03  0.79704523281E+03  0.25500000920E-02 0.  1.
    10030    2    1    2    0    0  0.00000000000E+00  0.00000000000E+00  0.18227083838E+04  0.34167988494E+04  0.28900256963E+04 0.  0.
        4    1    3    3  502    0 -0.13647570730E+04 -0.22558342304E+03  0.41732430736E+03  0.14448567194E+04  0.12699999809E+01 0.  1.
       -4    1    3    3    0  502  0.13647570730E+04  0.22558342304E+03  0.14053840765E+04  0.19719421301E+04  0.12699999809E+01 0. -1.
</event>
<event>
 5   0  0.4768570E-06  0.3005462E+04  0.7818609E-02  0.8242173E-01
       -2   -1    0    0    0  501  0.00000000000E+00  0.00000000000E+00  0.11480243326E+04  0.11480243326E+04  0.25500000920E-02 0.  1.
        2   -1    0    0  501    0  0.00000000000E+00  0.00000000000E+00 -0.19670322045E+04  0.19670322045E+04  0.25500000920E-02 0. -1.
    10030    2    1    2    0    0  0.00000000000E+00  0.00000000000E+00 -0.81900787199E+03  0.31150565371E+04  0.30054622498E+04 0.  0.
        1    1    3    3  502    0 -0.82511033721E+03 -0.54552769916E+03  0.76302770527E+03  0.12492473006E+04  0.50400001928E-02 0.  1.
       -1    1    3    3    0  502  0.82511033721E+03  0.54552769916E+03 -0.15820355773E+04  0.18658092365E+04  0.50400001928E-02 0. -1.
</event>
<event>
 5   0  0.1545375E-06  0.2960202E+04  0.7818609E-02  0.8255188E-01
       -4   -1    0    0    0  501  0.00000000000E+00  0.00000000000E+00  0.17861504767E+04  0.17861509282E+04  0.12699999809E+01 0. -1.
        4   -1    0    0  501    0  0.00000000000E+00  0.00000000000E+00 -0.12264910263E+04  0.12264916838E+04  0.12699999809E+01 0.  1.
    10030    2    1    2    0    0  0.00000000000E+00  0.00000000000E+00  0.55965945043E+03  0.30126426121E+04  0.29602021565E+04 0.  0.
        5    1    3    3  502    0 -0.13456913584E+04  0.49556809902E+03 -0.92998856849E+02  0.14370608373E+04  0.46999998093E+01 0.  1.
       -5    1    3    3    0  502  0.13456913584E+04 -0.49556809902E+03  0.65265830728E+03  0.15755817747E+04  0.46999998093E+01 0. -1.
</event>
<event>
 5   0  0.1709858E-06  0.3006825E+04  0.7818609E-02  0.8241785E-01
        1   -1    0    0  501    0  0.00000000000E+00  0.00000000000E+00  0.14396102634E+04  0.14396102634E+04  0.50400001928E-02 0. -1.
       -1   -1    0    0    0  501  0.00000000000E+00  0.00000000000E+00 -0.15700421453E+04  0.15700421453E+04  0.50400001928E-02 0.  1.
    10030    2    1    2    0    0  0.00000000000E+00  0.00000000000E+00 -0.13043188187E+03  0.30096524087E+04  0.30068247613E+04 0.  0.
        3    1    3    3  502    0 -0.57238277335E+03  0.13790145509E+04 -0.24129500160E+03  0.15124570933E+04  0.10100000352E+00 0. -1.
       -3    1    3    3    0  502  0.57238277335E+03 -0.13790145509E+04  0.11086311973E+03  0.14971953154E+04  0.10100000352E+00 0.  1.
</event>
<event>
 5   0  0.1700885E-06  0.3057178E+04  0.7818609E-02  0.8227589E-01
        1   -1    0    0  501    0  0.00000000000E+00  0.00000000000E+00  0.20155611508E+04  0.20155611508E+04  0.50400001928E-02 0. -1.
       -1   -1    0    0    0  501  0.00000000000E+00  0.00000000000E+00 -0.11592721245E+04  0.11592721245E+04  0.50400001928E-02 0.  1.
    10030    2    1    2    0    0  0.00000000000E+00  0.00000000000E+00  0.85628902637E+03  0.31748332753E+04  0.30571776902E+04 0.  0.
        1    1    3    3  502    0  0.87824066727E+03 -0.30566178946E+03  0.16880319097E+04  0.19272227498E+04  0.50400001928E-02 0. -1.
       -1    1    3    3    0  502 -0.87824066727E+03  0.30566178946E+03 -0.83174288338E+03  0.12476105255E+04  0.50400001928E-02 0.  1.
</event>
<event>
 5   0  0.4702748E-06  0.3000108E+04  0.7818609E-02  0.8243700E-01
        2   -1    0    0  501    0  0.00000000000E+00  0.00000000000E+00  0.20686823287E+04  0.20686823287E+04  0.25500000920E-02 0. -1.
       -2   -1    0    0    0  501  0.00000000000E+00  0.00000000000E+00 -0.10877269507E+04  0.10877269507E+04  0.25500000920E-02 0.  1.
    10030    2    1    2    0    0  0.00000000000E+00  0.00000000000E+00  0.98095537798E+03  0.31564092794E+04  0.30001076790E+04 0.  0.
        2    1    3    3  502    0 -0.59605534830E+03 -0.13755522095E+04  0.54550619121E+03  0.15953065110E+04  0.25500000920E-02 0.  1.
       -2    1    3    3    0  502  0.59605534830E+03  0.13755522095E+04  0.43544918677E+03  0.15611027684E+04  0.25500000920E-02 0. -1.
</event>
<event>
 5   0  0.1672907E-06  0.3005564E+04  0.7818609E-02  0.8242144E-01
       -1   -1    0    0    0  501  0.00000000000E+00  0.00000000000E+00  0.82544812998E+03  0.82544812999E+03  0.50400001928E-02 0.  1.
        1   -1    0    0  501    0  0.00000000000E+00  0.00000000000E+00 -0.27359122664E+04  0.27359122664E+04  0.50400001928E-02 0. -1.
    10030    2    1    2    0    0  0.00000000000E+00  0.00000000000E+00 -0.19104641364E+04  0.35613603964E+04  0.30055639498E+04 0.  0.
        5    1    3    3  502    0 -0.14037166705E+04 -0.53161866672E+03 -0.86902802827E+03  0.17344367102E+04  0.46999998093E+01 0. -1.
       -5    1    3    3    0  502  0.14037166705E+04  0.53161866672E+03 -0.10414361081E+04  0.18269236862E+04  0.46999998093E+01 0.  1.
</event>
<event>
 5   0  0.1709858E-06  0.2927387E+04  0.7818609E-02  0.8264775E-01
       -1   -1    0    0    0  501  0.00000000000E+00  0.00000000000E+00  0.98878369730E+03  0.98878369731E+03  0.50400001928E-02 0.  1.
        1   -1    0    0  501    0  0.00000000000E+00  0.00000000000E+00 -0.21667015389E+04  0.21667015389E+04  0.50400001928E-02 0. -1.
    10030    2    1    2    0    0  0.00000000000E+00  0.00000000000E+00 -0.11779178416E+04  0.31554852363E+04  0.29273873393E+04 0.  0.
        3    1    3    3  502    0  0.35424205831E+03  0.42878237027E+03 -0.20483577504E+04  0.21225247327E+04  0.10100000352E+00 0. -1.
       -3    1    3    3    0  502 -0.35424205831E+03 -0.42878237027E+03  0.87043990879E+03  0.10329605036E+04  0.10100000352E+00 0.  1.
</event>
<event>
 5   0  0.1734885E-06  0.2845088E+04  0.7818609E-02  0.8289405E-01
        1   -1    0    0  501    0  0.00000000000E+00  0.00000000000E+00  0.98806905479E+03  0.98806905480E+03  0.50400001928E-02 0. -1.
       -1   -1    0    0    0  501  0.00000000000E+00  0.00000000000E+00 -0.20480668388E+04  0.20480668388E+04  0.50400001928E-02 0.  1.
    10030    2    1    2    0    0  0.00000000000E+00  0.00000000000E+00 -0.10599977840E+04  0.30361358936E+04  0.28450880236E+04 0.  0.
        2    1    3    3  502    0 -0.10816081013E+04  0.92386444863E+03 -0.51381963855E+03  0.15124193285E+04  0.25500000920E-02 0. -1.
       -2    1    3    3    0  502  0.10816081013E+04 -0.92386444863E+03 -0.54617814542E+03  0.15237165651E+04  0.25500000920E-02 0.  1.
</event>
<event>
 5   0  0.4702748E-06  0.3000820E+04  0.7818609E-02  0.8243497E-01
        2   -1    0    0  501    0  0.00000000000E+00  0.00000000000E+00  0.15906102433E+04  0.15906102433E+04  0.25500000920E-02 0.  1.
       -2   -1    0    0    0  501  0.00000000000E+00  0.00000000000E+00 -0.14153244029E+04  0.14153244029E+04  0.25500000920E-02 0. -1.
    10030    2    1    2    0    0  0.00000000000E+00  0.00000000000E+00  0.17528584042E+03  0.30059346461E+04  0.30008195499E+04 0.  0.
        2    1    3    3  502    0  0.39478564656E+03  0.78191281370E+03  0.13079091024E+04  0.15741250189E+04  0.25500000920E-02 0.  1.
       -2    1    3    3    0  502 -0.39478564656E+03 -0.78191281370E+03 -0.11326232620E+04  0.14318096272E+04  0.25500000920E-02 0. -1.
</event>
<event>
 5   0  0.5003556E-06  0.2963372E+04  0.7818609E-02  0.8254268E-01
        2   -1    0    0  501    0  0.00000000000E+00  0.00000000000E+00  0.19674581014E+04  0.19674581014E+04  0.25500000920E-02 0. -1.
       -2   -1    0    0    0  501  0.00000000000E+00  0.00000000000E+00 -0.11158525559E+04  0.11158525559E+04  0.25500000920E-02 0.  1.
    10030    2    1    2    0    0  0.00000000000E+00  0.00000000000E+00  0.85160554551E+03  0.30833106574E+04  0.29633718303E+04 0.  0.
        3    1    3    3  502    0 -0.80345790984E+03 -0.64783832786E+03  0.15319169396E+04  0.18471623188E+04  0.10100000352E+00 0. -1.
       -3    1    3    3    0  502  0.80345790984E+03  0.64783832786E+03 -0.68031139407E+03  0.12361483386E+04  0.10100000352E+00 0.  1.
</event>
<event>
 5   0  0.1672907E-06  0.2971791E+04  0.7818609E-02  0.8251832E-01
       -1   -1    0    0    0  501  0.00000000000E+00  0.00000000000E+00  0.12234121374E+04  0.12234121374E+04  0.50400001928E-02 0.  1.
        1   -1    0    0  501    0  0.00000000000E+00  0.00000000000E+00 -0.18046950286E+04  0.18046950286E+04  0.50400001928E-02 0. -1.
    10030    2    1    2    0    0  0.00000000000E+00  0.00000000000E+00 -0.58128289117E+03  0.30281071659E+04  0.29717912458E+04 0.  0.
        5    1    3    3  502    0  0.46875619938E+03  0.14089366252E+04 -0.23456285073E+03  0.15032885981E+04  0.46999998093E+01 0. -1.
       -5    1    3    3    0  502 -0.46875619938E+03 -0.14089366252E+04 -0.34672004045E+03  0.15248185678E+04  0.46999998093E+01 0.  1.
</event>
<event>
 5   0  0.1700885E-06  0.2967273E+04  0.7818609E-02  0.8253138E-01
       -1   -1    0    0    0  501  0.00000000000E+00  0.00000000000E+00  0.18019911479E+04  0.18019911479E+04  0.50400001928E-02 0. -1.
        1   -1    0    0  501    0  0.00000000000E+00  0.00000000000E+00 -0.12215252673E+04  0.12215252673E+04  0.50400001928E-02 0.  1.
    10030    2    1    2    0    0  0.00000000000E+00  0.00000000000E+00  0.58046588063E+03  0.30235164151E+04  0.29672733063E+04 0.  0.
        1    1    3    3  502    0  0.13318727771E+04 -0.63291991331E+03  0.45674708559E+03  0.15437262100E+04  0.50400001928E-02 0. -1.
       -1    1    3    3    0  502 -0.13318727771E+04  0.63291991331E+03  0.12371879503E+03  0.14797902052E+04  0.50400001928E-02 0.  1.
</event>
<event>
 5   0  0.1672907E-06  0.2999700E+04  0.7818609E-02  0.8243817E-01
        1   -1    0    0  501    0  0.00000000000E+00  0.00000000000E+00  0.73277264999E+03  0.73277265000E+03  0.50400001928E-02 0.  1.
       -1   -1    0    0    0  501  0.00000000000E+00  0.00000000000E+00 -0.30699156347E+04  0.30699156347E+04  0.50400001928E-02 0. -1.
    10030    2    1    2    0    0  0.00000000000E+00  0.00000000000E+00 -0.23371429847E+04  0.38026882847E+04  0.29997001283E+04 0.  0.
        5    1    3    3  502    0 -0.85276699348E+03  0.85328320102E+03 -0.38815934937E+02  0.12069931786E+04  0.46999998093E+01 0.  1.
       -5    1    3    3    0  502  0.85276699348E+03 -0.85328320102E+03 -0.22983270498E+04  0.25956951061E+04  0.46999998093E+01 0. -1.
</event>
<event>
 5   0  0.4935331E-06  0.2983266E+04  0.7818609E-02  0.8248526E-01
        2   -1    0    0  501    0  0.00000000000E+00  0.00000000000E+00  0.17923784261E+04  0.17923784261E+04  0.25500000920E-02 0. -1.
       -2   -1    0    0    0  501  0.00000000000E+00  0.00000000000E+00 -0.12413500926E+04  0.12413500926E+04  0.25500000920E-02 0.  1.
    10030    2    1    2    0    0  0.00000000000E+00  0.00000000000E+00  0.55102833354E+03  0.30337285187E+04  0.29832660794E+04 0.  0.
        5    1    3    3  502    0 -0.10982061833E+04  0.57394967014E+03 -0.56887574881E+03  0.13634943170E+04  0.46999998093E+01 0.  1.
       -5    1    3    3    0  502  0.10982061833E+04 -0.57394967014E+03  0.11199040824E+04  0.16702342017E+04  0.46999998093E+01 0. -1.
</event>
<event>
 5   0  0.4702748E-06  0.2885031E+04  0.7818609E-02  0.8277345E-01
        2   -1    0    0  501    0  0.00000000000E+00  0.00000000000E+00  0.12079690848E+04  0.12079690848E+04  0.25500000920E-02 0.  1.
       -2   -1    0    0    0  501  0.00000000000E+00  0.00000000000E+00 -0.17226030226E+04  0.17226030226E+04  0.25500000920E-02 0. -1.
    10030    2    1    2    0    0  0.00000000000E+00  0.00000000000E+00 -0.51463393773E+03  0.29305721074E+04  0.28850311587E+04 0.  0.
        2    1    3    3  502    0 -0.10438172141E+04  0.67157938471E+03 -0.10039557186E+04  0.15964023087E+04  0.25500000920E-02 0. -1.
       -2    1    3    3    0  502  0.10438172141E+04 -0.67157938471E+03  0.48932178085E+03  0.13341697987E+04  0.25500000920E-02 0.  1.
</event>
<event>
 5   0  0.4702748E-06  0.2809080E+04  0.7818609E-02  0.8300455E-01
       -2   -1    0    0    0  501  0.00000000000E+00  0.00000000000E+00  0.11522793050E+04  0.11522793050E+04  0.25500000920E-02 0. -1.
        2   -1    0    0  501    0  0.00000000000E+00  0.00000000000E+00 -0.17120269872E+04  0.17120269872E+04  0.25500000920E-02 0.  1.
    10030    2    1    2    0    0  0.00000000000E+00  0.00000000000E+00 -0.55974768226E+03  0.28643062922E+04  0.28090804666E+04 0.  0.
        2    1    3    3  502    0  0.79621991767E+03 -0.45266764892E+03  0.80588862392E+03  0.12199715701E+04  0.25500000920E-02 0. -1.
       -2    1    3    3    0  502 -0.79621991767E+03  0.45266764892E+03 -0.13656363062E+04  0.16443347221E+04  0.25500000920E-02 0.  1.
</event>
<event>
 5   0  0.4935331E-06  0.3000469E+04  0.7818609E-02  0.8243597E-01
       -2   -1    0    0    0  501  0.00000000000E+00  0.00000000000E+00  0.12423602096E+04  0.12423602096E+04  0.25500000920E-02 0.  1.
        2   -1    0    0  501    0  0.00000000000E+00  0.00000000000E+00 -0.18116350739E+04  0.18116350739E+04  0.25500000920E-02 0. -1.
    10030    2    1    2    0    0  0.00000000000E+00  0.00000000000E+00 -0.56927486429E+03  0.30539952834E+04  0.30004688501E+04 0.  0.
        5    1    3    3  502    0 -0.19476481933E+03  0.13217744674E+04  0.40992898699E+03  0.13975281543E+04  0.46999998093E+01 0.  1.
       -5    1    3    3    0  502  0.19476481933E+03 -0.13217744674E+04 -0.97920385128E+03  0.16564671292E+04  0.46999998093E+01 0. -1.
</event>
<event>
 5   0  0.4768570E-06  0.3021931E+04  0.7818609E-02  0.8237496E-01
       -2   -1    0    0    0  501  0.00000000000E+00  0.00000000000E+00  0.13162643090E+04  0.13162643090E+04  0.25500000920E-02 0. -1.
        2   -1    0    0  501    0  0.00000000000E+00  0.00000000000E+00 -0.17344664398E+04  0.17344664398E+04  0.25500000920E-02 0.  1.
    10030    2    1    2    0    0  0.00000000000E+00  0.00000000000E+00 -0.41820213084E+03  0.30507307488E+04  0.30219306874E+04 0.  0.
        1    1    3    3  502    0  0.30476011950E+03  0.41958692085E+03  0.12236086585E+04  0.13289657873E+04  0.50400001928E-02 0. -1.
       -1    1    3    3    0  502 -0.30476011950E+03 -0.41958692085E+03 -0.16418107894E+04  0.17217649615E+04  0.50400001928E-02 0.  1.
</event>
<event>
 5   0  0.4702748E-06  0.2999814E+04  0.7818609E-02  0.8243784E-01
       -2   -1    0    0    0  501  0.00000000000E+00  0.00000000000E+00  0.10784105888E+04  0.10784105888E+04  0.25500000920E-02 0. -1.
        2   -1    0    0  501    0  0.00000000000E+00  0.00000000000E+00 -0.20861457724E+04  0.20861457724E+04  0.25500000920E-02 0.  1.
    10030    2    1    2    0    0  0.00000000000E+00  0.00000000000E+00 -0.10077351836E+04  0.31645563612E+04  0.29998144547E+04 0.  0.
        2    1    3    3  502    0 -0.13222681668E+04  0.70801129650E+03 -0.51122104071E+03  0.15846198451E+04  0.25500000920E-02 0.  1.
       -2    1    3    3    0  502  0.13222681668E+04 -0.70801129650E+03 -0.49651414285E+03  0.15799365161E+04  0.25500000920E-02 0. -1.
</event>
<event>
 5   0  0.4768570E-06  0.3077945E+04  0.7818609E-02  0.8221817E-01
       -2   -1    0    0    0  501  0.00000000000E+00  0.00000000000E+00  0.17824264652E+04  0.17824264652E+04  0.25500000920E-02 0. -1.
        2   -1    0    0  501    0  0.00000000000E+00  0.00000000000E+00 -0.13287707750E+04  0.13287707750E+04  0.25500000920E-02 0.  1.
    10030    2    1    2    0    0  0.00000000000E+00  0.00000000000E+00  0.45365569024E+03  0.31111972403E+04  0.30779448960E+04 0.  0.
        1    1    3    3  502    0 -0.95760439524E+03  0.70070418686E+03  0.12174377169E+04  0.17000432729E+04  0.50400001928E-02 0. -1.
       -1    1    3    3    0  502  0.95760439524E+03 -0.70070418686E+03 -0.76378202666E+03  0.14111539673E+04  0.50400001928E-02 0.  1.
</event>
<event>
 5   0  0.1686012E-06  0.2812663E+04  0.7818609E-02  0.8299348E-01
        1   -1    0    0  501    0  0.00000000000E+00  0.00000000000E+00  0.16283010044E+04  0.16283010044E+04  0.50400001928E-02 0. -1.
       -1   -1    0    0    0  501  0.00000000000E+00  0.00000000000E+00 -0.12146206522E+04  0.12146206522E+04  0.50400001928E-02 0.  1.
    10030    2    1    2    0    0  0.00000000000E+00  0.00000000000E+00  0.41368035221E+03  0.28429216566E+04  0.28126628152E+04 0.  0.
        4    1    3    3  502    0 -0.11789745274E+04  0.52886371959E+03  0.76786886017E+03  0.15030974584E+04  0.12699999809E+01 0. -1.
       -4    1    3    3    0  502  0.11789745274E+04 -0.52886371959E+03 -0.35418850796E+03  0.13398241982E+04  0.12699999809E+01 0.  1.
</event>
<event>
 5   0  0.1700885E-06  0.3017382E+04  0.7818609E-02  0.8238785E-01
       -1   -1    0    0    0  501  0.00000000000E+00  0.00000000000E+00  0.97120199325E+03  0.97120199326E+03  0.50400001928E-02 0. -1.
        1   -1    0    0  501    0  0.00000000000E+00  0.00000000000E+00 -0.23436402499E+04  0.23436402500E+04  0.50400001928E-02 0.  1.
    10030    2    1    2    0    0  0.00000000000E+00  0.00000000000E+00 -0.13724382567E+04  0.33148422432E+04  0.30173817009E+04 0.  0.
        1    1    3    3  502    0 -0.40290185073E+03 -0.65258817183E+03  0.74107013009E+03  0.10664830805E+04  0.50400001928E-02 0. -1.
       -1    1    3    3    0  502  0.40290185073E+03  0.65258817183E+03 -0.21135083868E+04  0.22483591627E+04  0.50400001928E-02 0.  1.
</event>
<event>
 5   0  0.1700885E-06  0.2975734E+04  0.7818609E-02  0.8250694E-01
        1   -1    0    0  501    0  0.00000000000E+00  0.00000000000E+00  0.14731308179E+04  0.14731308179E+04  0.50400001928E-02 0. -1.
       -1   -1    0    0    0  501  0.00000000000E+00  0.00000000000E+00 -0.15027506489E+04  0.15027506489E+04  0.50400001928E-02 0.  1.
    10030    2    1    2    0    0  0.00000000000E+00  0.00000000000E+00 -0.29619830925E+02  0.29758814668E+04  0.29757340557E+04 0.  0.
        1    1    3    3  502    0 -0.71596807612E+02 -0.10144353835E+04  0.10713115828E+04  0.14771302440E+04  0.50400001928E-02 0. -1.
       -1    1    3    3    0  502  0.71596807612E+02  0.10144353835E+04 -0.11009314137E+04  0.14987512228E+04  0.50400001928E-02 0.  1.
</event>
<event>
 5   0  0.4532420E-06  0.3033838E+04  0.7818609E-02  0.8234134E-01
       -2   -1    0    0    0  501  0.00000000000E+00  0.00000000000E+00  0.13578708444E+04  0.13578708444E+04  0.25500000920E-02 0.  1.
        2   -1    0    0  501    0  0.00000000000E+00  0.00000000000E+00 -0.16945968548E+04  0.16945968548E+04  0.25500000920E-02 0. -1.
    10030    2    1    2    0    0  0.00000000000E+00  0.00000000000E+00 -0.33672601045E+03  0.30524676992E+04  0.30338382700E+04 0.  0.
        4    1    3    3  502    0 -0.92353769274E+03 -0.10642651672E+04 -0.73347000427E+03  0.15885723390E+04  0.12699999809E+01 0. -1.
       -4    1    3    3    0  502  0.92353769274E+03  0.10642651672E+04  0.39674399382E+03  0.14638953602E+04  0.12699999809E+01 0.  1.
</event>
<event>
 5   0  0.1672907E-06  0.2991358E+04  0.7818609E-02  0.8246203E-01
        1   -1    0    0  501    0  0.00000000000E+00  0.00000000000E+00  0.24820043757E+04  0.24820043757E+04  0.50400001928E-02 0. -1.
       -1   -1    0    0    0  501  0.00000000000E+00  0.00000000000E+00 -0.90130998955E+03  0.90130998957E+03  0.50400001928E-02 0.  1.
    10030    2    1    2    0    0  0.00000000000E+00  0.00000000000E+00  0.15806943861E+04  0.33833143652E+04  0.29913577773E+04 0.  0.
        5    1    3    3  502    0  0.94606684568E+03 -0.11583617131E+04  0.80589270659E+03  0.16989200921E+04  0.46999998093E+01 0. -1.
       -5    1    3    3    0  502 -0.94606684568E+03  0.11583617131E+04  0.77480167951E+03  0.16843942731E+04  0.46999998093E+01 0.  1.
</event>
<event>
 5   0  0.1734885E-06  0.2996843E+04  0.7818609E-02  0.8244633E-01
       -1   -1    0    0    0  501  0.00000000000E+00  0.00000000000E+00  0.91716227482E+03  0.91716227483E+03  0.50400001928E-02 0. -1.
        1   -1    0    0  501    0  0.00000000000E+00  0.00000000000E+00 -0.24480581403E+04  0.24480581403E+04  0.50400001928E-02 0.  1.
    10030    2    1    2    0    0  0.00000000000E+00  0.00000000000E+00 -0.15308958655E+04  0.33652204151E+04  0.29968427205E+04 0.  0.
        2    1    3    3  502    0 -0.29261635774E+03  0.13488801145E+04 -0.14203768566E+04  0.19805484874E+04  0.25500000920E-02 0.  1.
       -2    1    3    3    0  502  0.29261635774E+03 -0.13488801145E+04 -0.11051900889E+03  0.13846719277E+04  0.25500000920E-02 0. -1.
</event>
<event>
 5   0  0.1686012E-06  0.2916835E+04  0.7818609E-02  0.8267886E-01
       -1   -1    0    0    0  501  0.00000000000E+00  0.00000000000E+00  0.79204859042E+03  0.79204859044E+03  0.50400001928E-02 0.  1.
        1   -1    0    0  501    0  0.00000000000E+00  0.00000000000E+00 -0.26854181339E+04  0.26854181339E+04  0.50400001928E-02 0. -1.
    10030    2    1    2    0    0  0.00000000000E+00  0.00000000000E+00 -0.18933695434E+04  0.34774667243E+04  0.29168350297E+04 0.  0.
        4    1    3    3  502    0  0.19867792252E+03 -0.14390796783E+04 -0.11000896895E+04  0.18222574394E+04  0.12699999809E+01 0. -1.
       -4    1    3    3    0  502 -0.19867792252E+03  0.14390796783E+04 -0.79327985393E+03  0.16552092850E+04  0.12699999809E+01 0.  1.
</event>
<event>
 5   0  0.1700885E-06  0.3068279E+04  0.7818609E-02  0.8224498E-01
       -1   -1    0    0    0  501  0.00000000000E+00  0.00000000000E+00  0.28139456680E+04  0.28139456680E+04  0.50400001928E-02 0. -1.
        1   -1    0    0  501    0  0.00000000000E+00  0.00000000000E+00 -0.83639996748E+03  0.83639996749E+03  0.50400001928E-02 0.  1.
    10030    2    1    2    0    0  0.00000000000E+00  0.00000000000E+00  0.19775457006E+04  0.36503456355E+04  0.30682790390E+04 0.  0.
        1    1    3    3  502    0 -0.11444297553E+04 -0.56050329719E+03  0.20050484594E+04  0.23757320420E+04  0.50400001928E-02 0. -1.
       -1    1    3    3    0  502  0.11444297553E+04  0.56050329719E+03 -0.27502758832E+02  0.12746135935E+04  0.50400001928E-02 0.  1.
</event>
<event>
 5   0  0.5003556E-06  0.3020183E+04  0.7818609E-02  0.8237991E-01
        2   -1    0    0  501    0  0.00000000000E+00  0.00000000000E+00  0.19443406832E+04  0.19443406832E+04  0.25500000920E-02 0.  1.
       -2   -1    0    0    0  501  0.00000000000E+00  0.00000000000E+00 -0.11728273272E+04  0.11728273272E+04  0.25500000920E-02 0. -1.
    10030    2    1    2    0    0  0.00000000000E+00  0.00000000000E+00  0.77151335598E+03  0.31171680103E+04  0.30201827008E+04 0.  0.
        3    1    3    3  502    0 -0.23981304724E+03  0.37751571186E+03 -0.11029013168E+04  0.11901343349E+04  0.10100000352E+00 0. -1.
       -3    1    3    3    0  502  0.23981304724E+03 -0.37751571186E+03  0.18744146728E+04  0.19270336754E+04  0.10100000352E+00 0.  1.
</event>
<event>
 5   0  0.1734885E-06  0.2681765E+04  0.7818609E-02  0.8340946E-01
        1   -1    0    0  501    0  0.00000000000E+00  0.00000000000E+00  0.16838178074E+04  0.16838178075E+04  0.50400001928E-02 0.  1.
       -1   -1    0    0    0  501  0.00000000000E+00  0.00000000000E+00 -0.10677915452E+04  0.10677915452E+04  0.50400001928E-02 0. -1.
    10030    2    1    2    0    0  0.00000000000E+00  0.00000000000E+00  0.61602626223E+03  0.27516093527E+04  0.26817654025E+04 0.  0.
        2    1    3    3  502    0 -0.21917049919E+03  0.26884787709E+03  0.16369883166E+04  0.16733336898E+04  0.25500000920E-02 0.  1.
       -2    1    3    3    0  502  0.21917049919E+03 -0.26884787709E+03 -0.10209620544E+04  0.10782756629E+04  0.25500000920E-02 0. -1.
</event>
<event>
 5   0  0.5003556E-06  0.2989951E+04  0.7818609E-02  0.8246606E-01
       -2   -1    0    0    0  501  0.00000000000E+00  0.00000000000E+00  0.11384485658E+04  0.11384485658E+04  0.25500000920E-02 0.  1.
        2   -1    0    0  501    0  0.00000000000E+00  0.00000000000E+00 -0.19631561173E+04  0.19631561173E+04  0.25500000920E-02 0. -1.
    10030    2    1    2    0    0  0.00000000000E+00  0.00000000000E+00 -0.82470755154E+03  0.31016046831E+04  0.29899513482E+04 0.  0.
        3    1    3    3  502    0  0.38619604059E+03  0.14302615728E+04 -0.20447920198E+03  0.14955291045E+04  0.10100000352E+00 0. -1.
       -3    1    3    3    0  502 -0.38619604059E+03 -0.14302615728E+04 -0.62022834956E+03  0.16060755786E+04  0.10100000352E+00 0.  1.
</event>
<event>
 5   0  0.1672907E-06  0.2998100E+04  0.7818609E-02  0.8244274E-01
       -1   -1    0    0    0  501  0.00000000000E+00  0.00000000000E+00  0.11112696747E+04  0.11112696747E+04  0.50400001928E-02 0.  1.
        1   -1    0    0  501    0  0.00000000000E+00  0.00000000000E+00 -0.20221473522E+04  0.20221473522E+04  0.50400001928E-02 0. -1.
    10030    2    1    2    0    0  0.00000000000E+00  0.00000000000E+00 -0.91087767752E+03  0.31334170269E+04  0.29981000852E+04 0.  0.
        5    1    3    3  502    0  0.13023676625E+04 -0.12283450963E+03 -0.12205164266E+04  0.17891149440E+04  0.46999998093E+01 0. -1.
       -5    1    3    3    0  502 -0.13023676625E+04  0.12283450963E+03  0.30963874904E+03  0.13443020829E+04  0.46999998093E+01 0.  1.
</event>
<event>
 5   0  0.5003556E-06  0.3013422E+04  0.7818609E-02  0.8239908E-01
        2   -1    0    0  501    0  0.00000000000E+00  0.00000000000E+00  0.12567836300E+04  0.12567836300E+04  0.25500000920E-02 0. -1.
       -2   -1    0    0    0  501  0.00000000000E+00  0.00000000000E+00 -0.18063399199E+04  0.18063399199E+04  0.25500000920E-02 0.  1.
    10030    2    1    2    0    0  0.00000000000E+00  0.00000000000E+00 -0.54955628991E+03  0.30631235499E+04  0.30134222681E+04 0.  0.
        3    1    3    3  502    0 -0.29652659100E+03  0.66408288543E+03  0.10665479666E+04  0.12909138907E+04  0.10100000352E+00 0. -1.
       -3    1    3    3    0  502  0.29652659100E+03 -0.66408288543E+03 -0.16161042565E+04  0.17722096592E+04  0.10100000352E+00 0.  1.
</event>
<event>
 5   0  0.1709858E-06  0.2984710E+04  0.7818609E-02  0.8248111E-01
       -1   -1    0    0    0  501  0.00000000000E+00  0.00000000000E+00  0.12925833216E+04  0.12925833216E+04  0.50400001928E-02 0.  1.
        1   -1    0    0  501    0  0.00000000000E+00  0.00000000000E+00 -0.17230017041E+04  0.17230017041E+04  0.50400001928E-02 0. -1.
    10030    2    1    2    0    0  0.00000000000E+00  0.00000000000E+00 -0.43041838256E+03  0.30155850257E+04  0.29847098793E+04 0.  0.
        3    1    3    3  502    0 -0.45951962677E+03 -0.97368954992E+02 -0.16463663691E+04  0.17120634429E+04  0.10100000352E+00 0. -1.
       -3    1    3    3    0  502  0.45951962677E+03  0.97368954992E+02  0.12159479866E+04  0.13035215829E+04  0.10100000352E+00 0.  1.
</event>
<event>
 5   0  0.1672907E-06  0.3008071E+04  0.7818609E-02  0.8241430E-01
       -1   -1    0    0    0  501  0.00000000000E+00  0.00000000000E+00  0.11139081730E+04  0.11139081730E+04  0.50400001928E-02 0. -1.
        1   -1    0    0  501    0  0.00000000000E+00  0.00000000000E+00 -0.20307988780E+04  0.20307988780E+04  0.50400001928E-02 0.  1.
    10030    2    1    2    0    0  0.00000000000E+00  0.00000000000E+00 -0.91689070498E+03  0.31447070510E+04  0.30080714539E+04 0.  0.
        5    1    3    3  502    0 -0.67814307883E+03 -0.68973007444E+03 -0.16624966232E+04  0.19234143399E+04  0.46999998093E+01 0.  1.
       -5    1    3    3    0  502  0.67814307883E+03  0.68973007444E+03  0.74560591819E+03  0.12212927111E+04  0.46999998093E+01 0. -1.
</event>
<event>
 5   0  0.4935331E-06  0.3003442E+04  0.7818609E-02  0.8242749E-01
        2   -1    0    0  501    0  0.00000000000E+00  0.00000000000E+00  0.27841570583E+04  0.27841570583E+04  0.25500000920E-02 0. -1.
       -2   -1    0    0    0  501  0.00000000000E+00  0.00000000000E+00 -0.80999955607E+03  0.80999955608E+03  0.25500000920E-02 0.  1.
    10030    2    1    2    0    0  0.00000000000E+00  0.00000000000E+00  0.19741575022E+04  0.35941566143E+04  0.30034420129E+04 0.  0.
        5    1    3    3  502    0 -0.43555091976E+03 -0.14298149816E+03  0.26983700125E+04  0.27370369246E+04  0.46999998093E+01 0. -1.
       -5    1    3    3    0  502  0.43555091976E+03  0.14298149816E+03 -0.72421251026E+03  0.85711968974E+03  0.46999998093E+01 0.  1.
</event>
<event>
 5   0  0.1709858E-06  0.3050876E+04  0.7818609E-02  0.8229350E-01
       -1   -1    0    0    0  501  0.00000000000E+00  0.00000000000E+00  0.11131783202E+04  0.11131783202E+04  0.50400001928E-02 0. -1.
        1   -1    0    0  501    0  0.00000000000E+00  0.00000000000E+00 -0.20903764862E+04  0.20903764862E+04  0.50400001928E-02 0.  1.
    10030    2    1    2    0    0  0.00000000000E+00  0.00000000000E+00 -0.97719816598E+03  0.32035548065E+04  0.30508764548E+04 0.  0.
        3    1    3    3  502    0  0.68563501856E+03  0.89339658123E+03 -0.15690270772E+04  0.19313463721E+04  0.10100000352E+00 0.  1.
       -3    1    3    3    0  502 -0.68563501856E+03 -0.89339658123E+03  0.59182891121E+03  0.12722084343E+04  0.10100000352E+00 0. -1.
</event>
<event>
 5   0  0.1734885E-06  0.2977759E+04  0.7818609E-02  0.8250111E-01
        1   -1    0    0  501    0  0.00000000000E+00  0.00000000000E+00  0.15321899747E+04  0.15321899747E+04  0.50400001928E-02 0.  1.
       -1   -1    0    0    0  501  0.00000000000E+00  0.00000000000E+00 -0.14467933155E+04  0.14467933156E+04  0.50400001928E-02 0. -1.
    10030    2    1    2    0    0  0.00000000000E+00  0.00000000000E+00  0.85396659122E+02  0.29789832902E+04  0.29777590322E+04 0.  0.
        2    1    3    3  502    0 -0.13992224576E+04 -0.20211018921E+03  0.50989161338E+03  0.15028843841E+04  0.25500000920E-02 0. -1.
       -2    1    3    3    0  502  0.13992224576E+04  0.20211018921E+03 -0.42449495425E+03  0.14760989061E+04  0.25500000920E-02 0.  1.
</event>
<event>
 5   0  0.4702748E-06  0.3035271E+04  0.7818609E-02  0.8233730E-01
       -2   -1    0    0    0  501  0.00000000000E+00  0.00000000000E+00  0.14637266886E+04  0.14637266886E+04  0.25500000920E-02 0.  1.
        2   -1    0    0  501    0  0.00000000000E+00  0.00000000000E+00 -0.15735297473E+04  0.15735297473E+04  0.25500000920E-02 0. -1.
    10030    2    1    2    0    0  0.00000000000E+00  0.00000000000E+00 -0.10980305872E+03  0.30372564360E+04  0.30352709840E+04 0.  0.
        2    1    3    3  502    0  0.76042733809E+03  0.31923364722E+03  0.12199246132E+04  0.14725406344E+04  0.25500000920E-02 0.  1.
       -2    1    3    3    0  502 -0.76042733809E+03 -0.31923364722E+03 -0.13297276720E+04  0.15647158015E+04  0.25500000920E-02 0. -1.
</event>
<event>
 5   0  0.4702748E-06  0.2974548E+04  0.7818609E-02  0.8251036E-01
        2   -1    0    0  501    0  0.00000000000E+00  0.00000000000E+00  0.25520678378E+04  0.25520678378E+04  0.25500000920E-02 0. -1.
       -2   -1    0    0    0  501  0.00000000000E+00  0.00000000000E+00 -0.86674189322E+03  0.86674189322E+03  0.25500000920E-02 0.  1.
    10030    2    1    2    0    0  0.00000000000E+00  0.00000000000E+00  0.16853259446E+04  0.34188097310E+04  0.29745481064E+04 0.  0.
        2    1    3    3  502    0  0.19967495575E+02 -0.68108983655E+03  0.23621172333E+04  0.24584303712E+04  0.25500000920E-02 0. -1.
       -2    1    3    3    0  502 -0.19967495575E+02  0.68108983655E+03 -0.67679128868E+03  0.96037935983E+03  0.25500000920E-02 0.  1.
</event>
<event>
 5   0  0.4532420E-06  0.3022974E+04  0.7818609E-02  0.8237201E-01
       -2   -1    0    0    0  501  0.00000000000E+00  0.00000000000E+00  0.12373796316E+04  0.12373796316E+04  0.25500000920E-02 0. -1.
        2   -1    0    0  501    0  0.00000000000E+00  0.00000000000E+00 -0.18463154346E+04  0.18463154346E+04  0.25500000920E-02 0.  1.
    10030    2    1    2    0    0  0.00000000000E+00  0.00000000000E+00 -0.60893580303E+03  0.30836950662E+04  0.30229741065E+04 0.  0.
        4    1    3    3  502    0  0.62251625391E+03  0.29735402335E+03  0.10674045543E+04  0.12709445295E+04  0.12699999809E+01 0. -1.
       -4    1    3    3    0  502 -0.62251625391E+03 -0.29735402335E+03 -0.16763403573E+04  0.18127505367E+04  0.12699999809E+01 0.  1.
</event>
<event>
 5   0  0.4768570E-06  0.2999770E+04  0.7818609E-02  0.8243796E-01
        2   -1    0    0  501    0  0.00000000000E+00  0.00000000000E+00  0.14682053046E+04  0.14682053046E+04  0.25500000920E-02 0. -1.
       -2   -1    0    0    0  501  0.00000000000E+00  0.00000000000E+00 -0.15322485498E+04  0.15322485498E+04  0.25500000920E-02 0.  1.
    10030    2    1    2    0    0  0.00000000000E+00  0.00000000000E+00 -0.64043245183E+02  0.30004538544E+04  0.29997702904E+04 0.  0.
        1    1    3    3  502    0  0.14739416577E+04 -0.13026572230E+03 -0.27739829434E+03  0.15054643743E+04  0.50400001928E-02 0. -1.
       -1    1    3    3    0  502 -0.14739416577E+04  0.13026572230E+03  0.21335504916E+03  0.14949894801E+04  0.50400001928E-02 0.  1.
</event>
<event>
 5   0  0.1734885E-06  0.2977023E+04  0.7818609E-02  0.8250323E-01
       -1   -1    0    0    0  501  0.00000000000E+00  0.00000000000E+00  0.22188722978E+04  0.22188722978E+04  0.50400001928E-02 0.  1.
        1   -1    0    0  501    0  0.00000000000E+00  0.00000000000E+00 -0.99855523140E+03  0.99855523141E+03  0.50400001928E-02 0. -1.
    10030    2    1    2    0    0  0.00000000000E+00  0.00000000000E+00  0.12203170664E+04  0.32174275293E+04  0.29770230371E+04 0.  0.
        2    1    3    3  502    0 -0.43487690342E+03  0.37056043824E+03 -0.87533035108E+03  0.10452923912E+04  0.25500000920E-02 0. -1.
       -2    1    3    3    0  502  0.43487690342E+03 -0.37056043824E+03  0.20956474175E+04  0.21721351381E+04  0.25500000920E-02 0.  1.
</event>
<event>
 5   0  0.4532420E-06  0.2997514E+04  0.7818609E-02  0.8244441E-01
       -2   -1    0    0    0  501  0.00000000000E+00  0.00000000000E+00  0.10079599608E+04  0.10079599608E+04  0.25500000920E-02 0.  1.
        2   -1    0    0  501    0  0.00000000000E+00  0.00000000000E+00 -0.22285328411E+04  0.22285328411E+04  0.25500000920E-02 0. -1.
    10030    2    1    2    0    0  0.00000000000E+00  0.00000000000E+00 -0.12205728803E+04  0.32364928019E+04  0.29975135531E+04 0.  0.
        4    1    3    3  502    0 -0.14514229902E+04  0.33366976412E+03 -0.42862901355E+03  0.15497382528E+04  0.12699999809E+01 0.  1.
       -4    1    3    3    0  502  0.14514229902E+04 -0.33366976412E+03 -0.79194386674E+03  0.16867545491E+04  0.12699999809E+01 0. -1.
</event>
<event>
 5   0  0.5003556E-06  0.2977544E+04  0.7818609E-02  0.8250173E-01
       -2   -1    0    0    0  501  0.00000000000E+00  0.00000000000E+00  0.14049354088E+04  0.14049354088E+04  0.25500000920E-02 0. -1.
        2   -1    0    0  501    0  0.00000000000E+00  0.00000000000E+00 -0.15776111044E+04  0.15776111044E+04  0.25500000920E-02 0.  1.
    10030    2    1    2    0    0  0.00000000000E+00  0.00000000000E+00 -0.17267569558E+03  0.29825465133E+04  0.29775437542E+04 0.  0.
        3    1    3    3  502    0 -0.16380051233E+03  0.29783845465E+03 -0.15382224817E+04  0.15753306847E+04  0.10100000352E+00 0.  1.
       -3    1    3    3    0  502  0.16380051233E+03 -0.29783845465E+03  0.13655467861E+04  0.14072158285E+04  0.10100000352E+00 0. -1.
</event>
<event>
 5   0  0.1709858E-06  0.2844839E+04  0.7818609E-02  0.8289481E-01
        1   -1    0    0  501    0  0.00000000000E+00  0.00000000000E+00  0.23854075541E+04  0.23854075541E+04  0.50400001928E-02 0. -1.
       -1   -1    0    0    0  501  0.00000000000E+00  0.00000000000E+00 -0.84818945471E+03  0.84818945472E+03  0.50400001928E-02 0.  1.
    10030    2    1    2    0    0  0.00000000000E+00  0.00000000000E+00  0.15372180994E+04  0.32335970088E+04  0.28448392099E+04 0.  0.
        3    1    3    3  502    0  0.11008942840E+03  0.13992520211E+04  0.10309068132E+04  0.17414921098E+04  0.10100000352E+00 0. -1.
       -3    1    3    3    0  502 -0.11008942840E+03 -0.13992520211E+04  0.50631128622E+03  0.14921048990E+04  0.10100000352E+00 0.  1.
</event>
<event>
 5   0  0.4935331E-06  0.3015257E+04  0.7818609E-02  0.8239387E-01
        2   -1    0    0  501    0  0.00000000000E+00  0.00000000000E+00  0.22220187972E+04  0.22220187972E+04  0.25500000920E-02 0. -1.
       -2   -1    0    0    0  501  0.00000000000E+00  0.00000000000E+00 -0.10229185877E+04  0.10229185877E+04  0.25500000920E-02 0.  1.
    10030    2    1    2    0    0  0.00000000000E+00  0.00000000000E+00  0.11991002095E+04  0.32449373849E+04  0.30152574218E+04 0.  0.
        5    1    3    3  502    0 -0.86482567712E+03  0.12053938815E+04  0.31073381412E+03  0.15157425423E+04  0.46999998093E+01 0.  1.
       -5    1    3    3    0  502  0.86482567712E+03 -0.12053938815E+04  0.88836639536E+03  0.17291948426E+04  0.46999998093E+01 0. -1.
</event>
<event>
 5   0  0.1686012E-06  0.3024774E+04  0.7818609E-02  0.8236692E-01
       -1   -1    0    0    0  501  0.00000000000E+00  0.00000000000E+00  0.13209536575E+04  0.13209536575E+04  0.50400001928E-02 0.  1.
        1   -1    0    0  501    0  0.00000000000E+00  0.00000000000E+00 -0.17315630104E+04  0.17315630104E+04  0.50400001928E-02 0. -1.
    10030    2    1    2    0    0  0.00000000000E+00  0.00000000000E+00 -0.41060935294E+03  0.30525166680E+04  0.30247740358E+04 0.  0.
        4    1    3    3  502    0  0.54090233505E+03  0.15684053806E+03 -0.16217946225E+04  0.17167975131E+04  0.12699999809E+01 0. -1.
       -4    1    3    3    0  502 -0.54090233505E+03 -0.15684053806E+03  0.12111852696E+04  0.13357191548E+04  0.12699999809E+01 0.  1.
</event>
<event>
 5   0  0.4768570E-06  0.2953545E+04  0.7818609E-02  0.8257122E-01
        2   -1    0    0  501    0  0.00000000000E+00  0.00000000000E+00  0.17418944655E+04  0.17418944655E+04  0.25500000920E-02 0. -1.
       -2   -1    0    0    0  501  0.00000000000E+00  0.00000000000E+00 -0.12520025585E+04  0.12520025585E+04  0.25500000920E-02 0.  1.
    10030    2    1    2    0    0  0.00000000000E+00  0.00000000000E+00  0.48989190703E+03  0.29938970240E+04  0.29535445332E+04 0.  0.
        1    1    3    3  502    0  0.66744095888E+03 -0.10032697253E+04 -0.62043251168E+03  0.13553464785E+04  0.50400001928E-02 0.  1.
       -1    1    3    3    0  502 -0.66744095888E+03  0.10032697253E+04  0.11103244187E+04  0.16385505455E+04  0.50400001928E-02 0. -1.
</event>
<event>
 5   0  0.4702748E-06  0.2527289E+04  0.7818609E-02  0.8393328E-01
       -2   -1    0    0    0  501  0.00000000000E+00  0.00000000000E+00  0.11044451704E+04  0.11044451704E+04  0.25500000920E-02 0.  1.
        2   -1    0    0  501    0  0.00000000000E+00  0.00000000000E+00 -0.14457916628E+04  0.14457916628E+04  0.25500000920E-02 0. -1.
    10030    2    1    2    0    0  0.00000000000E+00  0.00000000000E+00 -0.34134649246E+03  0.25502368332E+04  0.25272891559E+04 0.  0.
        2    1    3    3  502    0 -0.54644983723E+03  0.10686166873E+04  0.22819880477E+03  0.12217298161E+04  0.25500000920E-02 0.  1.
       -2    1    3    3    0  502  0.54644983723E+03 -0.10686166873E+04 -0.56954529723E+03  0.13285070171E+04  0.25500000920E-02 0. -1.
</event>
<event>
 5   0  0.1672907E-06  0.2993527E+04  0.7818609E-02  0.8245582E-01
        1   -1    0    0  501    0  0.00000000000E+00  0.00000000000E+00  0.17438227764E+04  0.17438227764E+04  0.50400001928E-02 0. -1.
       -1   -1    0    0    0  501  0.00000000000E+00  0.00000000000E+00 -0.12847070156E+04  0.12847070156E+04  0.50400001928E-02 0.  1.
    10030    2    1    2    0    0  0.00000000000E+00  0.00000000000E+00  0.45911576081E+03  0.30285297920E+04  0.29935272538E+04 0.  0.
        5    1    3    3  502    0 -0.45317547825E+03  0.97024352828E+02  0.16693987352E+04  0.17325403217E+04  0.46999998093E+01 0. -1.
       -5    1    3    3    0  502  0.45317547825E+03 -0.97024352828E+02 -0.12102829744E+04  0.12959894703E+04  0.46999998093E+01 0.  1.
</event>
<event>
 5   0  0.4532420E-06  0.2993233E+04  0.7818609E-02  0.8245666E-01
        2   -1    0    0  501    0  0.00000000000E+00  0.00000000000E+00  0.24739687357E+04  0.24739687357E+04  0.25500000920E-02 0. -1.
       -2   -1    0    0    0  501  0.00000000000E+00  0.00000000000E+00 -0.90537178976E+03  0.90537178976E+03  0.25500000920E-02 0.  1.
    10030    2    1    2    0    0  0.00000000000E+00  0.00000000000E+00  0.15685969459E+04  0.33793405254E+04  0.29932333701E+04 0.  0.
        4    1    3    3  502    0 -0.26831456769E+03  0.71116159217E+03 -0.67123464610E+03  0.10140518135E+04  0.12699999809E+01 0.  1.
       -4    1    3    3    0  502  0.26831456769E+03 -0.71116159217E+03  0.22398315920E+04  0.23652887120E+04  0.12699999809E+01 0. -1.
</event>
<event>
 5   0  0.4935331E-06  0.2989719E+04  0.7818609E-02  0.8246673E-01
        2   -1    0    0  501    0  0.00000000000E+00  0.00000000000E+00  0.17470912378E+04  0.17470912378E+04  0.25500000920E-02 0. -1.
       -2   -1    0    0    0  501  0.00000000000E+00  0.00000000000E+00 -0.12790431369E+04  0.12790431369E+04  0.25500000920E-02 0.  1.
    10030    2    1    2    0    0  0.00000000000E+00  0.00000000000E+00  0.46804810090E+03  0.30261343747E+04  0.29897190886E+04 0.  0.
        5    1    3    3  502    0 -0.11972393548E+04 -0.46782860384E+03 -0.53838103743E+03  0.13936003396E+04  0.46999998093E+01 0.  1.
       -5    1    3    3    0  502  0.11972393548E+04  0.46782860384E+03  0.10064291383E+04  0.16325340351E+04  0.46999998093E+01 0. -1.
</event>
<event>
 5   0  0.1686012E-06  0.2977458E+04  0.7818609E-02  0.8250197E-01
       -1   -1    0    0    0  501  0.00000000000E+00  0.00000000000E+00  0.13088888417E+04  0.13088888417E+04  0.50400001928E-02 0.  1.
        1   -1    0    0  501    0  0.00000000000E+00  0.00000000000E+00 -0.16932785314E+04  0.16932785314E+04  0.50400001928E-02 0. -1.
    10030    2    1    2    0    0  0.00000000000E+00  0.00000000000E+00 -0.38438968969E+03  0.30021673731E+04  0.29774575568E+04 0.  0.
        4    1    3    3  502    0  0.71288352568E+03 -0.25375011225E+03  0.11005213943E+04  0.13355676669E+04  0.12699999809E+01 0.  1.
       -4    1    3    3    0  502 -0.71288352568E+03  0.25375011225E+03 -0.14849110840E+04  0.16665997063E+04  0.12699999809E+01 0. -1.
</event>
<event>
 5   0  0.5003556E-06  0.2988770E+04  0.7818609E-02  0.8246945E-01
        2   -1    0    0  501    0  0.00000000000E+00  0.00000000000E+00  0.19957307863E+04  0.19957307863E+04  0.25500000920E-02 0.  1.
       -2   -1    0    0    0  501  0.00000000000E+00  0.00000000000E+00 -0.11189816627E+04  0.11189816627E+04  0.25500000920E-02 0. -1.
    10030    2    1    2    0    0  0.00000000000E+00  0.00000000000E+00  0.87674912357E+03  0.31147124490E+04  0.29887697493E+04 0.  0.
        3    1    3    3  502    0 -0.71691842464E+03  0.67417927366E+03 -0.73360124037E+03  0.12274610017E+04  0.10100000352E+00 0. -1.
       -3    1    3    3    0  502  0.71691842464E+03 -0.67417927366E+03  0.16103503639E+04  0.18872514473E+04  0.10100000352E+00 0.  1.
</event>
<event>
 5   0  0.1545375E-06  0.2998473E+04  0.7818609E-02  0.8244167E-01
        3   -1    0    0  501    0  0.00000000000E+00  0.00000000000E+00  0.17321947278E+04  0.17321947307E+04  0.10100000352E+00 0. -1.
       -3   -1    0    0    0  501  0.00000000000E+00  0.00000000000E+00 -0.12976085425E+04  0.12976085464E+04  0.10100000352E+00 0.  1.
    10030    2    1    2    0    0  0.00000000000E+00  0.00000000000E+00  0.43458618530E+03  0.30298032772E+04  0.29984734026E+04 0.  0.
        4    1    3    3  502    0 -0.86007887936E+03  0.16614209320E+03 -0.10121244255E+04  0.13385575593E+04  0.12699999809E+01 0.  1.
       -4    1    3    3    0  502  0.86007887936E+03 -0.16614209320E+03  0.14467106108E+04  0.16912457179E+04  0.12699999809E+01 0. -1.
</event>
<event>
 5   0  0.1709858E-06  0.2894771E+04  0.7818609E-02  0.8274435E-01
        1   -1    0    0  501    0  0.00000000000E+00  0.00000000000E+00  0.17050912400E+04  0.17050912400E+04  0.50400001928E-02 0.  1.
       -1   -1    0    0    0  501  0.00000000000E+00  0.00000000000E+00 -0.12286293277E+04  0.12286293277E+04  0.50400001928E-02 0. -1.
    10030    2    1    2    0    0  0.00000000000E+00  0.00000000000E+00  0.47646191227E+03  0.29337205677E+04  0.28947712199E+04 0.  0.
        3    1    3    3  502    0  0.36513523079E+03  0.10328598469E+04 -0.72043641623E+03  0.13111643070E+04  0.10100000352E+00 0. -1.
       -3    1    3    3    0  502 -0.36513523079E+03 -0.10328598469E+04  0.11968983285E+04  0.16225562606E+04  0.10100000352E+00 0.  1.
</event>
<event>
 5   0  0.1709858E-06  0.3044088E+04  0.7818609E-02  0.8231252E-01
        1   -1    0    0  501    0  0.00000000000E+00  0.00000000000E+00  0.13254811357E+04  0.13254811357E+04  0.50400001928E-02 0.  1.
       -1   -1    0    0    0  501  0.00000000000E+00  0.00000000000E+00 -0.17477558228E+04  0.17477558228E+04  0.50400001928E-02 0. -1.
    10030    2    1    2    0    0  0.00000000000E+00  0.00000000000E+00 -0.42227468705E+03  0.30732369585E+04  0.30440876288E+04 0.  0.
        3    1    3    3  502    0  0.11773580673E+04  0.60839294457E+03  0.54456455660E+03  0.14327821049E+04  0.10100000352E+00 0.  1.
       -3    1    3    3    0  502 -0.11773580673E+04 -0.60839294457E+03 -0.96683924365E+03  0.16404548536E+04  0.10100000352E+00 0. -1.
</event>
<event>
 5   0  0.1700885E-06  0.2910549E+04  0.7818609E-02  0.8269746E-01
       -1   -1    0    0    0  501  0.00000000000E+00  0.00000000000E+00  0.14900275092E+04  0.14900275092E+04  0.50400001928E-02 0. -1.
        1   -1    0    0  501    0  0.00000000000E+00  0.00000000000E+00 -0.14213317615E+04  0.14213317615E+04  0.50400001928E-02 0.  1.
    10030    2    1    2    0    0  0.00000000000E+00  0.00000000000E+00  0.68695747719E+02  0.29113592706E+04  0.29105486935E+04 0.  0.
        1    1    3    3  502    0 -0.11209629288E+04 -0.25148588403E+03  0.92791652826E+03  0.14767640709E+04  0.50400001928E-02 0. -1.
       -1    1    3    3    0  502  0.11209629288E+04  0.25148588403E+03 -0.85922078054E+03  0.14345951998E+04  0.50400001928E-02 0.  1.
</event>
<event>
 5   0  0.5003556E-06  0.2990999E+04  0.7818609E-02  0.8246306E-01
       -2   -1    0    0    0  501  0.00000000000E+00  0.00000000000E+00  0.11544478463E+04  0.11544478463E+04  0.25500000920E-02 0.  1.
        2   -1    0    0  501    0  0.00000000000E+00  0.00000000000E+00 -0.19373065863E+04  0.19373065863E+04  0.25500000920E-02 0. -1.
    10030    2    1    2    0    0  0.00000000000E+00  0.00000000000E+00 -0.78285873999E+03  0.30917544326E+04  0.29909994424E+04 0.  0.
        3    1    3    3  502    0 -0.60417688639E+03 -0.45554343016E+02  0.10218937492E+04  0.11880116806E+04  0.10100000352E+00 0.  1.
       -3    1    3    3    0  502  0.60417688639E+03  0.45554343016E+02 -0.18047524892E+04  0.19037427520E+04  0.10100000352E+00 0. -1.
</event>
<event>
 5   0  0.1545375E-06  0.3020737E+04  0.7818609E-02  0.8237834E-01
       -3   -1    0    0    0  501  0.00000000000E+00  0.00000000000E+00  0.24646192899E+04  0.24646192919E+04  0.10100000352E+00 0.  1.
        3   -1    0    0  501    0  0.00000000000E+00  0.00000000000E+00 -0.92558436896E+03  0.92558437447E+03  0.10100000352E+00 0. -1.
    10030    2    1    2    0    0  0.00000000000E+00  0.00000000000E+00  0.15390349209E+04  0.33902036664E+04  0.30207370643E+04 0.  0.
        5    1    3    3  502    0 -0.33108387461E+03 -0.10917100738E+04  0.18804024064E+04  0.21994050825E+04  0.46999998093E+01 0.  1.
       -5    1    3    3    0  502  0.33108387461E+03  0.10917100738E+04 -0.34136748546E+03  0.11907985839E+04  0.46999998093E+01 0. -1.
</event>
<event>
 5   0  0.5003556E-06  0.2982723E+04  0.7818609E-02  0.8248682E-01
        2   -1    0    0  501    0  0.00000000000E+00  0.00000000000E+00  0.25945110158E+04  0.25945110158E+04  0.25500000920E-02 0.  1.
       -2   -1    0    0    0  501  0.00000000000E+00  0.00000000000E+00 -0.85725572560E+03  0.85725572560E+03  0.25500000920E-02 0. -1.
    10030    2    1    2    0    0  0.00000000000E+00  0.00000000000E+00  0.17372552902E+04  0.34517667414E+04  0.29827232010E+04 0.  0.
        3    1    3    3  502    0 -0.67982693620E+03 -0.25696596238E+02  0.24044797613E+04  0.24988693265E+04  0.10100000352E+00 0.  1.
       -3    1    3    3    0  502  0.67982693620E+03  0.25696596238E+02 -0.66722447111E+03  0.95289741489E+03  0.10100000352E+00 0. -1.
</event>
<event>
 5   0  0.4935331E-06  0.2737206E+04  0.7818609E-02  0.8323033E-01
        2   -1    0    0  501    0  0.00000000000E+00  0.00000000000E+00  0.19766804192E+04  0.19766804192E+04  0.25500000920E-02 0.  1.
       -2   -1    0    0    0  501  0.00000000000E+00  0.00000000000E+00 -0.94758602360E+03  0.94758602360E+03  0.25500000920E-02 0. -1.
    10030    2    1    2    0    0  0.00000000000E+00  0.00000000000E+00  0.10290943956E+04  0.29242664428E+04  0.27372064141E+04 0.  0.
        5    1    3    3  502    0 -0.15158927395E+03 -0.73652650456E+03 -0.70710389467E+03  0.10322153883E+04  0.46999998093E+01 0. -1.
       -5    1    3    3    0  502  0.15158927395E+03  0.73652650456E+03  0.17361982903E+04  0.18920510545E+04  0.46999998093E+01 0.  1.
</event>
<event>
 5   0  0.1686012E-06  0.3000940E+04  0.7818609E-02  0.8243463E-01
        1   -1    0    0  501    0  0.00000000000E+00  0.00000000000E+00  0.15186717607E+04  0.15186717607E+04  0.50400001928E-02 0.  1.
       -1   -1    0    0    0  501  0.00000000000E+00  0.00000000000E+00 -0.14824859757E+04  0.14824859757E+04  0.50400001928E-02 0. -1.
    10030    2    1    2    0    0  0.00000000000E+00  0.00000000000E+00  0.36185784955E+02  0.30011577364E+04  0.30009395775E+04 0.  0.
        4    1    3    3  502    0  0.17694290039E+03  0.13208892085E+03 -0.14661483158E+04  0.14826829634E+04  0.12699999809E+01 0. -1.
       -4    1    3    3    0  502 -0.17694290039E+03 -0.13208892085E+03  0.15023341008E+04  0.15184747730E+04  0.12699999809E+01 0.  1.
</event>
<event>
 5   0  0.1700885E-06  0.3006246E+04  0.7818609E-02  0.8241949E-01
        1   -1    0    0  501    0  0.00000000000E+00  0.00000000000E+00  0.21652584779E+04  0.21652584779E+04  0.50400001928E-02 0.  1.
       -1   -1    0    0    0  501  0.00000000000E+00  0.00000000000E+00 -0.10434685125E+04  0.10434685125E+04  0.50400001928E-02 0. -1.
    10030    2    1    2    0    0  0.00000000000E+00  0.00000000000E+00  0.11217899653E+04  0.32087269904E+04  0.30062461930E+04 0.  0.
        1    1    3    3  502    0 -0.13078122618E+04 -0.59527221367E+03  0.10318109034E+04  0.17689984909E+04  0.50400001928E-02 0.  1.
       -1    1    3    3    0  502  0.13078122618E+04  0.59527221367E+03  0.89979061946E+02  0.14397284995E+04  0.50400001928E-02 0. -1.
</event>
<event>
 5   0  0.4702748E-06  0.3008809E+04  0.7818609E-02  0.8241220E-01
        2   -1    0    0  501    0  0.00000000000E+00  0.00000000000E+00  0.92104449447E+03  0.92104449448E+03  0.25500000920E-02 0.  1.
       -2   -1    0    0    0  501  0.00000000000E+00  0.00000000000E+00 -0.24572467398E+04  0.24572467398E+04  0.25500000920E-02 0. -1.
    10030    2    1    2    0    0  0.00000000000E+00  0.00000000000E+00 -0.15362022453E+04  0.33782912342E+04  0.30088094531E+04 0.  0.
        2    1    3    3  502    0 -0.50671248503E+03 -0.25914225749E+03  0.79550473384E+03  0.97813088780E+03  0.25500000920E-02 0.  1.
       -2    1    3    3    0  502  0.50671248503E+03  0.25914225749E+03 -0.23317069791E+04  0.24001603464E+04  0.25500000920E-02 0. -1.
</event>
<event>
 5   0  0.5003556E-06  0.3047932E+04  0.7818609E-02  0.8230175E-01
       -2   -1    0    0    0  501  0.00000000000E+00  0.00000000000E+00  0.96084880895E+03  0.96084880895E+03  0.25500000920E-02 0.  1.
        2   -1    0    0  501    0  0.00000000000E+00  0.00000000000E+00 -0.24171050303E+04  0.24171050303E+04  0.25500000920E-02 0. -1.
    10030    2    1    2    0    0  0.00000000000E+00  0.00000000000E+00 -0.14562562213E+04  0.33779538392E+04  0.30479320789E+04 0.  0.
        3    1    3    3  502    0 -0.59534454427E+02  0.11599795274E+04 -0.18215522531E+04  0.21603586453E+04  0.10100000352E+00 0. -1.
       -3    1    3    3    0  502  0.59534454427E+02 -0.11599795274E+04  0.36529603181E+03  0.12175951939E+04  0.10100000352E+00 0.  1.
</event>
<event>
 5   0  0.1700885E-06  0.3140237E+04  0.7818609E-02  0.8204781E-01
       -1   -1    0    0    0  501  0.00000000000E+00  0.00000000000E+00  0.95933756677E+03  0.95933756678E+03  0.50400001928E-02 0. -1.
        1   -1    0    0  501    0  0.00000000000E+00  0.00000000000E+00 -0.25697642552E+04  0.25697642552E+04  0.50400001928E-02 0.  1.
    10030    2    1    2    0    0  0.00000000000E+00  0.00000000000E+00 -0.16104266884E+04  0.35291018220E+04  0.31402365438E+04 0.  0.
        1    1    3    3  502    0 -0.31502660180E+03 -0.15944383265E+03  0.91414381930E+03  0.97996072268E+03  0.50400001928E-02 0. -1.
       -1    1    3    3    0  502  0.31502660180E+03  0.15944383265E+03 -0.25245705077E+04  0.25491410993E+04  0.50400001928E-02 0.  1.
</event>
<event>
 5   0  0.4935331E-06  0.2941092E+04  0.7818609E-02  0.8260755E-01
        2   -1    0    0  501    0  0.00000000000E+00  0.00000000000E+00  0.22813491091E+04  0.22813491091E+04  0.25500000920E-02 0. -1.
       -2   -1    0    0    0  501  0.00000000000E+00  0.00000000000E+00 -0.94790622477E+03  0.94790622478E+03  0.25500000920E-02 0.  1.
    10030    2    1    2    0    0  0.00000000000E+00  0.00000000000E+00  0.13334428843E+04  0.32292553339E+04  0.29410916486E+04 0.  0.
        5    1    3    3  502    0 -0.14099621989E+04  0.19457331615E+03  0.26086909699E+03  0.14470407573E+04  0.46999998093E+01 0.  1.
       -5    1    3    3    0  502  0.14099621989E+04 -0.19457331615E+03  0.10725737873E+04  0.17822145765E+04  0.46999998093E+01 0. -1.
</event>
<event>
 5   0  0.1700885E-06  0.3030405E+04  0.7818609E-02  0.8235101E-01
        1   -1    0    0  501    0  0.00000000000E+00  0.00000000000E+00  0.24231103046E+04  0.24231103046E+04  0.50400001928E-02 0. -1.
       -1   -1    0    0    0  501  0.00000000000E+00  0.00000000000E+00 -0.94747594461E+03  0.94747594462E+03  0.50400001928E-02 0.  1.
    10030    2    1    2    0    0  0.00000000000E+00  0.00000000000E+00  0.14756343599E+04  0.33705862492E+04  0.30304050718E+04 0.  0.
        1    1    3    3  502    0  0.43020824239E+03 -0.14516322685E+04  0.67179609507E+03  0.16563892562E+04  0.50400001928E-02 0. -1.
       -1    1    3    3    0  502 -0.43020824239E+03  0.14516322685E+04  0.80383826488E+03  0.17141969930E+04  0.50400001928E-02 0.  1.
</event>
<event>
 5   0  0.1672907E-06  0.2992530E+04  0.7818609E-02  0.8245867E-01
       -1   -1    0    0    0  501  0.00000000000E+00  0.00000000000E+00  0.14067392950E+04  0.14067392951E+04  0.50400001928E-02 0.  1.
        1   -1    0    0  501    0  0.00000000000E+00  0.00000000000E+00 -0.15914884330E+04  0.15914884330E+04  0.50400001928E-02 0. -1.
    10030    2    1    2    0    0  0.00000000000E+00  0.00000000000E+00 -0.18474913791E+03  0.29982277280E+04  0.29925302446E+04 0.  0.
        5    1    3    3  502    0  0.93618587798E+03  0.11582350089E+04 -0.23699235165E+03  0.15080251320E+04  0.46999998093E+01 0. -1.
       -5    1    3    3    0  502 -0.93618587798E+03 -0.11582350089E+04  0.52243213738E+02  0.14902025961E+04  0.46999998093E+01 0.  1.
</event>
<event>
 5   0  0.4702748E-06  0.3047123E+04  0.7818609E-02  0.8230401E-01
       -2   -1    0    0    0  501  0.00000000000E+00  0.00000000000E+00  0.18949920348E+04  0.18949920348E+04  0.25500000920E-02 0.  1.
        2   -1    0    0  501    0  0.00000000000E+00  0.00000000000E+00 -0.12249333282E+04  0.12249333282E+04  0.25500000920E-02 0. -1.
    10030    2    1    2    0    0  0.00000000000E+00  0.00000000000E+00  0.67005870660E+03  0.31199253629E+04  0.30471225115E+04 0.  0.
        2    1    3    3  502    0 -0.26564347992E+03  0.34316997361E+03  0.18303703131E+04  0.18811133863E+04  0.25500000920E-02 0.  1.
       -2    1    3    3    0  502  0.26564347992E+03 -0.34316997361E+03 -0.11603116065E+04  0.12388119766E+04  0.25500000920E-02 0. -1.
</event>
<event>
 5   0  0.1700885E-06  0.2995252E+04  0.7818609E-02  0.8245088E-01
        1   -1    0    0  501    0  0.00000000000E+00  0.00000000000E+00  0.19958522130E+04  0.19958522130E+04  0.50400001928E-02 0.  1.
       -1   -1    0    0    0  501  0.00000000000E+00  0.00000000000E+00 -0.11237726655E+04  0.11237726656E+04  0.50400001928E-02 0. -1.
    10030    2    1    2    0    0  0.00000000000E+00  0.00000000000E+00  0.87207954747E+03  0.31196248786E+04  0.29952523510E+04 0.  0.
        1    1    3    3  502    0 -0.59884069848E+03 -0.35523440781E+03 -0.94494402071E+03  0.11737635490E+04  0.50400001928E-02 0. -1.
       -1    1    3    3    0  502  0.59884069848E+03  0.35523440781E+03  0.18170235682E+04  0.19458613296E+04  0.50400001928E-02 0.  1.
</event>
<event>
 5   0  0.1734885E-06  0.2950735E+04  0.7818609E-02  0.8257940E-01
        1   -1    0    0  501    0  0.00000000000E+00  0.00000000000E+00  0.21661343377E+04  0.21661343378E+04  0.50400001928E-02 0. -1.
       -1   -1    0    0    0  501  0.00000000000E+00  0.00000000000E+00 -0.10048821883E+04  0.10048821883E+04  0.50400001928E-02 0.  1.
    10030    2    1    2    0    0  0.00000000000E+00  0.00000000000E+00  0.11612521494E+04  0.31710165261E+04  0.29507353751E+04 0.  0.
        2    1    3    3  502    0  0.10485718962E+04  0.10341308311E+04  0.48583573569E+03  0.15507952667E+04  0.25500000920E-02 0.  1.
       -2    1    3    3    0  502 -0.10485718962E+04 -0.10341308311E+04  0.67541641375E+03  0.16202212593E+04  0.25500000920E-02 0. -1.
</event>
<event>
 5   0  0.4935331E-06  0.3076527E+04  0.7818609E-02  0.8222209E-01
        2   -1    0    0  501    0  0.00000000000E+00  0.00000000000E+00  0.99802266304E+03  0.99802266304E+03  0.25500000920E-02 0.  1.
       -2   -1    0    0    0  501  0.00000000000E+00  0.00000000000E+00 -0.23709434381E+04  0.23709434381E+04  0.25500000920E-02 0. -1.
    10030    2    1    2    0    0  0.00000000000E+00  0.00000000000E+00 -0.13729207751E+04  0.33689661012E+04  0.30765274476E+04 0.  0.
        5    1    3    3  502    0 -0.92298831473E+03 -0.29329601469E+02  0.66070872045E+03  0.11354848118E+04  0.46999998093E+01 0.  1.
       -5    1    3    3    0  502  0.92298831473E+03  0.29329601469E+02 -0.20336294955E+04  0.22334812893E+04  0.46999998093E+01 0. -1.
</event>
<event>
 5   0  0.4532420E-06  0.2962564E+04  0.7818609E-02  0.8254502E-01
       -2   -1    0    0    0  501  0.00000000000E+00  0.00000000000E+00  0.24167731254E+04  0.24167731254E+04  0.25500000920E-02 0.  1.
        2   -1    0    0  501    0  0.00000000000E+00  0.00000000000E+00 -0.90790341577E+03  0.90790341578E+03  0.25500000920E-02 0. -1.
    10030    2    1    2    0    0  0.00000000000E+00  0.00000000000E+00  0.15088697097E+04  0.33246765412E+04  0.29625641433E+04 0.  0.
        4    1    3    3  502    0  0.18233064082E+03  0.46632503371E+02 -0.89443135623E+03  0.91401756923E+03  0.12699999809E+01 0. -1.
       -4    1    3    3    0  502 -0.18233064082E+03 -0.46632503371E+02  0.24033010659E+04  0.24106589720E+04  0.12699999809E+01 0.  1.
</event>
<event>
 5   0  0.1734885E-06  0.2980964E+04  0.7818609E-02  0.8249188E-01
       -1   -1    0    0    0  501  0.00000000000E+00  0.00000000000E+00  0.11807642417E+04  0.11807642417E+04  0.50400001928E-02 0.  1.
        1   -1    0    0  501    0  0.00000000000E+00  0.00000000000E+00 -0.18814393634E+04  0.18814393634E+04  0.50400001928E-02 0. -1.
    10030    2    1    2    0    0  0.00000000000E+00  0.00000000000E+00 -0.70067512176E+03  0.30622036051E+04  0.29809638195E+04 0.  0.
        2    1    3    3  502    0 -0.11374574226E+04  0.96263539142E+03 -0.31689203018E+03  0.15234489962E+04  0.25500000920E-02 0.  1.
       -2    1    3    3    0  502  0.11374574226E+04 -0.96263539142E+03 -0.38378309158E+03  0.15387546089E+04  0.25500000920E-02 0. -1.
</event>
<event>
 5   0  0.1709858E-06  0.2895345E+04  0.7818609E-02  0.8274264E-01
        1   -1    0    0  501    0  0.00000000000E+00  0.00000000000E+00  0.11832159488E+04  0.11832159488E+04  0.50400001928E-02 0. -1.
       -1   -1    0    0    0  501  0.00000000000E+00  0.00000000000E+00 -0.17712373609E+04  0.17712373609E+04  0.50400001928E-02 0.  1.
    10030    2    1    2    0    0  0.00000000000E+00  0.00000000000E+00 -0.58802141209E+03  0.29544533097E+04  0.28953454333E+04 0.  0.
        3    1    3    3  502    0  0.53596205480E+03  0.15781994781E+03 -0.16567874880E+04  0.17484585356E+04  0.10100000352E+00 0.  1.
       -3    1    3    3    0  502 -0.53596205480E+03 -0.15781994781E+03  0.10687660759E+04  0.12059947742E+04  0.10100000352E+00 0. -1.
</event>
<event>
 5   0  0.1734885E-06  0.3003630E+04  0.7818609E-02  0.8242695E-01
       -1   -1    0    0    0  501  0.00000000000E+00  0.00000000000E+00  0.13800261715E+04  0.13800261715E+04  0.50400001928E-02 0. -1.
        1   -1    0    0  501    0  0.00000000000E+00  0.00000000000E+00 -0.16343521668E+04  0.16343521668E+04  0.50400001928E-02 0.  1.
    10030    2    1    2    0    0  0.00000000000E+00  0.00000000000E+00 -0.25432599531E+03  0.30143783383E+04  0.30036303126E+04 0.  0.
        2    1    3    3  502    0 -0.18424245434E+03 -0.10033318899E+04 -0.12332996563E+04  0.16005149813E+04  0.25500000920E-02 0.  1.
       -2    1    3    3    0  502  0.18424245434E+03  0.10033318899E+04  0.97897366102E+03  0.14138633570E+04  0.25500000920E-02 0. -1.
</event>
<event>
 5   0  0.5003556E-06  0.2999992E+04  0.7818609E-02  0.8243733E-01
       -2   -1    0    0    0  501  0.00000000000E+00  0.00000000000E+00  0.75026456901E+03  0.75026456902E+03  0.25500000920E-02 0.  1.
        2   -1    0    0  501    0  0.00000000000E+00  0.00000000000E+00 -0.29989260274E+04  0.29989260274E+04  0.25500000920E-02 0. -1.
    10030    2    1    2    0    0  0.00000000000E+00  0.00000000000E+00 -0.22486614584E+04  0.37491905964E+04  0.29999919623E+04 0.  0.
        3    1    3    3  502    0 -0.12150152204E+04  0.84373590705E+03 -0.81356225776E+03  0.16882049117E+04  0.10100000352E+00 0.  1.
       -3    1    3    3    0  502  0.12150152204E+04 -0.84373590705E+03 -0.14350992006E+04  0.20609856847E+04  0.10100000352E+00 0. -1.
</event>
<event>
 5   0  0.1545375E-06  0.2960922E+04  0.7818609E-02  0.8254979E-01
        3   -1    0    0  501    0  0.00000000000E+00  0.00000000000E+00  0.12808237303E+04  0.12808237343E+04  0.10100000352E+00 0. -1.
       -3   -1    0    0    0  501  0.00000000000E+00  0.00000000000E+00 -0.17112151694E+04  0.17112151724E+04  0.10100000352E+00 0.  1.
    10030    2    1    2    0    0  0.00000000000E+00  0.00000000000E+00 -0.43039143908E+03  0.29920389067E+04  0.29609221585E+04 0.  0.
        1    1    3    3  502    0  0.10354828106E+04  0.58570062139E+02 -0.12827592455E+04  0.16495837005E+04  0.50400001928E-02 0.  1.
       -1    1    3    3    0  502 -0.10354828106E+04 -0.58570062139E+02  0.85236780640E+03  0.13424552062E+04  0.50400001928E-02 0. -1.
</event>
<event>
 5   0  0.1686012E-06  0.3005437E+04  0.7818609E-02  0.8242180E-01
       -1   -1    0    0    0  501  0.00000000000E+00  0.00000000000E+00  0.14478780338E+04  0.14478780338E+04  0.50400001928E-02 0.  1.
        1   -1    0    0  501    0  0.00000000000E+00  0.00000000000E+00 -0.15596364242E+04  0.15596364242E+04  0.50400001928E-02 0. -1.
    10030    2    1    2    0    0  0.00000000000E+00  0.00000000000E+00 -0.11175839041E+03  0.30075144581E+04  0.30054372856E+04 0.  0.
        4    1    3    3  502    0 -0.39529026578E+03 -0.22788836087E+03 -0.14886418474E+04  0.15569982858E+04  0.12699999809E+01 0. -1.
       -4    1    3    3    0  502  0.39529026578E+03  0.22788836087E+03  0.13768834570E+04  0.14505161723E+04  0.12699999809E+01 0.  1.
</event>
<event>
 5   0  0.1709858E-06  0.2995567E+04  0.7818609E-02  0.8244998E-01
       -1   -1    0    0    0  501  0.00000000000E+00  0.00000000000E+00  0.16930929022E+04  0.16930929022E+04  0.50400001928E-02 0. -1.
        1   -1    0    0  501    0  0.00000000000E+00  0.00000000000E+00 -0.13250040832E+04  0.13250040832E+04  0.50400001928E-02 0.  1.
    10030    2    1    2    0    0  0.00000000000E+00  0.00000000000E+00  0.36808881903E+03  0.30180969854E+04  0.29955667301E+04 0.  0.
        3    1    3    3  502    0  0.10278790539E+04 -0.10654414074E+04  0.41302952319E+03  0.15369756469E+04  0.10100000352E+00 0.  1.
       -3    1    3    3    0  502 -0.10278790539E+04  0.10654414074E+04 -0.44940704158E+02  0.14811213384E+04  0.10100000352E+00 0. -1.
</event>
<event>
 5   0  0.4768570E-06  0.2937207E+04  0.7818609E-02  0.8261892E-01
        2   -1    0    0  501    0  0.00000000000E+00  0.00000000000E+00  0.12901065509E+04  0.12901065509E+04  0.25500000920E-02 0. -1.
       -2   -1    0    0    0  501  0.00000000000E+00  0.00000000000E+00 -0.16717974180E+04  0.16717974180E+04  0.25500000920E-02 0.  1.
    10030    2    1    2    0    0  0.00000000000E+00  0.00000000000E+00 -0.38169086706E+03  0.29619039689E+04  0.29372073817E+04 0.  0.
        1    1    3    3  502    0  0.12582328040E+04  0.48497467078E+03 -0.77749861193E+03  0.15565520588E+04  0.50400001928E-02 0.  1.
       -1    1    3    3    0  502 -0.12582328040E+04 -0.48497467078E+03  0.39580774487E+03  0.14053519101E+04  0.50400001928E-02 0. -1.
</event>
<event>
 5   0  0.1700885E-06  0.2995304E+04  0.7818609E-02  0.8245073E-01
        1   -1    0    0  501    0  0.00000000000E+00  0.00000000000E+00  0.19259657396E+04  0.19259657396E+04  0.50400001928E-02 0. -1.
       -1   -1    0    0    0  501  0.00000000000E+00  0.00000000000E+00 -0.11645906677E+04  0.11645906677E+04  0.50400001928E-02 0.  1.
    10030    2    1    2    0    0  0.00000000000E+00  0.00000000000E+00  0.76137507196E+03  0.30905564073E+04  0.29953041426E+04 0.  0.
        1    1    3    3  502    0 -0.11856874823E+04 -0.65798767672E+03  0.10366393672E+04  0.17068754395E+04  0.50400001928E-02 0. -1.
       -1    1    3    3    0  502  0.11856874823E+04  0.65798767672E+03 -0.27526429526E+03  0.13836809678E+04  0.50400001928E-02 0.  1.
</event>
<event>
 5   0  0.5003556E-06  0.2784241E+04  0.7818609E-02  0.8308178E-01
       -2   -1    0    0    0  501  0.00000000000E+00  0.00000000000E+00  0.90735594990E+03  0.90735594990E+03  0.25500000920E-02 0.  1.
        2   -1    0    0  501    0  0.00000000000E+00  0.00000000000E+00 -0.21358754697E+04  0.21358754697E+04  0.25500000920E-02 0. -1.
    10030    2    1    2    0    0  0.00000000000E+00  0.00000000000E+00 -0.12285195198E+04  0.30432314196E+04  0.27842408773E+04 0.  0.
        3    1    3    3  502    0  0.41043289352E+02  0.13028593057E+04 -0.11484686920E+04  0.17372700621E+04  0.10100000352E+00 0. -1.
       -3    1    3    3    0  502 -0.41043289352E+02 -0.13028593057E+04 -0.80050827865E+02  0.13059613575E+04  0.10100000352E+00 0.  1.
</event>
<event>
 5   0  0.5003556E-06  0.2981941E+04  0.7818609E-02  0.8248907E-01
        2   -1    0    0  501    0  0.00000000000E+00  0.00000000000E+00  0.13995872901E+04  0.13995872901E+04  0.25500000920E-02 0. -1.
       -2   -1    0    0    0  501  0.00000000000E+00  0.00000000000E+00 -0.15883205222E+04  0.15883205222E+04  0.25500000920E-02 0.  1.
    10030    2    1    2    0    0  0.00000000000E+00  0.00000000000E+00 -0.18873323211E+03  0.29879078124E+04  0.29819411232E+04 0.  0.
        3    1    3    3  502    0 -0.80460378690E+03  0.16577509601E+03  0.11523595689E+04  0.14152035975E+04  0.10100000352E+00 0. -1.
       -3    1    3    3    0  502  0.80460378690E+03 -0.16577509601E+03 -0.13410928010E+04  0.15727042148E+04  0.10100000352E+00 0.  1.
</event>
<event>
 5   0  0.4532420E-06  0.2975322E+04  0.7818609E-02  0.8250813E-01
        2   -1    0    0  501    0  0.00000000000E+00  0.00000000000E+00  0.20224315183E+04  0.20224315183E+04  0.25500000920E-02 0. -1.
       -2   -1    0    0    0  501  0.00000000000E+00  0.00000000000E+00 -0.10942942696E+04  0.10942942696E+04  0.25500000920E-02 0.  1.
    10030    2    1    2    0    0  0.00000000000E+00  0.00000000000E+00  0.92813724876E+03  0.31167257879E+04  0.29753219800E+04 0.  0.
        4    1    3    3  502    0 -0.10424058815E+03  0.14126296025E+04  0.94037045573E+03  0.17002019589E+04  0.12699999809E+01 0. -1.
       -4    1    3    3    0  502  0.10424058815E+03 -0.14126296025E+04 -0.12233206977E+02  0.14165238290E+04  0.12699999809E+01 0.  1.
</event>
<event>
 5   0  0.1672907E-06  0.3006247E+04  0.7818609E-02  0.8241949E-01
       -1   -1    0    0    0  501  0.00000000000E+00  0.00000000000E+00  0.15829598466E+04  0.15829598466E+04  0.50400001928E-02 0.  1.
        1   -1    0    0  501    0  0.00000000000E+00  0.00000000000E+00 -0.14273134925E+04  0.14273134925E+04  0.50400001928E-02 0. -1.
    10030    2    1    2    0    0  0.00000000000E+00  0.00000000000E+00  0.15564635407E+03  0.30102733391E+04  0.30062467944E+04 0.  0.
        5    1    3    3  502    0 -0.10922271889E+04 -0.10272333590E+04  0.18374411357E+03  0.15106133176E+04  0.46999998093E+01 0.  1.
       -5    1    3    3    0  502  0.10922271889E+04  0.10272333590E+04 -0.28097759502E+02  0.14996600215E+04  0.46999998093E+01 0. -1.
</event>
<event>
 5   0  0.4532420E-06  0.2982426E+04  0.7818609E-02  0.8248767E-01
       -2   -1    0    0    0  501  0.00000000000E+00  0.00000000000E+00  0.10783191410E+04  0.10783191410E+04  0.25500000920E-02 0.  1.
        2   -1    0    0  501    0  0.00000000000E+00  0.00000000000E+00 -0.20622057930E+04  0.20622057930E+04  0.25500000920E-02 0. -1.
    10030    2    1    2    0    0  0.00000000000E+00  0.00000000000E+00 -0.98388665191E+03  0.31405249340E+04  0.29824258444E+04 0.  0.
        4    1    3    3  502    0  0.14528111590E+04  0.33302027072E+03 -0.54078758851E+03  0.15855647553E+04  0.12699999809E+01 0. -1.
       -4    1    3    3    0  502 -0.14528111590E+04 -0.33302027072E+03 -0.44309906340E+03  0.15549601787E+04  0.12699999809E+01 0.  1.
</event>
<event>
 5   0  0.1672907E-06  0.3000089E+04  0.7818609E-02  0.8243705E-01
       -1   -1    0    0    0  501  0.00000000000E+00  0.00000000000E+00  0.11430257804E+04  0.11430257804E+04  0.50400001928E-02 0.  1.
        1   -1    0    0  501    0  0.00000000000E+00  0.00000000000E+00 -0.19685764410E+04  0.19685764410E+04  0.50400001928E-02 0. -1.
    10030    2    1    2    0    0  0.00000000000E+00  0.00000000000E+00 -0.82555066061E+03  0.31116022214E+04  0.30000890805E+04 0.  0.
        5    1    3    3  502    0  0.81901121800E+03  0.10935349876E+04  0.22952802027E+03  0.13853892400E+04  0.46999998093E+01 0.  1.
       -5    1    3    3    0  502 -0.81901121800E+03 -0.10935349876E+04 -0.10550786809E+04  0.17262129814E+04  0.46999998093E+01 0. -1.
</event>
<event>
 5   0  0.4768570E-06  0.2979049E+04  0.7818609E-02  0.8249739E-01
       -2   -1    0    0    0  501  0.00000000000E+00  0.00000000000E+00  0.13287989694E+04  0.13287989694E+04  0.25500000920E-02 0.  1.
        2   -1    0    0  501    0  0.00000000000E+00  0.00000000000E+00 -0.16696907646E+04  0.16696907646E+04  0.25500000920E-02 0. -1.
    10030    2    1    2    0    0  0.00000000000E+00  0.00000000000E+00 -0.34089179518E+03  0.29984897340E+04  0.29790490881E+04 0.  0.
        1    1    3    3  502    0 -0.63286008968E+03  0.11973323074E+04  0.45373548698E+03  0.14282830390E+04  0.50400001928E-02 0.  1.
       -1    1    3    3    0  502  0.63286008968E+03 -0.11973323074E+04 -0.79462728216E+03  0.15702066950E+04  0.50400001928E-02 0. -1.
</event>
<event>
 5   0  0.1734885E-06  0.2887446E+04  0.7818609E-02  0.8276622E-01
       -1   -1    0    0    0  501  0.00000000000E+00  0.00000000000E+00  0.18411059405E+04  0.18411059405E+04  0.50400001928E-02 0.  1.
        1   -1    0    0  501    0  0.00000000000E+00  0.00000000000E+00 -0.11321109280E+04  0.11321109280E+04  0.50400001928E-02 0. -1.
    10030    2    1    2    0    0  0.00000000000E+00  0.00000000000E+00  0.70899501251E+03  0.29732168686E+04  0.28874460376E+04 0.  0.
        2    1    3    3  502    0 -0.11989351606E+04  0.45878959294E+03  0.10347285507E+04  0.16488167222E+04  0.25500000920E-02 0.  1.
       -2    1    3    3    0  502  0.11989351606E+04 -0.45878959294E+03 -0.32573353817E+03  0.13244001464E+04  0.25500000920E-02 0. -1.
</event>
<event>
 5   0  0.4935331E-06  0.2984332E+04  0.7818609E-02  0.8248219E-01
       -2   -1    0    0    0  501  0.00000000000E+00  0.00000000000E+00  0.10538789573E+04  0.10538789573E+04  0.25500000920E-02 0.  1.
        2   -1    0    0  501    0  0.00000000000E+00  0.00000000000E+00 -0.21127274645E+04  0.21127274645E+04  0.25500000920E-02 0. -1.
    10030    2    1    2    0    0  0.00000000000E+00  0.00000000000E+00 -0.10588485072E+04  0.31666064218E+04  0.29843317626E+04 0.  0.
        5    1    3    3  502    0  0.75338286377E+03 -0.11851600114E+04  0.57069081210E+01  0.14043662808E+04  0.46999998093E+01 0.  1.
       -5    1    3    3    0  502 -0.75338286377E+03  0.11851600114E+04 -0.10645554154E+04  0.17622401409E+04  0.46999998093E+01 0. -1.
</event>
<event>
 5   0  0.1709858E-06  0.2956869E+04  0.7818609E-02  0.8256156E-01
        1   -1    0    0  501    0  0.00000000000E+00  0.00000000000E+00  0.20169039734E+04  0.20169039734E+04  0.50400001928E-02 0. -1.
       -1   -1    0    0    0  501  0.00000000000E+00  0.00000000000E+00 -0.10837246327E+04  0.10837246327E+04  0.50400001928E-02 0.  1.
    10030    2    1    2    0    0  0.00000000000E+00  0.00000000000E+00  0.93317934070E+03  0.31006286060E+04  0.29568689641E+04 0.  0.
        3    1    3    3  502    0  0.13033920505E+04  0.51247665010E+03  0.96322486143E+03  0.16997838974E+04  0.10100000352E+00 0.  1.
       -3    1    3    3    0  502 -0.13033920505E+04 -0.51247665010E+03 -0.30045520727E+02  0.14008447086E+04  0.10100000352E+00 0. -1.
</event>
<event>
 5   0  0.1709858E-06  0.2987498E+04  0.7818609E-02  0.8247310E-01
        1   -1    0    0  501    0  0.00000000000E+00  0.00000000000E+00  0.16829766925E+04  0.16829766925E+04  0.50400001928E-02 0. -1.
       -1   -1    0    0    0  501  0.00000000000E+00  0.00000000000E+00 -0.13257969805E+04  0.13257969805E+04  0.50400001928E-02 0.  1.
    10030    2    1    2    0    0  0.00000000000E+00  0.00000000000E+00  0.35717971200E+03  0.30087736730E+04  0.29874975596E+04 0.  0.
        3    1    3    3  502    0 -0.12964731108E+04  0.68930304656E+03 -0.97780547186E+02  0.14715781537E+04  0.10100000352E+00 0.  1.
       -3    1    3    3    0  502  0.12964731108E+04 -0.68930304656E+03  0.45496025918E+03  0.15371955193E+04  0.10100000352E+00 0. -1.
</event>
<event>
 5   0  0.1709858E-06  0.2991362E+04  0.7818609E-02  0.8246202E-01
       -1   -1    0    0    0  501  0.00000000000E+00  0.00000000000E+00  0.15570179564E+04  0.15570179564E+04  0.50400001928E-02 0. -1.
        1   -1    0    0  501    0  0.00000000000E+00  0.00000000000E+00 -0.14367604345E+04  0.14367604345E+04  0.50400001928E-02 0.  1.
    10030    2    1    2    0    0  0.00000000000E+00  0.00000000000E+00  0.12025752193E+03  0.29937783909E+04  0.29913620948E+04 0.  0.
        3    1    3    3  502    0 -0.80428081465E+02  0.83208978812E+03  0.13013804338E+04  0.15467492154E+04  0.10100000352E+00 0. -1.
       -3    1    3    3    0  502  0.80428081465E+02 -0.83208978812E+03 -0.11811229118E+04  0.14470291755E+04  0.10100000352E+00 0.  1.
</event>
<event>
 5   0  0.1686012E-06  0.2989123E+04  0.7818609E-02  0.8246844E-01
        1   -1    0    0  501    0  0.00000000000E+00  0.00000000000E+00  0.20348851724E+04  0.20348851724E+04  0.50400001928E-02 0. -1.
       -1   -1    0    0    0  501  0.00000000000E+00  0.00000000000E+00 -0.10977102688E+04  0.10977102689E+04  0.50400001928E-02 0.  1.
    10030    2    1    2    0    0  0.00000000000E+00  0.00000000000E+00  0.93717490355E+03  0.31325954412E+04  0.29891231822E+04 0.  0.
        4    1    3    3  502    0  0.12201992163E+04 -0.84580346100E+03  0.28876149722E+03  0.15124994007E+04  0.12699999809E+01 0. -1.
       -4    1    3    3    0  502 -0.12201992163E+04  0.84580346100E+03  0.64841340633E+03  0.16200960405E+04  0.12699999809E+01 0.  1.
</event>
<event>
 5   0  0.1672907E-06  0.2994796E+04  0.7818609E-02  0.8245219E-01
       -1   -1    0    0    0  501  0.00000000000E+00  0.00000000000E+00  0.10332112625E+04  0.10332112625E+04  0.50400001928E-02 0. -1.
        1   -1    0    0  501    0  0.00000000000E+00  0.00000000000E+00 -0.21701274499E+04  0.21701274499E+04  0.50400001928E-02 0.  1.
    10030    2    1    2    0    0  0.00000000000E+00  0.00000000000E+00 -0.11369161874E+04  0.32033387124E+04  0.29947955672E+04 0.  0.
        5    1    3    3  502    0 -0.74059140719E+03 -0.79104514138E+03 -0.16738369100E+04  0.19939859928E+04  0.46999998093E+01 0.  1.
       -5    1    3    3    0  502  0.74059140719E+03  0.79104514138E+03  0.53692072262E+03  0.12093527196E+04  0.46999998093E+01 0. -1.
</event>
<event>
 5   0  0.4935331E-06  0.2984745E+04  0.7818609E-02  0.8248100E-01
       -2   -1    0    0    0  501  0.00000000000E+00  0.00000000000E+00  0.24439757320E+04  0.24439757320E+04  0.25500000920E-02 0.  1.
        2   -1    0    0  501    0  0.00000000000E+00  0.00000000000E+00 -0.91129206407E+03  0.91129206408E+03  0.25500000920E-02 0. -1.
    10030    2    1    2    0    0  0.00000000000E+00  0.00000000000E+00  0.15326836679E+04  0.33552677961E+04  0.29847450071E+04 0.  0.
        5    1    3    3  502    0 -0.10636388577E+04 -0.98417379554E+03  0.11673111757E+04  0.18607963753E+04  0.46999998093E+01 0.  1.
       -5    1    3    3    0  502  0.10636388577E+04  0.98417379554E+03  0.36537249224E+03  0.14944714208E+04  0.46999998093E+01 0. -1.
</event>
<event>
 5   0  0.1545375E-06  0.2955392E+04  0.7818609E-02  0.8256585E-01
       -3   -1    0    0    0  501  0.00000000000E+00  0.00000000000E+00  0.14897462713E+04  0.14897462748E+04  0.10100000352E+00 0.  1.
        3   -1    0    0  501    0  0.00000000000E+00  0.00000000000E+00 -0.14657434392E+04  0.14657434427E+04  0.10100000352E+00 0. -1.
    10030    2    1    2    0    0  0.00000000000E+00  0.00000000000E+00  0.24002832150E+02  0.29554897174E+04  0.29553922470E+04 0.  0.
        4    1    3    3  502    0 -0.64515198065E+03  0.23570048875E+02 -0.13172555710E+04  0.14669493780E+04  0.12699999809E+01 0. -1.
       -4    1    3    3    0  502  0.64515198065E+03 -0.23570048875E+02  0.13412584031E+04  0.14885403395E+04  0.12699999809E+01 0.  1.
</event>
<event>
 5   0  0.4768570E-06  0.3060852E+04  0.7818609E-02  0.8226564E-01
       -2   -1    0    0    0  501  0.00000000000E+00  0.00000000000E+00  0.13731529300E+04  0.13731529300E+04  0.25500000920E-02 0. -1.
        2   -1    0    0  501    0  0.00000000000E+00  0.00000000000E+00 -0.17057126678E+04  0.17057126678E+04  0.25500000920E-02 0.  1.
    10030    2    1    2    0    0  0.00000000000E+00  0.00000000000E+00 -0.33255973778E+03  0.30788655979E+04  0.30608523961E+04 0.  0.
        1    1    3    3  502    0 -0.33377373793E+03 -0.14927595719E+04 -0.21625423583E+03  0.15448307164E+04  0.50400001928E-02 0.  1.
       -1    1    3    3    0  502  0.33377373793E+03  0.14927595719E+04 -0.11630550195E+03  0.15340348815E+04  0.50400001928E-02 0. -1.
</event>
<event>
 5   0  0.1700885E-06  0.2960480E+04  0.7818609E-02  0.8255107E-01
       -1   -1    0    0    0  501  0.00000000000E+00  0.00000000000E+00  0.18382510121E+04  0.18382510121E+04  0.50400001928E-02 0. -1.
        1   -1    0    0  501    0  0.00000000000E+00  0.00000000000E+00 -0.11919540121E+04  0.11919540121E+04  0.50400001928E-02 0.  1.
    10030    2    1    2    0    0  0.00000000000E+00  0.00000000000E+00  0.64629700000E+03  0.30302050242E+04  0.29604801429E+04 0.  0.
        1    1    3    3  502    0  0.40319367185E+03 -0.25940493300E+03  0.17565796916E+04  0.18208317520E+04  0.50400001928E-02 0. -1.
       -1    1    3    3    0  502 -0.40319367185E+03  0.25940493300E+03 -0.11102826916E+04  0.12093732722E+04  0.50400001928E-02 0.  1.
</event>
<event>
 5   0  0.4532420E-06  0.2983459E+04  0.7818609E-02  0.8248470E-01
       -2   -1    0    0    0  501  0.00000000000E+00  0.00000000000E+00  0.16019508414E+04  0.16019508414E+04  0.25500000920E-02 0. -1.
        2   -1    0    0  501    0  0.00000000000E+00  0.00000000000E+00 -0.13890915498E+04  0.13890915498E+04  0.25500000920E-02 0.  1.
    10030    2    1    2    0    0  0.00000000000E+00  0.00000000000E+00  0.21285929160E+03  0.29910423912E+04  0.29834586486E+04 0.  0.
        4    1    3    3  502    0  0.39020247687E+03  0.91473657288E+03 -0.10082661522E+04  0.14161932133E+04  0.12699999809E+01 0.  1.
       -4    1    3    3    0  502 -0.39020247687E+03 -0.91473657288E+03  0.12211254438E+04  0.15748491779E+04  0.12699999809E+01 0. -1.
</event>
<event>
 5   0  0.5003556E-06  0.2948441E+04  0.7818609E-02  0.8258609E-01
       -2   -1    0    0    0  501  0.00000000000E+00  0.00000000000E+00  0.12884236470E+04  0.12884236470E+04  0.25500000920E-02 0.  1.
        2   -1    0    0  501    0  0.00000000000E+00  0.00000000000E+00 -0.16868101274E+04  0.16868101274E+04  0.25500000920E-02 0. -1.
    10030    2    1    2    0    0  0.00000000000E+00  0.00000000000E+00 -0.39838648045E+03  0.29752337744E+04  0.29484409821E+04 0.  0.
        3    1    3    3  502    0 -0.87206068358E+03  0.82905607575E+01 -0.13985931189E+04  0.16482176106E+04  0.10100000352E+00 0. -1.
       -3    1    3    3    0  502  0.87206068358E+03 -0.82905607575E+01  0.10002066385E+04  0.13270161638E+04  0.10100000352E+00 0.  1.
</event>
<event>
 5   0  0.1709858E-06  0.2562081E+04  0.7818609E-02  0.8381197E-01
        1   -1    0    0  501    0  0.00000000000E+00  0.00000000000E+00  0.13846922414E+04  0.13846922414E+04  0.50400001928E-02 0. -1.
       -1   -1    0    0    0  501  0.00000000000E+00  0.00000000000E+00 -0.11851472668E+04  0.11851472668E+04  0.50400001928E-02 0.  1.
    10030    2    1    2    0    0  0.00000000000E+00  0.00000000000E+00  0.19954497463E+03  0.25698395082E+04  0.25620805805E+04 0.  0.
        3    1    3    3  502    0  0.26127053823E+03 -0.54122204765E+03  0.12345166249E+04  0.13730312838E+04  0.10100000352E+00 0. -1.
       -3    1    3    3    0  502 -0.26127053823E+03  0.54122204765E+03 -0.10349716502E+04  0.11968082244E+04  0.10100000352E+00 0.  1.
</event>
<event>
 5   0  0.1672907E-06  0.2423890E+04  0.7818609E-02  0.8430613E-01
        1   -1    0    0  501    0  0.00000000000E+00  0.00000000000E+00  0.11533712598E+04  0.11533712598E+04  0.50400001928E-02 0.  1.
       -1   -1    0    0    0  501  0.00000000000E+00  0.00000000000E+00 -0.12734936472E+04  0.12734936472E+04  0.50400001928E-02 0. -1.
    10030    2    1    2    0    0  0.00000000000E+00  0.00000000000E+00 -0.12012238741E+03  0.24268649069E+04  0.24238902386E+04 0.  0.
        5    1    3    3  502    0 -0.11012832056E+04 -0.43126644044E+03 -0.32491076003E+03  0.12265416966E+04  0.46999998093E+01 0. -1.
       -5    1    3    3    0  502  0.11012832056E+04  0.43126644044E+03  0.20478837262E+03  0.12003232103E+04  0.46999998093E+01 0.  1.
</event>
<event>
 5   0  0.1686012E-06  0.2979468E+04  0.7818609E-02  0.8249618E-01
       -1   -1    0    0    0  501  0.00000000000E+00  0.00000000000E+00  0.17529675234E+04  0.17529675234E+04  0.50400001928E-02 0.  1.
        1   -1    0    0  501    0  0.00000000000E+00  0.00000000000E+00 -0.12660287420E+04  0.12660287420E+04  0.50400001928E-02 0. -1.
    10030    2    1    2    0    0  0.00000000000E+00  0.00000000000E+00  0.48693878137E+03  0.30189962654E+04  0.29794679179E+04 0.  0.
        4    1    3    3  502    0 -0.44864641931E+02 -0.12477738907E+03 -0.12600368797E+04  0.12669951792E+04  0.12699999809E+01 0. -1.
       -4    1    3    3    0  502  0.44864641931E+02  0.12477738907E+03  0.17469756611E+04  0.17520010863E+04  0.12699999809E+01 0.  1.
</event>
<event>
 5   0  0.4935331E-06  0.2974561E+04  0.7818609E-02  0.8251033E-01
       -2   -1    0    0    0  501  0.00000000000E+00  0.00000000000E+00  0.15269629949E+04  0.15269629949E+04  0.25500000920E-02 0.  1.
        2   -1    0    0  501    0  0.00000000000E+00  0.00000000000E+00 -0.14486291032E+04  0.14486291032E+04  0.25500000920E-02 0. -1.
    10030    2    1    2    0    0  0.00000000000E+00  0.00000000000E+00  0.78333891768E+02  0.29755920981E+04  0.29745608308E+04 0.  0.
        5    1    3    3  502    0 -0.79434027005E+03 -0.10078269385E+04 -0.71295098106E+03  0.14679961832E+04  0.46999998093E+01 0. -1.
       -5    1    3    3    0  502  0.79434027005E+03  0.10078269385E+04  0.79128487283E+03  0.15075959149E+04  0.46999998093E+01 0.  1.
</event>
<event>
 5   0  0.4702748E-06  0.2853239E+04  0.7818609E-02  0.8286928E-01
       -2   -1    0    0    0  501  0.00000000000E+00  0.00000000000E+00  0.17295259592E+04  0.17295259592E+04  0.25500000920E-02 0.  1.
        2   -1    0    0  501    0  0.00000000000E+00  0.00000000000E+00 -0.11767638809E+04  0.11767638809E+04  0.25500000920E-02 0. -1.
    10030    2    1    2    0    0  0.00000000000E+00  0.00000000000E+00  0.55276207834E+03  0.29062898401E+04  0.28532393380E+04 0.  0.
        2    1    3    3  502    0  0.10983131317E+04  0.65032608644E+03 -0.37266973603E+03  0.13296986449E+04  0.25500000920E-02 0. -1.
       -2    1    3    3    0  502 -0.10983131317E+04 -0.65032608644E+03  0.92543181437E+03  0.15765911953E+04  0.25500000920E-02 0.  1.
</event>
<event>
 5   0  0.5003556E-06  0.2949048E+04  0.7818609E-02  0.8258432E-01
        2   -1    0    0  501    0  0.00000000000E+00  0.00000000000E+00  0.26058300598E+04  0.26058300598E+04  0.25500000920E-02 0.  1.
       -2   -1    0    0    0  501  0.00000000000E+00  0.00000000000E+00 -0.83436790288E+03  0.83436790289E+03  0.25500000920E-02 0. -1.
    10030    2    1    2    0    0  0.00000000000E+00  0.00000000000E+00  0.17714621569E+04  0.34401979627E+04  0.29490479564E+04 0.  0.
        3    1    3    3  502    0 -0.98830815962E+03 -0.72292024566E+03  0.18440423442E+04  0.22135624856E+04  0.10100000352E+00 0.  1.
       -3    1    3    3    0  502  0.98830815962E+03  0.72292024566E+03 -0.72580187314E+02  0.12266354771E+04  0.10100000352E+00 0. -1.
</event>
<event>
 5   0  0.4702748E-06  0.2985758E+04  0.7818609E-02  0.8247809E-01
        2   -1    0    0  501    0  0.00000000000E+00  0.00000000000E+00  0.12403350985E+04  0.12403350985E+04  0.25500000920E-02 0. -1.
       -2   -1    0    0    0  501  0.00000000000E+00  0.00000000000E+00 -0.17968432445E+04  0.17968432445E+04  0.25500000920E-02 0.  1.
    10030    2    1    2    0    0  0.00000000000E+00  0.00000000000E+00 -0.55650814602E+03  0.30371783431E+04  0.29857580228E+04 0.  0.
        2    1    3    3  502    0 -0.12614676001E+04 -0.44295712829E+03 -0.95390399925E+03  0.16423898330E+04  0.25500000920E-02 0.  1.
       -2    1    3    3    0  502  0.12614676001E+04  0.44295712829E+03  0.39739585323E+03  0.13947885101E+04  0.25500000920E-02 0. -1.
</event>
<event>
 5   0  0.5003556E-06  0.3003454E+04  0.7818609E-02  0.8242745E-01
        2   -1    0    0  501    0  0.00000000000E+00  0.00000000000E+00  0.11730388192E+04  0.11730388193E+04  0.25500000920E-02 0. -1.
       -2   -1    0    0    0  501  0.00000000000E+00  0.00000000000E+00 -0.19225141169E+04  0.19225141169E+04  0.25500000920E-02 0.  1.
    10030    2    1    2    0    0  0.00000000000E+00  0.00000000000E+00 -0.74947529768E+03  0.30955529362E+04  0.30034538050E+04 0.  0.
        3    1    3    3  502    0 -0.10458919120E+04  0.79715597467E+03  0.37264411034E+03  0.13668252203E+04  0.10100000352E+00 0. -1.
       -3    1    3    3    0  502  0.10458919120E+04 -0.79715597467E+03 -0.11221194080E+04  0.17287277159E+04  0.10100000352E+00 0.  1.
</event>
<event>
 5   0  0.4935331E-06  0.3001497E+04  0.7818609E-02  0.8243303E-01
        2   -1    0    0  501    0  0.00000000000E+00  0.00000000000E+00  0.22170015512E+04  0.22170015512E+04  0.25500000920E-02 0.  1.
       -2   -1    0    0    0  501  0.00000000000E+00  0.00000000000E+00 -0.10158974731E+04  0.10158974731E+04  0.25500000920E-02 0. -1.
    10030    2    1    2    0    0  0.00000000000E+00  0.00000000000E+00  0.12011040781E+04  0.32328990243E+04  0.30014971422E+04 0.  0.
        5    1    3    3  502    0 -0.87688632906E+03 -0.12161289409E+04  0.52971756201E+03  0.15901327053E+04  0.46999998093E+01 0. -1.
       -5    1    3    3    0  502  0.87688632906E+03  0.12161289409E+04  0.67138651613E+03  0.16427663190E+04  0.46999998093E+01 0.  1.
</event>
<event>
 5   0  0.4532420E-06  0.2958567E+04  0.7818609E-02  0.8255662E-01
       -2   -1    0    0    0  501  0.00000000000E+00  0.00000000000E+00  0.10179858370E+04  0.10179858370E+04  0.25500000920E-02 0. -1.
        2   -1    0    0  501    0  0.00000000000E+00  0.00000000000E+00 -0.21496175427E+04  0.21496175427E+04  0.25500000920E-02 0.  1.
    10030    2    1    2    0    0  0.00000000000E+00  0.00000000000E+00 -0.11316317057E+04  0.31676033797E+04  0.29585673651E+04 0.  0.
        4    1    3    3  502    0 -0.47283070440E+03 -0.13776066942E+04 -0.84276070562E+03  0.16827407105E+04  0.12699999809E+01 0.  1.
       -4    1    3    3    0  502  0.47283070440E+03  0.13776066942E+04 -0.28887100008E+03  0.14848626692E+04  0.12699999809E+01 0. -1.
</event>
<event>
 5   0  0.4532420E-06  0.3005858E+04  0.7818609E-02  0.8242060E-01
        2   -1    0    0  501    0  0.00000000000E+00  0.00000000000E+00  0.22617204675E+04  0.22617204675E+04  0.25500000920E-02 0.  1.
       -2   -1    0    0    0  501  0.00000000000E+00  0.00000000000E+00 -0.99870686469E+03  0.99870686469E+03  0.25500000920E-02 0. -1.
    10030    2    1    2    0    0  0.00000000000E+00  0.00000000000E+00  0.12630136028E+04  0.32604273322E+04  0.30058581183E+04 0.  0.
        4    1    3    3  502    0  0.94049197717E+03  0.82486248003E+03  0.15350426262E+04  0.19802223984E+04  0.12699999809E+01 0.  1.
       -4    1    3    3    0  502 -0.94049197717E+03 -0.82486248003E+03 -0.27202902335E+03  0.12802049338E+04  0.12699999809E+01 0. -1.
</event>
<event>
 5   0  0.1700885E-06  0.3021429E+04  0.7818609E-02  0.8237638E-01
        1   -1    0    0  501    0  0.00000000000E+00  0.00000000000E+00  0.21753056293E+04  0.21753056293E+04  0.50400001928E-02 0. -1.
       -1   -1    0    0    0  501  0.00000000000E+00  0.00000000000E+00 -0.10491666950E+04  0.10491666950E+04  0.50400001928E-02 0.  1.
    10030    2    1    2    0    0  0.00000000000E+00  0.00000000000E+00  0.11261389343E+04  0.32244723243E+04  0.30214289452E+04 0.  0.
        1    1    3    3  502    0  0.10267583818E+04 -0.10803310540E+04  0.29968419672E+03  0.15202495119E+04  0.50400001928E-02 0.  1.
       -1    1    3    3    0  502 -0.10267583818E+04  0.10803310540E+04  0.82645473761E+03  0.17042228123E+04  0.50400001928E-02 0. -1.
</event>
<event>
 5   0  0.4702748E-06  0.2858909E+04  0.7818609E-02  0.8285209E-01
       -2   -1    0    0    0  501  0.00000000000E+00  0.00000000000E+00  0.12316079604E+04  0.12316079604E+04  0.25500000920E-02 0. -1.
        2   -1    0    0  501    0  0.00000000000E+00  0.00000000000E+00 -0.16590833648E+04  0.16590833648E+04  0.25500000920E-02 0.  1.
    10030    2    1    2    0    0  0.00000000000E+00  0.00000000000E+00 -0.42747540445E+03  0.28906913252E+04  0.28589090780E+04 0.  0.
        2    1    3    3  502    0  0.10705111034E+04  0.90823763153E+03 -0.48589660929E+03  0.14855925191E+04  0.25500000920E-02 0.  1.
       -2    1    3    3    0  502 -0.10705111034E+04 -0.90823763153E+03  0.58421204833E+02  0.14050988062E+04  0.25500000920E-02 0. -1.
</event>
<event>
 5   0  0.1672907E-06  0.2865851E+04  0.7818609E-02  0.8283111E-01
       -1   -1    0    0    0  501  0.00000000000E+00  0.00000000000E+00  0.10415238726E+04  0.10415238726E+04  0.50400001928E-02 0. -1.
        1   -1    0    0  501    0  0.00000000000E+00  0.00000000000E+00 -0.19714145284E+04  0.19714145284E+04  0.50400001928E-02 0.  1.
    10030    2    1    2    0    0  0.00000000000E+00  0.00000000000E+00 -0.92989065577E+03  0.30129384010E+04  0.28658508643E+04 0.  0.
        5    1    3    3  502    0  0.56383050653E+03  0.22879266476E+03  0.89894364619E+03  0.10855287617E+04  0.46999998093E+01 0. -1.
       -5    1    3    3    0  502 -0.56383050653E+03 -0.22879266476E+03 -0.18288343020E+04  0.19274096393E+04  0.46999998093E+01 0.  1.
</event>
<event>
 5   0  0.1700885E-06  0.3023804E+04  0.7818609E-02  0.8236966E-01
       -1   -1    0    0    0  501  0.00000000000E+00  0.00000000000E+00  0.16342962792E+04  0.16342962792E+04  0.50400001928E-02 0.  1.
        1   -1    0    0  501    0  0.00000000000E+00  0.00000000000E+00 -0.13986735504E+04  0.13986735504E+04  0.50400001928E-02 0. -1.
    10030    2    1    2    0    0  0.00000000000E+00  0.00000000000E+00  0.23562272877E+03  0.30329698296E+04  0.30238035513E+04 0.  0.
        1    1    3    3  502    0  0.34612890731E+03 -0.11202152656E+04 -0.83962898364E+03  0.14421041197E+04  0.50400001928E-02 0. -1.
       -1    1    3    3    0  502 -0.34612890731E+03  0.11202152656E+04  0.10752517124E+04  0.15908657099E+04  0.50400001928E-02 0.  1.
</event>
<event>
 5   0  0.1672907E-06  0.2991909E+04  0.7818609E-02  0.8246045E-01
        1   -1    0    0  501    0  0.00000000000E+00  0.00000000000E+00  0.17476156262E+04  0.17476156262E+04  0.50400001928E-02 0. -1.
       -1   -1    0    0    0  501  0.00000000000E+00  0.00000000000E+00 -0.12805329015E+04  0.12805329015E+04  0.50400001928E-02 0.  1.
    10030    2    1    2    0    0  0.00000000000E+00  0.00000000000E+00  0.46708272469E+03  0.30281485277E+04  0.29919086273E+04 0.  0.
        5    1    3    3  502    0 -0.65438051335E+03 -0.75384347940E+03  0.13612017120E+04  0.16880124521E+04  0.46999998093E+01 0. -1.
       -5    1    3    3    0  502  0.65438051335E+03  0.75384347940E+03 -0.89411898728E+03  0.13401360756E+04  0.46999998093E+01 0.  1.
</event>
<event>
 5   0  0.4768570E-06  0.3006683E+04  0.7818609E-02  0.8241825E-01
        2   -1    0    0  501    0  0.00000000000E+00  0.00000000000E+00  0.20004404090E+04  0.20004404090E+04  0.25500000920E-02 0. -1.
       -2   -1    0    0    0  501  0.00000000000E+00  0.00000000000E+00 -0.11297692145E+04  0.11297692145E+04  0.25500000920E-02 0.  1.
    10030    2    1    2    0    0  0.00000000000E+00  0.00000000000E+00  0.87067119448E+03  0.31302096235E+04  0.30066832155E+04 0.  0.
        1    1    3    3  502    0 -0.41062304599E+02 -0.13458940642E+04 -0.26064988394E+03  0.13715156969E+04  0.50400001928E-02 0.  1.
       -1    1    3    3    0  502  0.41062304599E+02  0.13458940642E+04  0.11313210784E+04  0.17586939266E+04  0.50400001928E-02 0. -1.
</event>
<event>
 5   0  0.5003556E-06  0.3019521E+04  0.7818609E-02  0.8238178E-01
       -2   -1    0    0    0  501  0.00000000000E+00  0.00000000000E+00  0.24411563382E+04  0.24411563382E+04  0.25500000920E-02 0. -1.
        2   -1    0    0  501    0  0.00000000000E+00  0.00000000000E+00 -0.93372821238E+03  0.93372821238E+03  0.25500000920E-02 0.  1.
    10030    2    1    2    0    0  0.00000000000E+00  0.00000000000E+00  0.15074281258E+04  0.33748845506E+04  0.30195208519E+04 0.  0.
        3    1    3    3  502    0  0.19004780180E+03  0.10956997804E+04 -0.38758812323E+03  0.11776674994E+04  0.10100000352E+00 0.  1.
       -3    1    3    3    0  502 -0.19004780180E+03 -0.10956997804E+04  0.18950162490E+04  0.21972170512E+04  0.10100000352E+00 0. -1.
</event>
<event>
 5   0  0.4935331E-06  0.2928851E+04  0.7818609E-02  0.8264345E-01
        2   -1    0    0  501    0  0.00000000000E+00  0.00000000000E+00  0.22941538018E+04  0.22941538018E+04  0.25500000920E-02 0. -1.
       -2   -1    0    0    0  501  0.00000000000E+00  0.00000000000E+00 -0.93478561822E+03  0.93478561822E+03  0.25500000920E-02 0.  1.
    10030    2    1    2    0    0  0.00000000000E+00  0.00000000000E+00  0.13593681836E+04  0.32289394200E+04  0.29288509555E+04 0.  0.
        5    1    3    3  502    0  0.11915952048E+04 -0.37338652462E+03  0.15230499084E+04  0.19695227194E+04  0.46999998093E+01 0. -1.
       -5    1    3    3    0  502 -0.11915952048E+04  0.37338652462E+03 -0.16368172482E+03  0.12594167006E+04  0.46999998093E+01 0.  1.
</event>
<event>
 5   0  0.1672907E-06  0.3046219E+04  0.7818609E-02  0.8230655E-01
       -1   -1    0    0    0  501  0.00000000000E+00  0.00000000000E+00  0.94035780002E+03  0.94035780003E+03  0.50400001928E-02 0. -1.
        1   -1    0    0  501    0  0.00000000000E+00  0.00000000000E+00 -0.24670000823E+04  0.24670000823E+04  0.50400001928E-02 0.  1.
    10030    2    1    2    0    0  0.00000000000E+00  0.00000000000E+00 -0.15266422823E+04  0.34073578824E+04  0.30462191452E+04 0.  0.
        5    1    3    3  502    0 -0.12601770070E+04 -0.20407713378E+03  0.16591789543E+03  0.12873400497E+04  0.46999998093E+01 0. -1.
       -5    1    3    3    0  502  0.12601770070E+04  0.20407713378E+03 -0.16925601777E+04  0.21200178327E+04  0.46999998093E+01 0.  1.
</event>
<event>
 5   0  0.5003556E-06  0.3005477E+04  0.7818609E-02  0.8242169E-01
       -2   -1    0    0    0  501  0.00000000000E+00  0.00000000000E+00  0.12530766678E+04  0.12530766678E+04  0.25500000920E-02 0. -1.
        2   -1    0    0  501    0  0.00000000000E+00  0.00000000000E+00 -0.18021430427E+04  0.18021430427E+04  0.25500000920E-02 0.  1.
    10030    2    1    2    0    0  0.00000000000E+00  0.00000000000E+00 -0.54906637491E+03  0.30552197105E+04  0.30054772658E+04 0.  0.
        3    1    3    3  502    0  0.10157801716E+04 -0.52372081359E+03  0.71738818516E+03  0.13493474964E+04  0.10100000352E+00 0. -1.
       -3    1    3    3    0  502 -0.10157801716E+04  0.52372081359E+03 -0.12664545601E+04  0.17058722140E+04  0.10100000352E+00 0.  1.
</event>
<event>
 5   0  0.4532420E-06  0.3012602E+04  0.7818609E-02  0.8240141E-01
        2   -1    0    0  501    0  0.00000000000E+00  0.00000000000E+00  0.17063073353E+04  0.17063073353E+04  0.25500000920E-02 0.  1.
       -2   -1    0    0    0  501  0.00000000000E+00  0.00000000000E+00 -0.13297389412E+04  0.13297389412E+04  0.25500000920E-02 0. -1.
    10030    2    1    2    0    0  0.00000000000E+00  0.00000000000E+00  0.37656839410E+03  0.30360462765E+04  0.30126024028E+04 0.  0.
        4    1    3    3  502    0  0.40033249586E+03 -0.14471227126E+04  0.30968509041E+03  0.15330807939E+04  0.12699999809E+01 0. -1.
       -4    1    3    3    0  502 -0.40033249586E+03  0.14471227126E+04  0.66883303682E+02  0.15029654826E+04  0.12699999809E+01 0.  1.
</event>
<event>
 5   0  0.4935331E-06  0.2954797E+04  0.7818609E-02  0.8256758E-01
       -2   -1    0    0    0  501  0.00000000000E+00  0.00000000000E+00  0.14056834048E+04  0.14056834048E+04  0.25500000920E-02 0. -1.
        2   -1    0    0  501    0  0.00000000000E+00  0.00000000000E+00 -0.15527726877E+04  0.15527726877E+04  0.25500000920E-02 0.  1.
    10030    2    1    2    0    0  0.00000000000E+00  0.00000000000E+00 -0.14708928289E+03  0.29584560925E+04  0.29547973186E+04 0.  0.
        5    1    3    3  502    0 -0.53128090258E+03  0.13370858097E+04 -0.40955943464E+03  0.14959341164E+04  0.46999998093E+01 0.  1.
       -5    1    3    3    0  502  0.53128090258E+03 -0.13370858097E+04  0.26247015175E+03  0.14625219761E+04  0.46999998093E+01 0. -1.
</event>
<event>
 5   0  0.1672907E-06  0.2991957E+04  0.7818609E-02  0.8246031E-01
       -1   -1    0    0    0  501  0.00000000000E+00  0.00000000000E+00  0.13509722377E+04  0.13509722377E+04  0.50400001928E-02 0.  1.
        1   -1    0    0  501    0  0.00000000000E+00  0.00000000000E+00 -0.16565484400E+04  0.16565484400E+04  0.50400001928E-02 0. -1.
    10030    2    1    2    0    0  0.00000000000E+00  0.00000000000E+00 -0.30557620229E+03  0.30075206778E+04  0.29919565191E+04 0.  0.
        5    1    3    3  502    0 -0.48353840219E+03 -0.30418867103E+03 -0.15425825566E+04  0.16449690477E+04  0.46999998093E+01 0. -1.
       -5    1    3    3    0  502  0.48353840219E+03  0.30418867103E+03  0.12370063543E+04  0.13625516301E+04  0.46999998093E+01 0.  1.
</event>
<event>
 5   0  0.5003556E-06  0.2966948E+04  0.7818609E-02  0.8253232E-01
       -2   -1    0    0    0  501  0.00000000000E+00  0.00000000000E+00  0.80547824078E+03  0.80547824078E+03  0.25500000920E-02 0.  1.
        2   -1    0    0  501    0  0.00000000000E+00  0.00000000000E+00 -0.27321604522E+04  0.27321604522E+04  0.25500000920E-02 0. -1.
    10030    2    1    2    0    0  0.00000000000E+00  0.00000000000E+00 -0.19266822114E+04  0.35376386929E+04  0.29669484623E+04 0.  0.
        3    1    3    3  502    0  0.82046585570E+03  0.40827617859E+03 -0.23542777388E+04  0.25263565347E+04  0.10100000352E+00 0. -1.
       -3    1    3    3    0  502 -0.82046585570E+03 -0.40827617859E+03  0.42759552746E+03  0.10112821583E+04  0.10100000352E+00 0.  1.
</event>
<event>
 5   0  0.4768570E-06  0.3021052E+04  0.7818609E-02  0.8237745E-01
        2   -1    0    0  501    0  0.00000000000E+00  0.00000000000E+00  0.17128853634E+04  0.17128853634E+04  0.25500000920E-02 0. -1.
       -2   -1    0    0    0  501  0.00000000000E+00  0.00000000000E+00 -0.13320729005E+04  0.13320729005E+04  0.25500000920E-02 0.  1.
    10030    2    1    2    0    0  0.00000000000E+00  0.00000000000E+00  0.38081246289E+03  0.30449582640E+04  0.30210515880E+04 0.  0.
        1    1    3    3  502    0 -0.35617131045E+03 -0.63037355932E+03 -0.11457764759E+04  0.13553717421E+04  0.50400001928E-02 0.  1.
       -1    1    3    3    0  502  0.35617131045E+03  0.63037355932E+03  0.15265889388E+04  0.16895865218E+04  0.50400001928E-02 0. -1.
</event>
<event>
 5   0  0.4532420E-06  0.3028231E+04  0.7818609E-02  0.8235715E-01
       -2   -1    0    0    0  501  0.00000000000E+00  0.00000000000E+00  0.19876697592E+04  0.19876697592E+04  0.25500000920E-02 0.  1.
        2   -1    0    0  501    0  0.00000000000E+00  0.00000000000E+00 -0.11533832657E+04  0.11533832657E+04  0.25500000920E-02 0. -1.
    10030    2    1    2    0    0  0.00000000000E+00  0.00000000000E+00  0.83428649350E+03  0.31410530249E+04  0.30282305316E+04 0.  0.
        4    1    3    3  502    0 -0.91651558905E+03  0.61309246474E+03 -0.65913774356E+03  0.12846584656E+04  0.12699999809E+01 0. -1.
       -4    1    3    3    0  502  0.91651558905E+03 -0.61309246474E+03  0.14934242371E+04  0.18563945594E+04  0.12699999809E+01 0.  1.
</event>
<event>
 5   0  0.4768570E-06  0.3061563E+04  0.7818609E-02  0.8226367E-01
        2   -1    0    0  501    0  0.00000000000E+00  0.00000000000E+00  0.92694316439E+03  0.92694316439E+03  0.25500000920E-02 0. -1.
       -2   -1    0    0    0  501  0.00000000000E+00  0.00000000000E+00 -0.25279774303E+04  0.25279774303E+04  0.25500000920E-02 0.  1.
    10030    2    1    2    0    0  0.00000000000E+00  0.00000000000E+00 -0.16010342659E+04  0.34549205947E+04  0.30615626067E+04 0.  0.
        1    1    3    3  502    0  0.11103327887E+04 -0.42380820753E+03 -0.18892773269E+04  0.22319993540E+04  0.50400001928E-02 0.  1.
       -1    1    3    3    0  502 -0.11103327887E+04  0.42380820753E+03  0.28824306103E+03  0.12229212406E+04  0.50400001928E-02 0. -1.
</event>
<event>
 5   0  0.5003556E-06  0.2995091E+04  0.7818609E-02  0.8245134E-01
        2   -1    0    0  501    0  0.00000000000E+00  0.00000000000E+00  0.17933531417E+04  0.17933531417E+04  0.25500000920E-02 0.  1.
       -2   -1    0    0    0  501  0.00000000000E+00  0.00000000000E+00 -0.12505307298E+04  0.12505307298E+04  0.25500000920E-02 0. -1.
    10030    2    1    2    0    0  0.00000000000E+00  0.00000000000E+00  0.54282241190E+03  0.30438838716E+04  0.29950914599E+04 0.  0.
        3    1    3    3  502    0 -0.86007463859E+02  0.10138122864E+04  0.13881434958E+04  0.17210912268E+04  0.10100000352E+00 0.  1.
       -3    1    3    3    0  502  0.86007463859E+02 -0.10138122864E+04 -0.84532108392E+03  0.13227926448E+04  0.10100000352E+00 0. -1.
</event>
<event>
 5   0  0.4702748E-06  0.3005128E+04  0.7818609E-02  0.8242268E-01
       -2   -1    0    0    0  501  0.00000000000E+00  0.00000000000E+00  0.14313989541E+04  0.14313989541E+04  0.25500000920E-02 0.  1.
        2   -1    0    0  501    0  0.00000000000E+00  0.00000000000E+00 -0.15772673074E+04  0.15772673074E+04  0.25500000920E-02 0. -1.
    10030    2    1    2    0    0  0.00000000000E+00  0.00000000000E+00 -0.14586835324E+03  0.30086662615E+04  0.30051281332E+04 0.  0.
        2    1    3    3  502    0  0.90285977436E+02  0.39453681966E+03  0.13757967686E+04  0.14340946999E+04  0.25500000920E-02 0.  1.
       -2    1    3    3    0  502 -0.90285977436E+02 -0.39453681966E+03 -0.15216651218E+04  0.15745715616E+04  0.25500000920E-02 0. -1.
</event>
<event>
 5   0  0.4768570E-06  0.3015755E+04  0.7818609E-02  0.8239246E-01
        2   -1    0    0  501    0  0.00000000000E+00  0.00000000000E+00  0.17345212100E+04  0.17345212100E+04  0.25500000920E-02 0.  1.
       -2   -1    0    0    0  501  0.00000000000E+00  0.00000000000E+00 -0.13108484342E+04  0.13108484342E+04  0.25500000920E-02 0. -1.
    10030    2    1    2    0    0  0.00000000000E+00  0.00000000000E+00  0.42367277580E+03  0.30453696442E+04  0.30157549053E+04 0.  0.
        1    1    3    3  502    0 -0.13932433334E+03 -0.54654007588E+03  0.16239883756E+04  0.17191438476E+04  0.50400001928E-02 0.  1.
       -1    1    3    3    0  502  0.13932433334E+03  0.54654007588E+03 -0.12003155998E+04  0.13262257966E+04  0.50400001928E-02 0. -1.
</event>
<event>
 5   0  0.4702748E-06  0.3006198E+04  0.7818609E-02  0.8241963E-01
        2   -1    0    0  501    0  0.00000000000E+00  0.00000000000E+00  0.15626502217E+04  0.15626502217E+04  0.25500000920E-02 0.  1.
       -2   -1    0    0    0  501  0.00000000000E+00  0.00000000000E+00 -0.14458171361E+04  0.14458171361E+04  0.25500000920E-02 0. -1.
    10030    2    1    2    0    0  0.00000000000E+00  0.00000000000E+00  0.11683308553E+03  0.30084673578E+04  0.30061979098E+04 0.  0.
        2    1    3    3  502    0  0.11472706570E+04  0.76142131108E+03 -0.54479390997E+03  0.14808081502E+04  0.25500000920E-02 0. -1.
       -2    1    3    3    0  502 -0.11472706570E+04 -0.76142131108E+03  0.66162699550E+03  0.15276592076E+04  0.25500000920E-02 0.  1.
</event>
<event>
 5   0  0.1700885E-06  0.2980744E+04  0.7818609E-02  0.8249251E-01
        1   -1    0    0  501    0  0.00000000000E+00  0.00000000000E+00  0.15214329322E+04  0.15214329322E+04  0.50400001928E-02 0.  1.
       -1   -1    0    0    0  501  0.00000000000E+00  0.00000000000E+00 -0.14599455711E+04  0.14599455711E+04  0.50400001928E-02 0. -1.
    10030    2    1    2    0    0  0.00000000000E+00  0.00000000000E+00  0.61487361159E+02  0.29813785033E+04  0.29807443843E+04 0.  0.
        1    1    3    3  502    0 -0.11213891054E+04  0.90337727128E+03 -0.35353234045E+03  0.14827640189E+04  0.50400001928E-02 0.  1.
       -1    1    3    3    0  502  0.11213891054E+04 -0.90337727128E+03  0.41501970161E+03  0.14986144844E+04  0.50400001928E-02 0. -1.
</event>
<event>
 5   0  0.1734885E-06  0.2969008E+04  0.7818609E-02  0.8252637E-01
        1   -1    0    0  501    0  0.00000000000E+00  0.00000000000E+00  0.27369445876E+04  0.27369445876E+04  0.50400001928E-02 0.  1.
       -1   -1    0    0    0  501  0.00000000000E+00  0.00000000000E+00 -0.80518678909E+03  0.80518678911E+03  0.50400001928E-02 0. -1.
    10030    2    1    2    0    0  0.00000000000E+00  0.00000000000E+00  0.19317577985E+04  0.35421313767E+04  0.29690076621E+04 0.  0.
        2    1    3    3  502    0  0.99513637729E+03  0.11226011214E+03  0.22732480984E+04  0.24840603171E+04  0.25500000920E-02 0.  1.
       -2    1    3    3    0  502 -0.99513637729E+03 -0.11226011214E+03 -0.34149029991E+03  0.10580710596E+04  0.25500000920E-02 0. -1.
</event>
<event>
 5   0  0.1686012E-06  0.3020124E+04  0.7818609E-02  0.8238008E-01
       -1   -1    0    0    0  501  0.00000000000E+00  0.00000000000E+00  0.12338643640E+04  0.12338643640E+04  0.50400001928E-02 0. -1.
        1   -1    0    0  501    0  0.00000000000E+00  0.00000000000E+00 -0.18480860436E+04  0.18480860436E+04  0.50400001928E-02 0.  1.
    10030    2    1    2    0    0  0.00000000000E+00  0.00000000000E+00 -0.61422167956E+03  0.30819504076E+04  0.30201241768E+04 0.  0.
        4    1    3    3  502    0 -0.87444557339E+03  0.12067651823E+04 -0.58507932823E+02  0.14914295347E+04  0.12699999809E+01 0. -1.
       -4    1    3    3    0  502  0.87444557339E+03 -0.12067651823E+04 -0.55571374674E+03  0.15905208729E+04  0.12699999809E+01 0.  1.
</event>
<event>
 5   0  0.1545375E-06  0.2990570E+04  0.7818609E-02  0.8246429E-01
       -3   -1    0    0    0  501  0.00000000000E+00  0.00000000000E+00  0.14139598862E+04  0.14139598898E+04  0.10100000352E+00 0. -1.
        3   -1    0    0  501    0  0.00000000000E+00  0.00000000000E+00 -0.15812880579E+04  0.15812880611E+04  0.10100000352E+00 0.  1.
    10030    2    1    2    0    0  0.00000000000E+00  0.00000000000E+00 -0.16732817171E+03  0.29952479509E+04  0.29905704423E+04 0.  0.
        2    1    3    3  502    0  0.11362266728E+04  0.24901371959E+03 -0.10247394825E+04  0.15501967267E+04  0.25500000920E-02 0.  1.
       -2    1    3    3    0  502 -0.11362266728E+04 -0.24901371959E+03  0.85741131077E+03  0.14450512242E+04  0.25500000920E-02 0. -1.
</event>
<event>
 5   0  0.5003556E-06  0.2938744E+04  0.7818609E-02  0.8261443E-01
       -2   -1    0    0    0  501  0.00000000000E+00  0.00000000000E+00  0.11319376227E+04  0.11319376227E+04  0.25500000920E-02 0. -1.
        2   -1    0    0  501    0  0.00000000000E+00  0.00000000000E+00 -0.19073963891E+04  0.19073963891E+04  0.25500000920E-02 0.  1.
    10030    2    1    2    0    0  0.00000000000E+00  0.00000000000E+00 -0.77545876639E+03  0.30393340117E+04  0.29387437684E+04 0.  0.
        3    1    3    3  502    0  0.72070268589E+02  0.28377637020E+03 -0.18769223781E+04  0.18996212190E+04  0.10100000352E+00 0.  1.
       -3    1    3    3    0  502 -0.72070268589E+02 -0.28377637020E+03  0.11014636117E+04  0.11397127928E+04  0.10100000352E+00 0. -1.
</event>
<event>
 5   0  0.5003556E-06  0.2985048E+04  0.7818609E-02  0.8248014E-01
        2   -1    0    0  501    0  0.00000000000E+00  0.00000000000E+00  0.81054464718E+03  0.81054464718E+03  0.25500000920E-02 0.  1.
       -2   -1    0    0    0  501  0.00000000000E+00  0.00000000000E+00 -0.27483092206E+04  0.27483092206E+04  0.25500000920E-02 0. -1.
    10030    2    1    2    0    0  0.00000000000E+00  0.00000000000E+00 -0.19377645734E+04  0.35588538678E+04  0.29850476228E+04 0.  0.
        3    1    3    3  502    0  0.14890091563E+04 -0.40184482388E+02 -0.85663391119E+03  0.17183086825E+04  0.10100000352E+00 0.  1.
       -3    1    3    3    0  502 -0.14890091563E+04  0.40184482388E+02 -0.10811306622E+04  0.18405451853E+04  0.10100000352E+00 0. -1.
</event>
<event>
 5   0  0.1709858E-06  0.2994738E+04  0.7818609E-02  0.8245235E-01
        1   -1    0    0  501    0  0.00000000000E+00  0.00000000000E+00  0.11871033400E+04  0.11871033400E+04  0.50400001928E-02 0. -1.
       -1   -1    0    0    0  501  0.00000000000E+00  0.00000000000E+00 -0.18887264595E+04  0.18887264595E+04  0.50400001928E-02 0.  1.
    10030    2    1    2    0    0  0.00000000000E+00  0.00000000000E+00 -0.70162311950E+03  0.30758297995E+04  0.29947377103E+04 0.  0.
        3    1    3    3  502    0 -0.13025409118E+04 -0.35272934734E+03 -0.10172916606E+04  0.16899447187E+04  0.10100000352E+00 0.  1.
       -3    1    3    3    0  502  0.13025409118E+04  0.35272934734E+03  0.31566854107E+03  0.13858850808E+04  0.10100000352E+00 0. -1.
</event>
<event>
 5   0  0.1686012E-06  0.2989869E+04  0.7818609E-02  0.8246630E-01
        1   -1    0    0  501    0  0.00000000000E+00  0.00000000000E+00  0.17462918564E+04  0.17462918564E+04  0.50400001928E-02 0.  1.
       -1   -1    0    0    0  501  0.00000000000E+00  0.00000000000E+00 -0.12797568207E+04  0.12797568208E+04  0.50400001928E-02 0. -1.
    10030    2    1    2    0    0  0.00000000000E+00  0.00000000000E+00  0.46653503565E+03  0.30260486772E+04  0.29898688361E+04 0.  0.
        4    1    3    3  502    0  0.10049684329E+04  0.81875587103E+03  0.98692903409E+03  0.16292186037E+04  0.12699999809E+01 0.  1.
       -4    1    3    3    0  502 -0.10049684329E+04 -0.81875587103E+03 -0.52039399843E+03  0.13968300734E+04  0.12699999809E+01 0. -1.
</event>
<event>
 5   0  0.1672907E-06  0.3057104E+04  0.7818609E-02  0.8227610E-01
       -1   -1    0    0    0  501  0.00000000000E+00  0.00000000000E+00  0.14261053941E+04  0.14261053941E+04  0.50400001928E-02 0. -1.
        1   -1    0    0  501    0  0.00000000000E+00  0.00000000000E+00 -0.16383583913E+04  0.16383583913E+04  0.50400001928E-02 0.  1.
    10030    2    1    2    0    0  0.00000000000E+00  0.00000000000E+00 -0.21225299724E+03  0.30644637854E+04  0.30571043419E+04 0.  0.
        5    1    3    3  502    0  0.75570774619E+03  0.17868227603E+03  0.12136401439E+04  0.14408213083E+04  0.46999998093E+01 0. -1.
       -5    1    3    3    0  502 -0.75570774619E+03 -0.17868227603E+03 -0.14258931412E+04  0.16236424771E+04  0.46999998093E+01 0.  1.
</event>
<event>
 5   0  0.4532420E-06  0.2950940E+04  0.7818609E-02  0.8257881E-01
        2   -1    0    0  501    0  0.00000000000E+00  0.00000000000E+00  0.16705401469E+04  0.16705401469E+04  0.25500000920E-02 0. -1.
       -2   -1    0    0    0  501  0.00000000000E+00  0.00000000000E+00 -0.13031782927E+04  0.13031782927E+04  0.25500000920E-02 0.  1.
    10030    2    1    2    0    0  0.00000000000E+00  0.00000000000E+00  0.36736185418E+03  0.29737184395E+04  0.29509399563E+04 0.  0.
        4    1    3    3  502    0  0.10617203096E+04  0.97358749225E+03 -0.13798107513E+03  0.14471223207E+04  0.12699999809E+01 0.  1.
       -4    1    3    3    0  502 -0.10617203096E+04 -0.97358749225E+03  0.50534292931E+03  0.15265961189E+04  0.12699999809E+01 0. -1.
</event>
<event>
 5   0  0.4532420E-06  0.3002031E+04  0.7818609E-02  0.8243151E-01
       -2   -1    0    0    0  501  0.00000000000E+00  0.00000000000E+00  0.16018832974E+04  0.16018832974E+04  0.25500000920E-02 0. -1.
        2   -1    0    0  501    0  0.00000000000E+00  0.00000000000E+00 -0.14064988985E+04  0.14064988985E+04  0.25500000920E-02 0.  1.
    10030    2    1    2    0    0  0.00000000000E+00  0.00000000000E+00  0.19538439886E+03  0.30083821959E+04  0.30020307082E+04 0.  0.
        4    1    3    3  502    0 -0.79935907082E+03  0.79714292348E+03  0.10890443804E+04  0.15685761186E+04  0.12699999809E+01 0.  1.
       -4    1    3    3    0  502  0.79935907082E+03 -0.79714292348E+03 -0.89365998154E+03  0.14398060772E+04  0.12699999809E+01 0. -1.
</event>
<event>
 5   0  0.5003556E-06  0.2990110E+04  0.7818609E-02  0.8246561E-01
       -2   -1    0    0    0  501  0.00000000000E+00  0.00000000000E+00  0.13054987970E+04  0.13054987970E+04  0.25500000920E-02 0. -1.
        2   -1    0    0  501    0  0.00000000000E+00  0.00000000000E+00 -0.17121345920E+04  0.17121345920E+04  0.25500000920E-02 0.  1.
    10030    2    1    2    0    0  0.00000000000E+00  0.00000000000E+00 -0.40663579500E+03  0.30176333891E+04  0.29901101319E+04 0.  0.
        3    1    3    3  502    0  0.14691512075E+04 -0.23169246294E+03 -0.35671360895E+03  0.15294872595E+04  0.10100000352E+00 0.  1.
       -3    1    3    3    0  502 -0.14691512075E+04  0.23169246294E+03 -0.49922186048E+02  0.14881461295E+04  0.10100000352E+00 0. -1.
</event>
<event>
 5   0  0.1700885E-06  0.3014556E+04  0.7818609E-02  0.8239587E-01
       -1   -1    0    0    0  501  0.00000000000E+00  0.00000000000E+00  0.17971378042E+04  0.17971378042E+04  0.50400001928E-02 0.  1.
        1   -1    0    0  501    0  0.00000000000E+00  0.00000000000E+00 -0.12641696039E+04  0.12641696039E+04  0.50400001928E-02 0. -1.
    10030    2    1    2    0    0  0.00000000000E+00  0.00000000000E+00  0.53296820028E+03  0.30613074081E+04  0.30145560111E+04 0.  0.
        1    1    3    3  502    0 -0.71829751177E+03 -0.12974767547E+04  0.53989880056E+03  0.15782547194E+04  0.50400001928E-02 0.  1.
       -1    1    3    3    0  502  0.71829751177E+03  0.12974767547E+04 -0.69306002838E+01  0.14830526887E+04  0.50400001928E-02 0. -1.
</event>
<event>
 5   0  0.4532420E-06  0.2987544E+04  0.7818609E-02  0.8247297E-01
        2   -1    0    0  501    0  0.00000000000E+00  0.00000000000E+00  0.13620131607E+04  0.13620131607E+04  0.25500000920E-02 0. -1.
       -2   -1    0    0    0  501  0.00000000000E+00  0.00000000000E+00 -0.16382770460E+04  0.16382770460E+04  0.25500000920E-02 0.  1.
    10030    2    1    2    0    0  0.00000000000E+00  0.00000000000E+00 -0.27626388533E+03  0.30002902067E+04  0.29875440733E+04 0.  0.
        4    1    3    3  502    0 -0.13547082433E+04  0.15666846457E+03  0.47403731500E+03  0.14437771369E+04  0.12699999809E+01 0. -1.
       -4    1    3    3    0  502  0.13547082433E+04 -0.15666846457E+03 -0.75030120033E+03  0.15565130698E+04  0.12699999809E+01 0.  1.
</event>
<event>
 5   0  0.1686012E-06  0.2965733E+04  0.7818609E-02  0.8253584E-01
       -1   -1    0    0    0  501  0.00000000000E+00  0.00000000000E+00  0.30450944551E+04  0.30450944551E+04  0.50400001928E-02 0. -1.
        1   -1    0    0  501    0  0.00000000000E+00  0.00000000000E+00 -0.72210984195E+03  0.72210984196E+03  0.50400001928E-02 0.  1.
    10030    2    1    2    0    0  0.00000000000E+00  0.00000000000E+00  0.23229846131E+04  0.37672042970E+04  0.29657327430E+04 0.  0.
        4    1    3    3  502    0 -0.51277590632E+02 -0.11514991144E+04 -0.23524506520E+02  0.11528810073E+04  0.12699999809E+01 0.  1.
       -4    1    3    3    0  502  0.51277590632E+02  0.11514991144E+04  0.23465091196E+04  0.26143232897E+04  0.12699999809E+01 0. -1.
</event>
<event>
 5   0  0.4768570E-06  0.3019306E+04  0.7818609E-02  0.8238239E-01
       -2   -1    0    0    0  501  0.00000000000E+00  0.00000000000E+00  0.10350479227E+04  0.10350479227E+04  0.25500000920E-02 0. -1.
        2   -1    0    0  501    0  0.00000000000E+00  0.00000000000E+00 -0.22018813441E+04  0.22018813441E+04  0.25500000920E-02 0.  1.
    10030    2    1    2    0    0  0.00000000000E+00  0.00000000000E+00 -0.11668334214E+04  0.32369292668E+04  0.30193063517E+04 0.  0.
        1    1    3    3  502    0 -0.67395930699E+03 -0.11815676391E+04  0.11855191405E+03  0.13654222020E+04  0.50400001928E-02 0. -1.
       -1    1    3    3    0  502  0.67395930699E+03  0.11815676391E+04 -0.12853853354E+04  0.18715070649E+04  0.50400001928E-02 0.  1.
</event>
<event>
 5   0  0.4935331E-06  0.3034498E+04  0.7818609E-02  0.8233948E-01
        2   -1    0    0  501    0  0.00000000000E+00  0.00000000000E+00  0.19153698998E+04  0.19153698998E+04  0.25500000920E-02 0.  1.
       -2   -1    0    0    0  501  0.00000000000E+00  0.00000000000E+00 -0.12018795502E+04  0.12018795502E+04  0.25500000920E-02 0. -1.
    10030    2    1    2    0    0  0.00000000000E+00  0.00000000000E+00  0.71349034962E+03  0.31172494500E+04  0.30344975951E+04 0.  0.
        5    1    3    3  502    0 -0.56618795501E+03  0.13873458212E+04  0.60140939588E+03  0.16146245939E+04  0.46999998093E+01 0.  1.
       -5    1    3    3    0  502  0.56618795501E+03 -0.13873458212E+04  0.11208095374E+03  0.15026248561E+04  0.46999998093E+01 0. -1.
</event>
<event>
 5   0  0.1700885E-06  0.3000032E+04  0.7818609E-02  0.8243722E-01
       -1   -1    0    0    0  501  0.00000000000E+00  0.00000000000E+00  0.18806628804E+04  0.18806628804E+04  0.50400001928E-02 0.  1.
        1   -1    0    0  501    0  0.00000000000E+00  0.00000000000E+00 -0.11964123890E+04  0.11964123890E+04  0.50400001928E-02 0. -1.
    10030    2    1    2    0    0  0.00000000000E+00  0.00000000000E+00  0.68425049133E+03  0.30770752694E+04  0.30000322463E+04 0.  0.
        1    1    3    3  502    0 -0.26670902863E+03 -0.14760251692E+04  0.32544843154E+03  0.15348292047E+04  0.50400001928E-02 0.  1.
       -1    1    3    3    0  502  0.26670902863E+03  0.14760251692E+04  0.35880205979E+03  0.15422460647E+04  0.50400001928E-02 0. -1.
</event>
<event>
 5   0  0.1700885E-06  0.2962882E+04  0.7818609E-02  0.8254410E-01
       -1   -1    0    0    0  501  0.00000000000E+00  0.00000000000E+00  0.21859909684E+04  0.21859909684E+04  0.50400001928E-02 0.  1.
        1   -1    0    0  501    0  0.00000000000E+00  0.00000000000E+00 -0.10039689972E+04  0.10039689972E+04  0.50400001928E-02 0. -1.
    10030    2    1    2    0    0  0.00000000000E+00  0.00000000000E+00  0.11820219712E+04  0.31899599656E+04  0.29628818137E+04 0.  0.
        1    1    3    3  502    0  0.73392987528E+03 -0.49657593911E+03  0.18691912596E+04  0.20686025935E+04  0.50400001928E-02 0.  1.
       -1    1    3    3    0  502 -0.73392987528E+03  0.49657593911E+03 -0.68716928833E+03  0.11213573721E+04  0.50400001928E-02 0. -1.
</event>
<event>
 5   0  0.1686012E-06  0.3069343E+04  0.7818609E-02  0.8224202E-01
       -1   -1    0    0    0  501  0.00000000000E+00  0.00000000000E+00  0.23888252116E+04  0.23888252116E+04  0.50400001928E-02 0. -1.
        1   -1    0    0  501    0  0.00000000000E+00  0.00000000000E+00 -0.98593065010E+03  0.98593065012E+03  0.50400001928E-02 0.  1.
    10030    2    1    2    0    0  0.00000000000E+00  0.00000000000E+00  0.14028945615E+04  0.33747558617E+04  0.30693425966E+04 0.  0.
        4    1    3    3  502    0 -0.91651632801E+03 -0.31847746240E+03  0.20087873496E+04  0.22308425096E+04  0.12699999809E+01 0. -1.
       -4    1    3    3    0  502  0.91651632801E+03  0.31847746240E+03 -0.60589278815E+03  0.11439133521E+04  0.12699999809E+01 0.  1.
</event>
<event>
 5   0  0.4532420E-06  0.2997605E+04  0.7818609E-02  0.8244415E-01
        2   -1    0    0  501    0  0.00000000000E+00  0.00000000000E+00  0.12277571670E+04  0.12277571670E+04  0.25500000920E-02 0.  1.
       -2   -1    0    0    0  501  0.00000000000E+00  0.00000000000E+00 -0.18296847844E+04  0.18296847844E+04  0.25500000920E-02 0. -1.
    10030    2    1    2    0    0  0.00000000000E+00  0.00000000000E+00 -0.60192761742E+03  0.30574419515E+04  0.29976047822E+04 0.  0.
        4    1    3    3  502    0 -0.11427349351E+04  0.18919554347E+03 -0.12711446218E+04  0.17197233348E+04  0.12699999809E+01 0. -1.
       -4    1    3    3    0  502  0.11427349351E+04 -0.18919554347E+03  0.66921700443E+03  0.13377186167E+04  0.12699999809E+01 0.  1.
</event>
<event>
 5   0  0.1700885E-06  0.3004566E+04  0.7818609E-02  0.8242428E-01
        1   -1    0    0  501    0  0.00000000000E+00  0.00000000000E+00  0.20522042640E+04  0.20522042641E+04  0.50400001928E-02 0. -1.
       -1   -1    0    0    0  501  0.00000000000E+00  0.00000000000E+00 -0.10997217439E+04  0.10997217439E+04  0.50400001928E-02 0.  1.
    10030    2    1    2    0    0  0.00000000000E+00  0.00000000000E+00  0.95248252012E+03  0.31519260080E+04  0.30045656273E+04 0.  0.
        1    1    3    3  502    0 -0.51880020753E+03  0.91621454351E+03  0.16003613717E+04  0.19156615737E+04  0.50400001928E-02 0. -1.
       -1    1    3    3    0  502  0.51880020753E+03 -0.91621454351E+03 -0.64787885156E+03  0.12362644343E+04  0.50400001928E-02 0.  1.
</event>
<event>
 5   0  0.4768570E-06  0.2958824E+04  0.7818609E-02  0.8255588E-01
       -2   -1    0    0    0  501  0.00000000000E+00  0.00000000000E+00  0.11119506593E+04  0.11119506593E+04  0.25500000920E-02 0. -1.
        2   -1    0    0  501    0  0.00000000000E+00  0.00000000000E+00 -0.19683064102E+04  0.19683064102E+04  0.25500000920E-02 0.  1.
    10030    2    1    2    0    0  0.00000000000E+00  0.00000000000E+00 -0.85635575095E+03  0.30802570695E+04  0.29588238275E+04 0.  0.
        1    1    3    3  502    0  0.35835111897E+01  0.42975368487E+03  0.10455327730E+04  0.11304157866E+04  0.50400001928E-02 0. -1.
       -1    1    3    3    0  502 -0.35835111897E+01 -0.42975368487E+03 -0.19018885239E+04  0.19498412829E+04  0.50400001928E-02 0.  1.
</event>
<event>
 5   0  0.1545375E-06  0.3014199E+04  0.7818609E-02  0.8239688E-01
       -3   -1    0    0    0  501  0.00000000000E+00  0.00000000000E+00  0.29272945865E+04  0.29272945883E+04  0.10100000352E+00 0. -1.
        3   -1    0    0  501    0  0.00000000000E+00  0.00000000000E+00 -0.77592093335E+03  0.77592093992E+03  0.10100000352E+00 0.  1.
    10030    2    1    2    0    0  0.00000000000E+00  0.00000000000E+00  0.21513736532E+04  0.37032155282E+04  0.30141991727E+04 0.  0.
        2    1    3    3  502    0 -0.13918435708E+03  0.68599155191E+03 -0.56409794351E+03  0.89897896774E+03  0.25500000920E-02 0.  1.
       -2    1    3    3    0  502  0.13918435708E+03 -0.68599155191E+03  0.27154715967E+04  0.28042365604E+04  0.25500000920E-02 0. -1.
</event>
<event>
 5   0  0.5003556E-06  0.3003534E+04  0.7818609E-02  0.8242722E-01
        2   -1    0    0  501    0  0.00000000000E+00  0.00000000000E+00  0.17141708138E+04  0.17141708138E+04  0.25500000920E-02 0.  1.
       -2   -1    0    0    0  501  0.00000000000E+00  0.00000000000E+00 -0.13156822634E+04  0.13156822634E+04  0.25500000920E-02 0. -1.
    10030    2    1    2    0    0  0.00000000000E+00  0.00000000000E+00  0.39848855033E+03  0.30298530772E+04  0.30035340092E+04 0.  0.
        3    1    3    3  502    0 -0.14869227560E+04  0.20655495378E+03  0.24083533926E+03  0.15203966266E+04  0.10100000352E+00 0.  1.
       -3    1    3    3    0  502  0.14869227560E+04 -0.20655495378E+03  0.15765321107E+03  0.15094564506E+04  0.10100000352E+00 0. -1.
</event>
<event>
 5   0  0.1700885E-06  0.2984204E+04  0.7818609E-02  0.8248256E-01
       -1   -1    0    0    0  501  0.00000000000E+00  0.00000000000E+00  0.14872272073E+04  0.14872272073E+04  0.50400001928E-02 0.  1.
        1   -1    0    0  501    0  0.00000000000E+00  0.00000000000E+00 -0.14969927784E+04  0.14969927784E+04  0.50400001928E-02 0. -1.
    10030    2    1    2    0    0  0.00000000000E+00  0.00000000000E+00 -0.97655710623E+01  0.29842199857E+04  0.29842040072E+04 0.  0.
        1    1    3    3  502    0  0.46445395095E+03  0.13444756385E+04 -0.45548055331E+03  0.14935845304E+04  0.50400001928E-02 0.  1.
       -1    1    3    3    0  502 -0.46445395095E+03 -0.13444756385E+04  0.44571498225E+03  0.14906354553E+04  0.50400001928E-02 0. -1.
</event>
<event>
 5   0  0.1545375E-06  0.2960761E+04  0.7818609E-02  0.8255025E-01
        3   -1    0    0  501    0  0.00000000000E+00  0.00000000000E+00  0.21936646910E+04  0.21936646934E+04  0.10100000352E+00 0. -1.
       -3   -1    0    0    0  501  0.00000000000E+00  0.00000000000E+00 -0.99902524944E+03  0.99902525455E+03  0.10100000352E+00 0.  1.
    10030    2    1    2    0    0  0.00000000000E+00  0.00000000000E+00  0.11946394416E+04  0.31926899479E+04  0.29607610015E+04 0.  0.
        4    1    3    3  502    0  0.62168918791E+03 -0.12287698195E+04  0.11831560917E+04  0.18155529918E+04  0.12699999809E+01 0. -1.
       -4    1    3    3    0  502 -0.62168918791E+03  0.12287698195E+04  0.11483349839E+02  0.13771369561E+04  0.12699999809E+01 0.  1.
</event>
<event>
 5   0  0.4935331E-06  0.3027355E+04  0.7818609E-02  0.8235962E-01
       -2   -1    0    0    0  501  0.00000000000E+00  0.00000000000E+00  0.16677829190E+04  0.16677829190E+04  0.25500000920E-02 0. -1.
        2   -1    0    0  501    0  0.00000000000E+00  0.00000000000E+00 -0.13738114288E+04  0.13738114288E+04  0.25500000920E-02 0.  1.
    10030    2    1    2    0    0  0.00000000000E+00  0.00000000000E+00  0.29397149022E+03  0.30415943477E+04  0.30273547759E+04 0.  0.
        5    1    3    3  502    0  0.72519019265E+03 -0.11199864030E+04  0.86513929172E+03  0.15902070439E+04  0.46999998093E+01 0. -1.
       -5    1    3    3    0  502 -0.72519019265E+03  0.11199864030E+04 -0.57116780150E+03  0.14513873039E+04  0.46999998093E+01 0.  1.
</event>
<event>
 5   0  0.1700885E-06  0.2838293E+04  0.7818609E-02  0.8291478E-01
       -1   -1    0    0    0  501  0.00000000000E+00  0.00000000000E+00  0.12361327806E+04  0.12361327806E+04  0.50400001928E-02 0. -1.
        1   -1    0    0  501    0  0.00000000000E+00  0.00000000000E+00 -0.16292560525E+04  0.16292560525E+04  0.50400001928E-02 0.  1.
    10030    2    1    2    0    0  0.00000000000E+00  0.00000000000E+00 -0.39312327190E+03  0.28653888331E+04  0.28382930183E+04 0.  0.
        1    1    3    3  502    0 -0.56847749965E+03  0.39581119510E+03 -0.14469915298E+04  0.16042498737E+04  0.50400001928E-02 0.  1.
       -1    1    3    3    0  502  0.56847749965E+03 -0.39581119510E+03  0.10538682579E+04  0.12611389594E+04  0.50400001928E-02 0. -1.
</event>
<event>
 5   0  0.1672907E-06  0.2889594E+04  0.7818609E-02  0.8275980E-01
       -1   -1    0    0    0  501  0.00000000000E+00  0.00000000000E+00  0.10675036842E+04  0.10675036842E+04  0.50400001928E-02 0. -1.
        1   -1    0    0  501    0  0.00000000000E+00  0.00000000000E+00 -0.19554396416E+04  0.19554396416E+04  0.50400001928E-02 0.  1.
    10030    2    1    2    0    0  0.00000000000E+00  0.00000000000E+00 -0.88793595748E+03  0.30229433258E+04  0.28895944502E+04 0.  0.
        5    1    3    3  502    0 -0.49777380676E+03  0.12021314365E+04  0.21312468752E+03  0.13184623528E+04  0.46999998093E+01 0. -1.
       -5    1    3    3    0  502  0.49777380676E+03 -0.12021314365E+04 -0.11010606450E+04  0.17044809730E+04  0.46999998093E+01 0.  1.
</event>
<event>
 5   0  0.1709858E-06  0.3019616E+04  0.7818609E-02  0.8238151E-01
        1   -1    0    0  501    0  0.00000000000E+00  0.00000000000E+00  0.15204577842E+04  0.15204577842E+04  0.50400001928E-02 0. -1.
       -1   -1    0    0    0  501  0.00000000000E+00  0.00000000000E+00 -0.14992332851E+04  0.14992332852E+04  0.50400001928E-02 0.  1.
    10030    2    1    2    0    0  0.00000000000E+00  0.00000000000E+00  0.21224499094E+02  0.30196910694E+04  0.30196164782E+04 0.  0.
        3    1    3    3  502    0 -0.13061988203E+04 -0.39394036921E+03  0.65729393014E+03  0.15143908655E+04  0.10100000352E+00 0. -1.
       -3    1    3    3    0  502  0.13061988203E+04  0.39394036921E+03 -0.63606943104E+03  0.15053002039E+04  0.10100000352E+00 0.  1.
</event>
<event>
 5   0  0.4532420E-06  0.3027753E+04  0.7818609E-02  0.8235850E-01
        2   -1    0    0  501    0  0.00000000000E+00  0.00000000000E+00  0.31289190297E+04  0.31289190297E+04  0.25500000920E-02 0.  1.
       -2   -1    0    0    0  501  0.00000000000E+00  0.00000000000E+00 -0.73246444374E+03  0.73246444374E+03  0.25500000920E-02 0. -1.
    10030    2    1    2    0    0  0.00000000000E+00  0.00000000000E+00  0.23964545859E+04  0.38613834734E+04  0.30277529203E+04 0.  0.
        4    1    3    3  502    0 -0.14032685566E+04  0.55383496628E+03  0.10372904179E+04  0.18308109776E+04  0.12699999809E+01 0. -1.
       -4    1    3    3    0  502  0.14032685566E+04 -0.55383496628E+03  0.13591641681E+04  0.20305724958E+04  0.12699999809E+01 0.  1.
</event>
<event>
 5   0  0.1734885E-06  0.3002946E+04  0.7818609E-02  0.8242890E-01
       -1   -1    0    0    0  501  0.00000000000E+00  0.00000000000E+00  0.18206278577E+04  0.18206278577E+04  0.50400001928E-02 0. -1.
        1   -1    0    0  501    0  0.00000000000E+00  0.00000000000E+00 -0.12382658111E+04  0.12382658112E+04  0.50400001928E-02 0.  1.
    10030    2    1    2    0    0  0.00000000000E+00  0.00000000000E+00  0.58236204653E+03  0.30588936688E+04  0.30029460408E+04 0.  0.
        2    1    3    3  502    0 -0.10872861974E+04 -0.54213321146E+03  0.11898430194E+04  0.17005370049E+04  0.25500000920E-02 0. -1.
       -2    1    3    3    0  502  0.10872861974E+04  0.54213321146E+03 -0.60748097289E+03  0.13583566640E+04  0.25500000920E-02 0.  1.
</event>
<event>
 5   0  0.4768570E-06  0.2991178E+04  0.7818609E-02  0.8246255E-01
       -2   -1    0    0    0  501  0.00000000000E+00  0.00000000000E+00  0.16483842388E+04  0.16483842388E+04  0.25500000920E-02 0. -1.
        2   -1    0    0  501    0  0.00000000000E+00  0.00000000000E+00 -0.13569567289E+04  0.13569567289E+04  0.25500000920E-02 0.  1.
    10030    2    1    2    0    0  0.00000000000E+00  0.00000000000E+00  0.29142750997E+03  0.30053409677E+04  0.29911777511E+04 0.  0.
        1    1    3    3  502    0 -0.12815656873E+04  0.54391799155E+03  0.69467864449E+03  0.15559035354E+04  0.50400001928E-02 0. -1.
       -1    1    3    3    0  502  0.12815656873E+04 -0.54391799155E+03 -0.40325113453E+03  0.14494374322E+04  0.50400001928E-02 0.  1.
</event>
<event>
 5   0  0.4532420E-06  0.2981418E+04  0.7818609E-02  0.8249057E-01
       -2   -1    0    0    0  501  0.00000000000E+00  0.00000000000E+00  0.10806939542E+04  0.10806939542E+04  0.25500000920E-02 0.  1.
        2   -1    0    0  501    0  0.00000000000E+00  0.00000000000E+00 -0.20562833817E+04  0.20562833818E+04  0.25500000920E-02 0. -1.
    10030    2    1    2    0    0  0.00000000000E+00  0.00000000000E+00 -0.97558942752E+03  0.31369773360E+04  0.29814177962E+04 0.  0.
        4    1    3    3  502    0 -0.31093936480E+03  0.13937936199E+04 -0.37852479184E+02  0.14285581425E+04  0.12699999809E+01 0. -1.
       -4    1    3    3    0  502  0.31093936480E+03 -0.13937936199E+04 -0.93773694834E+03  0.17084191935E+04  0.12699999809E+01 0.  1.
</event>
<event>
 5   0  0.4532420E-06  0.2998678E+04  0.7818609E-02  0.8244109E-01
       -2   -1    0    0    0  501  0.00000000000E+00  0.00000000000E+00  0.10360321599E+04  0.10360321599E+04  0.25500000920E-02 0. -1.
        2   -1    0    0  501    0  0.00000000000E+00  0.00000000000E+00 -0.21698333664E+04  0.21698333664E+04  0.25500000920E-02 0.  1.
    10030    2    1    2    0    0  0.00000000000E+00  0.00000000000E+00 -0.11338012066E+04  0.32058655263E+04  0.29986778081E+04 0.  0.
        4    1    3    3  502    0 -0.38900755388E+03 -0.36021388091E+03 -0.20662762682E+04  0.21332088849E+04  0.12699999809E+01 0.  1.
       -4    1    3    3    0  502  0.38900755388E+03  0.36021388091E+03  0.93247506162E+03  0.10726566414E+04  0.12699999809E+01 0. -1.
</event>
<event>
 5   0  0.4702748E-06  0.3008273E+04  0.7818609E-02  0.8241372E-01
        2   -1    0    0  501    0  0.00000000000E+00  0.00000000000E+00  0.11656577441E+04  0.11656577441E+04  0.25500000920E-02 0. -1.
       -2   -1    0    0    0  501  0.00000000000E+00  0.00000000000E+00 -0.19409010980E+04  0.19409010980E+04  0.25500000920E-02 0.  1.
    10030    2    1    2    0    0  0.00000000000E+00  0.00000000000E+00 -0.77524335386E+03  0.31065588421E+04  0.30082728569E+04 0.  0.
        2    1    3    3  502    0  0.11509973372E+04 -0.29488926821E+03 -0.13400743135E+04  0.17909644655E+04  0.25500000920E-02 0.  1.
       -2    1    3    3    0  502 -0.11509973372E+04  0.29488926821E+03  0.56483095964E+03  0.13155943766E+04  0.25500000920E-02 0. -1.
</event>
<event>
 5   0  0.5003556E-06  0.2959658E+04  0.7818609E-02  0.8255345E-01
       -2   -1    0    0    0  501  0.00000000000E+00  0.00000000000E+00  0.95279493912E+03  0.95279493912E+03  0.25500000920E-02 0. -1.
        2   -1    0    0  501    0  0.00000000000E+00  0.00000000000E+00 -0.22983899435E+04  0.22983899435E+04  0.25500000920E-02 0.  1.
    10030    2    1    2    0    0  0.00000000000E+00  0.00000000000E+00 -0.13455950043E+04  0.32511848826E+04  0.29596582953E+04 0.  0.
        3    1    3    3  502    0  0.78204716053E+03  0.10260607097E+04 -0.14691122933E+04  0.19551698857E+04  0.10100000352E+00 0. -1.
       -3    1    3    3    0  502 -0.78204716053E+03 -0.10260607097E+04  0.12351728898E+03  0.12960149969E+04  0.10100000352E+00 0.  1.
</event>
<event>
 5   0  0.1709858E-06  0.2429028E+04  0.7818609E-02  0.8428715E-01
       -1   -1    0    0    0  501  0.00000000000E+00  0.00000000000E+00  0.74253833242E+03  0.74253833243E+03  0.50400001928E-02 0.  1.
        1   -1    0    0  501    0  0.00000000000E+00  0.00000000000E+00 -0.19864884223E+04  0.19864884223E+04  0.50400001928E-02 0. -1.
    10030    2    1    2    0    0  0.00000000000E+00  0.00000000000E+00 -0.12439500899E+04  0.27290267548E+04  0.24290276248E+04 0.  0.
        3    1    3    3  502    0 -0.25216780588E+03  0.17523040892E+03 -0.19421539394E+04  0.19662797952E+04  0.10100000352E+00 0. -1.
       -3    1    3    3    0  502  0.25216780588E+03 -0.17523040892E+03  0.69820384954E+03  0.76274695951E+03  0.10100000352E+00 0.  1.
</event>
<event>
 5   0  0.1686012E-06  0.2947269E+04  0.7818609E-02  0.8258951E-01
        1   -1    0    0  501    0  0.00000000000E+00  0.00000000000E+00  0.13517750513E+04  0.13517750513E+04  0.50400001928E-02 0. -1.
       -1   -1    0    0    0  501  0.00000000000E+00  0.00000000000E+00 -0.16064789886E+04  0.16064789886E+04  0.50400001928E-02 0.  1.
    10030    2    1    2    0    0  0.00000000000E+00  0.00000000000E+00 -0.25470393728E+03  0.29582540399E+04  0.29472687134E+04 0.  0.
        4    1    3    3  502    0 -0.33576299078E+03 -0.14260735109E+04  0.31903085634E+02  0.14654152532E+04  0.12699999809E+01 0. -1.
       -4    1    3    3    0  502  0.33576299078E+03  0.14260735109E+04 -0.28660702291E+03  0.14928387867E+04  0.12699999809E+01 0.  1.
</event>
<event>
 5   0  0.5003556E-06  0.3239737E+04  0.7818609E-02  0.8178401E-01
       -2   -1    0    0    0  501  0.00000000000E+00  0.00000000000E+00  0.13667615805E+04  0.13667615805E+04  0.25500000920E-02 0. -1.
        2   -1    0    0  501    0  0.00000000000E+00  0.00000000000E+00 -0.19198475541E+04  0.19198475541E+04  0.25500000920E-02 0.  1.
    10030    2    1    2    0    0  0.00000000000E+00  0.00000000000E+00 -0.55308597353E+03  0.32866091346E+04  0.32397369507E+04 0.  0.
        3    1    3    3  502    0  0.12115083056E+04  0.70904999133E+03  0.54352716258E+03  0.15052993229E+04  0.10100000352E+00 0. -1.
       -3    1    3    3    0  502 -0.12115083056E+04 -0.70904999133E+03 -0.10966131361E+04  0.17813098117E+04  0.10100000352E+00 0.  1.
</event>
<event>
 5   0  0.4702748E-06  0.2900664E+04  0.7818609E-02  0.8272680E-01
        2   -1    0    0  501    0  0.00000000000E+00  0.00000000000E+00  0.23205582838E+04  0.23205582838E+04  0.25500000920E-02 0. -1.
       -2   -1    0    0    0  501  0.00000000000E+00  0.00000000000E+00 -0.90644714548E+03  0.90644714548E+03  0.25500000920E-02 0.  1.
    10030    2    1    2    0    0  0.00000000000E+00  0.00000000000E+00  0.14141111383E+04  0.32270054293E+04  0.29006643599E+04 0.  0.
        2    1    3    3  502    0  0.10961994037E+04  0.84316312667E+03  0.11931151753E+04  0.18264996612E+04  0.25500000920E-02 0. -1.
       -2    1    3    3    0  502 -0.10961994037E+04 -0.84316312667E+03  0.22099596304E+03  0.14005057681E+04  0.25500000920E-02 0.  1.
</event>
<event>
 5   0  0.1700885E-06  0.2993661E+04  0.7818609E-02  0.8245543E-01
        1   -1    0    0  501    0  0.00000000000E+00  0.00000000000E+00  0.19750113982E+04  0.19750113982E+04  0.50400001928E-02 0.  1.
       -1   -1    0    0    0  501  0.00000000000E+00  0.00000000000E+00 -0.11344249505E+04  0.11344249505E+04  0.50400001928E-02 0. -1.
    10030    2    1    2    0    0  0.00000000000E+00  0.00000000000E+00  0.84058644771E+03  0.31094363487E+04  0.29936614422E+04 0.  0.
        1    1    3    3  502    0 -0.65820892221E+03  0.10960474258E+04  0.12288210440E+04  0.17732907553E+04  0.50400001928E-02 0.  1.
       -1    1    3    3    0  502  0.65820892221E+03 -0.10960474258E+04 -0.38823459627E+03  0.13361455933E+04  0.50400001928E-02 0. -1.
</event>
<event>
 5   0  0.4768570E-06  0.3029928E+04  0.7818609E-02  0.8235236E-01
       -2   -1    0    0    0  501  0.00000000000E+00  0.00000000000E+00  0.10519054453E+04  0.10519054453E+04  0.25500000920E-02 0. -1.
        2   -1    0    0  501    0  0.00000000000E+00  0.00000000000E+00 -0.21818645729E+04  0.21818645729E+04  0.25500000920E-02 0.  1.
    10030    2    1    2    0    0  0.00000000000E+00  0.00000000000E+00 -0.11299591276E+04  0.32337700183E+04  0.30299275405E+04 0.  0.
        1    1    3    3  502    0 -0.58856823524E+03  0.10722983826E+04  0.38895227801E+03  0.12835576588E+04  0.50400001928E-02 0. -1.
       -1    1    3    3    0  502  0.58856823524E+03 -0.10722983826E+04 -0.15189114056E+04  0.19502123595E+04  0.50400001928E-02 0.  1.
</event>
<event>
 5   0  0.1734885E-06  0.2963870E+04  0.7818609E-02  0.8254124E-01
        1   -1    0    0  501    0  0.00000000000E+00  0.00000000000E+00  0.18994418088E+04  0.18994418088E+04  0.50400001928E-02 0.  1.
       -1   -1    0    0    0  501  0.00000000000E+00  0.00000000000E+00 -0.11561985086E+04  0.11561985086E+04  0.50400001928E-02 0. -1.
    10030    2    1    2    0    0  0.00000000000E+00  0.00000000000E+00  0.74324330022E+03  0.30556403174E+04  0.29638702985E+04 0.  0.
        2    1    3    3  502    0  0.22002377038E+03 -0.12956763391E+04 -0.33437655824E+03  0.13560956153E+04  0.25500000920E-02 0. -1.
       -2    1    3    3    0  502 -0.22002377038E+03  0.12956763391E+04  0.10776198585E+04  0.16995447021E+04  0.25500000920E-02 0.  1.
</event>
<event>
 5   0  0.4935331E-06  0.2960996E+04  0.7818609E-02  0.8254957E-01
       -2   -1    0    0    0  501  0.00000000000E+00  0.00000000000E+00  0.90910965809E+03  0.90910965809E+03  0.25500000920E-02 0.  1.
        2   -1    0    0  501    0  0.00000000000E+00  0.00000000000E+00 -0.24110125357E+04  0.24110125357E+04  0.25500000920E-02 0. -1.
    10030    2    1    2    0    0  0.00000000000E+00  0.00000000000E+00 -0.15019028776E+04  0.33201221938E+04  0.29609963066E+04 0.  0.
        5    1    3    3  502    0 -0.49341765214E+03 -0.88183141340E+03  0.46230074195E+03  0.11112298084E+04  0.46999998093E+01 0.  1.
       -5    1    3    3    0  502  0.49341765214E+03  0.88183141340E+03 -0.19642036196E+04  0.22088923854E+04  0.46999998093E+01 0. -1.
</event>
<event>
 5   0  0.1734885E-06  0.2967421E+04  0.7818609E-02  0.8253096E-01
       -1   -1    0    0    0  501  0.00000000000E+00  0.00000000000E+00  0.12845321202E+04  0.12845321202E+04  0.50400001928E-02 0.  1.
        1   -1    0    0  501    0  0.00000000000E+00  0.00000000000E+00 -0.17137728908E+04  0.17137728908E+04  0.50400001928E-02 0. -1.
    10030    2    1    2    0    0  0.00000000000E+00  0.00000000000E+00 -0.42924077061E+03  0.29983050110E+04  0.29674206477E+04 0.  0.
        2    1    3    3  502    0 -0.37269905601E+03  0.14289254535E+04 -0.35986554092E+03  0.15199459679E+04  0.25500000920E-02 0.  1.
       -2    1    3    3    0  502  0.37269905601E+03 -0.14289254535E+04 -0.69375229691E+02  0.14783590431E+04  0.25500000920E-02 0. -1.
</event>
<event>
 5   0  0.1709858E-06  0.3010056E+04  0.7818609E-02  0.8240865E-01
       -1   -1    0    0    0  501  0.00000000000E+00  0.00000000000E+00  0.14445637954E+04  0.14445637954E+04  0.50400001928E-02 0. -1.
        1   -1    0    0  501    0  0.00000000000E+00  0.00000000000E+00 -0.15680234427E+04  0.15680234427E+04  0.50400001928E-02 0.  1.
    10030    2    1    2    0    0  0.00000000000E+00  0.00000000000E+00 -0.12345964731E+03  0.30125872380E+04  0.30100564085E+04 0.  0.
        3    1    3    3  502    0  0.36635386409E+03  0.90187848871E+03  0.10870636115E+04  0.14592146065E+04  0.10100000352E+00 0.  1.
       -3    1    3    3    0  502 -0.36635386409E+03 -0.90187848871E+03 -0.12105232588E+04  0.15533726316E+04  0.10100000352E+00 0. -1.
</event>
<event>
 5   0  0.1672907E-06  0.3048314E+04  0.7818609E-02  0.8230068E-01
        1   -1    0    0  501    0  0.00000000000E+00  0.00000000000E+00  0.15547215129E+04  0.15547215129E+04  0.50400001928E-02 0. -1.
       -1   -1    0    0    0  501  0.00000000000E+00  0.00000000000E+00 -0.14941930013E+04  0.14941930013E+04  0.50400001928E-02 0.  1.
    10030    2    1    2    0    0  0.00000000000E+00  0.00000000000E+00  0.60528511654E+02  0.30489145142E+04  0.30483136345E+04 0.  0.
        5    1    3    3  502    0  0.23959401172E+03  0.63814732573E+03  0.13937624534E+04  0.15515260766E+04  0.46999998093E+01 0. -1.
       -5    1    3    3    0  502 -0.23959401172E+03 -0.63814732573E+03 -0.13332339418E+04  0.14973884377E+04  0.46999998093E+01 0.  1.
</event>
<event>
 5   0  0.4768570E-06  0.2982009E+04  0.7818609E-02  0.8248887E-01
       -2   -1    0    0    0  501  0.00000000000E+00  0.00000000000E+00  0.87785727522E+03  0.87785727523E+03  0.25500000920E-02 0. -1.
        2   -1    0    0  501    0  0.00000000000E+00  0.00000000000E+00 -0.25324099679E+04  0.25324099679E+04  0.25500000920E-02 0.  1.
    10030    2    1    2    0    0  0.00000000000E+00  0.00000000000E+00 -0.16545526927E+04  0.34102672432E+04  0.29820090638E+04 0.  0.
        1    1    3    3  502    0 -0.81546117132E+03  0.39779698728E+03 -0.21803583141E+04  0.23616057551E+04  0.50400001928E-02 0.  1.
       -1    1    3    3    0  502  0.81546117132E+03 -0.39779698728E+03  0.52580562134E+03  0.10486614880E+04  0.50400001928E-02 0. -1.
</event>
<event>
 5   0  0.1709858E-06  0.3007620E+04  0.7818609E-02  0.8241558E-01
        1   -1    0    0  501    0  0.00000000000E+00  0.00000000000E+00  0.14732863621E+04  0.14732863621E+04  0.50400001928E-02 0.  1.
       -1   -1    0    0    0  501  0.00000000000E+00  0.00000000000E+00 -0.15349658495E+04  0.15349658495E+04  0.50400001928E-02 0. -1.
    10030    2    1    2    0    0  0.00000000000E+00  0.00000000000E+00 -0.61679487425E+02  0.30082522116E+04  0.30076198246E+04 0.  0.
        3    1    3    3  502    0 -0.26989758376E+03  0.40915859263E+03  0.13911443732E+04  0.14749705546E+04  0.10100000352E+00 0.  1.
       -3    1    3    3    0  502  0.26989758376E+03 -0.40915859263E+03 -0.14528238606E+04  0.15332816570E+04  0.10100000352E+00 0. -1.
</event>
<event>
 5   0  0.4702748E-06  0.2879359E+04  0.7818609E-02  0.8279045E-01
       -2   -1    0    0    0  501  0.00000000000E+00  0.00000000000E+00  0.21374639993E+04  0.21374639993E+04  0.25500000920E-02 0. -1.
        2   -1    0    0  501    0  0.00000000000E+00  0.00000000000E+00 -0.96968953888E+03  0.96968953889E+03  0.25500000920E-02 0.  1.
    10030    2    1    2    0    0  0.00000000000E+00  0.00000000000E+00  0.11677744604E+04  0.31071535382E+04  0.28793585951E+04 0.  0.
        2    1    3    3  502    0  0.35178798635E+03  0.20332450253E+03 -0.90653196312E+03  0.99342631374E+03  0.25500000920E-02 0.  1.
       -2    1    3    3    0  502 -0.35178798635E+03 -0.20332450253E+03  0.20743064235E+04  0.21137272244E+04  0.25500000920E-02 0. -1.
</event>
<event>
 5   0  0.1686012E-06  0.2987883E+04  0.7818609E-02  0.8247199E-01
       -1   -1    0    0    0  501  0.00000000000E+00  0.00000000000E+00  0.11124467154E+04  0.11124467154E+04  0.50400001928E-02 0.  1.
        1   -1    0    0  501    0  0.00000000000E+00  0.00000000000E+00 -0.20062640038E+04  0.20062640038E+04  0.50400001928E-02 0. -1.
    10030    2    1    2    0    0  0.00000000000E+00  0.00000000000E+00 -0.89381728839E+03  0.31187107193E+04  0.29878833989E+04 0.  0.
        4    1    3    3  502    0  0.70997553688E+03  0.12795862432E+04 -0.76083318518E+03  0.16493256093E+04  0.12699999809E+01 0. -1.
       -4    1    3    3    0  502 -0.70997553688E+03 -0.12795862432E+04 -0.13298410321E+03  0.14693851100E+04  0.12699999809E+01 0.  1.
</event>
<event>
 5   0  0.1672907E-06  0.3000709E+04  0.7818609E-02  0.8243528E-01
        1   -1    0    0  501    0  0.00000000000E+00  0.00000000000E+00  0.15595689346E+04  0.15595689347E+04  0.50400001928E-02 0.  1.
       -1   -1    0    0    0  501  0.00000000000E+00  0.00000000000E+00 -0.14433883989E+04  0.14433883989E+04  0.50400001928E-02 0. -1.
    10030    2    1    2    0    0  0.00000000000E+00  0.00000000000E+00  0.11618053578E+03  0.30029573335E+04  0.30007090546E+04 0.  0.
        5    1    3    3  502    0 -0.17044454467E+03 -0.11422749439E+03  0.15454549478E+04  0.15590228828E+04  0.46999998093E+01 0.  1.
       -5    1    3    3    0  502  0.17044454467E+03  0.11422749439E+03 -0.14292744120E+04  0.14439344508E+04  0.46999998093E+01 0. -1.
</event>
<event>
 5   0  0.4935331E-06  0.2895908E+04  0.7818609E-02  0.8274096E-01
        2   -1    0    0  501    0  0.00000000000E+00  0.00000000000E+00  0.19498048403E+04  0.19498048403E+04  0.25500000920E-02 0.  1.
       -2   -1    0    0    0  501  0.00000000000E+00  0.00000000000E+00 -0.10752717971E+04  0.10752717971E+04  0.25500000920E-02 0. -1.
    10030    2    1    2    0    0  0.00000000000E+00  0.00000000000E+00  0.87453304319E+03  0.30250766374E+04  0.28959075639E+04 0.  0.
        5    1    3    3  502    0  0.46194308701E+03 -0.12800321421E+04 -0.79442352869E+02  0.13631606207E+04  0.46999998093E+01 0. -1.
       -5    1    3    3    0  502 -0.46194308701E+03  0.12800321421E+04  0.95397539606E+03  0.16619160167E+04  0.46999998093E+01 0.  1.
</event>
<event>
 5   0  0.1672907E-06  0.2995988E+04  0.7818609E-02  0.8244877E-01
       -1   -1    0    0    0  501  0.00000000000E+00  0.00000000000E+00  0.10405746350E+04  0.10405746350E+04  0.50400001928E-02 0.  1.
        1   -1    0    0  501    0  0.00000000000E+00  0.00000000000E+00 -0.21564876780E+04  0.21564876780E+04  0.50400001928E-02 0. -1.
    10030    2    1    2    0    0  0.00000000000E+00  0.00000000000E+00 -0.11159130430E+04  0.31970623131E+04  0.29959882366E+04 0.  0.
        5    1    3    3  502    0  0.12715842815E+03  0.67351999219E+03  0.86341661808E+03  0.11024104463E+04  0.46999998093E+01 0.  1.
       -5    1    3    3    0  502 -0.12715842815E+03 -0.67351999219E+03 -0.19793296611E+04  0.20946518668E+04  0.46999998093E+01 0. -1.
</event>
<event>
 5   0  0.1734885E-06  0.3144347E+04  0.7818609E-02  0.8203672E-01
        1   -1    0    0  501    0  0.00000000000E+00  0.00000000000E+00  0.18552966457E+04  0.18552966457E+04  0.50400001928E-02 0. -1.
       -1   -1    0    0    0  501  0.00000000000E+00  0.00000000000E+00 -0.13322554196E+04  0.13322554196E+04  0.50400001928E-02 0.  1.
    10030    2    1    2    0    0  0.00000000000E+00  0.00000000000E+00  0.52304122613E+03  0.31875520653E+04  0.31443466801E+04 0.  0.
        2    1    3    3  502    0  0.28447192281E+03  0.13616709245E+03  0.18228995105E+04  0.18499806424E+04  0.25500000920E-02 0. -1.
       -2    1    3    3    0  502 -0.28447192281E+03 -0.13616709245E+03 -0.12998582844E+04  0.13375714229E+04  0.25500000920E-02 0.  1.
</event>
<event>
 5   0  0.4768570E-06  0.3044431E+04  0.7818609E-02  0.8231156E-01
       -2   -1    0    0    0  501  0.00000000000E+00  0.00000000000E+00  0.12164761316E+04  0.12164761316E+04  0.25500000920E-02 0. -1.
        2   -1    0    0  501    0  0.00000000000E+00  0.00000000000E+00 -0.19047973467E+04  0.19047973467E+04  0.25500000920E-02 0.  1.
    10030    2    1    2    0    0  0.00000000000E+00  0.00000000000E+00 -0.68832121508E+03  0.31212734783E+04  0.30444313149E+04 0.  0.
        1    1    3    3  502    0  0.48354363466E+03 -0.36237843185E+03  0.10882463800E+04  0.12447540954E+04  0.50400001928E-02 0. -1.
       -1    1    3    3    0  502 -0.48354363466E+03  0.36237843185E+03 -0.17765675951E+04  0.18765193829E+04  0.50400001928E-02 0.  1.
</event>
<event>
 5   0  0.1700885E-06  0.2997104E+04  0.7818609E-02  0.8244558E-01
        1   -1    0    0  501    0  0.00000000000E+00  0.00000000000E+00  0.23685830411E+04  0.23685830411E+04  0.50400001928E-02 0. -1.
       -1   -1    0    0    0  501  0.00000000000E+00  0.00000000000E+00 -0.94810207074E+03  0.94810207075E+03  0.50400001928E-02 0.  1.
    10030    2    1    2    0    0  0.00000000000E+00  0.00000000000E+00  0.14204809704E+04  0.33166851119E+04  0.29971042598E+04 0.  0.
        1    1    3    3  502    0  0.54659798671E+03 -0.13110926937E+04  0.12385621789E+04  0.18846139344E+04  0.50400001928E-02 0. -1.
       -1    1    3    3    0  502 -0.54659798671E+03  0.13110926937E+04  0.18191879148E+03  0.14320711775E+04  0.50400001928E-02 0.  1.
</event>
<event>
 5   0  0.4768570E-06  0.3005124E+04  0.7818609E-02  0.8242269E-01
       -2   -1    0    0    0  501  0.00000000000E+00  0.00000000000E+00  0.76544462521E+03  0.76544462522E+03  0.25500000920E-02 0.  1.
        2   -1    0    0  501    0  0.00000000000E+00  0.00000000000E+00 -0.29495174759E+04  0.29495174759E+04  0.25500000920E-02 0. -1.
    10030    2    1    2    0    0  0.00000000000E+00  0.00000000000E+00 -0.21840728507E+04  0.37149621011E+04  0.30051238237E+04 0.  0.
        1    1    3    3  502    0 -0.84544190133E+03 -0.27063499853E+03 -0.25906958982E+04  0.27385617663E+04  0.50400001928E-02 0. -1.
       -1    1    3    3    0  502  0.84544190133E+03  0.27063499853E+03  0.40662304754E+03  0.97640033478E+03  0.50400001928E-02 0.  1.
</event>
<event>
 5   0  0.4768570E-06  0.2918781E+04  0.7818609E-02  0.8267311E-01
       -2   -1    0    0    0  501  0.00000000000E+00  0.00000000000E+00  0.12360399926E+04  0.12360399926E+04  0.25500000920E-02 0. -1.
        2   -1    0    0  501    0  0.00000000000E+00  0.00000000000E+00 -0.17231005600E+04  0.17231005600E+04  0.25500000920E-02 0.  1.
    10030    2    1    2    0    0  0.00000000000E+00  0.00000000000E+00 -0.48706056739E+03  0.29591405526E+04  0.29187813919E+04 0.  0.
        1    1    3    3  502    0 -0.98119498149E+03  0.84476622397E+03  0.43916609168E+03  0.13672016753E+04  0.50400001928E-02 0. -1.
       -1    1    3    3    0  502  0.98119498149E+03 -0.84476622397E+03 -0.92622665907E+03  0.15919388772E+04  0.50400001928E-02 0.  1.
</event>
<event>
 5   0  0.1686012E-06  0.2997459E+04  0.7818609E-02  0.8244457E-01
        1   -1    0    0  501    0  0.00000000000E+00  0.00000000000E+00  0.19627536988E+04  0.19627536988E+04  0.50400001928E-02 0. -1.
       -1   -1    0    0    0  501  0.00000000000E+00  0.00000000000E+00 -0.11444075844E+04  0.11444075845E+04  0.50400001928E-02 0.  1.
    10030    2    1    2    0    0  0.00000000000E+00  0.00000000000E+00  0.81834611432E+03  0.31071612832E+04  0.29974590701E+04 0.  0.
        4    1    3    3  502    0  0.33283453755E+03  0.11211997858E+04 -0.56231423324E+03  0.12977159546E+04  0.12699999809E+01 0.  1.
       -4    1    3    3    0  502 -0.33283453755E+03 -0.11211997858E+04  0.13806603476E+04  0.18094453286E+04  0.12699999809E+01 0. -1.
</event>
<event>
 5   0  0.1672907E-06  0.3004647E+04  0.7818609E-02  0.8242405E-01
        1   -1    0    0  501    0  0.00000000000E+00  0.00000000000E+00  0.13116463680E+04  0.13116463680E+04  0.50400001928E-02 0. -1.
       -1   -1    0    0    0  501  0.00000000000E+00  0.00000000000E+00 -0.17207200122E+04  0.17207200122E+04  0.50400001928E-02 0.  1.
    10030    2    1    2    0    0  0.00000000000E+00  0.00000000000E+00 -0.40907364416E+03  0.30323663802E+04  0.30046471702E+04 0.  0.
        5    1    3    3  502    0  0.13303668664E+04  0.38001977264E+03  0.38623778795E+03  0.14364862497E+04  0.46999998093E+01 0. -1.
       -5    1    3    3    0  502 -0.13303668664E+04 -0.38001977264E+03 -0.79531143211E+03  0.15958801305E+04  0.46999998093E+01 0.  1.
</event>
<event>
 5   0  0.4532420E-06  0.2979221E+04  0.7818609E-02  0.8249689E-01
       -2   -1    0    0    0  501  0.00000000000E+00  0.00000000000E+00  0.84450994799E+03  0.84450994799E+03  0.25500000920E-02 0. -1.
        2   -1    0    0  501    0  0.00000000000E+00  0.00000000000E+00 -0.26274874432E+04  0.26274874432E+04  0.25500000920E-02 0.  1.
    10030    2    1    2    0    0  0.00000000000E+00  0.00000000000E+00 -0.17829774952E+04  0.34719973912E+04  0.29792208941E+04 0.  0.
        4    1    3    3  502    0 -0.17460400146E+03 -0.74608808663E+03  0.59722308155E+03  0.97149936303E+03  0.12699999809E+01 0. -1.
       -4    1    3    3    0  502  0.17460400146E+03  0.74608808663E+03 -0.23802005768E+04  0.25004980282E+04  0.12699999809E+01 0.  1.
</event>
<event>
 5   0  0.1686012E-06  0.2997451E+04  0.7818609E-02  0.8244459E-01
        1   -1    0    0  501    0  0.00000000000E+00  0.00000000000E+00  0.21918571219E+04  0.21918571219E+04  0.50400001928E-02 0. -1.
       -1   -1    0    0    0  501  0.00000000000E+00  0.00000000000E+00 -0.10247832391E+04  0.10247832391E+04  0.50400001928E-02 0.  1.
    10030    2    1    2    0    0  0.00000000000E+00  0.00000000000E+00  0.11670738828E+04  0.32166403610E+04  0.29974512113E+04 0.  0.
        4    1    3    3  502    0  0.15003227773E+03  0.81482197717E+03  0.19237548458E+04  0.20945832183E+04  0.12699999809E+01 0. -1.
       -4    1    3    3    0  502 -0.15003227773E+03 -0.81482197717E+03 -0.75668096298E+03  0.11220571427E+04  0.12699999809E+01 0.  1.
</event>
<event>
 5   0  0.1700885E-06  0.3000772E+04  0.7818609E-02  0.8243511E-01
       -1   -1    0    0    0  501  0.00000000000E+00  0.00000000000E+00  0.14534989472E+04  0.14534989472E+04  0.50400001928E-02 0.  1.
        1   -1    0    0  501    0  0.00000000000E+00  0.00000000000E+00 -0.15487850667E+04  0.15487850667E+04  0.50400001928E-02 0. -1.
    10030    2    1    2    0    0  0.00000000000E+00  0.00000000000E+00 -0.95286119561E+02  0.30022840139E+04  0.30007715434E+04 0.  0.
        1    1    3    3  502    0 -0.22050837629E+03 -0.72310219397E+03 -0.13443120033E+04  0.15422955259E+04  0.50400001928E-02 0. -1.
       -1    1    3    3    0  502  0.22050837629E+03  0.72310219397E+03  0.12490258837E+04  0.14599884880E+04  0.50400001928E-02 0.  1.
</event>
<event>
 5   0  0.1672907E-06  0.2992917E+04  0.7818609E-02  0.8245756E-01
       -1   -1    0    0    0  501  0.00000000000E+00  0.00000000000E+00  0.11622811099E+04  0.11622811099E+04  0.50400001928E-02 0. -1.
        1   -1    0    0  501    0  0.00000000000E+00  0.00000000000E+00 -0.19267175988E+04  0.19267175989E+04  0.50400001928E-02 0.  1.
    10030    2    1    2    0    0  0.00000000000E+00  0.00000000000E+00 -0.76443648893E+03  0.30889987088E+04  0.29929166172E+04 0.  0.
        5    1    3    3  502    0 -0.51398875448E+03 -0.93043696238E+02 -0.18295654061E+04  0.19026752835E+04  0.46999998093E+01 0.  1.
       -5    1    3    3    0  502  0.51398875448E+03  0.93043696238E+02  0.10651289172E+04  0.11863234253E+04  0.46999998093E+01 0. -1.
</event>
<event>
 5   0  0.4532420E-06  0.2973570E+04  0.7818609E-02  0.8251319E-01
       -2   -1    0    0    0  501  0.00000000000E+00  0.00000000000E+00  0.96352382147E+03  0.96352382147E+03  0.25500000920E-02 0.  1.
        2   -1    0    0  501    0  0.00000000000E+00  0.00000000000E+00 -0.22942135773E+04  0.22942135773E+04  0.25500000920E-02 0. -1.
    10030    2    1    2    0    0  0.00000000000E+00  0.00000000000E+00 -0.13306897558E+04  0.32577373988E+04  0.29735698635E+04 0.  0.
        4    1    3    3  502    0 -0.82036259849E+03  0.10197533290E+04  0.10750278635E+03  0.13131831963E+04  0.12699999809E+01 0.  1.
       -4    1    3    3    0  502  0.82036259849E+03 -0.10197533290E+04 -0.14381925422E+04  0.19445542025E+04  0.12699999809E+01 0. -1.
</event>
<event>
 5   0  0.4702748E-06  0.3014768E+04  0.7818609E-02  0.8239526E-01
       -2   -1    0    0    0  501  0.00000000000E+00  0.00000000000E+00  0.20031492100E+04  0.20031492100E+04  0.25500000920E-02 0. -1.
        2   -1    0    0  501    0  0.00000000000E+00  0.00000000000E+00 -0.11343174033E+04  0.11343174033E+04  0.25500000920E-02 0.  1.
    10030    2    1    2    0    0  0.00000000000E+00  0.00000000000E+00  0.86883180678E+03  0.31374666133E+04  0.30147683230E+04 0.  0.
        2    1    3    3  502    0 -0.14286365063E+04 -0.65528002298E+02  0.93015454917E+03  0.17060139717E+04  0.25500000920E-02 0. -1.
       -2    1    3    3    0  502  0.14286365063E+04  0.65528002298E+02 -0.61322742386E+02  0.14314526416E+04  0.25500000920E-02 0.  1.
</event>
<event>
 5   0  0.1672907E-06  0.3021839E+04  0.7818609E-02  0.8237522E-01
        1   -1    0    0  501    0  0.00000000000E+00  0.00000000000E+00  0.12645258365E+04  0.12645258365E+04  0.50400001928E-02 0. -1.
       -1   -1    0    0    0  501  0.00000000000E+00  0.00000000000E+00 -0.18053229870E+04  0.18053229871E+04  0.50400001928E-02 0.  1.
    10030    2    1    2    0    0  0.00000000000E+00  0.00000000000E+00 -0.54079715055E+03  0.30698488236E+04  0.30218388841E+04 0.  0.
        5    1    3    3  502    0  0.10005012871E+04 -0.91641197159E+03  0.40502672593E+03  0.14159387225E+04  0.46999998093E+01 0. -1.
       -5    1    3    3    0  502 -0.10005012871E+04  0.91641197159E+03 -0.94582387648E+03  0.16539101011E+04  0.46999998093E+01 0.  1.
</event>
<event>
 5   0  0.1700885E-06  0.2995881E+04  0.7818609E-02  0.8244908E-01
        1   -1    0    0  501    0  0.00000000000E+00  0.00000000000E+00  0.16614908285E+04  0.16614908285E+04  0.50400001928E-02 0. -1.
       -1   -1    0    0    0  501  0.00000000000E+00  0.00000000000E+00 -0.13504892389E+04  0.13504892390E+04  0.50400001928E-02 0.  1.
    10030    2    1    2    0    0  0.00000000000E+00  0.00000000000E+00  0.31100158958E+03  0.30119800675E+04  0.29958808284E+04 0.  0.
        1    1    3    3  502    0 -0.34827890268E+03 -0.41583714648E+03 -0.12482857341E+04  0.13610422479E+04  0.50400001928E-02 0.  1.
       -1    1    3    3    0  502  0.34827890268E+03  0.41583714648E+03  0.15592873237E+04  0.16509378196E+04  0.50400001928E-02 0. -1.
</event>
<event>
 5   0  0.5003556E-06  0.3019007E+04  0.7818609E-02  0.8238324E-01
       -2   -1    0    0    0  501  0.00000000000E+00  0.00000000000E+00  0.11598777917E+04  0.11598777917E+04  0.25500000920E-02 0. -1.
        2   -1    0    0  501    0  0.00000000000E+00  0.00000000000E+00 -0.19645186546E+04  0.19645186546E+04  0.25500000920E-02 0.  1.
    10030    2    1    2    0    0  0.00000000000E+00  0.00000000000E+00 -0.80464086293E+03  0.31243964463E+04  0.30190074918E+04 0.  0.
        3    1    3    3  502    0 -0.11722678147E+04 -0.57931324036E+03  0.37818575748E+03  0.13611907057E+04  0.10100000352E+00 0. -1.
       -3    1    3    3    0  502  0.11722678147E+04  0.57931324036E+03 -0.11828266204E+04  0.17632057407E+04  0.10100000352E+00 0.  1.
</event>
<event>
 5   0  0.4532420E-06  0.2981072E+04  0.7818609E-02  0.8249157E-01
        2   -1    0    0  501    0  0.00000000000E+00  0.00000000000E+00  0.16529859668E+04  0.16529859668E+04  0.25500000920E-02 0. -1.
       -2   -1    0    0    0  501  0.00000000000E+00  0.00000000000E+00 -0.13440508404E+04  0.13440508404E+04  0.25500000920E-02 0.  1.
    10030    2    1    2    0    0  0.00000000000E+00  0.00000000000E+00  0.30893512640E+03  0.29970368073E+04  0.29810717388E+04 0.  0.
        4    1    3    3  502    0  0.12636167538E+04 -0.54735622658E+03 -0.41899889285E+03  0.14394053718E+04  0.12699999809E+01 0. -1.
       -4    1    3    3    0  502 -0.12636167538E+04  0.54735622658E+03  0.72793401925E+03  0.15576314354E+04  0.12699999809E+01 0.  1.
</event>
<event>
 5   0  0.4532420E-06  0.3004710E+04  0.7818609E-02  0.8242387E-01
        2   -1    0    0  501    0  0.00000000000E+00  0.00000000000E+00  0.12081104049E+04  0.12081104049E+04  0.25500000920E-02 0. -1.
       -2   -1    0    0    0  501  0.00000000000E+00  0.00000000000E+00 -0.18682645242E+04  0.18682645242E+04  0.25500000920E-02 0.  1.
    10030    2    1    2    0    0  0.00000000000E+00  0.00000000000E+00 -0.66015411935E+03  0.30763749291E+04  0.30047095106E+04 0.  0.
        4    1    3    3  502    0  0.11999819239E+03 -0.12653153336E+04  0.49005620793E+03  0.13621964467E+04  0.12699999809E+01 0. -1.
       -4    1    3    3    0  502 -0.11999819239E+03  0.12653153336E+04 -0.11502103273E+04  0.17141784824E+04  0.12699999809E+01 0.  1.
</event>
<event>
 5   0  0.1709858E-06  0.3065306E+04  0.7818609E-02  0.8225324E-01
       -1   -1    0    0    0  501  0.00000000000E+00  0.00000000000E+00  0.14073654735E+04  0.14073654735E+04  0.50400001928E-02 0.  1.
        1   -1    0    0  501    0  0.00000000000E+00  0.00000000000E+00 -0.16690940676E+04  0.16690940676E+04  0.50400001928E-02 0. -1.
    10030    2    1    2    0    0  0.00000000000E+00  0.00000000000E+00 -0.26172859410E+03  0.30764595412E+04  0.30653060943E+04 0.  0.
        3    1    3    3  502    0  0.72966691156E+03  0.33280545270E+03  0.11799707497E+04  0.14267109909E+04  0.10100000352E+00 0.  1.
       -3    1    3    3    0  502 -0.72966691156E+03 -0.33280545270E+03 -0.14416993438E+04  0.16497485503E+04  0.10100000352E+00 0. -1.
</event>
<event>
 5   0  0.1672907E-06  0.3085916E+04  0.7818609E-02  0.8219614E-01
       -1   -1    0    0    0  501  0.00000000000E+00  0.00000000000E+00  0.12534087707E+04  0.12534087707E+04  0.50400001928E-02 0. -1.
        1   -1    0    0  501    0  0.00000000000E+00  0.00000000000E+00 -0.18993953352E+04  0.18993953352E+04  0.50400001928E-02 0.  1.
    10030    2    1    2    0    0  0.00000000000E+00  0.00000000000E+00 -0.64598656458E+03  0.31528041059E+04  0.30859155997E+04 0.  0.
        5    1    3    3  502    0 -0.47396482893E+03 -0.13595202624E+04 -0.88977795623E+03  0.16925320985E+04  0.46999998093E+01 0.  1.
       -5    1    3    3    0  502  0.47396482893E+03  0.13595202624E+04  0.24379139165E+03  0.14602720074E+04  0.46999998093E+01 0. -1.
</event>
<event>
 5   0  0.1709858E-06  0.3003103E+04  0.7818609E-02  0.8242845E-01
       -1   -1    0    0    0  501  0.00000000000E+00  0.00000000000E+00  0.16037165793E+04  0.16037165793E+04  0.50400001928E-02 0. -1.
        1   -1    0    0  501    0  0.00000000000E+00  0.00000000000E+00 -0.14058948792E+04  0.14058948792E+04  0.50400001928E-02 0.  1.
    10030    2    1    2    0    0  0.00000000000E+00  0.00000000000E+00  0.19782170006E+03  0.30096114585E+04  0.30031030129E+04 0.  0.
        3    1    3    3  502    0  0.25984473085E+03 -0.12999442542E+04  0.80562179902E+03  0.15512578256E+04  0.10100000352E+00 0. -1.
       -3    1    3    3    0  502 -0.25984473085E+03  0.12999442542E+04 -0.60780009896E+03  0.14583536329E+04  0.10100000352E+00 0.  1.
</event>
<event>
 5   0  0.1734885E-06  0.3028811E+04  0.7818609E-02  0.8235551E-01
       -1   -1    0    0    0  501  0.00000000000E+00  0.00000000000E+00  0.10790015647E+04  0.10790015647E+04  0.50400001928E-02 0. -1.
        1   -1    0    0  501    0  0.00000000000E+00  0.00000000000E+00 -0.21255058204E+04  0.21255058204E+04  0.50400001928E-02 0.  1.
    10030    2    1    2    0    0  0.00000000000E+00  0.00000000000E+00 -0.10465042558E+04  0.32045073851E+04  0.30288110578E+04 0.  0.
        2    1    3    3  502    0 -0.91098266023E+03  0.28694453839E+03 -0.17666696732E+04  0.20083197728E+04  0.25500000920E-02 0.  1.
       -2    1    3    3    0  502  0.91098266023E+03 -0.28694453839E+03  0.72016541749E+03  0.11961876123E+04  0.25500000920E-02 0. -1.
</event>
<event>
 5   0  0.5003556E-06  0.3000325E+04  0.7818609E-02  0.8243638E-01
       -2   -1    0    0    0  501  0.00000000000E+00  0.00000000000E+00  0.14808866910E+04  0.14808866910E+04  0.25500000920E-02 0.  1.
        2   -1    0    0  501    0  0.00000000000E+00  0.00000000000E+00 -0.15196887825E+04  0.15196887825E+04  0.25500000920E-02 0. -1.
    10030    2    1    2    0    0  0.00000000000E+00  0.00000000000E+00 -0.38802091528E+02  0.30005754735E+04  0.30003245774E+04 0.  0.
        3    1    3    3  502    0 -0.13490771913E+04  0.23644036302E+03 -0.63147638209E+03  0.15082028195E+04  0.10100000352E+00 0. -1.
       -3    1    3    3    0  502  0.13490771913E+04 -0.23644036302E+03  0.59267429056E+03  0.14923726540E+04  0.10100000352E+00 0.  1.
</event>
<event>
 5   0  0.5003556E-06  0.2986849E+04  0.7818609E-02  0.8247496E-01
       -2   -1    0    0    0  501  0.00000000000E+00  0.00000000000E+00  0.83684513951E+03  0.83684513951E+03  0.25500000920E-02 0.  1.
        2   -1    0    0  501    0  0.00000000000E+00  0.00000000000E+00 -0.26651479509E+04  0.26651479509E+04  0.25500000920E-02 0. -1.
    10030    2    1    2    0    0  0.00000000000E+00  0.00000000000E+00 -0.18283028114E+04  0.35019930905E+04  0.29868485792E+04 0.  0.
        3    1    3    3  502    0 -0.10216985504E+04 -0.10854939356E+04 -0.10200060296E+04  0.18062605910E+04  0.10100000352E+00 0.  1.
       -3    1    3    3    0  502  0.10216985504E+04  0.10854939356E+04 -0.80829678182E+03  0.16957324994E+04  0.10100000352E+00 0. -1.
</event>
<event>
 5   0  0.1709858E-06  0.3011871E+04  0.7818609E-02  0.8240349E-01
        1   -1    0    0  501    0  0.00000000000E+00  0.00000000000E+00  0.11196138054E+04  0.11196138054E+04  0.50400001928E-02 0.  1.
       -1   -1    0    0    0  501  0.00000000000E+00  0.00000000000E+00 -0.20255572647E+04  0.20255572647E+04  0.50400001928E-02 0. -1.
    10030    2    1    2    0    0  0.00000000000E+00  0.00000000000E+00 -0.90594345926E+03  0.31451710701E+04  0.30118710976E+04 0.  0.
        3    1    3    3  502    0  0.24247308894E+03  0.13962087818E+04 -0.98508220508E+03  0.17258560549E+04  0.10100000352E+00 0. -1.
       -3    1    3    3    0  502 -0.24247308894E+03 -0.13962087818E+04  0.79138745824E+02  0.14193150152E+04  0.10100000352E+00 0.  1.
</event>
<event>
 5   0  0.4702748E-06  0.2961004E+04  0.7818609E-02  0.8254955E-01
        2   -1    0    0  501    0  0.00000000000E+00  0.00000000000E+00  0.13870358954E+04  0.13870358954E+04  0.25500000920E-02 0.  1.
       -2   -1    0    0    0  501  0.00000000000E+00  0.00000000000E+00 -0.15802659660E+04  0.15802659660E+04  0.25500000920E-02 0. -1.
    10030    2    1    2    0    0  0.00000000000E+00  0.00000000000E+00 -0.19323007057E+03  0.29673018615E+04  0.29610036266E+04 0.  0.
        2    1    3    3  502    0 -0.92345424215E+03 -0.11492383382E+04 -0.23243606247E+03  0.14924955673E+04  0.25500000920E-02 0. -1.
       -2    1    3    3    0  502  0.92345424215E+03  0.11492383382E+04  0.39205991902E+02  0.14748062941E+04  0.25500000920E-02 0.  1.
</event>
<event>
 5   0  0.4768570E-06  0.2963321E+04  0.7818609E-02  0.8254283E-01
        2   -1    0    0  501    0  0.00000000000E+00  0.00000000000E+00  0.17012398581E+04  0.17012398581E+04  0.25500000920E-02 0. -1.
       -2   -1    0    0    0  501  0.00000000000E+00  0.00000000000E+00 -0.12904219968E+04  0.12904219968E+04  0.25500000920E-02 0.  1.
    10030    2    1    2    0    0  0.00000000000E+00  0.00000000000E+00  0.41081786123E+03  0.29916618549E+04  0.29633206608E+04 0.  0.
        1    1    3    3  502    0 -0.57881970355E+03  0.13401759894E+04  0.46123611888E+03  0.15309613611E+04  0.50400001928E-02 0. -1.
       -1    1    3    3    0  502  0.57881970355E+03 -0.13401759894E+04 -0.50418257648E+02  0.14607004938E+04  0.50400001928E-02 0.  1.
</event>
<event>
 5   0  0.4532420E-06  0.2984361E+04  0.7818609E-02  0.8248211E-01
       -2   -1    0    0    0  501  0.00000000000E+00  0.00000000000E+00  0.13159863602E+04  0.13159863602E+04  0.25500000920E-02 0. -1.
        2   -1    0    0  501    0  0.00000000000E+00  0.00000000000E+00 -0.16919650845E+04  0.16919650845E+04  0.25500000920E-02 0.  1.
    10030    2    1    2    0    0  0.00000000000E+00  0.00000000000E+00 -0.37597872434E+03  0.30079514448E+04  0.29843612202E+04 0.  0.
        4    1    3    3  502    0  0.17522696550E+03 -0.29280812762E+03 -0.16521109850E+04  0.16869835236E+04  0.12699999809E+01 0.  1.
       -4    1    3    3    0  502 -0.17522696550E+03  0.29280812762E+03  0.12761322607E+04  0.13209679212E+04  0.12699999809E+01 0. -1.
</event>
<event>
 5   0  0.1672907E-06  0.2963462E+04  0.7818609E-02  0.8254242E-01
        1   -1    0    0  501    0  0.00000000000E+00  0.00000000000E+00  0.22590596856E+04  0.22590596856E+04  0.50400001928E-02 0.  1.
       -1   -1    0    0    0  501  0.00000000000E+00  0.00000000000E+00 -0.97187646620E+03  0.97187646622E+03  0.50400001928E-02 0. -1.
    10030    2    1    2    0    0  0.00000000000E+00  0.00000000000E+00  0.12871832194E+04  0.32309361518E+04  0.29634621268E+04 0.  0.
        5    1    3    3  502    0 -0.68267779137E+03 -0.12847502377E+04  0.94978258571E+03  0.17374525002E+04  0.46999998093E+01 0. -1.
       -5    1    3    3    0  502  0.68267779137E+03  0.12847502377E+04  0.33740063369E+03  0.14934836517E+04  0.46999998093E+01 0.  1.
</event>
<event>
 5   0  0.4768570E-06  0.3061008E+04  0.7818609E-02  0.8226521E-01
        2   -1    0    0  501    0  0.00000000000E+00  0.00000000000E+00  0.23077086156E+04  0.23077086156E+04  0.25500000920E-02 0.  1.
       -2   -1    0    0    0  501  0.00000000000E+00  0.00000000000E+00 -0.10150512087E+04  0.10150512087E+04  0.25500000920E-02 0. -1.
    10030    2    1    2    0    0  0.00000000000E+00  0.00000000000E+00  0.12926574068E+04  0.33227598243E+04  0.30610079514E+04 0.  0.
        1    1    3    3  502    0 -0.95841920605E+03  0.33023894968E+03  0.18910358835E+04  0.21456099019E+04  0.50400001928E-02 0.  1.
       -1    1    3    3    0  502  0.95841920605E+03 -0.33023894968E+03 -0.59837847667E+03  0.11771499224E+04  0.50400001928E-02 0. -1.
</event>
<event>
 5   0  0.5003556E-06  0.2995216E+04  0.7818609E-02  0.8245098E-01
       -2   -1    0    0    0  501  0.00000000000E+00  0.00000000000E+00  0.13571117611E+04  0.13571117611E+04  0.25500000920E-02 0. -1.
        2   -1    0    0  501    0  0.00000000000E+00  0.00000000000E+00 -0.16526490632E+04  0.16526490632E+04  0.25500000920E-02 0.  1.
    10030    2    1    2    0    0  0.00000000000E+00  0.00000000000E+00 -0.29553730214E+03  0.30097608243E+04  0.29952158391E+04 0.  0.
        3    1    3    3  502    0 -0.81152890945E+03  0.89980343109E+03  0.73662120554E+03  0.14180395608E+04  0.10100000352E+00 0. -1.
       -3    1    3    3    0  502  0.81152890945E+03 -0.89980343109E+03 -0.10321585077E+04  0.15917212635E+04  0.10100000352E+00 0.  1.
</event>
<event>
 5   0  0.1686012E-06  0.2951284E+04  0.7818609E-02  0.8257781E-01
        1   -1    0    0  501    0  0.00000000000E+00  0.00000000000E+00  0.21791620855E+04  0.21791620855E+04  0.50400001928E-02 0. -1.
       -1   -1    0    0    0  501  0.00000000000E+00  0.00000000000E+00 -0.99924584794E+03  0.99924584795E+03  0.50400001928E-02 0.  1.
    10030    2    1    2    0    0  0.00000000000E+00  0.00000000000E+00  0.11799162376E+04  0.31784079335E+04  0.29512835621E+04 0.  0.
        4    1    3    3  502    0 -0.13633204932E+04 -0.20956934485E+03  0.25242904266E+02  0.13795654731E+04  0.12699999809E+01 0.  1.
       -4    1    3    3    0  502  0.13633204932E+04  0.20956934485E+03  0.11546733333E+04  0.17988424603E+04  0.12699999809E+01 0. -1.
</event>
<event>
 5   0  0.4935331E-06  0.3000556E+04  0.7818609E-02  0.8243572E-01
       -2   -1    0    0    0  501  0.00000000000E+00  0.00000000000E+00  0.92828771424E+03  0.92828771425E+03  0.25500000920E-02 0. -1.
        2   -1    0    0  501    0  0.00000000000E+00  0.00000000000E+00 -0.24247161934E+04  0.24247161934E+04  0.25500000920E-02 0.  1.
    10030    2    1    2    0    0  0.00000000000E+00  0.00000000000E+00 -0.14964284791E+04  0.33530039076E+04  0.30005561170E+04 0.  0.
        5    1    3    3  502    0  0.11583164002E+04 -0.75546878386E+03 -0.13982482183E+04  0.19666087908E+04  0.46999998093E+01 0.  1.
       -5    1    3    3    0  502 -0.11583164002E+04  0.75546878386E+03 -0.98180260852E+02  0.13863951168E+04  0.46999998093E+01 0. -1.
</event>
<event>
 5   0  0.4702748E-06  0.3021363E+04  0.7818609E-02  0.8237657E-01
        2   -1    0    0  501    0  0.00000000000E+00  0.00000000000E+00  0.10972463733E+04  0.10972463733E+04  0.25500000920E-02 0.  1.
       -2   -1    0    0    0  501  0.00000000000E+00  0.00000000000E+00 -0.20798968183E+04  0.20798968183E+04  0.25500000920E-02 0. -1.
    10030    2    1    2    0    0  0.00000000000E+00  0.00000000000E+00 -0.98265044498E+03  0.31771431916E+04  0.30213634278E+04 0.  0.
        2    1    3    3  502    0  0.10356359151E+04 -0.97071802589E+03 -0.10350170452E+04  0.17567286411E+04  0.25500000920E-02 0. -1.
       -2    1    3    3    0  502 -0.10356359151E+04  0.97071802589E+03  0.52366600191E+02  0.14204145505E+04  0.25500000920E-02 0.  1.
</event>
<event>
 5   0  0.4702748E-06  0.3006000E+04  0.7818609E-02  0.8242020E-01
        2   -1    0    0  501    0  0.00000000000E+00  0.00000000000E+00  0.12465342117E+04  0.12465342117E+04  0.25500000920E-02 0. -1.
       -2   -1    0    0    0  501  0.00000000000E+00  0.00000000000E+00 -0.18122319405E+04  0.18122319405E+04  0.25500000920E-02 0.  1.
    10030    2    1    2    0    0  0.00000000000E+00  0.00000000000E+00 -0.56569772877E+03  0.30587661521E+04  0.30060000754E+04 0.  0.
        2    1    3    3  502    0 -0.80008864311E+03  0.11551286282E+04  0.25994242067E+03  0.14289975671E+04  0.25500000920E-02 0. -1.
       -2    1    3    3    0  502  0.80008864311E+03 -0.11551286282E+04 -0.82564014944E+03  0.16297685851E+04  0.25500000920E-02 0.  1.
</event>
<event>
 5   0  0.1709858E-06  0.2952500E+04  0.7818609E-02  0.8257426E-01
       -1   -1    0    0    0  501  0.00000000000E+00  0.00000000000E+00  0.59561768754E+03  0.59561768756E+03  0.50400001928E-02 0. -1.
        1   -1    0    0  501    0  0.00000000000E+00  0.00000000000E+00 -0.36589141182E+04  0.36589141182E+04  0.50400001928E-02 0.  1.
    10030    2    1    2    0    0  0.00000000000E+00  0.00000000000E+00 -0.30632964307E+04  0.42545318058E+04  0.29524999347E+04 0.  0.
        3    1    3    3  502    0  0.56675215562E+03 -0.97768851082E+03 -0.29003876529E+04  0.31127690852E+04  0.10100000352E+00 0.  1.
       -3    1    3    3    0  502 -0.56675215562E+03  0.97768851082E+03 -0.16290877773E+03  0.11417627206E+04  0.10100000352E+00 0. -1.
</event>
<event>
 5   0  0.1734885E-06  0.2973782E+04  0.7818609E-02  0.8251257E-01
       -1   -1    0    0    0  501  0.00000000000E+00  0.00000000000E+00  0.13077891620E+04  0.13077891620E+04  0.50400001928E-02 0. -1.
        1   -1    0    0  501    0  0.00000000000E+00  0.00000000000E+00 -0.16905207744E+04  0.16905207744E+04  0.50400001928E-02 0.  1.
    10030    2    1    2    0    0  0.00000000000E+00  0.00000000000E+00 -0.38273161245E+03  0.29983099364E+04  0.29737819335E+04 0.  0.
        2    1    3    3  502    0 -0.10737595137E+04  0.96928781424E+03  0.15551606298E+03  0.14548758043E+04  0.25500000920E-02 0. -1.
       -2    1    3    3    0  502  0.10737595137E+04 -0.96928781424E+03 -0.53824767543E+03  0.15434341321E+04  0.25500000920E-02 0.  1.
</event>
<event>
 5   0  0.4768570E-06  0.2991411E+04  0.7818609E-02  0.8246188E-01
       -2   -1    0    0    0  501  0.00000000000E+00  0.00000000000E+00  0.11046426245E+04  0.11046426245E+04  0.25500000920E-02 0. -1.
        2   -1    0    0  501    0  0.00000000000E+00  0.00000000000E+00 -0.20252111936E+04  0.20252111937E+04  0.25500000920E-02 0.  1.
    10030    2    1    2    0    0  0.00000000000E+00  0.00000000000E+00 -0.92056856916E+03  0.31298538181E+04  0.29914107763E+04 0.  0.
        1    1    3    3  502    0  0.65342948651E+03  0.13035163916E+04 -0.11168368153E+03  0.14623947216E+04  0.50400001928E-02 0. -1.
       -1    1    3    3    0  502 -0.65342948651E+03 -0.13035163916E+04 -0.80888488764E+03  0.16674590965E+04  0.50400001928E-02 0.  1.
</event>
<event>
 5   0  0.1734885E-06  0.2980089E+04  0.7818609E-02  0.8249440E-01
        1   -1    0    0  501    0  0.00000000000E+00  0.00000000000E+00  0.20084958228E+04  0.20084958229E+04  0.50400001928E-02 0.  1.
       -1   -1    0    0    0  501  0.00000000000E+00  0.00000000000E+00 -0.11054202803E+04  0.11054202803E+04  0.50400001928E-02 0. -1.
    10030    2    1    2    0    0  0.00000000000E+00  0.00000000000E+00  0.90307554258E+03  0.31139161031E+04  0.29800885996E+04 0.  0.
        2    1    3    3  502    0 -0.16303534482E+03 -0.47042258792E+03 -0.10159354090E+04  0.11313720388E+04  0.25500000920E-02 0. -1.
       -2    1    3    3    0  502  0.16303534482E+03  0.47042258792E+03  0.19190109516E+04  0.19825440644E+04  0.25500000920E-02 0.  1.
</event>
<event>
 5   0  0.1672907E-06  0.3150793E+04  0.7818609E-02  0.8201935E-01
        1   -1    0    0  501    0  0.00000000000E+00  0.00000000000E+00  0.18681057072E+04  0.18681057072E+04  0.50400001928E-02 0. -1.
       -1   -1    0    0    0  501  0.00000000000E+00  0.00000000000E+00 -0.13285511884E+04  0.13285511884E+04  0.50400001928E-02 0.  1.
    10030    2    1    2    0    0  0.00000000000E+00  0.00000000000E+00  0.53955451885E+03  0.31966568956E+04  0.31507929525E+04 0.  0.
        5    1    3    3  502    0 -0.10306722834E+04  0.96484950487E+03  0.97897465479E+03  0.17180318354E+04  0.46999998093E+01 0. -1.
       -5    1    3    3    0  502  0.10306722834E+04 -0.96484950487E+03 -0.43942013595E+03  0.14786250602E+04  0.46999998093E+01 0.  1.
</event>
<event>
 5   0  0.4935331E-06  0.2923074E+04  0.7818609E-02  0.8266045E-01
       -2   -1    0    0    0  501  0.00000000000E+00  0.00000000000E+00  0.97917245203E+03  0.97917245203E+03  0.25500000920E-02 0. -1.
        2   -1    0    0  501    0  0.00000000000E+00  0.00000000000E+00 -0.21815261089E+04  0.21815261089E+04  0.25500000920E-02 0.  1.
    10030    2    1    2    0    0  0.00000000000E+00  0.00000000000E+00 -0.12023536569E+04  0.31606985609E+04  0.29230739089E+04 0.  0.
        5    1    3    3  502    0 -0.98396597901E+03  0.10799529248E+04 -0.64416840144E+03  0.15967036003E+04  0.46999998093E+01 0.  1.
       -5    1    3    3    0  502  0.98396597901E+03 -0.10799529248E+04 -0.55818525544E+03  0.15639949607E+04  0.46999998093E+01 0. -1.
</event>
<event>
 5   0  0.1734885E-06  0.3345227E+04  0.7818609E-02  0.8151482E-01
       -1   -1    0    0    0  501  0.00000000000E+00  0.00000000000E+00  0.24566989505E+04  0.24566989505E+04  0.50400001928E-02 0. -1.
        1   -1    0    0  501    0  0.00000000000E+00  0.00000000000E+00 -0.11387785679E+04  0.11387785679E+04  0.50400001928E-02 0.  1.
    10030    2    1    2    0    0  0.00000000000E+00  0.00000000000E+00  0.13179203827E+04  0.35954775184E+04  0.33452271149E+04 0.  0.
        2    1    3    3  502    0 -0.10440640456E+04  0.26037187341E+03 -0.71737057279E+03  0.12932454456E+04  0.25500000920E-02 0.  1.
       -2    1    3    3    0  502  0.10440640456E+04 -0.26037187341E+03  0.20352909555E+04  0.23022320728E+04  0.25500000920E-02 0. -1.
</event>
<event>
 5   0  0.1709858E-06  0.3017783E+04  0.7818609E-02  0.8238671E-01
        1   -1    0    0  501    0  0.00000000000E+00  0.00000000000E+00  0.24602631718E+04  0.24602631718E+04  0.50400001928E-02 0.  1.
       -1   -1    0    0    0  501  0.00000000000E+00  0.00000000000E+00 -0.92541033659E+03  0.92541033661E+03  0.50400001928E-02 0. -1.
    10030    2    1    2    0    0  0.00000000000E+00  0.00000000000E+00  0.15348528352E+04  0.33856735084E+04  0.30177826098E+04 0.  0.
        3    1    3    3  502    0  0.13401691652E+04  0.36776326320E+03  0.14268273631E+04  0.19917679442E+04  0.10100000352E+00 0.  1.
       -3    1    3    3    0  502 -0.13401691652E+04 -0.36776326320E+03  0.10802547210E+03  0.13939055642E+04  0.10100000352E+00 0. -1.
</event>
<event>
 5   0  0.1672907E-06  0.2997782E+04  0.7818609E-02  0.8244365E-01
        1   -1    0    0  501    0  0.00000000000E+00  0.00000000000E+00  0.11489553771E+04  0.11489553771E+04  0.50400001928E-02 0. -1.
       -1   -1    0    0    0  501  0.00000000000E+00  0.00000000000E+00 -0.19554056909E+04  0.19554056909E+04  0.50400001928E-02 0.  1.
    10030    2    1    2    0    0  0.00000000000E+00  0.00000000000E+00 -0.80645031373E+03  0.31043610680E+04  0.29977817686E+04 0.  0.
        5    1    3    3  502    0  0.10289014435E+04  0.49006868792E+03  0.60496202690E+03  0.12902738637E+04  0.46999998093E+01 0. -1.
       -5    1    3    3    0  502 -0.10289014435E+04 -0.49006868792E+03 -0.14114123406E+04  0.18140872043E+04  0.46999998093E+01 0.  1.
</event>
<event>
 5   0  0.4702748E-06  0.2992950E+04  0.7818609E-02  0.8245747E-01
        2   -1    0    0  501    0  0.00000000000E+00  0.00000000000E+00  0.16982128383E+04  0.16982128383E+04  0.25500000920E-02 0.  1.
       -2   -1    0    0    0  501  0.00000000000E+00  0.00000000000E+00 -0.13187023695E+04  0.13187023695E+04  0.25500000920E-02 0. -1.
    10030    2    1    2    0    0  0.00000000000E+00  0.00000000000E+00  0.37951046879E+03  0.30169152078E+04  0.29929499119E+04 0.  0.
        2    1    3    3  502    0 -0.59313547776E+03 -0.13500041196E+02  0.15745992162E+04  0.16826629602E+04  0.25500000920E-02 0.  1.
       -2    1    3    3    0  502  0.59313547776E+03  0.13500041196E+02 -0.11950887474E+04  0.13342522476E+04  0.25500000920E-02 0. -1.
</event>
<event>
 5   0  0.4768570E-06  0.3002214E+04  0.7818609E-02  0.8243099E-01
       -2   -1    0    0    0  501  0.00000000000E+00  0.00000000000E+00  0.12633590756E+04  0.12633590756E+04  0.25500000920E-02 0.  1.
        2   -1    0    0  501    0  0.00000000000E+00  0.00000000000E+00 -0.17835955661E+04  0.17835955661E+04  0.25500000920E-02 0. -1.
    10030    2    1    2    0    0  0.00000000000E+00  0.00000000000E+00 -0.52023649044E+03  0.30469546417E+04  0.30022136137E+04 0.  0.
        1    1    3    3  502    0 -0.59410576386E+03 -0.14456023257E+03  0.11312471941E+04  0.12859158346E+04  0.50400001928E-02 0.  1.
       -1    1    3    3    0  502  0.59410576386E+03  0.14456023257E+03 -0.16514836846E+04  0.17610388071E+04  0.50400001928E-02 0. -1.
</event>
<event>
 5   0  0.1709858E-06  0.3080890E+04  0.7818609E-02  0.8221002E-01
       -1   -1    0    0    0  501  0.00000000000E+00  0.00000000000E+00  0.21036825274E+04  0.21036825274E+04  0.50400001928E-02 0.  1.
        1   -1    0    0  501    0  0.00000000000E+00  0.00000000000E+00 -0.11280082124E+04  0.11280082124E+04  0.50400001928E-02 0. -1.
    10030    2    1    2    0    0  0.00000000000E+00  0.00000000000E+00  0.97567431494E+03  0.32316907398E+04  0.30808902397E+04 0.  0.
        3    1    3    3  502    0  0.13518236169E+04 -0.22068142963E+03  0.12272099967E+04  0.18390681800E+04  0.10100000352E+00 0.  1.
       -3    1    3    3    0  502 -0.13518236169E+04  0.22068142963E+03 -0.25153568175E+03  0.13926225598E+04  0.10100000352E+00 0. -1.
</event>
<event>
 5   0  0.4768570E-06  0.3089472E+04  0.7818609E-02  0.8218633E-01
       -2   -1    0    0    0  501  0.00000000000E+00  0.00000000000E+00  0.13146005577E+04  0.13146005577E+04  0.25500000920E-02 0.  1.
        2   -1    0    0  501    0  0.00000000000E+00  0.00000000000E+00 -0.18151587323E+04  0.18151587323E+04  0.25500000920E-02 0. -1.
    10030    2    1    2    0    0  0.00000000000E+00  0.00000000000E+00 -0.50055817465E+03  0.31297592900E+04  0.30894715935E+04 0.  0.
        1    1    3    3  502    0  0.54317706048E+03 -0.69182449749E+03 -0.15366991885E+04  0.17706232943E+04  0.50400001928E-02 0. -1.
       -1    1    3    3    0  502 -0.54317706048E+03  0.69182449749E+03  0.10361410138E+04  0.13591359957E+04  0.50400001928E-02 0.  1.
</event>
<event>
 5   0  0.4768570E-06  0.3022839E+04  0.7818609E-02  0.8237239E-01
        2   -1    0    0  501    0  0.00000000000E+00  0.00000000000E+00  0.14036131335E+04  0.14036131335E+04  0.25500000920E-02 0. -1.
       -2   -1    0    0    0  501  0.00000000000E+00  0.00000000000E+00 -0.16275058062E+04  0.16275058062E+04  0.25500000920E-02 0.  1.
    10030    2    1    2    0    0  0.00000000000E+00  0.00000000000E+00 -0.22389267276E+03  0.30311189397E+04  0.30228387482E+04 0.  0.
        1    1    3    3  502    0  0.52914009346E+03 -0.93929040929E+03  0.95026303490E+03  0.14370996997E+04  0.50400001928E-02 0. -1.
       -1    1    3    3    0  502 -0.52914009346E+03  0.93929040929E+03 -0.11741557077E+04  0.15940192400E+04  0.50400001928E-02 0.  1.
</event>
<event>
 5   0  0.4935331E-06  0.2889236E+04  0.7818609E-02  0.8276087E-01
        2   -1    0    0  501    0  0.00000000000E+00  0.00000000000E+00  0.13160257398E+04  0.13160257398E+04  0.25500000920E-02 0. -1.
       -2   -1    0    0    0  501  0.00000000000E+00  0.00000000000E+00 -0.15857758414E+04  0.15857758414E+04  0.25500000920E-02 0.  1.
    10030    2    1    2    0    0  0.00000000000E+00  0.00000000000E+00 -0.26975010158E+03  0.29018015812E+04  0.28892364562E+04 0.  0.
        5    1    3    3  502    0 -0.67948012685E+03  0.79367945086E+03 -0.11368506357E+04  0.15440439668E+04  0.46999998093E+01 0.  1.
       -5    1    3    3    0  502  0.67948012685E+03 -0.79367945086E+03  0.86710053407E+03  0.13577576145E+04  0.46999998093E+01 0. -1.
</event>
<event>
 5   0  0.5003556E-06  0.2702393E+04  0.7818609E-02  0.8334229E-01
       -2   -1    0    0    0  501  0.00000000000E+00  0.00000000000E+00  0.15175904763E+04  0.15175904763E+04  0.25500000920E-02 0.  1.
        2   -1    0    0  501    0  0.00000000000E+00  0.00000000000E+00 -0.12030468214E+04  0.12030468214E+04  0.25500000920E-02 0. -1.
    10030    2    1    2    0    0  0.00000000000E+00  0.00000000000E+00  0.31454365485E+03  0.27206372977E+04  0.27023933087E+04 0.  0.
        3    1    3    3  502    0  0.11357883700E+04 -0.58805052406E+03 -0.28146116409E+03  0.13095949898E+04  0.10100000352E+00 0. -1.
       -3    1    3    3    0  502 -0.11357883700E+04  0.58805052406E+03  0.59600481894E+03  0.14110423079E+04  0.10100000352E+00 0.  1.
</event>
<event>
 5   0  0.1700885E-06  0.3078557E+04  0.7818609E-02  0.8221647E-01
       -1   -1    0    0    0  501  0.00000000000E+00  0.00000000000E+00  0.11565111694E+04  0.11565111694E+04  0.50400001928E-02 0. -1.
        1   -1    0    0  501    0  0.00000000000E+00  0.00000000000E+00 -0.20487292505E+04  0.20487292505E+04  0.50400001928E-02 0.  1.
    10030    2    1    2    0    0  0.00000000000E+00  0.00000000000E+00 -0.89221808113E+03  0.32052404200E+04  0.30785569745E+04 0.  0.
        1    1    3    3  502    0 -0.94891709626E+03  0.38673512152E+02  0.81511848024E+03  0.12515420221E+04  0.50400001928E-02 0. -1.
       -1    1    3    3    0  502  0.94891709626E+03 -0.38673512152E+02 -0.17073365614E+04  0.19536983979E+04  0.50400001928E-02 0.  1.
</event>
<event>
 5   0  0.1700885E-06  0.2971769E+04  0.7818609E-02  0.8251839E-01
       -1   -1    0    0    0  501  0.00000000000E+00  0.00000000000E+00  0.15083617995E+04  0.15083617995E+04  0.50400001928E-02 0. -1.
        1   -1    0    0  501    0  0.00000000000E+00  0.00000000000E+00 -0.14637425051E+04  0.14637425051E+04  0.50400001928E-02 0.  1.
    10030    2    1    2    0    0  0.00000000000E+00  0.00000000000E+00  0.44619294373E+02  0.29721043046E+04  0.29717693578E+04 0.  0.
        1    1    3    3  502    0 -0.12849396449E+04  0.64557787126E+03  0.39653439699E+03  0.14916702742E+04  0.50400001928E-02 0. -1.
       -1    1    3    3    0  502  0.12849396449E+04 -0.64557787126E+03 -0.35191510261E+03  0.14804340304E+04  0.50400001928E-02 0.  1.
</event>
<event>
 5   0  0.1709858E-06  0.2836006E+04  0.7818609E-02  0.8292176E-01
        1   -1    0    0  501    0  0.00000000000E+00  0.00000000000E+00  0.86115313746E+03  0.86115313748E+03  0.50400001928E-02 0. -1.
       -1   -1    0    0    0  501  0.00000000000E+00  0.00000000000E+00 -0.23349308314E+04  0.23349308314E+04  0.50400001928E-02 0.  1.
    10030    2    1    2    0    0  0.00000000000E+00  0.00000000000E+00 -0.14737776939E+04  0.31960839689E+04  0.28360063549E+04 0.  0.
        3    1    3    3  502    0 -0.19096647613E+03 -0.14029283082E+04 -0.82459672972E+03  0.16384858284E+04  0.10100000352E+00 0. -1.
       -3    1    3    3    0  502  0.19096647613E+03  0.14029283082E+04 -0.64918096422E+03  0.15575981405E+04  0.10100000352E+00 0.  1.
</event>
<event>
 5   0  0.4935331E-06  0.2984021E+04  0.7818609E-02  0.8248308E-01
       -2   -1    0    0    0  501  0.00000000000E+00  0.00000000000E+00  0.95541327667E+03  0.95541327667E+03  0.25500000920E-02 0. -1.
        2   -1    0    0  501    0  0.00000000000E+00  0.00000000000E+00 -0.23299823462E+04  0.23299823462E+04  0.25500000920E-02 0.  1.
    10030    2    1    2    0    0  0.00000000000E+00  0.00000000000E+00 -0.13745690695E+04  0.32853956228E+04  0.29840214932E+04 0.  0.
        5    1    3    3  502    0 -0.21615001516E+02  0.85611598409E+03 -0.20324259622E+04  0.22054884195E+04  0.46999998093E+01 0.  1.
       -5    1    3    3    0  502  0.21615001516E+02 -0.85611598409E+03  0.65785689275E+03  0.10799072033E+04  0.46999998093E+01 0. -1.
</event>
<event>
 5   0  0.4768570E-06  0.2981478E+04  0.7818609E-02  0.8249040E-01
        2   -1    0    0  501    0  0.00000000000E+00  0.00000000000E+00  0.24949672521E+04  0.24949672521E+04  0.25500000920E-02 0.  1.
       -2   -1    0    0    0  501  0.00000000000E+00  0.00000000000E+00 -0.89071428177E+03  0.89071428177E+03  0.25500000920E-02 0. -1.
    10030    2    1    2    0    0  0.00000000000E+00  0.00000000000E+00  0.16042529703E+04  0.33856815339E+04  0.29814781327E+04 0.  0.
        1    1    3    3  502    0 -0.85587471705E+03  0.94743174270E+03  0.16759666504E+04  0.21068964502E+04  0.50400001928E-02 0.  1.
       -1    1    3    3    0  502  0.85587471705E+03 -0.94743174270E+03 -0.71713680101E+02  0.12787850837E+04  0.50400001928E-02 0. -1.
</event>
<event>
 5   0  0.1672907E-06  0.2786404E+04  0.7818609E-02  0.8307502E-01
        1   -1    0    0  501    0  0.00000000000E+00  0.00000000000E+00  0.89693567981E+03  0.89693567983E+03  0.50400001928E-02 0.  1.
       -1   -1    0    0    0  501  0.00000000000E+00  0.00000000000E+00 -0.21640482977E+04  0.21640482977E+04  0.50400001928E-02 0. -1.
    10030    2    1    2    0    0  0.00000000000E+00  0.00000000000E+00 -0.12671126179E+04  0.30609839775E+04  0.27864042284E+04 0.  0.
        5    1    3    3  502    0  0.13523319519E+04 -0.32620125018E+03 -0.71708224052E+03  0.15650680475E+04  0.46999998093E+01 0. -1.
       -5    1    3    3    0  502 -0.13523319519E+04  0.32620125018E+03 -0.55003037733E+03  0.14959159300E+04  0.46999998093E+01 0.  1.
</event>
<event>
 5   0  0.1672907E-06  0.2972815E+04  0.7818609E-02  0.8251536E-01
        1   -1    0    0  501    0  0.00000000000E+00  0.00000000000E+00  0.10037779313E+04  0.10037779313E+04  0.50400001928E-02 0.  1.
       -1   -1    0    0    0  501  0.00000000000E+00  0.00000000000E+00 -0.22010921901E+04  0.22010921901E+04  0.50400001928E-02 0. -1.
    10030    2    1    2    0    0  0.00000000000E+00  0.00000000000E+00 -0.11973142589E+04  0.32048701214E+04  0.29728153425E+04 0.  0.
        5    1    3    3  502    0  0.11835350315E+04  0.89515842071E+03 -0.50640963409E+03  0.15679721223E+04  0.46999998093E+01 0.  1.
       -5    1    3    3    0  502 -0.11835350315E+04 -0.89515842071E+03 -0.69090462479E+03  0.16368979991E+04  0.46999998093E+01 0. -1.
</event>
<event>
 5   0  0.4768570E-06  0.3000095E+04  0.7818609E-02  0.8243704E-01
        2   -1    0    0  501    0  0.00000000000E+00  0.00000000000E+00  0.18456755715E+04  0.18456755715E+04  0.25500000920E-02 0. -1.
       -2   -1    0    0    0  501  0.00000000000E+00  0.00000000000E+00 -0.12191431615E+04  0.12191431615E+04  0.25500000920E-02 0.  1.
    10030    2    1    2    0    0  0.00000000000E+00  0.00000000000E+00  0.62653241001E+03  0.30648187329E+04  0.30000951660E+04 0.  0.
        1    1    3    3  502    0  0.21237112115E+03  0.14085260323E+04 -0.16708610690E+03  0.14342122730E+04  0.50400001928E-02 0.  1.
       -1    1    3    3    0  502 -0.21237112115E+03 -0.14085260323E+04  0.79361851690E+03  0.16306064599E+04  0.50400001928E-02 0. -1.
</event>
<event>
 5   0  0.1709858E-06  0.2904542E+04  0.7818609E-02  0.8271527E-01
       -1   -1    0    0    0  501  0.00000000000E+00  0.00000000000E+00  0.10069246083E+04  0.10069246083E+04  0.50400001928E-02 0.  1.
        1   -1    0    0  501    0  0.00000000000E+00  0.00000000000E+00 -0.20945866671E+04  0.20945866671E+04  0.50400001928E-02 0. -1.
    10030    2    1    2    0    0  0.00000000000E+00  0.00000000000E+00 -0.10876620589E+04  0.31015112754E+04  0.29045418636E+04 0.  0.
        3    1    3    3  502    0 -0.12314978653E+04  0.40891747023E+03 -0.12401985278E+04  0.17949631997E+04  0.10100000352E+00 0. -1.
       -3    1    3    3    0  502  0.12314978653E+04 -0.40891747023E+03  0.15253646898E+03  0.13065480757E+04  0.10100000352E+00 0.  1.
</event>
<event>
 5   0  0.1734885E-06  0.3026173E+04  0.7818609E-02  0.8236296E-01
       -1   -1    0    0    0  501  0.00000000000E+00  0.00000000000E+00  0.16541940190E+04  0.16541940190E+04  0.50400001928E-02 0.  1.
        1   -1    0    0  501    0  0.00000000000E+00  0.00000000000E+00 -0.13840162337E+04  0.13840162337E+04  0.50400001928E-02 0. -1.
    10030    2    1    2    0    0  0.00000000000E+00  0.00000000000E+00  0.27017778533E+03  0.30382102528E+04  0.30261734095E+04 0.  0.
        2    1    3    3  502    0  0.58909102284E+03  0.36808452315E+03  0.14846517194E+04  0.16391171945E+04  0.25500000920E-02 0.  1.
       -2    1    3    3    0  502 -0.58909102284E+03 -0.36808452315E+03 -0.12144739340E+04  0.13990930583E+04  0.25500000920E-02 0. -1.
</event>
<event>
 5   0  0.1686012E-06  0.3026802E+04  0.7818609E-02  0.8236119E-01
       -1   -1    0    0    0  501  0.00000000000E+00  0.00000000000E+00  0.11284887368E+04  0.11284887368E+04  0.50400001928E-02 0.  1.
        1   -1    0    0  501    0  0.00000000000E+00  0.00000000000E+00 -0.20296016377E+04  0.20296016377E+04  0.50400001928E-02 0. -1.
    10030    2    1    2    0    0  0.00000000000E+00  0.00000000000E+00 -0.90111290093E+03  0.31580903745E+04  0.30268020010E+04 0.  0.
        4    1    3    3  502    0 -0.13891755285E+04 -0.37750686003E+03 -0.93778130970E+03  0.17180673666E+04  0.12699999809E+01 0. -1.
       -4    1    3    3    0  502  0.13891755285E+04  0.37750686003E+03  0.36668408774E+02  0.14400230079E+04  0.12699999809E+01 0.  1.
</event>
<event>
 5   0  0.1686012E-06  0.2956340E+04  0.7818609E-02  0.8256309E-01
        1   -1    0    0  501    0  0.00000000000E+00  0.00000000000E+00  0.22289570750E+04  0.22289570750E+04  0.50400001928E-02 0. -1.
       -1   -1    0    0    0  501  0.00000000000E+00  0.00000000000E+00 -0.98027295046E+03  0.98027295048E+03  0.50400001928E-02 0.  1.
    10030    2    1    2    0    0  0.00000000000E+00  0.00000000000E+00  0.12486841245E+04  0.32092300254E+04  0.29563398508E+04 0.  0.
        4    1    3    3  502    0 -0.89556415457E+02 -0.10689740057E+04 -0.47963774729E+03  0.11750658526E+04  0.12699999809E+01 0. -1.
       -4    1    3    3    0  502  0.89556415457E+02  0.10689740057E+04  0.17283218718E+04  0.20341641728E+04  0.12699999809E+01 0.  1.
</event>
<event>
 5   0  0.1700885E-06  0.2966986E+04  0.7818609E-02  0.8253221E-01
        1   -1    0    0  501    0  0.00000000000E+00  0.00000000000E+00  0.19361211303E+04  0.19361211303E+04  0.50400001928E-02 0. -1.
       -1   -1    0    0    0  501  0.00000000000E+00  0.00000000000E+00 -0.11366808930E+04  0.11366808930E+04  0.50400001928E-02 0.  1.
    10030    2    1    2    0    0  0.00000000000E+00  0.00000000000E+00  0.79944023722E+03  0.30728020233E+04  0.29669862793E+04 0.  0.
        1    1    3    3  502    0 -0.13699299308E+04  0.44393468601E+03  0.76875086069E+03  0.16324104590E+04  0.50400001928E-02 0.  1.
       -1    1    3    3    0  502  0.13699299308E+04 -0.44393468601E+03  0.30689376535E+02  0.14403915643E+04  0.50400001928E-02 0. -1.
</event>
<event>
 5   0  0.1709858E-06  0.3090103E+04  0.7818609E-02  0.8218459E-01
        1   -1    0    0  501    0  0.00000000000E+00  0.00000000000E+00  0.15395523811E+04  0.15395523811E+04  0.50400001928E-02 0. -1.
       -1   -1    0    0    0  501  0.00000000000E+00  0.00000000000E+00 -0.15505698058E+04  0.15505698058E+04  0.50400001928E-02 0.  1.
    10030    2    1    2    0    0  0.00000000000E+00  0.00000000000E+00 -0.11017424695E+02  0.30901221868E+04  0.30901025462E+04 0.  0.
        3    1    3    3  502    0  0.51656913862E+03 -0.32465369522E+03  0.14139860370E+04  0.15400000714E+04  0.10100000352E+00 0. -1.
       -3    1    3    3    0  502 -0.51656913862E+03  0.32465369522E+03 -0.14250034617E+04  0.15501221155E+04  0.10100000352E+00 0.  1.
</event>
<event>
 5   0  0.1686012E-06  0.2996301E+04  0.7818609E-02  0.8244788E-01
       -1   -1    0    0    0  501  0.00000000000E+00  0.00000000000E+00  0.14930827217E+04  0.14930827217E+04  0.50400001928E-02 0. -1.
        1   -1    0    0  501    0  0.00000000000E+00  0.00000000000E+00 -0.15032356033E+04  0.15032356033E+04  0.50400001928E-02 0.  1.
    10030    2    1    2    0    0  0.00000000000E+00  0.00000000000E+00 -0.10152881605E+02  0.29963183250E+04  0.29963011237E+04 0.  0.
        4    1    3    3  502    0  0.94172193741E+03 -0.10762047460E+03  0.11551160320E+04  0.14942279057E+04  0.12699999809E+01 0. -1.
       -4    1    3    3    0  502 -0.94172193741E+03  0.10762047460E+03 -0.11652689136E+04  0.15020904193E+04  0.12699999809E+01 0.  1.
</event>
<event>
 5   0  0.4935331E-06  0.3014221E+04  0.7818609E-02  0.8239682E-01
       -2   -1    0    0    0  501  0.00000000000E+00  0.00000000000E+00  0.13057456030E+04  0.13057456030E+04  0.25500000920E-02 0.  1.
        2   -1    0    0  501    0  0.00000000000E+00  0.00000000000E+00 -0.17395289096E+04  0.17395289096E+04  0.25500000920E-02 0. -1.
    10030    2    1    2    0    0  0.00000000000E+00  0.00000000000E+00 -0.43378330655E+03  0.30452745126E+04  0.30142211100E+04 0.  0.
        5    1    3    3  502    0 -0.69592048826E+03 -0.34797261671E+03 -0.15209136328E+04  0.17083883154E+04  0.46999998093E+01 0. -1.
       -5    1    3    3    0  502  0.69592048826E+03  0.34797261671E+03  0.10871303262E+04  0.13368861972E+04  0.46999998093E+01 0.  1.
</event>
<event>
 5   0  0.1734885E-06  0.3106721E+04  0.7818609E-02  0.8213896E-01
       -1   -1    0    0    0  501  0.00000000000E+00  0.00000000000E+00  0.11648732930E+04  0.11648732930E+04  0.50400001928E-02 0. -1.
        1   -1    0    0  501    0  0.00000000000E+00  0.00000000000E+00 -0.20714095065E+04  0.20714095065E+04  0.50400001928E-02 0.  1.
    10030    2    1    2    0    0  0.00000000000E+00  0.00000000000E+00 -0.90653621352E+03  0.32362827995E+04  0.31067214957E+04 0.  0.
        2    1    3    3  502    0  0.88692820783E+03 -0.10450248367E+04 -0.12146465548E+04  0.18314160664E+04  0.25500000920E-02 0.  1.
       -2    1    3    3    0  502 -0.88692820783E+03  0.10450248367E+04  0.30811034133E+03  0.14048667331E+04  0.25500000920E-02 0. -1.
</event>
<event>
 5   0  0.1709858E-06  0.3037236E+04  0.7818609E-02  0.8233177E-01
        1   -1    0    0  501    0  0.00000000000E+00  0.00000000000E+00  0.17805977911E+04  0.17805977911E+04  0.50400001928E-02 0. -1.
       -1   -1    0    0    0  501  0.00000000000E+00  0.00000000000E+00 -0.12951831182E+04  0.12951831182E+04  0.50400001928E-02 0.  1.
    10030    2    1    2    0    0  0.00000000000E+00  0.00000000000E+00  0.48541467283E+03  0.30757809093E+04  0.30372357165E+04 0.  0.
        3    1    3    3  502    0 -0.83846160010E+03 -0.75595551144E+03  0.12713309174E+04  0.17002261326E+04  0.10100000352E+00 0. -1.
       -3    1    3    3    0  502  0.83846160010E+03  0.75595551144E+03 -0.78591624458E+03  0.13755547767E+04  0.10100000352E+00 0.  1.
</event>
<event>
 5   0  0.1734885E-06  0.3000307E+04  0.7818609E-02  0.8243643E-01
       -1   -1    0    0    0  501  0.00000000000E+00  0.00000000000E+00  0.98433011502E+03  0.98433011504E+03  0.50400001928E-02 0. -1.
        1   -1    0    0  501    0  0.00000000000E+00  0.00000000000E+00 -0.22862859371E+04  0.22862859371E+04  0.50400001928E-02 0.  1.
    10030    2    1    2    0    0  0.00000000000E+00  0.00000000000E+00 -0.13019558221E+04  0.32706160521E+04  0.30003067173E+04 0.  0.
        2    1    3    3  502    0  0.43548103567E+03  0.11651662872E+04  0.26314489050E+03  0.12714171001E+04  0.25500000920E-02 0. -1.
       -2    1    3    3    0  502 -0.43548103567E+03 -0.11651662872E+04 -0.15651007126E+04  0.19991989520E+04  0.25500000920E-02 0.  1.
</event>
<event>
 5   0  0.4768570E-06  0.3094292E+04  0.7818609E-02  0.8217306E-01
       -2   -1    0    0    0  501  0.00000000000E+00  0.00000000000E+00  0.12282346569E+04  0.12282346569E+04  0.25500000920E-02 0. -1.
        2   -1    0    0  501    0  0.00000000000E+00  0.00000000000E+00 -0.19488622699E+04  0.19488622699E+04  0.25500000920E-02 0.  1.
    10030    2    1    2    0    0  0.00000000000E+00  0.00000000000E+00 -0.72062761300E+03  0.31770969268E+04  0.30942916356E+04 0.  0.
        1    1    3    3  502    0 -0.78625676851E+02 -0.11855207595E+03 -0.19421330274E+04  0.19473359463E+04  0.50400001928E-02 0.  1.
       -1    1    3    3    0  502  0.78625676851E+02  0.11855207595E+03  0.12215054144E+04  0.12297609805E+04  0.50400001928E-02 0. -1.
</event>
<event>
 5   0  0.1700885E-06  0.3011360E+04  0.7818609E-02  0.8240494E-01
        1   -1    0    0  501    0  0.00000000000E+00  0.00000000000E+00  0.14614030399E+04  0.14614030400E+04  0.50400001928E-02 0. -1.
       -1   -1    0    0    0  501  0.00000000000E+00  0.00000000000E+00 -0.15512985542E+04  0.15512985542E+04  0.50400001928E-02 0.  1.
    10030    2    1    2    0    0  0.00000000000E+00  0.00000000000E+00 -0.89895514208E+02  0.30127015941E+04  0.30113601066E+04 0.  0.
        1    1    3    3  502    0 -0.11357498236E+04 -0.83463443084E+03 -0.57483465284E+03  0.15221620062E+04  0.50400001928E-02 0.  1.
       -1    1    3    3    0  502  0.11357498236E+04  0.83463443084E+03  0.48493913863E+03  0.14905395879E+04  0.50400001928E-02 0. -1.
</event>
<event>
 5   0  0.4702748E-06  0.3017748E+04  0.7818609E-02  0.8238681E-01
        2   -1    0    0  501    0  0.00000000000E+00  0.00000000000E+00  0.15317741423E+04  0.15317741423E+04  0.25500000920E-02 0.  1.
       -2   -1    0    0    0  501  0.00000000000E+00  0.00000000000E+00 -0.14863161251E+04  0.14863161251E+04  0.25500000920E-02 0. -1.
    10030    2    1    2    0    0  0.00000000000E+00  0.00000000000E+00  0.45458017196E+02  0.30180902674E+04  0.30177479071E+04 0.  0.
        2    1    3    3  502    0  0.78579228443E+03  0.10067265511E+04 -0.78093713381E+03  0.14969404364E+04  0.25500000920E-02 0. -1.
       -2    1    3    3    0  502 -0.78579228443E+03 -0.10067265511E+04  0.82639515100E+03  0.15211498311E+04  0.25500000920E-02 0.  1.
</event>
<event>
 5   0  0.1545375E-06  0.2953438E+04  0.7818609E-02  0.8257153E-01
        3   -1    0    0  501    0  0.00000000000E+00  0.00000000000E+00  0.23776263210E+04  0.23776263232E+04  0.10100000352E+00 0. -1.
       -3   -1    0    0    0  501  0.00000000000E+00  0.00000000000E+00 -0.91717454140E+03  0.91717454696E+03  0.10100000352E+00 0.  1.
    10030    2    1    2    0    0  0.00000000000E+00  0.00000000000E+00  0.14604517796E+04  0.32948008701E+04  0.29534375519E+04 0.  0.
        1    1    3    3  502    0  0.34955367914E+02  0.14187088812E+04  0.11857625468E+04  0.18493213850E+04  0.50400001928E-02 0. -1.
       -1    1    3    3    0  502 -0.34955367914E+02 -0.14187088812E+04  0.27468923281E+03  0.14454794852E+04  0.50400001928E-02 0.  1.
</event>
<event>
 5   0  0.1700885E-06  0.2999051E+04  0.7818609E-02  0.8244002E-01
       -1   -1    0    0    0  501  0.00000000000E+00  0.00000000000E+00  0.16183063752E+04  0.16183063752E+04  0.50400001928E-02 0. -1.
        1   -1    0    0  501    0  0.00000000000E+00  0.00000000000E+00 -0.13894624715E+04  0.13894624715E+04  0.50400001928E-02 0.  1.
    10030    2    1    2    0    0  0.00000000000E+00  0.00000000000E+00  0.22884390368E+03  0.30077688467E+04  0.29990505002E+04 0.  0.
        1    1    3    3  502    0 -0.13256961776E+04  0.57637030634E+03 -0.28536312276E+03  0.14734670669E+04  0.50400001928E-02 0.  1.
       -1    1    3    3    0  502  0.13256961776E+04 -0.57637030634E+03  0.51420702644E+03  0.15343017798E+04  0.50400001928E-02 0. -1.
</event>
<event>
 5   0  0.1709858E-06  0.3013507E+04  0.7818609E-02  0.8239884E-01
        1   -1    0    0  501    0  0.00000000000E+00  0.00000000000E+00  0.23814114951E+04  0.23814114951E+04  0.50400001928E-02 0.  1.
       -1   -1    0    0    0  501  0.00000000000E+00  0.00000000000E+00 -0.95334459819E+03  0.95334459820E+03  0.50400001928E-02 0. -1.
    10030    2    1    2    0    0  0.00000000000E+00  0.00000000000E+00  0.14280668969E+04  0.33347560933E+04  0.30135067844E+04 0.  0.
        3    1    3    3  502    0 -0.22936994037E+03 -0.15872903884E+03 -0.92452422329E+03  0.96568655731E+03  0.10100000352E+00 0. -1.
       -3    1    3    3    0  502  0.22936994037E+03  0.15872903884E+03  0.23525911202E+04  0.23690695360E+04  0.10100000352E+00 0.  1.
</event>
<event>
 5   0  0.5003556E-06  0.3011953E+04  0.7818609E-02  0.8240326E-01
       -2   -1    0    0    0  501  0.00000000000E+00  0.00000000000E+00  0.12221315317E+04  0.12221315317E+04  0.25500000920E-02 0. -1.
        2   -1    0    0  501    0  0.00000000000E+00  0.00000000000E+00 -0.18557461709E+04  0.18557461709E+04  0.25500000920E-02 0.  1.
    10030    2    1    2    0    0  0.00000000000E+00  0.00000000000E+00 -0.63361463919E+03  0.30778777027E+04  0.30119534594E+04 0.  0.
        3    1    3    3  502    0  0.14099783456E+04 -0.50862449105E+03 -0.16791970056E+03  0.15082887138E+04  0.10100000352E+00 0. -1.
       -3    1    3    3    0  502 -0.14099783456E+04  0.50862449105E+03 -0.46569493863E+03  0.15695889889E+04  0.10100000352E+00 0.  1.
</event>
<event>
 5   0  0.4532420E-06  0.2886975E+04  0.7818609E-02  0.8276763E-01
        2   -1    0    0  501    0  0.00000000000E+00  0.00000000000E+00  0.20499399512E+04  0.20499399512E+04  0.25500000920E-02 0.  1.
       -2   -1    0    0    0  501  0.00000000000E+00  0.00000000000E+00 -0.10164472757E+04  0.10164472757E+04  0.25500000920E-02 0. -1.
    10030    2    1    2    0    0  0.00000000000E+00  0.00000000000E+00  0.10334926754E+04  0.30663872269E+04  0.28869748033E+04 0.  0.
        4    1    3    3  502    0 -0.47742688715E+03 -0.11947956719E+04  0.12117670842E+04  0.17674428447E+04  0.12699999809E+01 0.  1.
       -4    1    3    3    0  502  0.47742688715E+03  0.11947956719E+04 -0.17827440878E+03  0.12989443822E+04  0.12699999809E+01 0. -1.
</event>
<event>
 5   0  0.1700885E-06  0.3012142E+04  0.7818609E-02  0.8240272E-01
       -1   -1    0    0    0  501  0.00000000000E+00  0.00000000000E+00  0.12903437026E+04  0.12903437027E+04  0.50400001928E-02 0.  1.
        1   -1    0    0  501    0  0.00000000000E+00  0.00000000000E+00 -0.17578647176E+04  0.17578647176E+04  0.50400001928E-02 0. -1.
    10030    2    1    2    0    0  0.00000000000E+00  0.00000000000E+00 -0.46752101496E+03  0.30482084203E+04  0.30121418748E+04 0.  0.
        1    1    3    3  502    0 -0.79076772010E+03 -0.12792543567E+04 -0.31499856673E+03  0.15365641521E+04  0.50400001928E-02 0.  1.
       -1    1    3    3    0  502  0.79076772010E+03  0.12792543567E+04 -0.15252244823E+03  0.15116442682E+04  0.50400001928E-02 0. -1.
</event>
<event>
 5   0  0.1672907E-06  0.2995344E+04  0.7818609E-02  0.8245062E-01
        1   -1    0    0  501    0  0.00000000000E+00  0.00000000000E+00  0.14222527810E+04  0.14222527810E+04  0.50400001928E-02 0. -1.
       -1   -1    0    0    0  501  0.00000000000E+00  0.00000000000E+00 -0.15770904167E+04  0.15770904167E+04  0.50400001928E-02 0.  1.
    10030    2    1    2    0    0  0.00000000000E+00  0.00000000000E+00 -0.15483763564E+03  0.29993431977E+04  0.29953438741E+04 0.  0.
        5    1    3    3  502    0 -0.19169810844E+03  0.10969782204E+04  0.92536212783E+03  0.14479041883E+04  0.46999998093E+01 0. -1.
       -5    1    3    3    0  502  0.19169810844E+03 -0.10969782204E+04 -0.10801997635E+04  0.15514390094E+04  0.46999998093E+01 0.  1.
</event>
<event>
 5   0  0.5003556E-06  0.3011488E+04  0.7818609E-02  0.8240458E-01
       -2   -1    0    0    0  501  0.00000000000E+00  0.00000000000E+00  0.14413039080E+04  0.14413039080E+04  0.25500000920E-02 0.  1.
        2   -1    0    0  501    0  0.00000000000E+00  0.00000000000E+00 -0.15730654730E+04  0.15730654730E+04  0.25500000920E-02 0. -1.
    10030    2    1    2    0    0  0.00000000000E+00  0.00000000000E+00 -0.13176156504E+03  0.30143693810E+04  0.30114882791E+04 0.  0.
        3    1    3    3  502    0 -0.90671274875E+03  0.38567242835E+03  0.10738015809E+04  0.14573678589E+04  0.10100000352E+00 0.  1.
       -3    1    3    3    0  502  0.90671274875E+03 -0.38567242835E+03 -0.12055631459E+04  0.15570015221E+04  0.10100000352E+00 0. -1.
</event>
<event>
 5   0  0.1686012E-06  0.2984544E+04  0.7818609E-02  0.8248158E-01
        1   -1    0    0  501    0  0.00000000000E+00  0.00000000000E+00  0.16767681968E+04  0.16767681968E+04  0.50400001928E-02 0.  1.
       -1   -1    0    0    0  501  0.00000000000E+00  0.00000000000E+00 -0.13280757532E+04  0.13280757532E+04  0.50400001928E-02 0. -1.
    10030    2    1    2    0    0  0.00000000000E+00  0.00000000000E+00  0.34869244359E+03  0.30048439501E+04  0.29845436408E+04 0.  0.
        4    1    3    3  502    0  0.21176437631E+03  0.55699175488E+03  0.15517856333E+04  0.16622647896E+04  0.12699999809E+01 0.  1.
       -4    1    3    3    0  502 -0.21176437631E+03 -0.55699175488E+03 -0.12030931897E+04  0.13425791605E+04  0.12699999809E+01 0. -1.
</event>
<event>
 5   0  0.5003556E-06  0.2992463E+04  0.7818609E-02  0.8245886E-01
       -2   -1    0    0    0  501  0.00000000000E+00  0.00000000000E+00  0.19373494972E+04  0.19373494972E+04  0.25500000920E-02 0. -1.
        2   -1    0    0  501    0  0.00000000000E+00  0.00000000000E+00 -0.11555521872E+04  0.11555521872E+04  0.25500000920E-02 0.  1.
    10030    2    1    2    0    0  0.00000000000E+00  0.00000000000E+00  0.78179731000E+03  0.30929016845E+04  0.29924628312E+04 0.  0.
        3    1    3    3  502    0 -0.92975909547E+03 -0.68887506430E+03 -0.58946690676E+03  0.12986423966E+04  0.10100000352E+00 0.  1.
       -3    1    3    3    0  502  0.92975909547E+03  0.68887506430E+03  0.13712642168E+04  0.17942592879E+04  0.10100000352E+00 0. -1.
</event>
<event>
 5   0  0.1545375E-06  0.2997969E+04  0.7818609E-02  0.8244311E-01
       -3   -1    0    0    0  501  0.00000000000E+00  0.00000000000E+00  0.14289206588E+04  0.14289206624E+04  0.10100000352E+00 0. -1.
        3   -1    0    0  501    0  0.00000000000E+00  0.00000000000E+00 -0.15724835610E+04  0.15724835642E+04  0.10100000352E+00 0.  1.
    10030    2    1    2    0    0  0.00000000000E+00  0.00000000000E+00 -0.14356290214E+03  0.30014042266E+04  0.29979688165E+04 0.  0.
        4    1    3    3  502    0  0.70535179189E+03  0.13003154909E+04  0.17059330080E+03  0.14891088656E+04  0.12699999809E+01 0. -1.
       -4    1    3    3    0  502 -0.70535179189E+03 -0.13003154909E+04 -0.31415620293E+03  0.15122953610E+04  0.12699999809E+01 0.  1.
</event>
<event>
 5   0  0.1734885E-06  0.2999730E+04  0.7818609E-02  0.8243808E-01
       -1   -1    0    0    0  501  0.00000000000E+00  0.00000000000E+00  0.17741514531E+04  0.17741514531E+04  0.50400001928E-02 0. -1.
        1   -1    0    0  501    0  0.00000000000E+00  0.00000000000E+00 -0.12679839249E+04  0.12679839249E+04  0.50400001928E-02 0.  1.
    10030    2    1    2    0    0  0.00000000000E+00  0.00000000000E+00  0.50616752819E+03  0.30421353781E+04  0.29997303365E+04 0.  0.
        2    1    3    3  502    0 -0.17904185702E+02  0.29983561260E+03 -0.12371699473E+04  0.12731109272E+04  0.25500000920E-02 0.  1.
       -2    1    3    3    0  502  0.17904185702E+02 -0.29983561260E+03  0.17433374755E+04  0.17690244509E+04  0.25500000920E-02 0. -1.
</event>
<event>
 5   0  0.4935331E-06  0.3024096E+04  0.7818609E-02  0.8236883E-01
       -2   -1    0    0    0  501  0.00000000000E+00  0.00000000000E+00  0.14922407961E+04  0.14922407961E+04  0.25500000920E-02 0.  1.
        2   -1    0    0  501    0  0.00000000000E+00  0.00000000000E+00 -0.15321183356E+04  0.15321183356E+04  0.25500000920E-02 0. -1.
    10030    2    1    2    0    0  0.00000000000E+00  0.00000000000E+00 -0.39877539451E+02  0.30243591317E+04  0.30240962186E+04 0.  0.
        5    1    3    3  502    0 -0.14422994367E+04 -0.35170544509E+03  0.26704089514E+03  0.15083956095E+04  0.46999998093E+01 0.  1.
       -5    1    3    3    0  502  0.14422994367E+04  0.35170544509E+03 -0.30691843459E+03  0.15159635222E+04  0.46999998093E+01 0. -1.
</event>
<event>
 5   0  0.1700885E-06  0.3019604E+04  0.7818609E-02  0.8238155E-01
       -1   -1    0    0    0  501  0.00000000000E+00  0.00000000000E+00  0.12801433403E+04  0.12801433403E+04  0.50400001928E-02 0. -1.
        1   -1    0    0  501    0  0.00000000000E+00  0.00000000000E+00 -0.17806618488E+04  0.17806618489E+04  0.50400001928E-02 0.  1.
    10030    2    1    2    0    0  0.00000000000E+00  0.00000000000E+00 -0.50051850851E+03  0.30608051892E+04  0.30196042173E+04 0.  0.
        1    1    3    3  502    0 -0.35880419496E+03 -0.14051270879E+04  0.17544708553E+03  0.14607889181E+04  0.50400001928E-02 0. -1.
       -1    1    3    3    0  502  0.35880419496E+03  0.14051270879E+04 -0.67596559404E+03  0.16000162711E+04  0.50400001928E-02 0.  1.
</event>
<event>
 5   0  0.1700885E-06  0.3011914E+04  0.7818609E-02  0.8240337E-01
        1   -1    0    0  501    0  0.00000000000E+00  0.00000000000E+00  0.15942688746E+04  0.15942688746E+04  0.50400001928E-02 0. -1.
       -1   -1    0    0    0  501  0.00000000000E+00  0.00000000000E+00 -0.14225373710E+04  0.14225373710E+04  0.50400001928E-02 0.  1.
    10030    2    1    2    0    0  0.00000000000E+00  0.00000000000E+00  0.17173150355E+03  0.30168062456E+04  0.30119143770E+04 0.  0.
        1    1    3    3  502    0 -0.93878988921E+03 -0.84045248685E+03  0.91195993478E+03  0.15554284816E+04  0.50400001928E-02 0. -1.
       -1    1    3    3    0  502  0.93878988921E+03  0.84045248685E+03 -0.74022843123E+03  0.14613777640E+04  0.50400001928E-02 0.  1.
</event>
<event>
 5   0  0.5003556E-06  0.2817703E+04  0.7818609E-02  0.8297793E-01
       -2   -1    0    0    0  501  0.00000000000E+00  0.00000000000E+00  0.11586941235E+04  0.11586941235E+04  0.25500000920E-02 0.  1.
        2   -1    0    0  501    0  0.00000000000E+00  0.00000000000E+00 -0.17130162385E+04  0.17130162385E+04  0.25500000920E-02 0. -1.
    10030    2    1    2    0    0  0.00000000000E+00  0.00000000000E+00 -0.55432211500E+03  0.28717103619E+04  0.28177025030E+04 0.  0.
        3    1    3    3  502    0 -0.84775151397E+03 -0.57667788062E+03 -0.12619224112E+04  0.16259422467E+04  0.10100000352E+00 0. -1.
       -3    1    3    3    0  502  0.84775151397E+03  0.57667788062E+03  0.70760029625E+03  0.12457681152E+04  0.10100000352E+00 0.  1.
</event>
<event>
 5   0  0.1686012E-06  0.3001278E+04  0.7818609E-02  0.8243366E-01
        1   -1    0    0  501    0  0.00000000000E+00  0.00000000000E+00  0.17144048654E+04  0.17144048654E+04  0.50400001928E-02 0.  1.
       -1   -1    0    0    0  501  0.00000000000E+00  0.00000000000E+00 -0.13135271500E+04  0.13135271500E+04  0.50400001928E-02 0. -1.
    10030    2    1    2    0    0  0.00000000000E+00  0.00000000000E+00  0.40087771544E+03  0.30279320154E+04  0.30012779523E+04 0.  0.
        4    1    3    3  502    0  0.14656185854E+03 -0.43393630420E+02 -0.13056525162E+04  0.13145696982E+04  0.12699999809E+01 0. -1.
       -4    1    3    3    0  502 -0.14656185854E+03  0.43393630420E+02  0.17065302316E+04  0.17133623172E+04  0.12699999809E+01 0.  1.
</event>
<event>
 5   0  0.1700885E-06  0.2999509E+04  0.7818609E-02  0.8243871E-01
        1   -1    0    0  501    0  0.00000000000E+00  0.00000000000E+00  0.20385813277E+04  0.20385813277E+04  0.50400001928E-02 0. -1.
       -1   -1    0    0    0  501  0.00000000000E+00  0.00000000000E+00 -0.11033475768E+04  0.11033475768E+04  0.50400001928E-02 0.  1.
    10030    2    1    2    0    0  0.00000000000E+00  0.00000000000E+00  0.93523375090E+03  0.31419289044E+04  0.29995091384E+04 0.  0.
        1    1    3    3  502    0  0.14359005414E+04  0.24637018118E+03  0.94685477832E+02  0.14599568386E+04  0.50400001928E-02 0.  1.
       -1    1    3    3    0  502 -0.14359005414E+04 -0.24637018118E+03  0.84054827307E+03  0.16819720658E+04  0.50400001928E-02 0. -1.
</event>
<event>
 5   0  0.4935331E-06  0.3011658E+04  0.7818609E-02  0.8240410E-01
       -2   -1    0    0    0  501  0.00000000000E+00  0.00000000000E+00  0.12225454525E+04  0.12225454525E+04  0.25500000920E-02 0. -1.
        2   -1    0    0  501    0  0.00000000000E+00  0.00000000000E+00 -0.18547535335E+04  0.18547535335E+04  0.25500000920E-02 0.  1.
    10030    2    1    2    0    0  0.00000000000E+00  0.00000000000E+00 -0.63220808104E+03  0.30772989860E+04  0.30116576817E+04 0.  0.
        5    1    3    3  502    0  0.61562066509E+03 -0.94157791364E+03  0.70668268519E+03  0.13285256032E+04  0.46999998093E+01 0. -1.
       -5    1    3    3    0  502 -0.61562066509E+03  0.94157791364E+03 -0.13388907662E+04  0.17487733829E+04  0.46999998093E+01 0.  1.
</event>
<event>
 5   0  0.1672907E-06  0.2998372E+04  0.7818609E-02  0.8244196E-01
       -1   -1    0    0    0  501  0.00000000000E+00  0.00000000000E+00  0.27140756592E+04  0.27140756592E+04  0.50400001928E-02 0.  1.
        1   -1    0    0  501    0  0.00000000000E+00  0.00000000000E+00 -0.82811225072E+03  0.82811225074E+03  0.50400001928E-02 0. -1.
    10030    2    1    2    0    0  0.00000000000E+00  0.00000000000E+00  0.18859634084E+04  0.35421879099E+04  0.29983724270E+04 0.  0.
        5    1    3    3  502    0  0.14390555527E+04 -0.40528494570E+03  0.81142753966E+03  0.17010507085E+04  0.46999998093E+01 0. -1.
       -5    1    3    3    0  502 -0.14390555527E+04  0.40528494570E+03  0.10745358688E+04  0.18411372014E+04  0.46999998093E+01 0.  1.
</event>
<event>
 5   0  0.5003556E-06  0.3002698E+04  0.7818609E-02  0.8242961E-01
       -2   -1    0    0    0  501  0.00000000000E+00  0.00000000000E+00  0.10400822745E+04  0.10400822745E+04  0.25500000920E-02 0. -1.
        2   -1    0    0  501    0  0.00000000000E+00  0.00000000000E+00 -0.21671828582E+04  0.21671828582E+04  0.25500000920E-02 0.  1.
    10030    2    1    2    0    0  0.00000000000E+00  0.00000000000E+00 -0.11271005836E+04  0.32072651327E+04  0.30026977713E+04 0.  0.
        3    1    3    3  502    0  0.98867059621E+03  0.18217819024E+02  0.64312553719E+03  0.11795812407E+04  0.10100000352E+00 0. -1.
       -3    1    3    3    0  502 -0.98867059621E+03 -0.18217819024E+02 -0.17702261208E+04  0.20276838920E+04  0.10100000352E+00 0.  1.
</event>
<event>
 5   0  0.1734885E-06  0.2931572E+04  0.7818609E-02  0.8263545E-01
        1   -1    0    0  501    0  0.00000000000E+00  0.00000000000E+00  0.10369103226E+04  0.10369103226E+04  0.50400001928E-02 0.  1.
       -1   -1    0    0    0  501  0.00000000000E+00  0.00000000000E+00 -0.20720482143E+04  0.20720482143E+04  0.50400001928E-02 0. -1.
    10030    2    1    2    0    0  0.00000000000E+00  0.00000000000E+00 -0.10351378918E+04  0.31089585369E+04  0.29315717166E+04 0.  0.
        2    1    3    3  502    0 -0.91800929591E+03  0.68675422498E+03  0.45101659324E+03  0.12319855520E+04  0.25500000920E-02 0.  1.
       -2    1    3    3    0  502  0.91800929591E+03 -0.68675422498E+03 -0.14861544850E+04  0.18769729849E+04  0.25500000920E-02 0. -1.
</event>
<event>
 5   0  0.1686012E-06  0.2995629E+04  0.7818609E-02  0.8244980E-01
        1   -1    0    0  501    0  0.00000000000E+00  0.00000000000E+00  0.12027989832E+04  0.12027989832E+04  0.50400001928E-02 0.  1.
       -1   -1    0    0    0  501  0.00000000000E+00  0.00000000000E+00 -0.18651894907E+04  0.18651894907E+04  0.50400001928E-02 0. -1.
    10030    2    1    2    0    0  0.00000000000E+00  0.00000000000E+00 -0.66239050743E+03  0.30679884739E+04  0.29956288308E+04 0.  0.
        4    1    3    3  502    0 -0.13781182470E+04 -0.58395222546E+03 -0.38945793759E+03  0.15465733744E+04  0.12699999809E+01 0.  1.
       -4    1    3    3    0  502  0.13781182470E+04  0.58395222546E+03 -0.27293256985E+03  0.15214150995E+04  0.12699999809E+01 0. -1.
</event>
<event>
 5   0  0.1700885E-06  0.2955645E+04  0.7818609E-02  0.8256511E-01
        1   -1    0    0  501    0  0.00000000000E+00  0.00000000000E+00  0.21128053581E+04  0.21128053581E+04  0.50400001928E-02 0. -1.
       -1   -1    0    0    0  501  0.00000000000E+00  0.00000000000E+00 -0.10336774603E+04  0.10336774603E+04  0.50400001928E-02 0.  1.
    10030    2    1    2    0    0  0.00000000000E+00  0.00000000000E+00  0.10791278978E+04  0.31464828185E+04  0.29556449562E+04 0.  0.
        1    1    3    3  502    0  0.87060848459E+03  0.75406195948E+03 -0.44617629242E+03  0.12351687561E+04  0.50400001928E-02 0.  1.
       -1    1    3    3    0  502 -0.87060848459E+03 -0.75406195948E+03  0.15253041902E+04  0.19113140623E+04  0.50400001928E-02 0. -1.
</event>
<event>
 5   0  0.1686012E-06  0.3003791E+04  0.7818609E-02  0.8242649E-01
       -1   -1    0    0    0  501  0.00000000000E+00  0.00000000000E+00  0.92457462416E+03  0.92457462417E+03  0.50400001928E-02 0.  1.
        1   -1    0    0  501    0  0.00000000000E+00  0.00000000000E+00 -0.24397056748E+04  0.24397056748E+04  0.50400001928E-02 0. -1.
    10030    2    1    2    0    0  0.00000000000E+00  0.00000000000E+00 -0.15151310507E+04  0.33642802990E+04  0.30037909098E+04 0.  0.
        4    1    3    3  502    0 -0.65608148538E+03 -0.59612413210E+03 -0.21154525174E+04  0.22936756228E+04  0.12699999809E+01 0. -1.
       -4    1    3    3    0  502  0.65608148538E+03  0.59612413210E+03  0.60032146676E+03  0.10706046762E+04  0.12699999809E+01 0.  1.
</event>
<event>
 5   0  0.4702748E-06  0.3047137E+04  0.7818609E-02  0.8230397E-01
        2   -1    0    0  501    0  0.00000000000E+00  0.00000000000E+00  0.14747879731E+04  0.14747879731E+04  0.25500000920E-02 0. -1.
       -2   -1    0    0    0  501  0.00000000000E+00  0.00000000000E+00 -0.15739626733E+04  0.15739626733E+04  0.25500000920E-02 0.  1.
    10030    2    1    2    0    0  0.00000000000E+00  0.00000000000E+00 -0.99174700134E+02  0.30487506464E+04  0.30471371618E+04 0.  0.
        2    1    3    3  502    0 -0.51401185328E+03  0.12539457645E+03  0.13799201210E+04  0.14778739883E+04  0.25500000920E-02 0. -1.
       -2    1    3    3    0  502  0.51401185328E+03 -0.12539457645E+03 -0.14790948211E+04  0.15708766581E+04  0.25500000920E-02 0.  1.
</event>
<event>
 5   0  0.4768570E-06  0.3003928E+04  0.7818609E-02  0.8242610E-01
        2   -1    0    0  501    0  0.00000000000E+00  0.00000000000E+00  0.15380283762E+04  0.15380283762E+04  0.25500000920E-02 0. -1.
       -2   -1    0    0    0  501  0.00000000000E+00  0.00000000000E+00 -0.14667450081E+04  0.14667450081E+04  0.25500000920E-02 0.  1.
    10030    2    1    2    0    0  0.00000000000E+00  0.00000000000E+00  0.71283368098E+02  0.30047733843E+04  0.30039277243E+04 0.  0.
        1    1    3    3  502    0 -0.38920737675E+03  0.61535072720E+03 -0.12784086741E+04  0.14712129817E+04  0.50400001928E-02 0.  1.
       -1    1    3    3    0  502  0.38920737675E+03 -0.61535072720E+03  0.13496920422E+04  0.15335604026E+04  0.50400001928E-02 0. -1.
</event>
<event>
 5   0  0.5003556E-06  0.2528164E+04  0.7818609E-02  0.8393020E-01
       -2   -1    0    0    0  501  0.00000000000E+00  0.00000000000E+00  0.67006025118E+03  0.67006025119E+03  0.25500000920E-02 0. -1.
        2   -1    0    0  501    0  0.00000000000E+00  0.00000000000E+00 -0.23847165056E+04  0.23847165056E+04  0.25500000920E-02 0.  1.
    10030    2    1    2    0    0  0.00000000000E+00  0.00000000000E+00 -0.17146562544E+04  0.30547767568E+04  0.25281643465E+04 0.  0.
        3    1    3    3  502    0 -0.26877865312E+03 -0.82382892582E+03  0.25467905139E+03  0.90321508668E+03  0.10100000352E+00 0. -1.
       -3    1    3    3    0  502  0.26877865312E+03  0.82382892582E+03 -0.19693353058E+04  0.21515616701E+04  0.10100000352E+00 0.  1.
</event>
<event>
 5   0  0.4768570E-06  0.2910072E+04  0.7818609E-02  0.8269887E-01
       -2   -1    0    0    0  501  0.00000000000E+00  0.00000000000E+00  0.89658844887E+03  0.89658844888E+03  0.25500000920E-02 0.  1.
        2   -1    0    0  501    0  0.00000000000E+00  0.00000000000E+00 -0.23613180074E+04  0.23613180074E+04  0.25500000920E-02 0. -1.
    10030    2    1    2    0    0  0.00000000000E+00  0.00000000000E+00 -0.14647295585E+04  0.32579064562E+04  0.29100724730E+04 0.  0.
        1    1    3    3  502    0  0.11537317348E+04  0.53979243243E+03  0.55020291984E+02  0.12749509867E+04  0.50400001928E-02 0.  1.
       -1    1    3    3    0  502 -0.11537317348E+04 -0.53979243243E+03 -0.15197498505E+04  0.19829554695E+04  0.50400001928E-02 0. -1.
</event>
<event>
 5   0  0.4532420E-06  0.2984115E+04  0.7818609E-02  0.8248281E-01
       -2   -1    0    0    0  501  0.00000000000E+00  0.00000000000E+00  0.98507609570E+03  0.98507609570E+03  0.25500000920E-02 0.  1.
        2   -1    0    0  501    0  0.00000000000E+00  0.00000000000E+00 -0.22599634745E+04  0.22599634745E+04  0.25500000920E-02 0. -1.
    10030    2    1    2    0    0  0.00000000000E+00  0.00000000000E+00 -0.12748873788E+04  0.32450395702E+04  0.29841152765E+04 0.  0.
        4    1    3    3  502    0  0.13980312185E+04  0.12084127862E+02 -0.12041616027E+04  0.18451677681E+04  0.12699999809E+01 0.  1.
       -4    1    3    3    0  502 -0.13980312185E+04 -0.12084127862E+02 -0.70725776073E+02  0.13998718021E+04  0.12699999809E+01 0. -1.
</event>
<event>
 5   0  0.1709858E-06  0.2872305E+04  0.7818609E-02  0.8281166E-01
        1   -1    0    0  501    0  0.00000000000E+00  0.00000000000E+00  0.19905976272E+04  0.19905976272E+04  0.50400001928E-02 0.  1.
       -1   -1    0    0    0  501  0.00000000000E+00  0.00000000000E+00 -0.10361380308E+04  0.10361380308E+04  0.50400001928E-02 0. -1.
    10030    2    1    2    0    0  0.00000000000E+00  0.00000000000E+00  0.95445959641E+03  0.30267356580E+04  0.28723049320E+04 0.  0.
        3    1    3    3  502    0  0.98252936864E+03 -0.10300516128E+04  0.27683804802E+03  0.14501757136E+04  0.10100000352E+00 0. -1.
       -3    1    3    3    0  502 -0.98252936864E+03  0.10300516128E+04  0.67762154839E+03  0.15765599444E+04  0.10100000352E+00 0.  1.
</event>
<event>
 5   0  0.1700885E-06  0.3003421E+04  0.7818609E-02  0.8242755E-01
       -1   -1    0    0    0  501  0.00000000000E+00  0.00000000000E+00  0.12935758286E+04  0.12935758287E+04  0.50400001928E-02 0. -1.
        1   -1    0    0  501    0  0.00000000000E+00  0.00000000000E+00 -0.17433336687E+04  0.17433336688E+04  0.50400001928E-02 0.  1.
    10030    2    1    2    0    0  0.00000000000E+00  0.00000000000E+00 -0.44975784010E+03  0.30369094974E+04  0.30034209130E+04 0.  0.
        1    1    3    3  502    0  0.21533744080E+03 -0.11258260709E+04  0.75613462717E+03  0.13731693741E+04  0.50400001928E-02 0. -1.
       -1    1    3    3    0  502 -0.21533744080E+03  0.11258260709E+04 -0.12058924673E+04  0.16637401234E+04  0.50400001928E-02 0.  1.
</event>
<event>
 5   0  0.1545375E-06  0.3094983E+04  0.7818609E-02  0.8217116E-01
        3   -1    0    0  501    0  0.00000000000E+00  0.00000000000E+00  0.20462349342E+04  0.20462349367E+04  0.10100000352E+00 0. -1.
       -3   -1    0    0    0  501  0.00000000000E+00  0.00000000000E+00 -0.11703102211E+04  0.11703102254E+04  0.10100000352E+00 0.  1.
    10030    2    1    2    0    0  0.00000000000E+00  0.00000000000E+00  0.87592471319E+03  0.32165451622E+04  0.30949828234E+04 0.  0.
        1    1    3    3  502    0  0.91327463162E+03 -0.59707061049E+03  0.15784079071E+04  0.19188369883E+04  0.50400001928E-02 0. -1.
       -1    1    3    3    0  502 -0.91327463162E+03  0.59707061049E+03 -0.70248319390E+03  0.12977081738E+04  0.50400001928E-02 0.  1.
</event>
<event>
 5   0  0.1700885E-06  0.3025854E+04  0.7818609E-02  0.8236387E-01
       -1   -1    0    0    0  501  0.00000000000E+00  0.00000000000E+00  0.11266836120E+04  0.11266836120E+04  0.50400001928E-02 0. -1.
        1   -1    0    0  501    0  0.00000000000E+00  0.00000000000E+00 -0.20315796033E+04  0.20315796033E+04  0.50400001928E-02 0.  1.
    10030    2    1    2    0    0  0.00000000000E+00  0.00000000000E+00 -0.90489599137E+03  0.31582632153E+04  0.30258535625E+04 0.  0.
        1    1    3    3  502    0  0.76880402816E+03  0.79604447385E+03  0.62429547916E+03  0.12706263351E+04  0.50400001928E-02 0. -1.
       -1    1    3    3    0  502 -0.76880402816E+03 -0.79604447385E+03 -0.15291914705E+04  0.18876368802E+04  0.50400001928E-02 0.  1.
</event>
<event>
 5   0  0.1686012E-06  0.3030473E+04  0.7818609E-02  0.8235082E-01
       -1   -1    0    0    0  501  0.00000000000E+00  0.00000000000E+00  0.11236942378E+04  0.11236942378E+04  0.50400001928E-02 0.  1.
        1   -1    0    0  501    0  0.00000000000E+00  0.00000000000E+00 -0.20432088088E+04  0.20432088088E+04  0.50400001928E-02 0. -1.
    10030    2    1    2    0    0  0.00000000000E+00  0.00000000000E+00 -0.91951457102E+03  0.31669030467E+04  0.30304732074E+04 0.  0.
        4    1    3    3  502    0  0.44035144944E+03  0.14367021369E+04 -0.25626563700E+03  0.15243674487E+04  0.12699999809E+01 0.  1.
       -4    1    3    3    0  502 -0.44035144944E+03 -0.14367021369E+04 -0.66324893401E+03  0.16425355979E+04  0.12699999809E+01 0. -1.
</event>
<event>
 5   0  0.1709858E-06  0.3001989E+04  0.7818609E-02  0.8243163E-01
       -1   -1    0    0    0  501  0.00000000000E+00  0.00000000000E+00  0.92335983947E+03  0.92335983949E+03  0.50400001928E-02 0.  1.
        1   -1    0    0  501    0  0.00000000000E+00  0.00000000000E+00 -0.24399846517E+04  0.24399846517E+04  0.50400001928E-02 0. -1.
    10030    2    1    2    0    0  0.00000000000E+00  0.00000000000E+00 -0.15166248122E+04  0.33633444912E+04  0.30019885651E+04 0.  0.
        3    1    3    3  502    0 -0.13822081910E+04  0.50984637873E+03 -0.43643001725E+03  0.15365265970E+04  0.10100000352E+00 0.  1.
       -3    1    3    3    0  502  0.13822081910E+04 -0.50984637873E+03 -0.10801947949E+04  0.18268178941E+04  0.10100000352E+00 0. -1.
</event>
<event>
 5   0  0.4532420E-06  0.2977771E+04  0.7818609E-02  0.8250107E-01
        2   -1    0    0  501    0  0.00000000000E+00  0.00000000000E+00  0.14718605584E+04  0.14718605584E+04  0.25500000920E-02 0.  1.
       -2   -1    0    0    0  501  0.00000000000E+00  0.00000000000E+00 -0.15061075573E+04  0.15061075573E+04  0.25500000920E-02 0. -1.
    10030    2    1    2    0    0  0.00000000000E+00  0.00000000000E+00 -0.34246998834E+02  0.29779681157E+04  0.29777711869E+04 0.  0.
        4    1    3    3  502    0  0.11662308696E+04 -0.84457254872E+03 -0.39580599341E+03  0.14933389530E+04  0.12699999809E+01 0. -1.
       -4    1    3    3    0  502 -0.11662308696E+04  0.84457254872E+03  0.36155899457E+03  0.14846291627E+04  0.12699999809E+01 0.  1.
</event>
<event>
 5   0  0.1734885E-06  0.2975270E+04  0.7818609E-02  0.8250828E-01
       -1   -1    0    0    0  501  0.00000000000E+00  0.00000000000E+00  0.97724539445E+03  0.97724539446E+03  0.50400001928E-02 0. -1.
        1   -1    0    0  501    0  0.00000000000E+00  0.00000000000E+00 -0.22645876728E+04  0.22645876728E+04  0.50400001928E-02 0.  1.
    10030    2    1    2    0    0  0.00000000000E+00  0.00000000000E+00 -0.12873422784E+04  0.32418330673E+04  0.29752699868E+04 0.  0.
        2    1    3    3  502    0  0.12944703493E+04 -0.72884027637E+03 -0.72943975048E+03  0.16549755235E+04  0.25500000920E-02 0.  1.
       -2    1    3    3    0  502 -0.12944703493E+04  0.72884027637E+03 -0.55790252789E+03  0.15868575438E+04  0.25500000920E-02 0. -1.
</event>
<event>
 5   0  0.1709858E-06  0.3038862E+04  0.7818609E-02  0.8232720E-01
        1   -1    0    0  501    0  0.00000000000E+00  0.00000000000E+00  0.24041866391E+04  0.24041866391E+04  0.50400001928E-02 0. -1.
       -1   -1    0    0    0  501  0.00000000000E+00  0.00000000000E+00 -0.96027095562E+03  0.96027095563E+03  0.50400001928E-02 0.  1.
    10030    2    1    2    0    0  0.00000000000E+00  0.00000000000E+00  0.14439156835E+04  0.33644575948E+04  0.30388620248E+04 0.  0.
        3    1    3    3  502    0  0.74501387870E+03 -0.86000597471E+03 -0.39291718788E+03  0.12037607249E+04  0.10100000352E+00 0.  1.
       -3    1    3    3    0  502 -0.74501387870E+03  0.86000597471E+03  0.18368328714E+04  0.21606968699E+04  0.10100000352E+00 0. -1.
</event>
<event>
 5   0  0.4935331E-06  0.3014210E+04  0.7818609E-02  0.8239685E-01
       -2   -1    0    0    0  501  0.00000000000E+00  0.00000000000E+00  0.13090176343E+04  0.13090176343E+04  0.25500000920E-02 0. -1.
        2   -1    0    0  501    0  0.00000000000E+00  0.00000000000E+00 -0.17351683412E+04  0.17351683412E+04  0.25500000920E-02 0.  1.
    10030    2    1    2    0    0  0.00000000000E+00  0.00000000000E+00 -0.42615070695E+03  0.30441859755E+04  0.30142103159E+04 0.  0.
        5    1    3    3  502    0  0.56820221627E+03 -0.13042548517E+04 -0.71542455769E+03  0.15924160463E+04  0.46999998093E+01 0.  1.
       -5    1    3    3    0  502 -0.56820221627E+03  0.13042548517E+04  0.28927385074E+03  0.14517699292E+04  0.46999998093E+01 0. -1.
</event>
<event>
 5   0  0.1734885E-06  0.3046159E+04  0.7818609E-02  0.8230671E-01
       -1   -1    0    0    0  501  0.00000000000E+00  0.00000000000E+00  0.14110591931E+04  0.14110591931E+04  0.50400001928E-02 0. -1.
        1   -1    0    0  501    0  0.00000000000E+00  0.00000000000E+00 -0.16439928804E+04  0.16439928804E+04  0.50400001928E-02 0.  1.
    10030    2    1    2    0    0  0.00000000000E+00  0.00000000000E+00 -0.23293368725E+03  0.30550520735E+04  0.30461590682E+04 0.  0.
        2    1    3    3  502    0  0.79661500426E+03 -0.10312471055E+04  0.67431791883E+03  0.14672323311E+04  0.25500000920E-02 0. -1.
       -2    1    3    3    0  502 -0.79661500426E+03  0.10312471055E+04 -0.90725160608E+03  0.15878197424E+04  0.25500000920E-02 0.  1.
</event>
<event>
 5   0  0.1672907E-06  0.2938423E+04  0.7818609E-02  0.8261536E-01
        1   -1    0    0  501    0  0.00000000000E+00  0.00000000000E+00  0.16335542275E+04  0.16335542275E+04  0.50400001928E-02 0.  1.
       -1   -1    0    0    0  501  0.00000000000E+00  0.00000000000E+00 -0.13214026659E+04  0.13214026659E+04  0.50400001928E-02 0. -1.
    10030    2    1    2    0    0  0.00000000000E+00  0.00000000000E+00  0.31215156154E+03  0.29549568934E+04  0.29384233263E+04 0.  0.
        5    1    3    3  502    0 -0.38185498394E+03  0.11551433715E+04  0.98435534920E+03  0.15649750736E+04  0.46999998093E+01 0.  1.
       -5    1    3    3    0  502  0.38185498394E+03 -0.11551433715E+04 -0.67220378765E+03  0.13899818199E+04  0.46999998093E+01 0. -1.
</event>
<event>
 5   0  0.1672907E-06  0.2924018E+04  0.7818609E-02  0.8265767E-01
        1   -1    0    0  501    0  0.00000000000E+00  0.00000000000E+00  0.22602130425E+04  0.22602130425E+04  0.50400001928E-02 0. -1.
       -1   -1    0    0    0  501  0.00000000000E+00  0.00000000000E+00 -0.94569405975E+03  0.94569405976E+03  0.50400001928E-02 0.  1.
    10030    2    1    2    0    0  0.00000000000E+00  0.00000000000E+00  0.13145189828E+04  0.32059071023E+04  0.29240178167E+04 0.  0.
        5    1    3    3  502    0 -0.38376030224E+03  0.13985433545E+04  0.45434321077E+03  0.15197517320E+04  0.46999998093E+01 0.  1.
       -5    1    3    3    0  502  0.38376030224E+03 -0.13985433545E+04  0.86017577200E+03  0.16861553702E+04  0.46999998093E+01 0. -1.
</event>
<event>
 5   0  0.4702748E-06  0.2994280E+04  0.7818609E-02  0.8245366E-01
       -2   -1    0    0    0  501  0.00000000000E+00  0.00000000000E+00  0.13294020073E+04  0.13294020073E+04  0.25500000920E-02 0.  1.
        2   -1    0    0  501    0  0.00000000000E+00  0.00000000000E+00 -0.16860422661E+04  0.16860422661E+04  0.25500000920E-02 0. -1.
    10030    2    1    2    0    0  0.00000000000E+00  0.00000000000E+00 -0.35664025880E+03  0.30154442734E+04  0.29942798620E+04 0.  0.
        2    1    3    3  502    0  0.48775505986E+03 -0.12110064968E+04 -0.91629316869E+03  0.15950031049E+04  0.25500000920E-02 0. -1.
       -2    1    3    3    0  502 -0.48775505986E+03  0.12110064968E+04  0.55965290990E+03  0.14204411685E+04  0.25500000920E-02 0.  1.
</event>
<event>
 5   0  0.4702748E-06  0.2671436E+04  0.7818609E-02  0.8344333E-01
        2   -1    0    0  501    0  0.00000000000E+00  0.00000000000E+00  0.17395950863E+04  0.17395950863E+04  0.25500000920E-02 0. -1.
       -2   -1    0    0    0  501  0.00000000000E+00  0.00000000000E+00 -0.10256081681E+04  0.10256081681E+04  0.25500000920E-02 0.  1.
    10030    2    1    2    0    0  0.00000000000E+00  0.00000000000E+00  0.71398691819E+03  0.27652032543E+04  0.26714362651E+04 0.  0.
        2    1    3    3  502    0 -0.41014899668E+03 -0.48764461696E+03  0.15721334238E+04  0.16963557923E+04  0.25500000920E-02 0. -1.
       -2    1    3    3    0  502  0.41014899668E+03  0.48764461696E+03 -0.85814650561E+03  0.10688474620E+04  0.25500000920E-02 0.  1.
</event>
<event>
 5   0  0.4935331E-06  0.2893308E+04  0.7818609E-02  0.8274871E-01
        2   -1    0    0  501    0  0.00000000000E+00  0.00000000000E+00  0.22313263376E+04  0.22313263376E+04  0.25500000920E-02 0. -1.
       -2   -1    0    0    0  501  0.00000000000E+00  0.00000000000E+00 -0.93792124914E+03  0.93792124914E+03  0.25500000920E-02 0.  1.
    10030    2    1    2    0    0  0.00000000000E+00  0.00000000000E+00  0.12934050885E+04  0.31692475867E+04  0.28933084079E+04 0.  0.
        5    1    3    3  502    0  0.83217113561E+03  0.37359855236E+03  0.18765962939E+04  0.20865570726E+04  0.46999998093E+01 0. -1.
       -5    1    3    3    0  502 -0.83217113561E+03 -0.37359855236E+03 -0.58319120540E+03  0.10826905141E+04  0.46999998093E+01 0.  1.
</event>
<event>
 5   0  0.4532420E-06  0.3062117E+04  0.7818609E-02  0.8226212E-01
        2   -1    0    0  501    0  0.00000000000E+00  0.00000000000E+00  0.25669417049E+04  0.25669417049E+04  0.25500000920E-02 0. -1.
       -2   -1    0    0    0  501  0.00000000000E+00  0.00000000000E+00 -0.91320323313E+03  0.91320323314E+03  0.25500000920E-02 0.  1.
    10030    2    1    2    0    0  0.00000000000E+00  0.00000000000E+00  0.16537384718E+04  0.34801449380E+04  0.30621165649E+04 0.  0.
        4    1    3    3  502    0 -0.50602801694E+03  0.14444412488E+04  0.78052255585E+03  0.17180488783E+04  0.12699999809E+01 0. -1.
       -4    1    3    3    0  502  0.50602801694E+03 -0.14444412488E+04  0.87321591592E+03  0.17620960598E+04  0.12699999809E+01 0.  1.
</event>
<event>
 5   0  0.1700885E-06  0.3020396E+04  0.7818609E-02  0.8237931E-01
        1   -1    0    0  501    0  0.00000000000E+00  0.00000000000E+00  0.24238321785E+04  0.24238321785E+04  0.50400001928E-02 0. -1.
       -1   -1    0    0    0  501  0.00000000000E+00  0.00000000000E+00 -0.94094703061E+03  0.94094703062E+03  0.50400001928E-02 0.  1.
    10030    2    1    2    0    0  0.00000000000E+00  0.00000000000E+00  0.14828851479E+04  0.33647792091E+04  0.30203957960E+04 0.  0.
        1    1    3    3  502    0  0.11755410680E+03 -0.14383503428E+04  0.24570146410E+03  0.14639125268E+04  0.50400001928E-02 0.  1.
       -1    1    3    3    0  502 -0.11755410680E+03  0.14383503428E+04  0.12371836838E+04  0.19008666823E+04  0.50400001928E-02 0. -1.
</event>
<event>
 5   0  0.4532420E-06  0.2842839E+04  0.7818609E-02  0.8290091E-01
        2   -1    0    0  501    0  0.00000000000E+00  0.00000000000E+00  0.14234445223E+04  0.14234445223E+04  0.25500000920E-02 0.  1.
       -2   -1    0    0    0  501  0.00000000000E+00  0.00000000000E+00 -0.14193976473E+04  0.14193976473E+04  0.25500000920E-02 0. -1.
    10030    2    1    2    0    0  0.00000000000E+00  0.00000000000E+00  0.40468750190E+01  0.28428421696E+04  0.28428392892E+04 0.  0.
        4    1    3    3  502    0  0.41323706539E+03 -0.58343357310E+02  0.13607975596E+04  0.14233553424E+04  0.12699999809E+01 0.  1.
       -4    1    3    3    0  502 -0.41323706539E+03  0.58343357310E+02 -0.13567506846E+04  0.14194868272E+04  0.12699999809E+01 0. -1.
</event>
<event>
 5   0  0.1686012E-06  0.3048101E+04  0.7818609E-02  0.8230127E-01
        1   -1    0    0  501    0  0.00000000000E+00  0.00000000000E+00  0.26811421312E+04  0.26811421312E+04  0.50400001928E-02 0.  1.
       -1   -1    0    0    0  501  0.00000000000E+00  0.00000000000E+00 -0.86632101252E+03  0.86632101253E+03  0.50400001928E-02 0. -1.
    10030    2    1    2    0    0  0.00000000000E+00  0.00000000000E+00  0.18148211187E+04  0.35474631438E+04  0.30481008946E+04 0.  0.
        4    1    3    3  502    0 -0.55030753170E+03 -0.77910059543E+03  0.22907954953E+04  0.24814475072E+04  0.12699999809E+01 0.  1.
       -4    1    3    3    0  502  0.55030753170E+03  0.77910059543E+03 -0.47597437655E+03  0.10660156365E+04  0.12699999809E+01 0. -1.
</event>
<event>
 5   0  0.4768570E-06  0.2972725E+04  0.7818609E-02  0.8251562E-01
       -2   -1    0    0    0  501  0.00000000000E+00  0.00000000000E+00  0.15661589077E+04  0.15661589077E+04  0.25500000920E-02 0.  1.
        2   -1    0    0  501    0  0.00000000000E+00  0.00000000000E+00 -0.14106321640E+04  0.14106321641E+04  0.25500000920E-02 0. -1.
    10030    2    1    2    0    0  0.00000000000E+00  0.00000000000E+00  0.15552674367E+03  0.29767910718E+04  0.29727254359E+04 0.  0.
        1    1    3    3  502    0 -0.65729818876E+03 -0.26313240651E+03 -0.12309266661E+04  0.14200211370E+04  0.50400001928E-02 0. -1.
       -1    1    3    3    0  502  0.65729818876E+03  0.26313240651E+03  0.13864534098E+04  0.15567699348E+04  0.50400001928E-02 0.  1.
</event>
<event>
 5   0  0.1709858E-06  0.3013304E+04  0.7818609E-02  0.8239942E-01
        1   -1    0    0  501    0  0.00000000000E+00  0.00000000000E+00  0.14508681116E+04  0.14508681116E+04  0.50400001928E-02 0. -1.
       -1   -1    0    0    0  501  0.00000000000E+00  0.00000000000E+00 -0.15645804444E+04  0.15645804444E+04  0.50400001928E-02 0.  1.
    10030    2    1    2    0    0  0.00000000000E+00  0.00000000000E+00 -0.11371233280E+03  0.30154485560E+04  0.30133037515E+04 0.  0.
        3    1    3    3  502    0  0.14466566661E+04  0.32811588350E+03 -0.32071849583E+03  0.15176745061E+04  0.10100000352E+00 0.  1.
       -3    1    3    3    0  502 -0.14466566661E+04 -0.32811588350E+03  0.20700616303E+03  0.14977740499E+04  0.10100000352E+00 0. -1.
</event>
<event>
 5   0  0.5003556E-06  0.3066157E+04  0.7818609E-02  0.8225088E-01
       -2   -1    0    0    0  501  0.00000000000E+00  0.00000000000E+00  0.93513031792E+03  0.93513031793E+03  0.25500000920E-02 0.  1.
        2   -1    0    0  501    0  0.00000000000E+00  0.00000000000E+00 -0.25133713231E+04  0.25133713231E+04  0.25500000920E-02 0. -1.
    10030    2    1    2    0    0  0.00000000000E+00  0.00000000000E+00 -0.15782410052E+04  0.34485016410E+04  0.30661570243E+04 0.  0.
        3    1    3    3  502    0 -0.10795944951E+04  0.32991632613E+03 -0.19557534590E+04  0.22581719728E+04  0.10100000352E+00 0. -1.
       -3    1    3    3    0  502  0.10795944951E+04 -0.32991632613E+03  0.37751245381E+03  0.11903296682E+04  0.10100000352E+00 0.  1.
</event>
<event>
 5   0  0.1672907E-06  0.3009862E+04  0.7818609E-02  0.8240920E-01
        1   -1    0    0  501    0  0.00000000000E+00  0.00000000000E+00  0.18806125283E+04  0.18806125283E+04  0.50400001928E-02 0.  1.
       -1   -1    0    0    0  501  0.00000000000E+00  0.00000000000E+00 -0.12042975924E+04  0.12042975924E+04  0.50400001928E-02 0. -1.
    10030    2    1    2    0    0  0.00000000000E+00  0.00000000000E+00  0.67631493589E+03  0.30849101207E+04  0.30098618839E+04 0.  0.
        5    1    3    3  502    0 -0.44472992499E+03  0.46991630194E+03 -0.10544670251E+04  0.12371454377E+04  0.46999998093E+01 0. -1.
       -5    1    3    3    0  502  0.44472992499E+03 -0.46991630194E+03  0.17307819610E+04  0.18477646830E+04  0.46999998093E+01 0.  1.
</event>
<event>
 5   0  0.4768570E-06  0.3104747E+04  0.7818609E-02  0.8214436E-01
        2   -1    0    0  501    0  0.00000000000E+00  0.00000000000E+00  0.17032651439E+04  0.17032651439E+04  0.25500000920E-02 0. -1.
       -2   -1    0    0    0  501  0.00000000000E+00  0.00000000000E+00 -0.14148494257E+04  0.14148494257E+04  0.25500000920E-02 0.  1.
    10030    2    1    2    0    0  0.00000000000E+00  0.00000000000E+00  0.28841571828E+03  0.31181145696E+04  0.31047471463E+04 0.  0.
        1    1    3    3  502    0 -0.84231609658E+02  0.14278547194E+04 -0.46171357135E+03  0.15030114723E+04  0.50400001928E-02 0.  1.
       -1    1    3    3    0  502  0.84231609658E+02 -0.14278547194E+04  0.75012928963E+03  0.16151030973E+04  0.50400001928E-02 0. -1.
</event>
<event>
 5   0  0.5003556E-06  0.3003001E+04  0.7818609E-02  0.8242874E-01
       -2   -1    0    0    0  501  0.00000000000E+00  0.00000000000E+00  0.84064987055E+03  0.84064987056E+03  0.25500000920E-02 0.  1.
        2   -1    0    0  501    0  0.00000000000E+00  0.00000000000E+00 -0.26818588292E+04  0.26818588292E+04  0.25500000920E-02 0. -1.
    10030    2    1    2    0    0  0.00000000000E+00  0.00000000000E+00 -0.18412089586E+04  0.35225086997E+04  0.30030013504E+04 0.  0.
        3    1    3    3  502    0 -0.11461761473E+04  0.93750715125E+03 -0.62884933517E+03  0.16087544610E+04  0.10100000352E+00 0.  1.
       -3    1    3    3    0  502  0.11461761473E+04 -0.93750715125E+03 -0.12123596234E+04  0.19137542387E+04  0.10100000352E+00 0. -1.
</event>
<event>
 5   0  0.1545375E-06  0.3008993E+04  0.7818609E-02  0.8241168E-01
        3   -1    0    0  501    0  0.00000000000E+00  0.00000000000E+00  0.13277359185E+04  0.13277359223E+04  0.10100000352E+00 0.  1.
       -3   -1    0    0    0  501  0.00000000000E+00  0.00000000000E+00 -0.17047890676E+04  0.17047890706E+04  0.10100000352E+00 0. -1.
    10030    2    1    2    0    0  0.00000000000E+00  0.00000000000E+00 -0.37705314918E+03  0.30325249929E+04  0.30089929803E+04 0.  0.
        1    1    3    3  502    0  0.14307580791E+04 -0.25163659330E+03  0.20583920354E+03  0.14672284872E+04  0.50400001928E-02 0.  1.
       -1    1    3    3    0  502 -0.14307580791E+04  0.25163659330E+03 -0.58289235272E+03  0.15652965057E+04  0.50400001928E-02 0. -1.
</event>
<event>
 5   0  0.1686012E-06  0.3005907E+04  0.7818609E-02  0.8242046E-01
       -1   -1    0    0    0  501  0.00000000000E+00  0.00000000000E+00  0.19055570818E+04  0.19055570819E+04  0.50400001928E-02 0. -1.
        1   -1    0    0  501    0  0.00000000000E+00  0.00000000000E+00 -0.11854118082E+04  0.11854118082E+04  0.50400001928E-02 0.  1.
    10030    2    1    2    0    0  0.00000000000E+00  0.00000000000E+00  0.72014527368E+03  0.30909688900E+04  0.30059074277E+04 0.  0.
        4    1    3    3  502    0  0.15566562428E+03  0.14555735647E+04  0.99343951841E+01  0.14639079527E+04  0.12699999809E+01 0.  1.
       -4    1    3    3    0  502 -0.15566562428E+03 -0.14555735647E+04  0.71021087850E+03  0.16270609373E+04  0.12699999809E+01 0. -1.
</event>
<event>
 5   0  0.1686012E-06  0.3001060E+04  0.7818609E-02  0.8243428E-01
        1   -1    0    0  501    0  0.00000000000E+00  0.00000000000E+00  0.16685254592E+04  0.16685254592E+04  0.50400001928E-02 0. -1.
       -1   -1    0    0    0  501  0.00000000000E+00  0.00000000000E+00 -0.13494495312E+04  0.13494495312E+04  0.50400001928E-02 0.  1.
    10030    2    1    2    0    0  0.00000000000E+00  0.00000000000E+00  0.31907592804E+03  0.30179749904E+04  0.30010604117E+04 0.  0.
        4    1    3    3  502    0  0.14060645880E+04  0.97550506820E+02 -0.35819921953E+03  0.14542496419E+04  0.12699999809E+01 0.  1.
       -4    1    3    3    0  502 -0.14060645880E+04 -0.97550506820E+02  0.67727514757E+03  0.15637253485E+04  0.12699999809E+01 0. -1.
</event>
<event>
 5   0  0.4532420E-06  0.3024046E+04  0.7818609E-02  0.8236898E-01
        2   -1    0    0  501    0  0.00000000000E+00  0.00000000000E+00  0.15672730418E+04  0.15672730418E+04  0.25500000920E-02 0. -1.
       -2   -1    0    0    0  501  0.00000000000E+00  0.00000000000E+00 -0.14587202577E+04  0.14587202577E+04  0.25500000920E-02 0.  1.
    10030    2    1    2    0    0  0.00000000000E+00  0.00000000000E+00  0.10855278414E+03  0.30259932995E+04  0.30240455919E+04 0.  0.
        4    1    3    3  502    0 -0.94781528622E+03 -0.11541158364E+04 -0.18225297033E+03  0.15045115283E+04  0.12699999809E+01 0.  1.
       -4    1    3    3    0  502  0.94781528622E+03  0.11541158364E+04  0.29080575447E+03  0.15214817713E+04  0.12699999809E+01 0. -1.
</event>
<event>
 5   0  0.4768570E-06  0.3002329E+04  0.7818609E-02  0.8243066E-01
        2   -1    0    0  501    0  0.00000000000E+00  0.00000000000E+00  0.13728164577E+04  0.13728164577E+04  0.25500000920E-02 0.  1.
       -2   -1    0    0    0  501  0.00000000000E+00  0.00000000000E+00 -0.16415119685E+04  0.16415119685E+04  0.25500000920E-02 0. -1.
    10030    2    1    2    0    0  0.00000000000E+00  0.00000000000E+00 -0.26869551084E+03  0.30143284262E+04  0.30023288600E+04 0.  0.
        1    1    3    3  502    0 -0.42708053267E+03 -0.79770041546E+03 -0.13369543744E+04  0.16143638789E+04  0.50400001928E-02 0. -1.
       -1    1    3    3    0  502  0.42708053267E+03  0.79770041546E+03  0.10682588635E+04  0.13999645473E+04  0.50400001928E-02 0.  1.
</event>
<event>
 5   0  0.1700885E-06  0.3028494E+04  0.7818609E-02  0.8235641E-01
        1   -1    0    0  501    0  0.00000000000E+00  0.00000000000E+00  0.21887990581E+04  0.21887990581E+04  0.50400001928E-02 0.  1.
       -1   -1    0    0    0  501  0.00000000000E+00  0.00000000000E+00 -0.10475810094E+04  0.10475810094E+04  0.50400001928E-02 0. -1.
    10030    2    1    2    0    0  0.00000000000E+00  0.00000000000E+00  0.11412180487E+04  0.32363800675E+04  0.30284942309E+04 0.  0.
        1    1    3    3  502    0 -0.79730717885E+03  0.12483085921E+04  0.90680095886E+03  0.17367386268E+04  0.50400001928E-02 0.  1.
       -1    1    3    3    0  502  0.79730717885E+03 -0.12483085921E+04  0.23441708984E+03  0.14996414407E+04  0.50400001928E-02 0. -1.
</event>
<event>
 5   0  0.4935331E-06  0.3452510E+04  0.7818609E-02  0.8125138E-01
       -2   -1    0    0    0  501  0.00000000000E+00  0.00000000000E+00  0.13780332835E+04  0.13780332835E+04  0.25500000920E-02 0. -1.
        2   -1    0    0  501    0  0.00000000000E+00  0.00000000000E+00 -0.21624699229E+04  0.21624699229E+04  0.25500000920E-02 0.  1.
    10030    2    1    2    0    0  0.00000000000E+00  0.00000000000E+00 -0.78443663938E+03  0.35405032064E+04  0.34525095385E+04 0.  0.
        5    1    3    3  502    0  0.89084065198E+03  0.12136403921E+04 -0.12583835115E+04  0.19621598356E+04  0.46999998093E+01 0.  1.
       -5    1    3    3    0  502 -0.89084065198E+03 -0.12136403921E+04  0.47394687210E+03  0.15783433708E+04  0.46999998093E+01 0. -1.
</event>
<event>
 5   0  0.1686012E-06  0.2967699E+04  0.7818609E-02  0.8253015E-01
        1   -1    0    0  501    0  0.00000000000E+00  0.00000000000E+00  0.10654320013E+04  0.10654320013E+04  0.50400001928E-02 0.  1.
       -1   -1    0    0    0  501  0.00000000000E+00  0.00000000000E+00 -0.20665886642E+04  0.20665886643E+04  0.50400001928E-02 0. -1.
    10030    2    1    2    0    0  0.00000000000E+00  0.00000000000E+00 -0.10011566630E+04  0.31320206656E+04  0.29676992411E+04 0.  0.
        4    1    3    3  502    0  0.61215000747E+03 -0.95342716646E+03 -0.15117841917E+04  0.18892443062E+04  0.12699999809E+01 0. -1.
       -4    1    3    3    0  502 -0.61215000747E+03  0.95342716646E+03  0.51062752874E+03  0.12427763594E+04  0.12699999809E+01 0.  1.
</event>
<event>
 5   0  0.1672907E-06  0.2961126E+04  0.7818609E-02  0.8254920E-01
        1   -1    0    0  501    0  0.00000000000E+00  0.00000000000E+00  0.15253212072E+04  0.15253212072E+04  0.50400001928E-02 0.  1.
       -1   -1    0    0    0  501  0.00000000000E+00  0.00000000000E+00 -0.14371178718E+04  0.14371178718E+04  0.50400001928E-02 0. -1.
    10030    2    1    2    0    0  0.00000000000E+00  0.00000000000E+00  0.88203335437E+02  0.29624390790E+04  0.29611257097E+04 0.  0.
        5    1    3    3  502    0  0.86028268381E+03 -0.11080168642E+04 -0.42966577121E+03  0.14671136399E+04  0.46999998093E+01 0. -1.
       -5    1    3    3    0  502 -0.86028268381E+03  0.11080168642E+04  0.51786910665E+03  0.14953254392E+04  0.46999998093E+01 0.  1.
</event>
<event>
 5   0  0.1734885E-06  0.3018485E+04  0.7818609E-02  0.8238472E-01
       -1   -1    0    0    0  501  0.00000000000E+00  0.00000000000E+00  0.13705017116E+04  0.13705017116E+04  0.50400001928E-02 0. -1.
        1   -1    0    0  501    0  0.00000000000E+00  0.00000000000E+00 -0.16620282345E+04  0.16620282345E+04  0.50400001928E-02 0.  1.
    10030    2    1    2    0    0  0.00000000000E+00  0.00000000000E+00 -0.29152652289E+03  0.30325299461E+04  0.30184847457E+04 0.  0.
        2    1    3    3  502    0  0.31212457944E+02  0.53305385337E+03  0.12724325285E+04  0.13799294068E+04  0.25500000920E-02 0. -1.
       -2    1    3    3    0  502 -0.31212457944E+02 -0.53305385337E+03 -0.15639590514E+04  0.16526005393E+04  0.25500000920E-02 0.  1.
</event>
<event>
 5   0  0.4532420E-06  0.2967262E+04  0.7818609E-02  0.8253142E-01
        2   -1    0    0  501    0  0.00000000000E+00  0.00000000000E+00  0.12995459410E+04  0.12995459410E+04  0.25500000920E-02 0.  1.
       -2   -1    0    0    0  501  0.00000000000E+00  0.00000000000E+00 -0.16937928606E+04  0.16937928606E+04  0.25500000920E-02 0. -1.
    10030    2    1    2    0    0  0.00000000000E+00  0.00000000000E+00 -0.39424691964E+03  0.29933388016E+04  0.29672624669E+04 0.  0.
        4    1    3    3  502    0 -0.14250094302E+04  0.28120274454E+02  0.21846463163E+03  0.14419330894E+04  0.12699999809E+01 0.  1.
       -4    1    3    3    0  502  0.14250094302E+04 -0.28120274454E+02 -0.61271155127E+03  0.15514057122E+04  0.12699999809E+01 0. -1.
</event>
<event>
 5   0  0.1700885E-06  0.2976634E+04  0.7818609E-02  0.8250435E-01
        1   -1    0    0  501    0  0.00000000000E+00  0.00000000000E+00  0.15235105290E+04  0.15235105290E+04  0.50400001928E-02 0.  1.
       -1   -1    0    0    0  501  0.00000000000E+00  0.00000000000E+00 -0.14539360856E+04  0.14539360856E+04  0.50400001928E-02 0. -1.
    10030    2    1    2    0    0  0.00000000000E+00  0.00000000000E+00  0.69574443353E+02  0.29774466146E+04  0.29766336253E+04 0.  0.
        1    1    3    3  502    0  0.21121013743E+03  0.14364886047E+04  0.36195101161E+03  0.14963681928E+04  0.50400001928E-02 0.  1.
       -1    1    3    3    0  502 -0.21121013743E+03 -0.14364886047E+04 -0.29237656826E+03  0.14810784218E+04  0.50400001928E-02 0. -1.
</event>
<event>
 5   0  0.1709858E-06  0.3008726E+04  0.7818609E-02  0.8241244E-01
        1   -1    0    0  501    0  0.00000000000E+00  0.00000000000E+00  0.12427754414E+04  0.12427754414E+04  0.50400001928E-02 0. -1.
       -1   -1    0    0    0  501  0.00000000000E+00  0.00000000000E+00 -0.18210106357E+04  0.18210106357E+04  0.50400001928E-02 0.  1.
    10030    2    1    2    0    0  0.00000000000E+00  0.00000000000E+00 -0.57823519424E+03  0.30637860771E+04  0.30087255086E+04 0.  0.
        3    1    3    3  502    0  0.12284339029E+03 -0.13832519489E+04 -0.87817666778E+03  0.16430674736E+04  0.10100000352E+00 0.  1.
       -3    1    3    3    0  502 -0.12284339029E+03  0.13832519489E+04  0.29994147354E+03  0.14207186035E+04  0.10100000352E+00 0. -1.
</event>
<event>
 5   0  0.4702748E-06  0.2984255E+04  0.7818609E-02  0.8248241E-01
        2   -1    0    0  501    0  0.00000000000E+00  0.00000000000E+00  0.89311290813E+03  0.89311290813E+03  0.25500000920E-02 0.  1.
       -2   -1    0    0    0  501  0.00000000000E+00  0.00000000000E+00 -0.24929039354E+04  0.24929039354E+04  0.25500000920E-02 0. -1.
    10030    2    1    2    0    0  0.00000000000E+00  0.00000000000E+00 -0.15997910273E+04  0.33860168436E+04  0.29842551389E+04 0.  0.
        2    1    3    3  502    0 -0.98067686279E+03  0.14204785964E+03  0.46588262311E+03  0.10949663566E+04  0.25500000920E-02 0.  1.
       -2    1    3    3    0  502  0.98067686279E+03 -0.14204785964E+03 -0.20656736504E+04  0.22910504869E+04  0.25500000920E-02 0. -1.
</event>
<event>
 5   0  0.4532420E-06  0.2995442E+04  0.7818609E-02  0.8245034E-01
       -2   -1    0    0    0  501  0.00000000000E+00  0.00000000000E+00  0.14480856252E+04  0.14480856252E+04  0.25500000920E-02 0. -1.
        2   -1    0    0  501    0  0.00000000000E+00  0.00000000000E+00 -0.15490574163E+04  0.15490574163E+04  0.25500000920E-02 0.  1.
    10030    2    1    2    0    0  0.00000000000E+00  0.00000000000E+00 -0.10097179112E+03  0.29971430416E+04  0.29954417219E+04 0.  0.
        4    1    3    3  502    0  0.10344810758E+04  0.32854238776E+03 -0.10830967474E+04  0.15333595058E+04  0.12699999809E+01 0.  1.
       -4    1    3    3    0  502 -0.10344810758E+04 -0.32854238776E+03  0.98212495632E+03  0.14637835358E+04  0.12699999809E+01 0. -1.
</event>
<event>
 5   0  0.1672907E-06  0.2986046E+04  0.7818609E-02  0.8247727E-01
       -1   -1    0    0    0  501  0.00000000000E+00  0.00000000000E+00  0.16283733187E+04  0.16283733187E+04  0.50400001928E-02 0.  1.
        1   -1    0    0  501    0  0.00000000000E+00  0.00000000000E+00 -0.13689228666E+04  0.13689228666E+04  0.50400001928E-02 0. -1.
    10030    2    1    2    0    0  0.00000000000E+00  0.00000000000E+00  0.25945045210E+03  0.29972961852E+04  0.29860458612E+04 0.  0.
        5    1    3    3  502    0 -0.62342781612E+03  0.11850215986E+04  0.79263524997E+03  0.15560305783E+04  0.46999998093E+01 0.  1.
       -5    1    3    3    0  502  0.62342781612E+03 -0.11850215986E+04 -0.53318479787E+03  0.14412656069E+04  0.46999998093E+01 0. -1.
</event>
<event>
 5   0  0.4532420E-06  0.2974408E+04  0.7818609E-02  0.8251077E-01
       -2   -1    0    0    0  501  0.00000000000E+00  0.00000000000E+00  0.11763417081E+04  0.11763417081E+04  0.25500000920E-02 0.  1.
        2   -1    0    0  501    0  0.00000000000E+00  0.00000000000E+00 -0.18802152090E+04  0.18802152090E+04  0.25500000920E-02 0. -1.
    10030    2    1    2    0    0  0.00000000000E+00  0.00000000000E+00 -0.70387350091E+03  0.30565569171E+04  0.29744078877E+04 0.  0.
        4    1    3    3  502    0 -0.19866933338E+03  0.13166834805E+04  0.32866109144E+03  0.13715482557E+04  0.12699999809E+01 0.  1.
       -4    1    3    3    0  502  0.19866933338E+03 -0.13166834805E+04 -0.10325345924E+04  0.16850086614E+04  0.12699999809E+01 0. -1.
</event>
<event>
 5   0  0.1734885E-06  0.2854895E+04  0.7818609E-02  0.8286425E-01
        1   -1    0    0  501    0  0.00000000000E+00  0.00000000000E+00  0.98330966455E+03  0.98330966456E+03  0.50400001928E-02 0.  1.
       -1   -1    0    0    0  501  0.00000000000E+00  0.00000000000E+00 -0.20721919696E+04  0.20721919696E+04  0.50400001928E-02 0. -1.
    10030    2    1    2    0    0  0.00000000000E+00  0.00000000000E+00 -0.10888823051E+04  0.30555016342E+04  0.28548950177E+04 0.  0.
        2    1    3    3  502    0  0.64123541778E+03  0.12671475834E+04 -0.69865082362E+03  0.15827061738E+04  0.25500000920E-02 0.  1.
       -2    1    3    3    0  502 -0.64123541778E+03 -0.12671475834E+04 -0.39023148144E+03  0.14727954604E+04  0.25500000920E-02 0. -1.
</event>
<event>
 5   0  0.4935331E-06  0.2990899E+04  0.7818609E-02  0.8246334E-01
       -2   -1    0    0    0  501  0.00000000000E+00  0.00000000000E+00  0.18682969674E+04  0.18682969674E+04  0.25500000920E-02 0. -1.
        2   -1    0    0  501    0  0.00000000000E+00  0.00000000000E+00 -0.11970098475E+04  0.11970098475E+04  0.25500000920E-02 0.  1.
    10030    2    1    2    0    0  0.00000000000E+00  0.00000000000E+00  0.67128711993E+03  0.30653068149E+04  0.29908994420E+04 0.  0.
        5    1    3    3  502    0  0.15669540272E+03  0.40962744220E+03  0.18008963316E+04  0.18535365596E+04  0.46999998093E+01 0. -1.
       -5    1    3    3    0  502 -0.15669540272E+03 -0.40962744220E+03 -0.11296092116E+04  0.12117702553E+04  0.46999998093E+01 0.  1.
</event>
<event>
 5   0  0.1686012E-06  0.3010009E+04  0.7818609E-02  0.8240878E-01
       -1   -1    0    0    0  501  0.00000000000E+00  0.00000000000E+00  0.11722171702E+04  0.11722171702E+04  0.50400001928E-02 0.  1.
        1   -1    0    0  501    0  0.00000000000E+00  0.00000000000E+00 -0.19322691012E+04  0.19322691013E+04  0.50400001928E-02 0. -1.
    10030    2    1    2    0    0  0.00000000000E+00  0.00000000000E+00 -0.76005193110E+03  0.31044862714E+04  0.30100093142E+04 0.  0.
        4    1    3    3  502    0  0.58167829984E+03  0.11257412530E+04  0.45749276543E+03  0.13471986700E+04  0.12699999809E+01 0.  1.
       -4    1    3    3    0  502 -0.58167829984E+03 -0.11257412530E+04 -0.12175446965E+04  0.17572876014E+04  0.12699999809E+01 0. -1.
</event>
<event>
 5   0  0.5003556E-06  0.2991307E+04  0.7818609E-02  0.8246218E-01
        2   -1    0    0  501    0  0.00000000000E+00  0.00000000000E+00  0.10694090430E+04  0.10694090430E+04  0.25500000920E-02 0. -1.
       -2   -1    0    0    0  501  0.00000000000E+00  0.00000000000E+00 -0.20917904057E+04  0.20917904057E+04  0.25500000920E-02 0.  1.
    10030    2    1    2    0    0  0.00000000000E+00  0.00000000000E+00 -0.10223813627E+04  0.31611994487E+04  0.29913071229E+04 0.  0.
        3    1    3    3  502    0 -0.41665996785E+03 -0.79050783673E+03  0.75629046431E+03  0.11706764905E+04  0.10100000352E+00 0. -1.
       -3    1    3    3    0  502  0.41665996785E+03  0.79050783673E+03 -0.17786718270E+04  0.19905229582E+04  0.10100000352E+00 0.  1.
</event>
<event>
 5   0  0.1734885E-06  0.2994875E+04  0.7818609E-02  0.8245196E-01
        1   -1    0    0  501    0  0.00000000000E+00  0.00000000000E+00  0.19991712147E+04  0.19991712147E+04  0.50400001928E-02 0. -1.
       -1   -1    0    0    0  501  0.00000000000E+00  0.00000000000E+00 -0.11216242063E+04  0.11216242063E+04  0.50400001928E-02 0.  1.
    10030    2    1    2    0    0  0.00000000000E+00  0.00000000000E+00  0.87754700848E+03  0.31207954210E+04  0.29948748401E+04 0.  0.
        2    1    3    3  502    0 -0.66568713061E+03 -0.37111174360E+03 -0.90439650286E+03  0.11827071981E+04  0.25500000920E-02 0.  1.
       -2    1    3    3    0  502  0.66568713061E+03  0.37111174360E+03  0.17819435113E+04  0.19380882229E+04  0.25500000920E-02 0. -1.
</event>
<event>
 5   0  0.4702748E-06  0.3114113E+04  0.7818609E-02  0.8211875E-01
       -2   -1    0    0    0  501  0.00000000000E+00  0.00000000000E+00  0.13536051650E+04  0.13536051650E+04  0.25500000920E-02 0. -1.
        2   -1    0    0  501    0  0.00000000000E+00  0.00000000000E+00 -0.17910872268E+04  0.17910872268E+04  0.25500000920E-02 0.  1.
    10030    2    1    2    0    0  0.00000000000E+00  0.00000000000E+00 -0.43748206173E+03  0.31446923918E+04  0.31141129852E+04 0.  0.
        2    1    3    3  502    0 -0.72899009067E+03  0.11402291498E+04 -0.99628630559E+03  0.16805164293E+04  0.25500000920E-02 0.  1.
       -2    1    3    3    0  502  0.72899009067E+03 -0.11402291498E+04  0.55880424386E+03  0.14641759626E+04  0.25500000920E-02 0. -1.
</event>
<event>
 5   0  0.4532420E-06  0.3012148E+04  0.7818609E-02  0.8240270E-01
       -2   -1    0    0    0  501  0.00000000000E+00  0.00000000000E+00  0.12653235859E+04  0.12653235859E+04  0.25500000920E-02 0. -1.
        2   -1    0    0  501    0  0.00000000000E+00  0.00000000000E+00 -0.17926320135E+04  0.17926320135E+04  0.25500000920E-02 0.  1.
    10030    2    1    2    0    0  0.00000000000E+00  0.00000000000E+00 -0.52730842761E+03  0.30579555995E+04  0.30121484476E+04 0.  0.
        4    1    3    3  502    0  0.10047400215E+04  0.10009213749E+04  0.25091863620E+03  0.14402457722E+04  0.12699999809E+01 0.  1.
       -4    1    3    3    0  502 -0.10047400215E+04 -0.10009213749E+04 -0.77822706381E+03  0.16177098273E+04  0.12699999809E+01 0. -1.
</event>
<event>
 5   0  0.4935331E-06  0.2505081E+04  0.7818609E-02  0.8401178E-01
       -2   -1    0    0    0  501  0.00000000000E+00  0.00000000000E+00  0.11078031706E+04  0.11078031706E+04  0.25500000920E-02 0.  1.
        2   -1    0    0  501    0  0.00000000000E+00  0.00000000000E+00 -0.14161875938E+04  0.14161875938E+04  0.25500000920E-02 0. -1.
    10030    2    1    2    0    0  0.00000000000E+00  0.00000000000E+00 -0.30838442328E+03  0.25239907644E+04  0.25050805229E+04 0.  0.
        5    1    3    3  502    0 -0.50319855995E+03 -0.64474857021E+03  0.80161290666E+03  0.11452138890E+04  0.46999998093E+01 0.  1.
       -5    1    3    3    0  502  0.50319855995E+03  0.64474857021E+03 -0.11099973299E+04  0.13787768754E+04  0.46999998093E+01 0. -1.
</event>
<event>
 5   0  0.1700885E-06  0.2924272E+04  0.7818609E-02  0.8265692E-01
        1   -1    0    0  501    0  0.00000000000E+00  0.00000000000E+00  0.15049956361E+04  0.15049956361E+04  0.50400001928E-02 0. -1.
       -1   -1    0    0    0  501  0.00000000000E+00  0.00000000000E+00 -0.14204972008E+04  0.14204972008E+04  0.50400001928E-02 0.  1.
    10030    2    1    2    0    0  0.00000000000E+00  0.00000000000E+00  0.84498435298E+02  0.29254928369E+04  0.29242722776E+04 0.  0.
        1    1    3    3  502    0 -0.11784601872E+03  0.23416935998E+03  0.14812929039E+04  0.15043110185E+04  0.50400001928E-02 0. -1.
       -1    1    3    3    0  502  0.11784601872E+03 -0.23416935998E+03 -0.13967944686E+04  0.14211818184E+04  0.50400001928E-02 0.  1.
</event>
<event>
 5   0  0.1734885E-06  0.2945868E+04  0.7818609E-02  0.8259360E-01
       -1   -1    0    0    0  501  0.00000000000E+00  0.00000000000E+00  0.13256797726E+04  0.13256797726E+04  0.50400001928E-02 0.  1.
        1   -1    0    0  501    0  0.00000000000E+00  0.00000000000E+00 -0.16365444534E+04  0.16365444534E+04  0.50400001928E-02 0. -1.
    10030    2    1    2    0    0  0.00000000000E+00  0.00000000000E+00 -0.31086468077E+03  0.29622242260E+04  0.29458675319E+04 0.  0.
        2    1    3    3  502    0 -0.14031878458E+04 -0.13774302122E+03 -0.58397302694E+03  0.15260844559E+04  0.25500000920E-02 0. -1.
       -2    1    3    3    0  502  0.14031878458E+04  0.13774302122E+03  0.27310834617E+03  0.14361397701E+04  0.25500000920E-02 0.  1.
</event>
<event>
 5   0  0.4935331E-06  0.2984637E+04  0.7818609E-02  0.8248132E-01
       -2   -1    0    0    0  501  0.00000000000E+00  0.00000000000E+00  0.14315572604E+04  0.14315572604E+04  0.25500000920E-02 0.  1.
        2   -1    0    0  501    0  0.00000000000E+00  0.00000000000E+00 -0.15556583472E+04  0.15556583472E+04  0.25500000920E-02 0. -1.
    10030    2    1    2    0    0  0.00000000000E+00  0.00000000000E+00 -0.12410108684E+03  0.29872156076E+04  0.29846366624E+04 0.  0.
        5    1    3    3  502    0 -0.12995257449E+04 -0.30048687768E+02  0.67160523312E+03  0.14631287587E+04  0.46999998093E+01 0. -1.
       -5    1    3    3    0  502  0.12995257449E+04  0.30048687768E+02 -0.79570631996E+03  0.15240868489E+04  0.46999998093E+01 0.  1.
</event>
<event>
 5   0  0.1709858E-06  0.3020757E+04  0.7818609E-02  0.8237828E-01
       -1   -1    0    0    0  501  0.00000000000E+00  0.00000000000E+00  0.12485985966E+04  0.12485985966E+04  0.50400001928E-02 0. -1.
        1   -1    0    0  501    0  0.00000000000E+00  0.00000000000E+00 -0.18270428883E+04  0.18270428884E+04  0.50400001928E-02 0.  1.
    10030    2    1    2    0    0  0.00000000000E+00  0.00000000000E+00 -0.57844429175E+03  0.30756414850E+04  0.30207569822E+04 0.  0.
        3    1    3    3  502    0  0.10048833585E+03 -0.17583208556E+03 -0.18131558226E+04  0.18244311100E+04  0.10100000352E+00 0.  1.
       -3    1    3    3    0  502 -0.10048833585E+03  0.17583208556E+03  0.12347115308E+04  0.12512103750E+04  0.10100000352E+00 0. -1.
</event>
<event>
 5   0  0.4768570E-06  0.2716737E+04  0.7818609E-02  0.8329595E-01
       -2   -1    0    0    0  501  0.00000000000E+00  0.00000000000E+00  0.76879962291E+03  0.76879962291E+03  0.25500000920E-02 0.  1.
        2   -1    0    0  501    0  0.00000000000E+00  0.00000000000E+00 -0.24000603141E+04  0.24000603141E+04  0.25500000920E-02 0. -1.
    10030    2    1    2    0    0  0.00000000000E+00  0.00000000000E+00 -0.16312606912E+04  0.31688599370E+04  0.27167373553E+04 0.  0.
        1    1    3    3  502    0 -0.12373210614E+04 -0.30890903762E+03 -0.27005280855E+03  0.13035784295E+04  0.50400001928E-02 0.  1.
       -1    1    3    3    0  502  0.12373210614E+04  0.30890903762E+03 -0.13612078826E+04  0.18652815075E+04  0.50400001928E-02 0. -1.
</event>
<event>
 5   0  0.1700885E-06  0.2762955E+04  0.7818609E-02  0.8314862E-01
       -1   -1    0    0    0  501  0.00000000000E+00  0.00000000000E+00  0.12818330548E+04  0.12818330548E+04  0.50400001928E-02 0.  1.
        1   -1    0    0  501    0  0.00000000000E+00  0.00000000000E+00 -0.14888683310E+04  0.14888683310E+04  0.50400001928E-02 0. -1.
    10030    2    1    2    0    0  0.00000000000E+00  0.00000000000E+00 -0.20703527622E+03  0.27707013858E+04  0.27629554039E+04 0.  0.
        1    1    3    3  502    0 -0.96423854926E+03  0.91125538756E+03 -0.48974449140E+03  0.14142107439E+04  0.50400001928E-02 0.  1.
       -1    1    3    3    0  502  0.96423854926E+03 -0.91125538756E+03  0.28270921518E+03  0.13564906419E+04  0.50400001928E-02 0. -1.
</event>
<event>
 5   0  0.4768570E-06  0.2990953E+04  0.7818609E-02  0.8246319E-01
       -2   -1    0    0    0  501  0.00000000000E+00  0.00000000000E+00  0.10246790970E+04  0.10246790970E+04  0.25500000920E-02 0.  1.
        2   -1    0    0  501    0  0.00000000000E+00  0.00000000000E+00 -0.21825853584E+04  0.21825853584E+04  0.25500000920E-02 0. -1.
    10030    2    1    2    0    0  0.00000000000E+00  0.00000000000E+00 -0.11579062614E+04  0.32072644554E+04  0.29909527540E+04 0.  0.
        1    1    3    3  502    0 -0.54403242116E+03 -0.10339002812E+04 -0.15800267620E+04  0.19650459627E+04  0.50400001928E-02 0. -1.
       -1    1    3    3    0  502  0.54403242116E+03  0.10339002812E+04  0.42212050059E+03  0.12422184928E+04  0.50400001928E-02 0.  1.
</event>
<event>
 5   0  0.4768570E-06  0.2968298E+04  0.7818609E-02  0.8252842E-01
       -2   -1    0    0    0  501  0.00000000000E+00  0.00000000000E+00  0.74833156157E+03  0.74833156158E+03  0.25500000920E-02 0. -1.
        2   -1    0    0  501    0  0.00000000000E+00  0.00000000000E+00 -0.29434793215E+04  0.29434793215E+04  0.25500000920E-02 0.  1.
    10030    2    1    2    0    0  0.00000000000E+00  0.00000000000E+00 -0.21951477600E+04  0.36918108831E+04  0.29682981502E+04 0.  0.
        1    1    3    3  502    0  0.82221262434E+03 -0.28434826713E+03  0.39793045989E+03  0.95667977274E+03  0.50400001928E-02 0. -1.
       -1    1    3    3    0  502 -0.82221262434E+03  0.28434826713E+03 -0.25930782199E+04  0.27351311104E+04  0.50400001928E-02 0.  1.
</event>
<event>
 5   0  0.4935331E-06  0.2981779E+04  0.7818609E-02  0.8248953E-01
        2   -1    0    0  501    0  0.00000000000E+00  0.00000000000E+00  0.18954411372E+04  0.18954411372E+04  0.25500000920E-02 0.  1.
       -2   -1    0    0    0  501  0.00000000000E+00  0.00000000000E+00 -0.11726827400E+04  0.11726827400E+04  0.25500000920E-02 0. -1.
    10030    2    1    2    0    0  0.00000000000E+00  0.00000000000E+00  0.72275839718E+03  0.30681238772E+04  0.29817787351E+04 0.  0.
        5    1    3    3  502    0  0.49737042408E+03 -0.11056998847E+04 -0.53137387197E+03  0.13237559653E+04  0.46999998093E+01 0. -1.
       -5    1    3    3    0  502 -0.49737042408E+03  0.11056998847E+04  0.12541322691E+04  0.17443679120E+04  0.46999998093E+01 0.  1.
</event>
<event>
 5   0  0.5003556E-06  0.3000530E+04  0.7818609E-02  0.8243579E-01
       -2   -1    0    0    0  501  0.00000000000E+00  0.00000000000E+00  0.93810780375E+03  0.93810780375E+03  0.25500000920E-02 0. -1.
        2   -1    0    0  501    0  0.00000000000E+00  0.00000000000E+00 -0.23992931399E+04  0.23992931399E+04  0.25500000920E-02 0.  1.
    10030    2    1    2    0    0  0.00000000000E+00  0.00000000000E+00 -0.14611853362E+04  0.33374009437E+04  0.30005303651E+04 0.  0.
        3    1    3    3  502    0 -0.89785319255E+03 -0.84024619746E+02 -0.20642020821E+04  0.22525831257E+04  0.10100000352E+00 0.  1.
       -3    1    3    3    0  502  0.89785319255E+03  0.84024619746E+02  0.60301674595E+03  0.10848178180E+04  0.10100000352E+00 0. -1.
</event>
<event>
 5   0  0.1686012E-06  0.3007615E+04  0.7818609E-02  0.8241560E-01
       -1   -1    0    0    0  501  0.00000000000E+00  0.00000000000E+00  0.10914198414E+04  0.10914198414E+04  0.50400001928E-02 0. -1.
        1   -1    0    0  501    0  0.00000000000E+00  0.00000000000E+00 -0.20720135953E+04  0.20720135953E+04  0.50400001928E-02 0.  1.
    10030    2    1    2    0    0  0.00000000000E+00  0.00000000000E+00 -0.98059375386E+03  0.31634334367E+04  0.30076148354E+04 0.  0.
        4    1    3    3  502    0 -0.11797166159E+04 -0.51407943509E+03 -0.13086996266E+04  0.18354033030E+04  0.12699999809E+01 0.  1.
       -4    1    3    3    0  502  0.11797166159E+04  0.51407943509E+03  0.32810587270E+03  0.13280301337E+04  0.12699999809E+01 0. -1.
</event>
<event>
 5   0  0.1709858E-06  0.3018521E+04  0.7818609E-02  0.8238462E-01
        1   -1    0    0  501    0  0.00000000000E+00  0.00000000000E+00  0.16083386225E+04  0.16083386225E+04  0.50400001928E-02 0.  1.
       -1   -1    0    0    0  501  0.00000000000E+00  0.00000000000E+00 -0.14162862045E+04  0.14162862045E+04  0.50400001928E-02 0. -1.
    10030    2    1    2    0    0  0.00000000000E+00  0.00000000000E+00  0.19205241800E+03  0.30246248270E+04  0.30185213620E+04 0.  0.
        3    1    3    3  502    0 -0.14520031899E+04  0.34291056287E+03  0.32444959313E+03  0.15268164482E+04  0.10100000352E+00 0.  1.
       -3    1    3    3    0  502  0.14520031899E+04 -0.34291056287E+03 -0.13239717513E+03  0.14978083789E+04  0.10100000352E+00 0. -1.
</event>
<event>
 5   0  0.1734885E-06  0.2999662E+04  0.7818609E-02  0.8243827E-01
        1   -1    0    0  501    0  0.00000000000E+00  0.00000000000E+00  0.17884498511E+04  0.17884498511E+04  0.50400001928E-02 0.  1.
       -1   -1    0    0    0  501  0.00000000000E+00  0.00000000000E+00 -0.12577890809E+04  0.12577890809E+04  0.50400001928E-02 0. -1.
    10030    2    1    2    0    0  0.00000000000E+00  0.00000000000E+00  0.53066077018E+03  0.30462389320E+04  0.29996617772E+04 0.  0.
        2    1    3    3  502    0  0.81438963885E+03 -0.12088844488E+04  0.62417330655E+03  0.15856306036E+04  0.25500000920E-02 0.  1.
       -2    1    3    3    0  502 -0.81438963885E+03  0.12088844488E+04 -0.93512536370E+02  0.14606083284E+04  0.25500000920E-02 0. -1.
</event>
<event>
 5   0  0.1700885E-06  0.2995486E+04  0.7818609E-02  0.8245021E-01
       -1   -1    0    0    0  501  0.00000000000E+00  0.00000000000E+00  0.11291024870E+04  0.11291024870E+04  0.50400001928E-02 0.  1.
        1   -1    0    0  501    0  0.00000000000E+00  0.00000000000E+00 -0.19867409914E+04  0.19867409914E+04  0.50400001928E-02 0. -1.
    10030    2    1    2    0    0  0.00000000000E+00  0.00000000000E+00 -0.85763850441E+03  0.31158434784E+04  0.29954860670E+04 0.  0.
        1    1    3    3  502    0  0.29059818012E+03  0.10401767892E+04 -0.15082125381E+04  0.18550256373E+04  0.50400001928E-02 0. -1.
       -1    1    3    3    0  502 -0.29059818012E+03 -0.10401767892E+04  0.65057403365E+03  0.12608178411E+04  0.50400001928E-02 0.  1.
</event>
<event>
 5   0  0.4532420E-06  0.3020450E+04  0.7818609E-02  0.8237915E-01
        2   -1    0    0  501    0  0.00000000000E+00  0.00000000000E+00  0.10664112830E+04  0.10664112830E+04  0.25500000920E-02 0. -1.
       -2   -1    0    0    0  501  0.00000000000E+00  0.00000000000E+00 -0.21387424273E+04  0.21387424273E+04  0.25500000920E-02 0.  1.
    10030    2    1    2    0    0  0.00000000000E+00  0.00000000000E+00 -0.10723311443E+04  0.32051537103E+04  0.30204496724E+04 0.  0.
        4    1    3    3  502    0  0.75511802864E+02 -0.62820199968E+03  0.91898095813E+03  0.11157362587E+04  0.12699999809E+01 0. -1.
       -4    1    3    3    0  502 -0.75511802864E+02  0.62820199968E+03 -0.19913121024E+04  0.20894174515E+04  0.12699999809E+01 0.  1.
</event>
<event>
 5   0  0.1709858E-06  0.3083675E+04  0.7818609E-02  0.8220232E-01
        1   -1    0    0  501    0  0.00000000000E+00  0.00000000000E+00  0.19839311252E+04  0.19839311252E+04  0.50400001928E-02 0. -1.
       -1   -1    0    0    0  501  0.00000000000E+00  0.00000000000E+00 -0.11982590663E+04  0.11982590663E+04  0.50400001928E-02 0.  1.
    10030    2    1    2    0    0  0.00000000000E+00  0.00000000000E+00  0.78567205894E+03  0.31821901915E+04  0.30836753770E+04 0.  0.
        3    1    3    3  502    0  0.46072487535E+02 -0.15259178450E+04  0.61587872143E+03  0.16461635865E+04  0.10100000352E+00 0. -1.
       -3    1    3    3    0  502 -0.46072487535E+02  0.15259178450E+04  0.16979333751E+03  0.15360266051E+04  0.10100000352E+00 0.  1.
</event>
<event>
 5   0  0.4702748E-06  0.3004049E+04  0.7818609E-02  0.8242575E-01
        2   -1    0    0  501    0  0.00000000000E+00  0.00000000000E+00  0.22592421896E+04  0.22592421896E+04  0.25500000920E-02 0. -1.
       -2   -1    0    0    0  501  0.00000000000E+00  0.00000000000E+00 -0.99859957183E+03  0.99859957183E+03  0.25500000920E-02 0.  1.
    10030    2    1    2    0    0  0.00000000000E+00  0.00000000000E+00  0.12606426177E+04  0.32578417614E+04  0.30040494558E+04 0.  0.
        2    1    3    3  502    0  0.81673150942E+03  0.10352323596E+04 -0.14969437308E+03  0.13270888449E+04  0.25500000920E-02 0.  1.
       -2    1    3    3    0  502 -0.81673150942E+03 -0.10352323596E+04  0.14103369908E+04  0.19307529165E+04  0.25500000920E-02 0. -1.
</event>
<event>
 5   0  0.1672907E-06  0.3037240E+04  0.7818609E-02  0.8233176E-01
       -1   -1    0    0    0  501  0.00000000000E+00  0.00000000000E+00  0.19289313590E+04  0.19289313590E+04  0.50400001928E-02 0.  1.
        1   -1    0    0  501    0  0.00000000000E+00  0.00000000000E+00 -0.11955879752E+04  0.11955879752E+04  0.50400001928E-02 0. -1.
    10030    2    1    2    0    0  0.00000000000E+00  0.00000000000E+00  0.73334338375E+03  0.31245193342E+04  0.30372402854E+04 0.  0.
        5    1    3    3  502    0  0.35398041563E+03 -0.10161298237E+04 -0.73573966399E+03  0.13035171255E+04  0.46999998093E+01 0. -1.
       -5    1    3    3    0  502 -0.35398041563E+03  0.10161298237E+04  0.14690830477E+04  0.18210022088E+04  0.46999998093E+01 0.  1.
</event>
<event>
 5   0  0.4532420E-06  0.2997895E+04  0.7818609E-02  0.8244332E-01
        2   -1    0    0  501    0  0.00000000000E+00  0.00000000000E+00  0.21712544630E+04  0.21712544630E+04  0.25500000920E-02 0. -1.
       -2   -1    0    0    0  501  0.00000000000E+00  0.00000000000E+00 -0.10348132951E+04  0.10348132951E+04  0.25500000920E-02 0.  1.
    10030    2    1    2    0    0  0.00000000000E+00  0.00000000000E+00  0.11364411680E+04  0.32060677581E+04  0.29978945847E+04 0.  0.
        4    1    3    3  502    0 -0.98489517991E+03 -0.93918943606E+03  0.12401369835E+04  0.18412052202E+04  0.12699999809E+01 0. -1.
       -4    1    3    3    0  502  0.98489517991E+03  0.93918943606E+03 -0.10369581553E+03  0.13648625379E+04  0.12699999809E+01 0.  1.
</event>
<event>
 5   0  0.4768570E-06  0.2968548E+04  0.7818609E-02  0.8252770E-01
        2   -1    0    0  501    0  0.00000000000E+00  0.00000000000E+00  0.17412920355E+04  0.17412920355E+04  0.25500000920E-02 0. -1.
       -2   -1    0    0    0  501  0.00000000000E+00  0.00000000000E+00 -0.12651920214E+04  0.12651920214E+04  0.25500000920E-02 0.  1.
    10030    2    1    2    0    0  0.00000000000E+00  0.00000000000E+00  0.47610001410E+03  0.30064840568E+04  0.29685476517E+04 0.  0.
        1    1    3    3  502    0 -0.44649033563E+03  0.12190441154E+04  0.96672114809E+03  0.16186327419E+04  0.50400001928E-02 0. -1.
       -1    1    3    3    0  502  0.44649033563E+03 -0.12190441154E+04 -0.49062113399E+03  0.13878513149E+04  0.50400001928E-02 0.  1.
</event>
<event>
 5   0  0.4768570E-06  0.3042637E+04  0.7818609E-02  0.8231659E-01
       -2   -1    0    0    0  501  0.00000000000E+00  0.00000000000E+00  0.15182104590E+04  0.15182104590E+04  0.25500000920E-02 0.  1.
        2   -1    0    0  501    0  0.00000000000E+00  0.00000000000E+00 -0.15244326941E+04  0.15244326941E+04  0.25500000920E-02 0. -1.
    10030    2    1    2    0    0  0.00000000000E+00  0.00000000000E+00 -0.62222351339E+01  0.30426431531E+04  0.30426367909E+04 0.  0.
        1    1    3    3  502    0 -0.66307363112E+03  0.11779611451E+04 -0.70107429570E+03  0.15227489181E+04  0.50400001928E-02 0. -1.
       -1    1    3    3    0  502  0.66307363112E+03 -0.11779611451E+04  0.69485206057E+03  0.15198942350E+04  0.50400001928E-02 0.  1.
</event>
<event>
 5   0  0.1686012E-06  0.3341232E+04  0.7818609E-02  0.8152482E-01
        1   -1    0    0  501    0  0.00000000000E+00  0.00000000000E+00  0.14155573584E+04  0.14155573584E+04  0.50400001928E-02 0. -1.
       -1   -1    0    0    0  501  0.00000000000E+00  0.00000000000E+00 -0.19716320221E+04  0.19716320221E+04  0.50400001928E-02 0.  1.
    10030    2    1    2    0    0  0.00000000000E+00  0.00000000000E+00 -0.55607466373E+03  0.33871893805E+04  0.33412322379E+04 0.  0.
        4    1    3    3  502    0  0.41781444956E+03 -0.41104486550E+03 -0.18639816620E+04  0.19539590694E+04  0.12699999809E+01 0.  1.
       -4    1    3    3    0  502 -0.41781444956E+03  0.41104486550E+03  0.13079069983E+04  0.14332303111E+04  0.12699999809E+01 0. -1.
</event>
<event>
 5   0  0.4532420E-06  0.3011225E+04  0.7818609E-02  0.8240533E-01
        2   -1    0    0  501    0  0.00000000000E+00  0.00000000000E+00  0.18910497503E+04  0.18910497503E+04  0.25500000920E-02 0.  1.
       -2   -1    0    0    0  501  0.00000000000E+00  0.00000000000E+00 -0.11987356817E+04  0.11987356817E+04  0.25500000920E-02 0. -1.
    10030    2    1    2    0    0  0.00000000000E+00  0.00000000000E+00  0.69231406857E+03  0.30897854320E+04  0.30112248747E+04 0.  0.
        4    1    3    3  502    0  0.99783642999E+03  0.62091188356E+03 -0.61948948410E+03  0.13285247239E+04  0.12699999809E+01 0. -1.
       -4    1    3    3    0  502 -0.99783642999E+03 -0.62091188356E+03  0.13118035527E+04  0.17612607081E+04  0.12699999809E+01 0.  1.
</event>
<event>
 5   0  0.4532420E-06  0.2994839E+04  0.7818609E-02  0.8245206E-01
        2   -1    0    0  501    0  0.00000000000E+00  0.00000000000E+00  0.19526895065E+04  0.19526895065E+04  0.25500000920E-02 0.  1.
       -2   -1    0    0    0  501  0.00000000000E+00  0.00000000000E+00 -0.11482958939E+04  0.11482958939E+04  0.25500000920E-02 0. -1.
    10030    2    1    2    0    0  0.00000000000E+00  0.00000000000E+00  0.80439361267E+03  0.31009854004E+04  0.29948391224E+04 0.  0.
        4    1    3    3  502    0  0.98998397478E+03  0.93463832811E+03  0.10477078707E+04  0.17179378539E+04  0.12699999809E+01 0.  1.
       -4    1    3    3    0  502 -0.98998397478E+03 -0.93463832811E+03 -0.24331425804E+03  0.13830475465E+04  0.12699999809E+01 0. -1.
</event>
<event>
 5   0  0.1734885E-06  0.3037725E+04  0.7818609E-02  0.8233040E-01
        1   -1    0    0  501    0  0.00000000000E+00  0.00000000000E+00  0.13026338573E+04  0.13026338573E+04  0.50400001928E-02 0.  1.
       -1   -1    0    0    0  501  0.00000000000E+00  0.00000000000E+00 -0.17709834537E+04  0.17709834537E+04  0.50400001928E-02 0. -1.
    10030    2    1    2    0    0  0.00000000000E+00  0.00000000000E+00 -0.46834959638E+03  0.30736173111E+04  0.30377248115E+04 0.  0.
        2    1    3    3  502    0  0.70524300041E+02  0.82837136282E+03 -0.15203234425E+04  0.17327885507E+04  0.25500000920E-02 0. -1.
       -2    1    3    3    0  502 -0.70524300041E+02 -0.82837136282E+03  0.10519738461E+04  0.13408287604E+04  0.25500000920E-02 0.  1.
</event>
<event>
 5   0  0.4532420E-06  0.2928000E+04  0.7818609E-02  0.8264595E-01
        2   -1    0    0  501    0  0.00000000000E+00  0.00000000000E+00  0.18053741176E+04  0.18053741176E+04  0.25500000920E-02 0.  1.
       -2   -1    0    0    0  501  0.00000000000E+00  0.00000000000E+00 -0.11871753042E+04  0.11871753042E+04  0.25500000920E-02 0. -1.
    10030    2    1    2    0    0  0.00000000000E+00  0.00000000000E+00  0.61819881338E+03  0.29925494219E+04  0.29279997045E+04 0.  0.
        4    1    3    3  502    0 -0.80612871353E+03  0.32678833254E+03  0.15126248375E+04  0.17448981715E+04  0.12699999809E+01 0.  1.
       -4    1    3    3    0  502  0.80612871353E+03 -0.32678833254E+03 -0.89442602410E+03  0.12476512504E+04  0.12699999809E+01 0. -1.
</event>
<event>
 5   0  0.1672907E-06  0.2985503E+04  0.7818609E-02  0.8247883E-01
       -1   -1    0    0    0  501  0.00000000000E+00  0.00000000000E+00  0.11340253805E+04  0.11340253805E+04  0.50400001928E-02 0. -1.
        1   -1    0    0  501    0  0.00000000000E+00  0.00000000000E+00 -0.19649533978E+04  0.19649533978E+04  0.50400001928E-02 0.  1.
    10030    2    1    2    0    0  0.00000000000E+00  0.00000000000E+00 -0.83092801732E+03  0.30989787783E+04  0.29855029891E+04 0.  0.
        5    1    3    3  502    0 -0.31351066665E+03 -0.42831839977E+03 -0.18636778204E+04  0.19377984152E+04  0.46999998093E+01 0.  1.
       -5    1    3    3    0  502  0.31351066665E+03  0.42831839977E+03  0.10327498031E+04  0.11611803630E+04  0.46999998093E+01 0. -1.
</event>
<event>
 5   0  0.1672907E-06  0.2997824E+04  0.7818609E-02  0.8244352E-01
       -1   -1    0    0    0  501  0.00000000000E+00  0.00000000000E+00  0.13737853119E+04  0.13737853119E+04  0.50400001928E-02 0. -1.
        1   -1    0    0  501    0  0.00000000000E+00  0.00000000000E+00 -0.16354356404E+04  0.16354356404E+04  0.50400001928E-02 0.  1.
    10030    2    1    2    0    0  0.00000000000E+00  0.00000000000E+00 -0.26165032848E+03  0.30092209523E+04  0.29978241852E+04 0.  0.
        5    1    3    3  502    0  0.13978435390E+03 -0.58079086369E+03 -0.15107723585E+04  0.16245962274E+04  0.46999998093E+01 0.  1.
       -5    1    3    3    0  502 -0.13978435390E+03  0.58079086369E+03  0.12491220300E+04  0.13846247249E+04  0.46999998093E+01 0. -1.
</event>
<event>
 5   0  0.1672907E-06  0.2844953E+04  0.7818609E-02  0.8289446E-01
        1   -1    0    0  501    0  0.00000000000E+00  0.00000000000E+00  0.10646181875E+04  0.10646181876E+04  0.50400001928E-02 0. -1.
       -1   -1    0    0    0  501  0.00000000000E+00  0.00000000000E+00 -0.19006248848E+04  0.19006248848E+04  0.50400001928E-02 0.  1.
    10030    2    1    2    0    0  0.00000000000E+00  0.00000000000E+00 -0.83600669723E+03  0.29652430723E+04  0.28449533002E+04 0.  0.
        5    1    3    3  502    0  0.49662165496E+03  0.12631576004E+04  0.25692404165E+02  0.13575280407E+04  0.46999998093E+01 0. -1.
       -5    1    3    3    0  502 -0.49662165496E+03 -0.12631576004E+04 -0.86169910139E+03  0.16077150316E+04  0.46999998093E+01 0.  1.
</event>
<event>
 5   0  0.1734885E-06  0.2976477E+04  0.7818609E-02  0.8250480E-01
       -1   -1    0    0    0  501  0.00000000000E+00  0.00000000000E+00  0.82934028744E+03  0.82934028745E+03  0.50400001928E-02 0.  1.
        1   -1    0    0  501    0  0.00000000000E+00  0.00000000000E+00 -0.26706208012E+04  0.26706208012E+04  0.50400001928E-02 0. -1.
    10030    2    1    2    0    0  0.00000000000E+00  0.00000000000E+00 -0.18412805137E+04  0.34999610886E+04  0.29764767245E+04 0.  0.
        2    1    3    3  502    0 -0.62742016312E+03 -0.73571824024E+03  0.40966548280E+03  0.10501253249E+04  0.25500000920E-02 0.  1.
       -2    1    3    3    0  502  0.62742016312E+03  0.73571824024E+03 -0.22509459965E+04  0.24498357638E+04  0.25500000920E-02 0. -1.
</event>
<event>
 5   0  0.5003556E-06  0.3012049E+04  0.7818609E-02  0.8240298E-01
        2   -1    0    0  501    0  0.00000000000E+00  0.00000000000E+00  0.18563451638E+04  0.18563451638E+04  0.25500000920E-02 0.  1.
       -2   -1    0    0    0  501  0.00000000000E+00  0.00000000000E+00 -0.12218149858E+04  0.12218149858E+04  0.25500000920E-02 0. -1.
    10030    2    1    2    0    0  0.00000000000E+00  0.00000000000E+00  0.63453017801E+03  0.30781601496E+04  0.30120493621E+04 0.  0.
        3    1    3    3  502    0 -0.35547996520E+03  0.40597787536E+03 -0.11196276985E+04  0.12428798149E+04  0.10100000352E+00 0. -1.
       -3    1    3    3    0  502  0.35547996520E+03 -0.40597787536E+03  0.17541578765E+04  0.18352803346E+04  0.10100000352E+00 0.  1.
</event>
<event>
 5   0  0.4935331E-06  0.2854207E+04  0.7818609E-02  0.8286634E-01
        2   -1    0    0  501    0  0.00000000000E+00  0.00000000000E+00  0.21896726497E+04  0.21896726497E+04  0.25500000920E-02 0. -1.
       -2   -1    0    0    0  501  0.00000000000E+00  0.00000000000E+00 -0.93010451208E+03  0.93010451208E+03  0.25500000920E-02 0.  1.
    10030    2    1    2    0    0  0.00000000000E+00  0.00000000000E+00  0.12595681376E+04  0.31197771618E+04  0.28542070082E+04 0.  0.
        5    1    3    3  502    0  0.13358678169E+04 -0.30371715063E+03  0.19281831127E+03  0.13834695237E+04  0.46999998093E+01 0. -1.
       -5    1    3    3    0  502 -0.13358678169E+04  0.30371715063E+03  0.10667498264E+04  0.17363076381E+04  0.46999998093E+01 0.  1.
</event>
<event>
 5   0  0.4702748E-06  0.3004757E+04  0.7818609E-02  0.8242374E-01
       -2   -1    0    0    0  501  0.00000000000E+00  0.00000000000E+00  0.89422021984E+03  0.89422021984E+03  0.25500000920E-02 0. -1.
        2   -1    0    0  501    0  0.00000000000E+00  0.00000000000E+00 -0.25241450521E+04  0.25241450521E+04  0.25500000920E-02 0.  1.
    10030    2    1    2    0    0  0.00000000000E+00  0.00000000000E+00 -0.16299248322E+04  0.34183652719E+04  0.30047572570E+04 0.  0.
        2    1    3    3  502    0  0.22797561535E+03 -0.88795728980E+02 -0.25013297061E+04  0.25132663730E+04  0.25500000920E-02 0.  1.
       -2    1    3    3    0  502 -0.22797561535E+03  0.88795728980E+02  0.87140487388E+03  0.90509889897E+03  0.25500000920E-02 0. -1.
</event>
<event>
 5   0  0.1686012E-06  0.2966283E+04  0.7818609E-02  0.8253425E-01
        1   -1    0    0  501    0  0.00000000000E+00  0.00000000000E+00  0.14931639651E+04  0.14931639651E+04  0.50400001928E-02 0. -1.
       -1   -1    0    0    0  501  0.00000000000E+00  0.00000000000E+00 -0.14731866503E+04  0.14731866503E+04  0.50400001928E-02 0.  1.
    10030    2    1    2    0    0  0.00000000000E+00  0.00000000000E+00  0.19977314800E+02  0.29663506154E+04  0.29662833446E+04 0.  0.
        4    1    3    3  502    0 -0.58730153600E+03  0.12008558626E+04  0.65244366034E+03  0.14875020133E+04  0.12699999809E+01 0.  1.
       -4    1    3    3    0  502  0.58730153600E+03 -0.12008558626E+04 -0.63246634554E+03  0.14788486021E+04  0.12699999809E+01 0. -1.
</event>
<event>
 5   0  0.4768570E-06  0.2657902E+04  0.7818609E-02  0.8348795E-01
       -2   -1    0    0    0  501  0.00000000000E+00  0.00000000000E+00  0.20330683487E+04  0.20330683487E+04  0.25500000920E-02 0.  1.
        2   -1    0    0  501    0  0.00000000000E+00  0.00000000000E+00 -0.86869220576E+03  0.86869220576E+03  0.25500000920E-02 0. -1.
    10030    2    1    2    0    0  0.00000000000E+00  0.00000000000E+00  0.11643761430E+04  0.29017605545E+04  0.26579019006E+04 0.  0.
        1    1    3    3  502    0 -0.28758530882E+03  0.28827781351E+03 -0.79890673874E+03  0.89669469990E+03  0.50400001928E-02 0. -1.
       -1    1    3    3    0  502  0.28758530882E+03 -0.28827781351E+03  0.19632828817E+04  0.20050658546E+04  0.50400001928E-02 0.  1.
</event>
<event>
 5   0  0.1734885E-06  0.2991686E+04  0.7818609E-02  0.8246109E-01
       -1   -1    0    0    0  501  0.00000000000E+00  0.00000000000E+00  0.88985806130E+03  0.88985806132E+03  0.50400001928E-02 0. -1.
        1   -1    0    0  501    0  0.00000000000E+00  0.00000000000E+00 -0.25144980709E+04  0.25144980709E+04  0.50400001928E-02 0.  1.
    10030    2    1    2    0    0  0.00000000000E+00  0.00000000000E+00 -0.16246400096E+04  0.34043561322E+04  0.29916860655E+04 0.  0.
        2    1    3    3  502    0  0.13511908856E+04 -0.59893764115E+03 -0.55009167779E+03  0.15770364490E+04  0.25500000920E-02 0. -1.
       -2    1    3    3    0  502 -0.13511908856E+04  0.59893764115E+03 -0.10745483318E+04  0.18273196832E+04  0.25500000920E-02 0.  1.
</event>
<event>
 5   0  0.1700885E-06  0.2919351E+04  0.7818609E-02  0.8267143E-01
        1   -1    0    0  501    0  0.00000000000E+00  0.00000000000E+00  0.15267027148E+04  0.15267027148E+04  0.50400001928E-02 0.  1.
       -1   -1    0    0    0  501  0.00000000000E+00  0.00000000000E+00 -0.13955909579E+04  0.13955909579E+04  0.50400001928E-02 0. -1.
    10030    2    1    2    0    0  0.00000000000E+00  0.00000000000E+00  0.13111175692E+03  0.29222936727E+04  0.29193509581E+04 0.  0.
        1    1    3    3  502    0 -0.12060058409E+04  0.17891061260E+02 -0.75739344888E+03  0.14242243555E+04  0.50400001928E-02 0. -1.
       -1    1    3    3    0  502  0.12060058409E+04 -0.17891061260E+02  0.88850520580E+03  0.14980693172E+04  0.50400001928E-02 0.  1.
</event>
<event>
 5   0  0.1709858E-06  0.3019051E+04  0.7818609E-02  0.8238312E-01
       -1   -1    0    0    0  501  0.00000000000E+00  0.00000000000E+00  0.24620329714E+04  0.24620329714E+04  0.50400001928E-02 0.  1.
        1   -1    0    0  501    0  0.00000000000E+00  0.00000000000E+00 -0.92552261515E+03  0.92552261516E+03  0.50400001928E-02 0. -1.
    10030    2    1    2    0    0  0.00000000000E+00  0.00000000000E+00  0.15365103563E+04  0.33875555866E+04  0.30190509730E+04 0.  0.
        3    1    3    3  502    0 -0.36247510006E+03  0.12272456701E+04  0.16667070322E+04  0.21012930482E+04  0.10100000352E+00 0.  1.
       -3    1    3    3    0  502  0.36247510006E+03 -0.12272456701E+04 -0.13019667595E+03  0.12862625384E+04  0.10100000352E+00 0. -1.
</event>
<event>
 5   0  0.1734885E-06  0.3013005E+04  0.7818609E-02  0.8240027E-01
        1   -1    0    0  501    0  0.00000000000E+00  0.00000000000E+00  0.13934185939E+04  0.13934185939E+04  0.50400001928E-02 0.  1.
       -1   -1    0    0    0  501  0.00000000000E+00  0.00000000000E+00 -0.16287639122E+04  0.16287639122E+04  0.50400001928E-02 0. -1.
    10030    2    1    2    0    0  0.00000000000E+00  0.00000000000E+00 -0.23534531836E+03  0.30221825061E+04  0.30130050915E+04 0.  0.
        2    1    3    3  502    0  0.15947223934E+03  0.50185241249E+03 -0.15334472762E+04  0.16213413545E+04  0.25500000920E-02 0. -1.
       -2    1    3    3    0  502 -0.15947223934E+03 -0.50185241249E+03  0.12981019578E+04  0.14008411516E+04  0.25500000920E-02 0.  1.
</event>
<event>
 5   0  0.1709858E-06  0.3005993E+04  0.7818609E-02  0.8242022E-01
        1   -1    0    0  501    0  0.00000000000E+00  0.00000000000E+00  0.12435155115E+04  0.12435155115E+04  0.50400001928E-02 0.  1.
       -1   -1    0    0    0  501  0.00000000000E+00  0.00000000000E+00 -0.18166230564E+04  0.18166230564E+04  0.50400001928E-02 0. -1.
    10030    2    1    2    0    0  0.00000000000E+00  0.00000000000E+00 -0.57310754490E+03  0.30601385680E+04  0.30059933129E+04 0.  0.
        3    1    3    3  502    0  0.88286671857E+02 -0.33777074896E+02  0.12404864298E+04  0.12440828027E+04  0.10100000352E+00 0.  1.
       -3    1    3    3    0  502 -0.88286671857E+02  0.33777074896E+02 -0.18135939747E+04  0.18160557653E+04  0.10100000352E+00 0. -1.
</event>
<event>
 5   0  0.1700885E-06  0.2781308E+04  0.7818609E-02  0.8309095E-01
       -1   -1    0    0    0  501  0.00000000000E+00  0.00000000000E+00  0.18618712894E+04  0.18618712894E+04  0.50400001928E-02 0. -1.
        1   -1    0    0  501    0  0.00000000000E+00  0.00000000000E+00 -0.10386960149E+04  0.10386960150E+04  0.50400001928E-02 0.  1.
    10030    2    1    2    0    0  0.00000000000E+00  0.00000000000E+00  0.82317527445E+03  0.29005673044E+04  0.27813078137E+04 0.  0.
        1    1    3    3  502    0 -0.83368389294E+03  0.39215685727E+03  0.14979363755E+04  0.17585872793E+04  0.50400001928E-02 0. -1.
       -1    1    3    3    0  502  0.83368389294E+03 -0.39215685727E+03 -0.67476110103E+03  0.11419800250E+04  0.50400001928E-02 0.  1.
</event>
<event>
 5   0  0.1734885E-06  0.2987297E+04  0.7818609E-02  0.8247368E-01
        1   -1    0    0  501    0  0.00000000000E+00  0.00000000000E+00  0.16810169603E+04  0.16810169603E+04  0.50400001928E-02 0. -1.
       -1   -1    0    0    0  501  0.00000000000E+00  0.00000000000E+00 -0.13271644643E+04  0.13271644643E+04  0.50400001928E-02 0.  1.
    10030    2    1    2    0    0  0.00000000000E+00  0.00000000000E+00  0.35385249595E+03  0.30081814246E+04  0.29872970885E+04 0.  0.
        2    1    3    3  502    0  0.64628018549E+03 -0.24724828829E+03  0.15098782017E+04  0.16608859016E+04  0.25500000920E-02 0. -1.
       -2    1    3    3    0  502 -0.64628018549E+03  0.24724828829E+03 -0.11560257057E+04  0.13472955231E+04  0.25500000920E-02 0.  1.
</event>
<event>
 5   0  0.4702748E-06  0.2982252E+04  0.7818609E-02  0.8248817E-01
       -2   -1    0    0    0  501  0.00000000000E+00  0.00000000000E+00  0.11166330621E+04  0.11166330621E+04  0.25500000920E-02 0. -1.
        2   -1    0    0  501    0  0.00000000000E+00  0.00000000000E+00 -0.19912154263E+04  0.19912154263E+04  0.25500000920E-02 0.  1.
    10030    2    1    2    0    0  0.00000000000E+00  0.00000000000E+00 -0.87458236425E+03  0.31078484884E+04  0.29822521548E+04 0.  0.
        2    1    3    3  502    0  0.61612284540E+03  0.13551101430E+04 -0.52769796175E+03  0.15793656952E+04  0.25500000920E-02 0. -1.
       -2    1    3    3    0  502 -0.61612284540E+03 -0.13551101430E+04 -0.34688440249E+03  0.15284827932E+04  0.25500000920E-02 0.  1.
</event>
<event>
 5   0  0.1734885E-06  0.2975283E+04  0.7818609E-02  0.8250824E-01
        1   -1    0    0  501    0  0.00000000000E+00  0.00000000000E+00  0.13790413949E+04  0.13790413949E+04  0.50400001928E-02 0. -1.
       -1   -1    0    0    0  501  0.00000000000E+00  0.00000000000E+00 -0.16047937476E+04  0.16047937476E+04  0.50400001928E-02 0.  1.
    10030    2    1    2    0    0  0.00000000000E+00  0.00000000000E+00 -0.22575235273E+03  0.29838351425E+04  0.29752828493E+04 0.  0.
        2    1    3    3  502    0 -0.11753239061E+03 -0.82267911605E+03  0.11245515068E+04  0.13982957063E+04  0.25500000920E-02 0. -1.
       -2    1    3    3    0  502  0.11753239061E+03  0.82267911605E+03 -0.13503038595E+04  0.15855394362E+04  0.25500000920E-02 0.  1.
</event>
<event>
 5   0  0.1672907E-06  0.3012234E+04  0.7818609E-02  0.8240246E-01
       -1   -1    0    0    0  501  0.00000000000E+00  0.00000000000E+00  0.84215980416E+03  0.84215980417E+03  0.50400001928E-02 0. -1.
        1   -1    0    0  501    0  0.00000000000E+00  0.00000000000E+00 -0.26935369977E+04  0.26935369977E+04  0.50400001928E-02 0.  1.
    10030    2    1    2    0    0  0.00000000000E+00  0.00000000000E+00 -0.18513771935E+04  0.35356968019E+04  0.30122341147E+04 0.  0.
        5    1    3    3  502    0  0.67648010986E+03 -0.10025363274E+04  0.12787984361E+03  0.12161742355E+04  0.46999998093E+01 0. -1.
       -5    1    3    3    0  502 -0.67648010986E+03  0.10025363274E+04 -0.19792570371E+04  0.23195225664E+04  0.46999998093E+01 0.  1.
</event>
<event>
 5   0  0.5003556E-06  0.2815448E+04  0.7818609E-02  0.8298488E-01
       -2   -1    0    0    0  501  0.00000000000E+00  0.00000000000E+00  0.13640058642E+04  0.13640058642E+04  0.25500000920E-02 0. -1.
        2   -1    0    0  501    0  0.00000000000E+00  0.00000000000E+00 -0.14528434897E+04  0.14528434897E+04  0.25500000920E-02 0.  1.
    10030    2    1    2    0    0  0.00000000000E+00  0.00000000000E+00 -0.88837625561E+02  0.28168493539E+04  0.28154481275E+04 0.  0.
        3    1    3    3  502    0  0.76859715795E+03  0.65914587907E+03 -0.10228994935E+04  0.14392839418E+04  0.10100000352E+00 0.  1.
       -3    1    3    3    0  502 -0.76859715795E+03 -0.65914587907E+03  0.93406186796E+03  0.13775654121E+04  0.10100000352E+00 0. -1.
</event>
<event>
 5   0  0.5003556E-06  0.2995299E+04  0.7818609E-02  0.8245074E-01
       -2   -1    0    0    0  501  0.00000000000E+00  0.00000000000E+00  0.10371224500E+04  0.10371224500E+04  0.25500000920E-02 0. -1.
        2   -1    0    0  501    0  0.00000000000E+00  0.00000000000E+00 -0.21626708866E+04  0.21626708866E+04  0.25500000920E-02 0.  1.
    10030    2    1    2    0    0  0.00000000000E+00  0.00000000000E+00 -0.11255484366E+04  0.31997933366E+04  0.29952993362E+04 0.  0.
        3    1    3    3  502    0 -0.14552828015E+04 -0.81739538296E+02 -0.19515040010E+03  0.14705825626E+04  0.10100000352E+00 0. -1.
       -3    1    3    3    0  502  0.14552828015E+04  0.81739538296E+02 -0.93039803651E+03  0.17292107740E+04  0.10100000352E+00 0.  1.
</event>
<event>
 5   0  0.4532420E-06  0.3007639E+04  0.7818609E-02  0.8241553E-01
       -2   -1    0    0    0  501  0.00000000000E+00  0.00000000000E+00  0.14607400003E+04  0.14607400003E+04  0.25500000920E-02 0.  1.
        2   -1    0    0  501    0  0.00000000000E+00  0.00000000000E+00 -0.15481691849E+04  0.15481691850E+04  0.25500000920E-02 0. -1.
    10030    2    1    2    0    0  0.00000000000E+00  0.00000000000E+00 -0.87429184660E+02  0.30089091852E+04  0.30076387121E+04 0.  0.
        4    1    3    3  502    0 -0.89967438154E+03  0.10794751147E+04 -0.57946907658E+03  0.15200218879E+04  0.12699999809E+01 0. -1.
       -4    1    3    3    0  502  0.89967438154E+03 -0.10794751147E+04  0.49203989192E+03  0.14888872973E+04  0.12699999809E+01 0.  1.
</event>
<event>
 5   0  0.5003556E-06  0.3002866E+04  0.7818609E-02  0.8242913E-01
       -2   -1    0    0    0  501  0.00000000000E+00  0.00000000000E+00  0.12783444166E+04  0.12783444166E+04  0.25500000920E-02 0. -1.
        2   -1    0    0  501    0  0.00000000000E+00  0.00000000000E+00 -0.17634540434E+04  0.17634540434E+04  0.25500000920E-02 0.  1.
    10030    2    1    2    0    0  0.00000000000E+00  0.00000000000E+00 -0.48510962680E+03  0.30417984599E+04  0.30028663841E+04 0.  0.
        3    1    3    3  502    0  0.51693022184E+03  0.13444965500E+03 -0.16639609104E+04  0.17475867605E+04  0.10100000352E+00 0.  1.
       -3    1    3    3    0  502 -0.51693022184E+03 -0.13444965500E+03  0.11788512836E+04  0.12942116994E+04  0.10100000352E+00 0. -1.
</event>
<event>
 5   0  0.4768570E-06  0.3006657E+04  0.7818609E-02  0.8241832E-01
       -2   -1    0    0    0  501  0.00000000000E+00  0.00000000000E+00  0.10107401146E+04  0.10107401147E+04  0.25500000920E-02 0. -1.
        2   -1    0    0  501    0  0.00000000000E+00  0.00000000000E+00 -0.22359820409E+04  0.22359820409E+04  0.25500000920E-02 0.  1.
    10030    2    1    2    0    0  0.00000000000E+00  0.00000000000E+00 -0.12252419262E+04  0.32467221555E+04  0.30066571100E+04 0.  0.
        1    1    3    3  502    0 -0.19592604004E+03  0.14797608306E+04 -0.41970132389E+03  0.15505574256E+04  0.50400001928E-02 0. -1.
       -1    1    3    3    0  502  0.19592604004E+03 -0.14797608306E+04 -0.80554060233E+03  0.16961647299E+04  0.50400001928E-02 0.  1.
</event>
<event>
 5   0  0.4935331E-06  0.2938999E+04  0.7818609E-02  0.8261368E-01
        2   -1    0    0  501    0  0.00000000000E+00  0.00000000000E+00  0.19220620835E+04  0.19220620835E+04  0.25500000920E-02 0.  1.
       -2   -1    0    0    0  501  0.00000000000E+00  0.00000000000E+00 -0.11234960605E+04  0.11234960605E+04  0.25500000920E-02 0. -1.
    10030    2    1    2    0    0  0.00000000000E+00  0.00000000000E+00  0.79856602305E+03  0.30455581440E+04  0.29389992710E+04 0.  0.
        5    1    3    3  502    0 -0.10693807915E+04 -0.22929124870E+03 -0.61775826524E+03  0.12561039440E+04  0.46999998093E+01 0. -1.
       -5    1    3    3    0  502  0.10693807915E+04  0.22929124870E+03  0.14163242883E+04  0.17894541999E+04  0.46999998093E+01 0.  1.
</event>
<event>
 5   0  0.4935331E-06  0.2915435E+04  0.7818609E-02  0.8268300E-01
        2   -1    0    0  501    0  0.00000000000E+00  0.00000000000E+00  0.29721690030E+04  0.29721690030E+04  0.25500000920E-02 0. -1.
       -2   -1    0    0    0  501  0.00000000000E+00  0.00000000000E+00 -0.71494598133E+03  0.71494598133E+03  0.25500000920E-02 0.  1.
    10030    2    1    2    0    0  0.00000000000E+00  0.00000000000E+00  0.22572230217E+04  0.36871149844E+04  0.29154349827E+04 0.  0.
        5    1    3    3  502    0 -0.63096941533E+02  0.13800394432E+04  0.17169674612E+04  0.22037444139E+04  0.46999998093E+01 0. -1.
       -5    1    3    3    0  502  0.63096941533E+02 -0.13800394432E+04  0.54025556050E+03  0.14833705705E+04  0.46999998093E+01 0.  1.
</event>
<event>
 5   0  0.1672907E-06  0.2989679E+04  0.7818609E-02  0.8246684E-01
       -1   -1    0    0    0  501  0.00000000000E+00  0.00000000000E+00  0.18326748670E+04  0.18326748670E+04  0.50400001928E-02 0.  1.
        1   -1    0    0  501    0  0.00000000000E+00  0.00000000000E+00 -0.12192807509E+04  0.12192807509E+04  0.50400001928E-02 0. -1.
    10030    2    1    2    0    0  0.00000000000E+00  0.00000000000E+00  0.61339411612E+03  0.30519556179E+04  0.29896790383E+04 0.  0.
        5    1    3    3  502    0 -0.13424621010E+04  0.34070047941E+03 -0.26737085917E+03  0.14105993675E+04  0.46999998093E+01 0.  1.
       -5    1    3    3    0  502  0.13424621010E+04 -0.34070047941E+03  0.88076497529E+03  0.16413562504E+04  0.46999998093E+01 0. -1.
</event>
<event>
 5   0  0.1700885E-06  0.3011635E+04  0.7818609E-02  0.8240416E-01
        1   -1    0    0  501    0  0.00000000000E+00  0.00000000000E+00  0.14808373778E+04  0.14808373778E+04  0.50400001928E-02 0. -1.
       -1   -1    0    0    0  501  0.00000000000E+00  0.00000000000E+00 -0.15312193805E+04  0.15312193805E+04  0.50400001928E-02 0.  1.
    10030    2    1    2    0    0  0.00000000000E+00  0.00000000000E+00 -0.50382002742E+02  0.30120567583E+04  0.30116353646E+04 0.  0.
        1    1    3    3  502    0 -0.69980318420E+03 -0.13291228261E+04  0.80629799257E+02  0.15042583382E+04  0.50400001928E-02 0.  1.
       -1    1    3    3    0  502  0.69980318420E+03  0.13291228261E+04 -0.13101180200E+03  0.15077984201E+04  0.50400001928E-02 0. -1.
</event>
<event>
 5   0  0.1709858E-06  0.3005280E+04  0.7818609E-02  0.8242225E-01
        1   -1    0    0  501    0  0.00000000000E+00  0.00000000000E+00  0.21574760182E+04  0.21574760182E+04  0.50400001928E-02 0.  1.
       -1   -1    0    0    0  501  0.00000000000E+00  0.00000000000E+00 -0.10465593399E+04  0.10465593399E+04  0.50400001928E-02 0. -1.
    10030    2    1    2    0    0  0.00000000000E+00  0.00000000000E+00  0.11109166783E+04  0.32040353581E+04  0.30052798056E+04 0.  0.
        3    1    3    3  502    0 -0.85009495717E+03  0.24208752897E+03 -0.74008657775E+03  0.11528208710E+04  0.10100000352E+00 0. -1.
       -3    1    3    3    0  502  0.85009495717E+03 -0.24208752897E+03  0.18510032561E+04  0.20512144871E+04  0.10100000352E+00 0.  1.
</event>
<event>
 5   0  0.1700885E-06  0.3037580E+04  0.7818609E-02  0.8233080E-01
        1   -1    0    0  501    0  0.00000000000E+00  0.00000000000E+00  0.22662512962E+04  0.22662512962E+04  0.50400001928E-02 0. -1.
       -1   -1    0    0    0  501  0.00000000000E+00  0.00000000000E+00 -0.10178586307E+04  0.10178586307E+04  0.50400001928E-02 0.  1.
    10030    2    1    2    0    0  0.00000000000E+00  0.00000000000E+00  0.12483926655E+04  0.32841099268E+04  0.30375802482E+04 0.  0.
        1    1    3    3  502    0 -0.69940829946E+03 -0.33044187805E+02 -0.83294873759E+03  0.10881486512E+04  0.50400001928E-02 0.  1.
       -1    1    3    3    0  502  0.69940829946E+03  0.33044187805E+02  0.20813414031E+04  0.21959612756E+04  0.50400001928E-02 0. -1.
</event>
<event>
 5   0  0.1686012E-06  0.2902160E+04  0.7818609E-02  0.8272235E-01
       -1   -1    0    0    0  501  0.00000000000E+00  0.00000000000E+00  0.12113042022E+04  0.12113042022E+04  0.50400001928E-02 0. -1.
        1   -1    0    0  501    0  0.00000000000E+00  0.00000000000E+00 -0.17383188180E+04  0.17383188180E+04  0.50400001928E-02 0.  1.
    10030    2    1    2    0    0  0.00000000000E+00  0.00000000000E+00 -0.52701461580E+03  0.29496230202E+04  0.29021598088E+04 0.  0.
        4    1    3    3  502    0 -0.13995685363E+04 -0.36629056751E+03 -0.37791111997E+03  0.14952522514E+04  0.12699999809E+01 0.  1.
       -4    1    3    3    0  502  0.13995685363E+04  0.36629056751E+03 -0.14910349583E+03  0.14543707688E+04  0.12699999809E+01 0. -1.
</event>
<event>
 5   0  0.4532420E-06  0.2978488E+04  0.7818609E-02  0.8249901E-01
       -2   -1    0    0    0  501  0.00000000000E+00  0.00000000000E+00  0.11569809884E+04  0.11569809884E+04  0.25500000920E-02 0.  1.
        2   -1    0    0  501    0  0.00000000000E+00  0.00000000000E+00 -0.19169261329E+04  0.19169261329E+04  0.25500000920E-02 0. -1.
    10030    2    1    2    0    0  0.00000000000E+00  0.00000000000E+00 -0.75994514454E+03  0.30739071213E+04  0.29784875974E+04 0.  0.
        4    1    3    3  502    0  0.30762015679E+02 -0.14875251858E+04 -0.44660087388E+03  0.15534257091E+04  0.12699999809E+01 0.  1.
       -4    1    3    3    0  502 -0.30762015679E+02  0.14875251858E+04 -0.31334427066E+03  0.15204814122E+04  0.12699999809E+01 0. -1.
</event>
<event>
 5   0  0.4935331E-06  0.3003157E+04  0.7818609E-02  0.8242830E-01
       -2   -1    0    0    0  501  0.00000000000E+00  0.00000000000E+00  0.10611682646E+04  0.10611682646E+04  0.25500000920E-02 0. -1.
        2   -1    0    0  501    0  0.00000000000E+00  0.00000000000E+00 -0.21247689738E+04  0.21247689738E+04  0.25500000920E-02 0.  1.
    10030    2    1    2    0    0  0.00000000000E+00  0.00000000000E+00 -0.10636007092E+04  0.31859372384E+04  0.30031566090E+04 0.  0.
        5    1    3    3  502    0  0.10693281796E+04  0.71266707534E+03  0.29223689681E+03  0.13178701036E+04  0.46999998093E+01 0. -1.
       -5    1    3    3    0  502 -0.10693281796E+04 -0.71266707534E+03 -0.13558376061E+04  0.18680671348E+04  0.46999998093E+01 0.  1.
</event>
<event>
 5   0  0.1700885E-06  0.2943872E+04  0.7818609E-02  0.8259943E-01
        1   -1    0    0  501    0  0.00000000000E+00  0.00000000000E+00  0.22069330068E+04  0.22069330068E+04  0.50400001928E-02 0.  1.
       -1   -1    0    0    0  501  0.00000000000E+00  0.00000000000E+00 -0.98172220824E+03  0.98172220825E+03  0.50400001928E-02 0. -1.
    10030    2    1    2    0    0  0.00000000000E+00  0.00000000000E+00  0.12252107986E+04  0.31886552151E+04  0.29438716989E+04 0.  0.
        1    1    3    3  502    0 -0.24100411642E+03 -0.12129409433E+04  0.14772866035E+04  0.19265732338E+04  0.50400001928E-02 0.  1.
       -1    1    3    3    0  502  0.24100411642E+03  0.12129409433E+04 -0.25207580497E+03  0.12620819813E+04  0.50400001928E-02 0. -1.
</event>
<event>
 5   0  0.5003556E-06  0.3010946E+04  0.7818609E-02  0.8240612E-01
        2   -1    0    0  501    0  0.00000000000E+00  0.00000000000E+00  0.26761413073E+04  0.26761413073E+04  0.25500000920E-02 0. -1.
       -2   -1    0    0    0  501  0.00000000000E+00  0.00000000000E+00 -0.84690906761E+03  0.84690906761E+03  0.25500000920E-02 0.  1.
    10030    2    1    2    0    0  0.00000000000E+00  0.00000000000E+00  0.18292322397E+04  0.35230503749E+04  0.30109455919E+04 0.  0.
        3    1    3    3  502    0  0.67977385333E+03 -0.39995593474E+03 -0.58582342742E+03  0.98246951084E+03  0.10100000352E+00 0.  1.
       -3    1    3    3    0  502 -0.67977385333E+03  0.39995593474E+03  0.24150556671E+04  0.25405808640E+04  0.10100000352E+00 0. -1.
</event>
<event>
 5   0  0.4768570E-06  0.3042911E+04  0.7818609E-02  0.8231583E-01
       -2   -1    0    0    0  501  0.00000000000E+00  0.00000000000E+00  0.97106706408E+03  0.97106706409E+03  0.25500000920E-02 0.  1.
        2   -1    0    0  501    0  0.00000000000E+00  0.00000000000E+00 -0.23837965381E+04  0.23837965381E+04  0.25500000920E-02 0. -1.
    10030    2    1    2    0    0  0.00000000000E+00  0.00000000000E+00 -0.14127294740E+04  0.33548636022E+04  0.30429106498E+04 0.  0.
        1    1    3    3  502    0  0.46033507169E+03 -0.78962338406E+03  0.63464014626E+03  0.11127360793E+04  0.50400001928E-02 0.  1.
       -1    1    3    3    0  502 -0.46033507169E+03  0.78962338406E+03 -0.20473696203E+04  0.22421275229E+04  0.50400001928E-02 0. -1.
</event>
<event>
 5   0  0.4702748E-06  0.3036438E+04  0.7818609E-02  0.8233402E-01
       -2   -1    0    0    0  501  0.00000000000E+00  0.00000000000E+00  0.17643546475E+04  0.17643546475E+04  0.25500000920E-02 0. -1.
        2   -1    0    0  501    0  0.00000000000E+00  0.00000000000E+00 -0.13064200073E+04  0.13064200073E+04  0.25500000920E-02 0.  1.
    10030    2    1    2    0    0  0.00000000000E+00  0.00000000000E+00  0.45793464020E+03  0.30707746547E+04  0.30364375253E+04 0.  0.
        2    1    3    3  502    0  0.78741853704E+03 -0.80030667525E+02 -0.10812744211E+04  0.13399952365E+04  0.25500000920E-02 0.  1.
       -2    1    3    3    0  502 -0.78741853704E+03  0.80030667525E+02  0.15392090613E+04  0.17307794182E+04  0.25500000920E-02 0. -1.
</event>
<event>
 5   0  0.1734885E-06  0.2995347E+04  0.7818609E-02  0.8245061E-01
       -1   -1    0    0    0  501  0.00000000000E+00  0.00000000000E+00  0.10233750358E+04  0.10233750358E+04  0.50400001928E-02 0. -1.
        1   -1    0    0  501    0  0.00000000000E+00  0.00000000000E+00 -0.21917920616E+04  0.21917920616E+04  0.50400001928E-02 0.  1.
    10030    2    1    2    0    0  0.00000000000E+00  0.00000000000E+00 -0.11684170258E+04  0.32151670974E+04  0.29953465773E+04 0.  0.
        2    1    3    3  502    0 -0.76962803322E+03 -0.44191094140E+02  0.79405808188E+03  0.11067106215E+04  0.25500000920E-02 0. -1.
       -2    1    3    3    0  502  0.76962803322E+03  0.44191094140E+02 -0.19624751077E+04  0.21084564759E+04  0.25500000920E-02 0.  1.
</event>
<event>
 5   0  0.1686012E-06  0.2952686E+04  0.7818609E-02  0.8257372E-01
       -1   -1    0    0    0  501  0.00000000000E+00  0.00000000000E+00  0.13137915590E+04  0.13137915590E+04  0.50400001928E-02 0.  1.
        1   -1    0    0  501    0  0.00000000000E+00  0.00000000000E+00 -0.16590060764E+04  0.16590060764E+04  0.50400001928E-02 0. -1.
    10030    2    1    2    0    0  0.00000000000E+00  0.00000000000E+00 -0.34521451734E+03  0.29727976354E+04  0.29526856789E+04 0.  0.
        4    1    3    3  502    0  0.27281929731E+03  0.48595701657E+03  0.12038191909E+04  0.13265620408E+04  0.12699999809E+01 0.  1.
       -4    1    3    3    0  502 -0.27281929731E+03 -0.48595701657E+03 -0.15490337082E+04  0.16462355946E+04  0.12699999809E+01 0. -1.
</event>
<event>
 5   0  0.4935331E-06  0.2961328E+04  0.7818609E-02  0.8254861E-01
       -2   -1    0    0    0  501  0.00000000000E+00  0.00000000000E+00  0.10596803184E+04  0.10596803184E+04  0.25500000920E-02 0.  1.
        2   -1    0    0  501    0  0.00000000000E+00  0.00000000000E+00 -0.20688936035E+04  0.20688936035E+04  0.25500000920E-02 0. -1.
    10030    2    1    2    0    0  0.00000000000E+00  0.00000000000E+00 -0.10092132851E+04  0.31285739219E+04  0.29613279673E+04 0.  0.
        5    1    3    3  502    0  0.31469962774E+03  0.96067755337E+03  0.63834611539E+03  0.11955940240E+04  0.46999998093E+01 0.  1.
       -5    1    3    3    0  502 -0.31469962774E+03 -0.96067755337E+03 -0.16475594005E+04  0.19329798979E+04  0.46999998093E+01 0. -1.
</event>
<event>
 5   0  0.1734885E-06  0.3040616E+04  0.7818609E-02  0.8232227E-01
        1   -1    0    0  501    0  0.00000000000E+00  0.00000000000E+00  0.16677770324E+04  0.16677770324E+04  0.50400001928E-02 0.  1.
       -1   -1    0    0    0  501  0.00000000000E+00  0.00000000000E+00 -0.13858789016E+04  0.13858789016E+04  0.50400001928E-02 0. -1.
    10030    2    1    2    0    0  0.00000000000E+00  0.00000000000E+00  0.28189813081E+03  0.30536559340E+04  0.30406163860E+04 0.  0.
        2    1    3    3  502    0  0.11449608069E+04 -0.70116309889E+03 -0.57539241073E+03  0.14606989310E+04  0.25500000920E-02 0. -1.
       -2    1    3    3    0  502 -0.11449608069E+04  0.70116309889E+03  0.85729054154E+03  0.15929570030E+04  0.25500000920E-02 0.  1.
</event>
<event>
 5   0  0.1672907E-06  0.2884759E+04  0.7818609E-02  0.8277427E-01
        1   -1    0    0  501    0  0.00000000000E+00  0.00000000000E+00  0.85833344281E+03  0.85833344282E+03  0.50400001928E-02 0. -1.
       -1   -1    0    0    0  501  0.00000000000E+00  0.00000000000E+00 -0.24238347989E+04  0.24238347989E+04  0.50400001928E-02 0.  1.
    10030    2    1    2    0    0  0.00000000000E+00  0.00000000000E+00 -0.15655013561E+04  0.32821682417E+04  0.28847588931E+04 0.  0.
        5    1    3    3  502    0 -0.12294026032E+04 -0.29662235367E+03  0.63515043411E+01  0.12647047138E+04  0.46999998093E+01 0. -1.
       -5    1    3    3    0  502  0.12294026032E+04  0.29662235367E+03 -0.15718528604E+04  0.20174635279E+04  0.46999998093E+01 0.  1.
</event>
<event>
 5   0  0.1686012E-06  0.2995393E+04  0.7818609E-02  0.8245048E-01
       -1   -1    0    0    0  501  0.00000000000E+00  0.00000000000E+00  0.18187030288E+04  0.18187030288E+04  0.50400001928E-02 0. -1.
        1   -1    0    0  501    0  0.00000000000E+00  0.00000000000E+00 -0.12333484050E+04  0.12333484051E+04  0.50400001928E-02 0.  1.
    10030    2    1    2    0    0  0.00000000000E+00  0.00000000000E+00  0.58535462373E+03  0.30520514338E+04  0.29953927821E+04 0.  0.
        4    1    3    3  502    0 -0.10202482665E+04  0.21370648426E+02 -0.82429255005E+03  0.13118014525E+04  0.12699999809E+01 0.  1.
       -4    1    3    3    0  502  0.10202482665E+04 -0.21370648426E+02  0.14096471738E+04  0.17402499813E+04  0.12699999809E+01 0. -1.
</event>
<event>
 5   0  0.1709858E-06  0.2885051E+04  0.7818609E-02  0.8277339E-01
        1   -1    0    0  501    0  0.00000000000E+00  0.00000000000E+00  0.23243087222E+04  0.23243087222E+04  0.50400001928E-02 0. -1.
       -1   -1    0    0    0  501  0.00000000000E+00  0.00000000000E+00 -0.89526795116E+03  0.89526795117E+03  0.50400001928E-02 0.  1.
    10030    2    1    2    0    0  0.00000000000E+00  0.00000000000E+00  0.14290407710E+04  0.32195766734E+04  0.28850505074E+04 0.  0.
        3    1    3    3  502    0 -0.13684984815E+04 -0.42424927833E+03  0.52744098513E+03  0.15267513049E+04  0.10100000352E+00 0. -1.
       -3    1    3    3    0  502  0.13684984815E+04  0.42424927833E+03  0.90159978590E+03  0.16928253685E+04  0.10100000352E+00 0.  1.
</event>
<event>
 5   0  0.1672907E-06  0.2881265E+04  0.7818609E-02  0.8278474E-01
       -1   -1    0    0    0  501  0.00000000000E+00  0.00000000000E+00  0.11831227362E+04  0.11831227362E+04  0.50400001928E-02 0. -1.
        1   -1    0    0  501    0  0.00000000000E+00  0.00000000000E+00 -0.17541896258E+04  0.17541896258E+04  0.50400001928E-02 0.  1.
    10030    2    1    2    0    0  0.00000000000E+00  0.00000000000E+00 -0.57106688960E+03  0.29373123620E+04  0.28812647431E+04 0.  0.
        5    1    3    3  502    0 -0.12482588427E+03  0.41250571836E+03  0.11158547882E+04  0.11962008475E+04  0.46999998093E+01 0. -1.
       -5    1    3    3    0  502  0.12482588427E+03 -0.41250571836E+03 -0.16869216778E+04  0.17411115146E+04  0.46999998093E+01 0.  1.
</event>
<event>
 5   0  0.1700885E-06  0.3019346E+04  0.7818609E-02  0.8238228E-01
        1   -1    0    0  501    0  0.00000000000E+00  0.00000000000E+00  0.76177888357E+03  0.76177888358E+03  0.50400001928E-02 0. -1.
       -1   -1    0    0    0  501  0.00000000000E+00  0.00000000000E+00 -0.29918285739E+04  0.29918285739E+04  0.50400001928E-02 0.  1.
    10030    2    1    2    0    0  0.00000000000E+00  0.00000000000E+00 -0.22300496903E+04  0.37536074574E+04  0.30193455124E+04 0.  0.
        1    1    3    3  502    0 -0.15961857239E+03 -0.61823454023E+03  0.58565141475E+03  0.86641769085E+03  0.50400001928E-02 0. -1.
       -1    1    3    3    0  502  0.15961857239E+03  0.61823454023E+03 -0.28157011050E+04  0.28871897666E+04  0.50400001928E-02 0.  1.
</event>
<event>
 5   0  0.4768570E-06  0.3045709E+04  0.7818609E-02  0.8230797E-01
       -2   -1    0    0    0  501  0.00000000000E+00  0.00000000000E+00  0.90637544039E+03  0.90637544039E+03  0.25500000920E-02 0.  1.
        2   -1    0    0  501    0  0.00000000000E+00  0.00000000000E+00 -0.25586374064E+04  0.25586374064E+04  0.25500000920E-02 0. -1.
    10030    2    1    2    0    0  0.00000000000E+00  0.00000000000E+00 -0.16522619660E+04  0.34650128468E+04  0.30457091825E+04 0.  0.
        1    1    3    3  502    0 -0.10686586228E+04  0.74895210012E+03  0.66868167025E+02  0.13066873582E+04  0.50400001928E-02 0.  1.
       -1    1    3    3    0  502  0.10686586228E+04 -0.74895210012E+03 -0.17191301330E+04  0.21583254886E+04  0.50400001928E-02 0. -1.
</event>
<event>
 5   0  0.1700885E-06  0.2404985E+04  0.7818609E-02  0.8437640E-01
       -1   -1    0    0    0  501  0.00000000000E+00  0.00000000000E+00  0.11174529902E+04  0.11174529902E+04  0.50400001928E-02 0. -1.
        1   -1    0    0  501    0  0.00000000000E+00  0.00000000000E+00 -0.12940033405E+04  0.12940033405E+04  0.50400001928E-02 0.  1.
    10030    2    1    2    0    0  0.00000000000E+00  0.00000000000E+00 -0.17655035031E+03  0.24114563307E+04  0.24049847419E+04 0.  0.
        1    1    3    3  502    0 -0.38108311333E+02 -0.34163253939E+03 -0.12436879047E+04  0.12903195882E+04  0.50400001928E-02 0.  1.
       -1    1    3    3    0  502  0.38108311333E+02  0.34163253939E+03  0.10671375544E+04  0.11211367425E+04  0.50400001928E-02 0. -1.
</event>
<event>
 5   0  0.4532420E-06  0.2884872E+04  0.7818609E-02  0.8277393E-01
       -2   -1    0    0    0  501  0.00000000000E+00  0.00000000000E+00  0.20437604614E+04  0.20437604614E+04  0.25500000920E-02 0. -1.
        2   -1    0    0  501    0  0.00000000000E+00  0.00000000000E+00 -0.10180360766E+04  0.10180360766E+04  0.25500000920E-02 0.  1.
    10030    2    1    2    0    0  0.00000000000E+00  0.00000000000E+00  0.10257243847E+04  0.30617965380E+04  0.28848721855E+04 0.  0.
        4    1    3    3  502    0 -0.35666276780E+03  0.77286949994E+03 -0.72306576179E+03  0.11168533040E+04  0.12699999809E+01 0.  1.
       -4    1    3    3    0  502  0.35666276780E+03 -0.77286949994E+03  0.17487901465E+04  0.19449432340E+04  0.12699999809E+01 0. -1.
</event>
<event>
 5   0  0.4935331E-06  0.3004584E+04  0.7818609E-02  0.8242423E-01
        2   -1    0    0  501    0  0.00000000000E+00  0.00000000000E+00  0.20796502894E+04  0.20796502894E+04  0.25500000920E-02 0. -1.
       -2   -1    0    0    0  501  0.00000000000E+00  0.00000000000E+00 -0.10852211613E+04  0.10852211613E+04  0.25500000920E-02 0.  1.
    10030    2    1    2    0    0  0.00000000000E+00  0.00000000000E+00  0.99442912813E+03  0.31648714507E+04  0.30045835000E+04 0.  0.
        5    1    3    3  502    0  0.57184786169E+03 -0.11893920209E+04  0.12532769633E+04  0.18199968662E+04  0.46999998093E+01 0. -1.
       -5    1    3    3    0  502 -0.57184786169E+03  0.11893920209E+04 -0.25884783521E+03  0.13448745845E+04  0.46999998093E+01 0.  1.
</event>
<event>
 5   0  0.1734885E-06  0.2980031E+04  0.7818609E-02  0.8249456E-01
       -1   -1    0    0    0  501  0.00000000000E+00  0.00000000000E+00  0.90198317382E+03  0.90198317383E+03  0.50400001928E-02 0. -1.
        1   -1    0    0  501    0  0.00000000000E+00  0.00000000000E+00 -0.24614057642E+04  0.24614057642E+04  0.50400001928E-02 0.  1.
    10030    2    1    2    0    0  0.00000000000E+00  0.00000000000E+00 -0.15594225903E+04  0.33633889380E+04  0.29800312638E+04 0.  0.
        2    1    3    3  502    0  0.12034068214E+03 -0.10516429891E+03 -0.24517043553E+04  0.24569077426E+04  0.25500000920E-02 0.  1.
       -2    1    3    3    0  502 -0.12034068214E+03  0.10516429891E+03  0.89228176499E+03  0.90648119544E+03  0.25500000920E-02 0. -1.
</event>
<event>
 5   0  0.1700885E-06  0.3021675E+04  0.7818609E-02  0.8237568E-01
       -1   -1    0    0    0  501  0.00000000000E+00  0.00000000000E+00  0.18489223012E+04  0.18489223012E+04  0.50400001928E-02 0. -1.
        1   -1    0    0  501    0  0.00000000000E+00  0.00000000000E+00 -0.12345732855E+04  0.12345732856E+04  0.50400001928E-02 0.  1.
    10030    2    1    2    0    0  0.00000000000E+00  0.00000000000E+00  0.61434901562E+03  0.30834955867E+04  0.30216750852E+04 0.  0.
        1    1    3    3  502    0 -0.59939008965E+03  0.15296011977E+02  0.17223152075E+04  0.18236973767E+04  0.50400001928E-02 0. -1.
       -1    1    3    3    0  502  0.59939008965E+03 -0.15296011977E+02 -0.11079661919E+04  0.12597982100E+04  0.50400001928E-02 0.  1.
</event>
<event>
 5   0  0.4702748E-06  0.3001541E+04  0.7818609E-02  0.8243291E-01
       -2   -1    0    0    0  501  0.00000000000E+00  0.00000000000E+00  0.10169457929E+04  0.10169457929E+04  0.25500000920E-02 0.  1.
        2   -1    0    0  501    0  0.00000000000E+00  0.00000000000E+00 -0.22147808498E+04  0.22147808498E+04  0.25500000920E-02 0. -1.
    10030    2    1    2    0    0  0.00000000000E+00  0.00000000000E+00 -0.11978350569E+04  0.32317266427E+04  0.30015409825E+04 0.  0.
        2    1    3    3  502    0  0.31613520235E+03 -0.21646624113E+03 -0.21612350426E+04  0.21949341696E+04  0.25500000920E-02 0. -1.
       -2    1    3    3    0  502 -0.31613520235E+03  0.21646624113E+03  0.96339998569E+03  0.10367924730E+04  0.25500000920E-02 0.  1.
</event>
<event>
 5   0  0.1709858E-06  0.2980821E+04  0.7818609E-02  0.8249229E-01
        1   -1    0    0  501    0  0.00000000000E+00  0.00000000000E+00  0.15740413957E+04  0.15740413958E+04  0.50400001928E-02 0.  1.
       -1   -1    0    0    0  501  0.00000000000E+00  0.00000000000E+00 -0.14112231251E+04  0.14112231251E+04  0.50400001928E-02 0. -1.
    10030    2    1    2    0    0  0.00000000000E+00  0.00000000000E+00  0.16281827063E+03  0.29852645209E+04  0.29808211067E+04 0.  0.
        3    1    3    3  502    0  0.12980157626E+04  0.58986217158E+03 -0.35345156636E+03  0.14689146746E+04  0.10100000352E+00 0.  1.
       -3    1    3    3    0  502 -0.12980157626E+04 -0.58986217158E+03  0.51626983699E+03  0.15163498462E+04  0.10100000352E+00 0. -1.
</event>
<event>
 5   0  0.1709858E-06  0.3021363E+04  0.7818609E-02  0.8237657E-01
        1   -1    0    0  501    0  0.00000000000E+00  0.00000000000E+00  0.12657152471E+04  0.12657152471E+04  0.50400001928E-02 0. -1.
       -1   -1    0    0    0  501  0.00000000000E+00  0.00000000000E+00 -0.18030579612E+04  0.18030579612E+04  0.50400001928E-02 0.  1.
    10030    2    1    2    0    0  0.00000000000E+00  0.00000000000E+00 -0.53734271411E+03  0.30687732083E+04  0.30213625753E+04 0.  0.
        3    1    3    3  502    0  0.11478558725E+03  0.13044183847E+04 -0.10338014317E+04  0.16683610112E+04  0.10100000352E+00 0.  1.
       -3    1    3    3    0  502 -0.11478558725E+03 -0.13044183847E+04  0.49645871756E+03  0.14004121971E+04  0.10100000352E+00 0. -1.
</event>
<event>
 5   0  0.4702748E-06  0.2921808E+04  0.7818609E-02  0.8266418E-01
        2   -1    0    0  501    0  0.00000000000E+00  0.00000000000E+00  0.15076260112E+04  0.15076260112E+04  0.25500000920E-02 0.  1.
       -2   -1    0    0    0  501  0.00000000000E+00  0.00000000000E+00 -0.14156296420E+04  0.14156296420E+04  0.25500000920E-02 0. -1.
    10030    2    1    2    0    0  0.00000000000E+00  0.00000000000E+00  0.91996369201E+02  0.29232556533E+04  0.29218077080E+04 0.  0.
        2    1    3    3  502    0 -0.33379336646E+03  0.75312182294E+03 -0.11610944606E+04  0.14236399960E+04  0.25500000920E-02 0. -1.
       -2    1    3    3    0  502  0.33379336646E+03 -0.75312182294E+03  0.12530908298E+04  0.14996156573E+04  0.25500000920E-02 0.  1.
</event>
<event>
 5   0  0.1672907E-06  0.2963082E+04  0.7818609E-02  0.8254352E-01
       -1   -1    0    0    0  501  0.00000000000E+00  0.00000000000E+00  0.94473284330E+03  0.94473284331E+03  0.50400001928E-02 0.  1.
        1   -1    0    0  501    0  0.00000000000E+00  0.00000000000E+00 -0.23233694060E+04  0.23233694060E+04  0.50400001928E-02 0. -1.
    10030    2    1    2    0    0  0.00000000000E+00  0.00000000000E+00 -0.13786365627E+04  0.32681022493E+04  0.29630817640E+04 0.  0.
        5    1    3    3  502    0  0.93460919873E+03 -0.89260828321E+02  0.57472993634E+03  0.11008171690E+04  0.46999998093E+01 0.  1.
       -5    1    3    3    0  502 -0.93460919873E+03  0.89260828321E+02 -0.19533664991E+04  0.21672850803E+04  0.46999998093E+01 0. -1.
</event>
<event>
 5   0  0.5003556E-06  0.2999603E+04  0.7818609E-02  0.8243844E-01
        2   -1    0    0  501    0  0.00000000000E+00  0.00000000000E+00  0.19465509223E+04  0.19465509223E+04  0.25500000920E-02 0.  1.
       -2   -1    0    0    0  501  0.00000000000E+00  0.00000000000E+00 -0.11555847557E+04  0.11555847557E+04  0.25500000920E-02 0. -1.
    10030    2    1    2    0    0  0.00000000000E+00  0.00000000000E+00  0.79096616657E+03  0.31021356781E+04  0.29996030218E+04 0.  0.
        3    1    3    3  502    0 -0.12670914896E+04 -0.78658017923E+03  0.23139211328E+03  0.15092287904E+04  0.10100000352E+00 0. -1.
       -3    1    3    3    0  502  0.12670914896E+04  0.78658017923E+03  0.55957405329E+03  0.15929068877E+04  0.10100000352E+00 0.  1.
</event>
<event>
 5   0  0.5003556E-06  0.3019856E+04  0.7818609E-02  0.8238084E-01
       -2   -1    0    0    0  501  0.00000000000E+00  0.00000000000E+00  0.13387828372E+04  0.13387828372E+04  0.25500000920E-02 0.  1.
        2   -1    0    0  501    0  0.00000000000E+00  0.00000000000E+00 -0.17029512207E+04  0.17029512207E+04  0.25500000920E-02 0. -1.
    10030    2    1    2    0    0  0.00000000000E+00  0.00000000000E+00 -0.36416838349E+03  0.30417340580E+04  0.30198555376E+04 0.  0.
        3    1    3    3  502    0 -0.71126494547E+03 -0.62268746326E+03  0.10038346478E+04  0.13788841539E+04  0.10100000352E+00 0.  1.
       -3    1    3    3    0  502  0.71126494547E+03  0.62268746326E+03 -0.13680030313E+04  0.16628499041E+04  0.10100000352E+00 0. -1.
</event>
<event>
 5   0  0.4702748E-06  0.2985408E+04  0.7818609E-02  0.8247910E-01
        2   -1    0    0  501    0  0.00000000000E+00  0.00000000000E+00  0.20950055990E+04  0.20950055990E+04  0.25500000920E-02 0.  1.
       -2   -1    0    0    0  501  0.00000000000E+00  0.00000000000E+00 -0.10635607171E+04  0.10635607171E+04  0.25500000920E-02 0. -1.
    10030    2    1    2    0    0  0.00000000000E+00  0.00000000000E+00  0.10314448819E+04  0.31585663161E+04  0.29854082851E+04 0.  0.
        2    1    3    3  502    0 -0.10584718930E+04 -0.80545829149E+03  0.12325446627E+04  0.18133648704E+04  0.25500000920E-02 0.  1.
       -2    1    3    3    0  502  0.10584718930E+04  0.80545829149E+03 -0.20109978082E+03  0.13452014457E+04  0.25500000920E-02 0. -1.
</event>
<event>
 5   0  0.1686012E-06  0.3128930E+04  0.7818609E-02  0.8207843E-01
       -1   -1    0    0    0  501  0.00000000000E+00  0.00000000000E+00  0.10066513538E+04  0.10066513538E+04  0.50400001928E-02 0. -1.
        1   -1    0    0  501    0  0.00000000000E+00  0.00000000000E+00 -0.24313790195E+04  0.24313790195E+04  0.50400001928E-02 0.  1.
    10030    2    1    2    0    0  0.00000000000E+00  0.00000000000E+00 -0.14247276657E+04  0.34380303733E+04  0.31289301568E+04 0.  0.
        4    1    3    3  502    0 -0.61520808553E+03  0.14362055382E+04 -0.80014337967E+03  0.17553912320E+04  0.12699999809E+01 0. -1.
       -4    1    3    3    0  502  0.61520808553E+03 -0.14362055382E+04 -0.62458428603E+03  0.16826391413E+04  0.12699999809E+01 0.  1.
</event>
<event>
 5   0  0.4768570E-06  0.3048856E+04  0.7818609E-02  0.8229916E-01
       -2   -1    0    0    0  501  0.00000000000E+00  0.00000000000E+00  0.17184227175E+04  0.17184227175E+04  0.25500000920E-02 0. -1.
        2   -1    0    0  501    0  0.00000000000E+00  0.00000000000E+00 -0.13523334406E+04  0.13523334406E+04  0.25500000920E-02 0.  1.
    10030    2    1    2    0    0  0.00000000000E+00  0.00000000000E+00  0.36608927694E+03  0.30707561581E+04  0.30488558549E+04 0.  0.
        1    1    3    3  502    0  0.11361617850E+04 -0.56305014503E+03 -0.66919622484E+03  0.14337756641E+04  0.50400001928E-02 0.  1.
       -1    1    3    3    0  502 -0.11361617850E+04  0.56305014503E+03  0.10352855018E+04  0.16369804940E+04  0.50400001928E-02 0. -1.
</event>
<event>
 5   0  0.4702748E-06  0.2984428E+04  0.7818609E-02  0.8248192E-01
        2   -1    0    0  501    0  0.00000000000E+00  0.00000000000E+00  0.16554170094E+04  0.16554170094E+04  0.25500000920E-02 0. -1.
       -2   -1    0    0    0  501  0.00000000000E+00  0.00000000000E+00 -0.13451005395E+04  0.13451005395E+04  0.25500000920E-02 0.  1.
    10030    2    1    2    0    0  0.00000000000E+00  0.00000000000E+00  0.31031646996E+03  0.30005175489E+04  0.29844277927E+04 0.  0.
        2    1    3    3  502    0  0.41476475901E+03  0.74938171531E+03  0.13836704470E+04  0.16273127132E+04  0.25500000920E-02 0. -1.
       -2    1    3    3    0  502 -0.41476475901E+03 -0.74938171531E+03 -0.10733539771E+04  0.13732048357E+04  0.25500000920E-02 0.  1.
</event>
<event>
 5   0  0.4532420E-06  0.3050361E+04  0.7818609E-02  0.8229494E-01
       -2   -1    0    0    0  501  0.00000000000E+00  0.00000000000E+00  0.13124049575E+04  0.13124049575E+04  0.25500000920E-02 0.  1.
        2   -1    0    0  501    0  0.00000000000E+00  0.00000000000E+00 -0.17724530232E+04  0.17724530232E+04  0.25500000920E-02 0. -1.
    10030    2    1    2    0    0  0.00000000000E+00  0.00000000000E+00 -0.46004806569E+03  0.30848579807E+04  0.30503613783E+04 0.  0.
        4    1    3    3  502    0 -0.71121985285E+03 -0.58374241996E+03  0.10001142485E+04  0.13589771944E+04  0.12699999809E+01 0.  1.
       -4    1    3    3    0  502  0.71121985285E+03  0.58374241996E+03 -0.14601623142E+04  0.17258807863E+04  0.12699999809E+01 0. -1.
</event>
<event>
 5   0  0.5003556E-06  0.3083896E+04  0.7818609E-02  0.8220171E-01
        2   -1    0    0  501    0  0.00000000000E+00  0.00000000000E+00  0.22938226459E+04  0.22938226459E+04  0.25500000920E-02 0. -1.
       -2   -1    0    0    0  501  0.00000000000E+00  0.00000000000E+00 -0.10365248533E+04  0.10365248533E+04  0.25500000920E-02 0.  1.
    10030    2    1    2    0    0  0.00000000000E+00  0.00000000000E+00  0.12572977926E+04  0.33303474993E+04  0.30838963547E+04 0.  0.
        3    1    3    3  502    0  0.10195536412E+04  0.11315333147E+04  0.88815891123E+03  0.17631459189E+04  0.10100000352E+00 0.  1.
       -3    1    3    3    0  502 -0.10195536412E+04 -0.11315333147E+04  0.36913888134E+03  0.15672015804E+04  0.10100000352E+00 0. -1.
</event>
<event>
 5   0  0.1734885E-06  0.3010493E+04  0.7818609E-02  0.8240741E-01
        1   -1    0    0  501    0  0.00000000000E+00  0.00000000000E+00  0.15043528959E+04  0.15043528960E+04  0.50400001928E-02 0.  1.
       -1   -1    0    0    0  501  0.00000000000E+00  0.00000000000E+00 -0.15061406999E+04  0.15061406999E+04  0.50400001928E-02 0. -1.
    10030    2    1    2    0    0  0.00000000000E+00  0.00000000000E+00 -0.17878039658E+01  0.30104935959E+04  0.30104930650E+04 0.  0.
        2    1    3    3  502    0  0.59847938168E+03 -0.13130496468E+04  0.42746370933E+03  0.15049924146E+04  0.25500000920E-02 0.  1.
       -2    1    3    3    0  502 -0.59847938168E+03  0.13130496468E+04 -0.42925151330E+03  0.15055011813E+04  0.25500000920E-02 0. -1.
</event>
<event>
 5   0  0.4768570E-06  0.2987949E+04  0.7818609E-02  0.8247181E-01
       -2   -1    0    0    0  501  0.00000000000E+00  0.00000000000E+00  0.11006243060E+04  0.11006243060E+04  0.25500000920E-02 0. -1.
        2   -1    0    0  501    0  0.00000000000E+00  0.00000000000E+00 -0.20279033113E+04  0.20279033113E+04  0.25500000920E-02 0.  1.
    10030    2    1    2    0    0  0.00000000000E+00  0.00000000000E+00 -0.92727900530E+03  0.31285276172E+04  0.29879489116E+04 0.  0.
        1    1    3    3  502    0  0.96145901030E+03 -0.11313181515E+04 -0.28945301800E+03  0.15126358577E+04  0.50400001928E-02 0. -1.
       -1    1    3    3    0  502 -0.96145901030E+03  0.11313181515E+04 -0.63782598730E+03  0.16158917595E+04  0.50400001928E-02 0.  1.
</event>
<event>
 5   0  0.4532420E-06  0.3018387E+04  0.7818609E-02  0.8238500E-01
       -2   -1    0    0    0  501  0.00000000000E+00  0.00000000000E+00  0.14663684249E+04  0.14663684249E+04  0.25500000920E-02 0.  1.
        2   -1    0    0  501    0  0.00000000000E+00  0.00000000000E+00 -0.15532688866E+04  0.15532688866E+04  0.25500000920E-02 0. -1.
    10030    2    1    2    0    0  0.00000000000E+00  0.00000000000E+00 -0.86900461796E+02  0.30196373115E+04  0.30183866225E+04 0.  0.
        4    1    3    3  502    0 -0.72304825961E+03  0.12418259334E+04  0.41797011332E+03  0.14965396964E+04  0.12699999809E+01 0.  1.
       -4    1    3    3    0  502  0.72304825961E+03 -0.12418259334E+04 -0.50487057512E+03  0.15230976151E+04  0.12699999809E+01 0. -1.
</event>
<event>
 5   0  0.1700885E-06  0.2993448E+04  0.7818609E-02  0.8245604E-01
       -1   -1    0    0    0  501  0.00000000000E+00  0.00000000000E+00  0.18014231491E+04  0.18014231491E+04  0.50400001928E-02 0. -1.
        1   -1    0    0  501    0  0.00000000000E+00  0.00000000000E+00 -0.12435631009E+04  0.12435631009E+04  0.50400001928E-02 0.  1.
    10030    2    1    2    0    0  0.00000000000E+00  0.00000000000E+00  0.55786004825E+03  0.30449862500E+04  0.29934484177E+04 0.  0.
        1    1    3    3  502    0  0.32969433552E+03  0.14047831215E+04  0.68335450557E+03  0.15965861561E+04  0.50400001928E-02 0. -1.
       -1    1    3    3    0  502 -0.32969433552E+03 -0.14047831215E+04 -0.12549445731E+03  0.14484000940E+04  0.50400001928E-02 0.  1.
</event>
<event>
 5   0  0.1734885E-06  0.2943639E+04  0.7818609E-02  0.8260011E-01
        1   -1    0    0  501    0  0.00000000000E+00  0.00000000000E+00  0.17926474082E+04  0.17926474082E+04  0.50400001928E-02 0. -1.
       -1   -1    0    0    0  501  0.00000000000E+00  0.00000000000E+00 -0.12084097252E+04  0.12084097253E+04  0.50400001928E-02 0.  1.
    10030    2    1    2    0    0  0.00000000000E+00  0.00000000000E+00  0.58423768298E+03  0.30010571335E+04  0.29436389466E+04 0.  0.
        2    1    3    3  502    0  0.14619038892E+03 -0.72169149830E+03  0.15913558813E+04  0.17534605184E+04  0.25500000920E-02 0. -1.
       -2    1    3    3    0  502 -0.14619038892E+03  0.72169149830E+03 -0.10071181983E+04  0.12475966151E+04  0.25500000920E-02 0.  1.
</event>
<event>
 5   0  0.1672907E-06  0.2997423E+04  0.7818609E-02  0.8244467E-01
        1   -1    0    0  501    0  0.00000000000E+00  0.00000000000E+00  0.18953060033E+04  0.18953060033E+04  0.50400001928E-02 0.  1.
       -1   -1    0    0    0  501  0.00000000000E+00  0.00000000000E+00 -0.11851046827E+04  0.11851046827E+04  0.50400001928E-02 0. -1.
    10030    2    1    2    0    0  0.00000000000E+00  0.00000000000E+00  0.71020132062E+03  0.30804106860E+04  0.29974229062E+04 0.  0.
        5    1    3    3  502    0  0.14707019397E+04  0.28543914320E+03  0.39715086683E+03  0.15499001906E+04  0.46999998093E+01 0. -1.
       -5    1    3    3    0  502 -0.14707019397E+04 -0.28543914320E+03  0.31305045380E+03  0.15305104954E+04  0.46999998093E+01 0.  1.
</event>
<event>
 5   0  0.1709858E-06  0.2905562E+04  0.7818609E-02  0.8271225E-01
       -1   -1    0    0    0  501  0.00000000000E+00  0.00000000000E+00  0.14052468698E+04  0.14052468698E+04  0.50400001928E-02 0.  1.
        1   -1    0    0  501    0  0.00000000000E+00  0.00000000000E+00 -0.15019226503E+04  0.15019226504E+04  0.50400001928E-02 0. -1.
    10030    2    1    2    0    0  0.00000000000E+00  0.00000000000E+00 -0.96675780556E+02  0.29071695202E+04  0.29055616346E+04 0.  0.
        3    1    3    3  502    0 -0.40026867550E+03 -0.58884754807E+03 -0.13153781267E+04  0.14957192497E+04  0.10100000352E+00 0. -1.
       -3    1    3    3    0  502  0.40026867550E+03  0.58884754807E+03  0.12187023461E+04  0.14114502705E+04  0.10100000352E+00 0.  1.
</event>
<event>
 5   0  0.4532420E-06  0.3005804E+04  0.7818609E-02  0.8242076E-01
       -2   -1    0    0    0  501  0.00000000000E+00  0.00000000000E+00  0.19910369654E+04  0.19910369654E+04  0.25500000920E-02 0.  1.
        2   -1    0    0  501    0  0.00000000000E+00  0.00000000000E+00 -0.11344410432E+04  0.11344410432E+04  0.25500000920E-02 0. -1.
    10030    2    1    2    0    0  0.00000000000E+00  0.00000000000E+00  0.85659592222E+03  0.31254780086E+04  0.30058037541E+04 0.  0.
        4    1    3    3  502    0 -0.13741026346E+04  0.50396589851E+03  0.78331922683E+03  0.16600392469E+04  0.12699999809E+01 0.  1.
       -4    1    3    3    0  502  0.13741026346E+04 -0.50396589851E+03  0.73276695391E+02  0.14654387617E+04  0.12699999809E+01 0. -1.
</event>
<event>
 5   0  0.1700885E-06  0.2990970E+04  0.7818609E-02  0.8246314E-01
       -1   -1    0    0    0  501  0.00000000000E+00  0.00000000000E+00  0.11884145312E+04  0.11884145312E+04  0.50400001928E-02 0.  1.
        1   -1    0    0  501    0  0.00000000000E+00  0.00000000000E+00 -0.18818987435E+04  0.18818987435E+04  0.50400001928E-02 0. -1.
    10030    2    1    2    0    0  0.00000000000E+00  0.00000000000E+00 -0.69348421229E+03  0.30703132747E+04  0.29909702860E+04 0.  0.
        1    1    3    3  502    0  0.73064347717E+03 -0.83150673714E+03  0.68553452174E+03  0.13019988192E+04  0.50400001928E-02 0.  1.
       -1    1    3    3    0  502 -0.73064347717E+03  0.83150673714E+03 -0.13790187340E+04  0.17683144555E+04  0.50400001928E-02 0. -1.
</event>
<event>
 5   0  0.4935331E-06  0.3018005E+04  0.7818609E-02  0.8238608E-01
        2   -1    0    0  501    0  0.00000000000E+00  0.00000000000E+00  0.20775072425E+04  0.20775072425E+04  0.25500000920E-02 0. -1.
       -2   -1    0    0    0  501  0.00000000000E+00  0.00000000000E+00 -0.10960674812E+04  0.10960674812E+04  0.25500000920E-02 0.  1.
    10030    2    1    2    0    0  0.00000000000E+00  0.00000000000E+00  0.98143976138E+03  0.31735747237E+04  0.30180047253E+04 0.  0.
        5    1    3    3  502    0  0.36550139725E+03 -0.10939887171E+04 -0.53240022510E+03  0.12703836720E+04  0.46999998093E+01 0.  1.
       -5    1    3    3    0  502 -0.36550139725E+03  0.10939887171E+04  0.15138399865E+04  0.19031910517E+04  0.46999998093E+01 0. -1.
</event>
<event>
 5   0  0.4935331E-06  0.3083764E+04  0.7818609E-02  0.8220208E-01
       -2   -1    0    0    0  501  0.00000000000E+00  0.00000000000E+00  0.12130308048E+04  0.12130308048E+04  0.25500000920E-02 0. -1.
        2   -1    0    0  501    0  0.00000000000E+00  0.00000000000E+00 -0.19598837709E+04  0.19598837709E+04  0.25500000920E-02 0.  1.
    10030    2    1    2    0    0  0.00000000000E+00  0.00000000000E+00 -0.74685296614E+03  0.31729145757E+04  0.30837635369E+04 0.  0.
        5    1    3    3  502    0 -0.10607776430E+03 -0.11717551614E+04 -0.13987879781E+04  0.18278108622E+04  0.46999998093E+01 0.  1.
       -5    1    3    3    0  502  0.10607776430E+03  0.11717551614E+04  0.65193501193E+03  0.13451037135E+04  0.46999998093E+01 0. -1.
</event>
<event>
 5   0  0.4935331E-06  0.2488964E+04  0.7818609E-02  0.8406928E-01
       -2   -1    0    0    0  501  0.00000000000E+00  0.00000000000E+00  0.57571525229E+03  0.57571525230E+03  0.25500000920E-02 0.  1.
        2   -1    0    0  501    0  0.00000000000E+00  0.00000000000E+00 -0.26901064998E+04  0.26901064999E+04  0.25500000920E-02 0. -1.
    10030    2    1    2    0    0  0.00000000000E+00  0.00000000000E+00 -0.21143912476E+04  0.32658217521E+04  0.24889639148E+04 0.  0.
        5    1    3    3  502    0 -0.55315053895E+03  0.66678195199E+03 -0.22294268777E+04  0.23918486539E+04  0.46999998093E+01 0. -1.
       -5    1    3    3    0  502  0.55315053895E+03 -0.66678195199E+03  0.11503563014E+03  0.87397309823E+03  0.46999998093E+01 0.  1.
</event>
<event>
 5   0  0.4702748E-06  0.3007976E+04  0.7818609E-02  0.8241457E-01
        2   -1    0    0  501    0  0.00000000000E+00  0.00000000000E+00  0.10864528950E+04  0.10864528950E+04  0.25500000920E-02 0. -1.
       -2   -1    0    0    0  501  0.00000000000E+00  0.00000000000E+00 -0.20819857327E+04  0.20819857327E+04  0.25500000920E-02 0.  1.
    10030    2    1    2    0    0  0.00000000000E+00  0.00000000000E+00 -0.99553283770E+03  0.31684386277E+04  0.30079756825E+04 0.  0.
        2    1    3    3  502    0 -0.14218238386E+04  0.40439754379E+03 -0.78979033058E+03  0.16759740952E+04  0.25500000920E-02 0.  1.
       -2    1    3    3    0  502  0.14218238386E+04 -0.40439754379E+03 -0.20574250712E+03  0.14924645325E+04  0.25500000920E-02 0. -1.
</event>
<event>
 5   0  0.1686012E-06  0.3000690E+04  0.7818609E-02  0.8243534E-01
        1   -1    0    0  501    0  0.00000000000E+00  0.00000000000E+00  0.18711216912E+04  0.18711216912E+04  0.50400001928E-02 0. -1.
       -1   -1    0    0    0  501  0.00000000000E+00  0.00000000000E+00 -0.12030403889E+04  0.12030403889E+04  0.50400001928E-02 0.  1.
    10030    2    1    2    0    0  0.00000000000E+00  0.00000000000E+00  0.66808130225E+03  0.30741620801E+04  0.30006898988E+04 0.  0.
        4    1    3    3  502    0  0.57571424656E+03 -0.27218813913E+02 -0.10851007166E+04  0.12286712073E+04  0.12699999809E+01 0.  1.
       -4    1    3    3    0  502 -0.57571424656E+03  0.27218813913E+02  0.17531820189E+04  0.18454908728E+04  0.12699999809E+01 0. -1.
</event>
<event>
 5   0  0.4768570E-06  0.2988563E+04  0.7818609E-02  0.8247004E-01
        2   -1    0    0  501    0  0.00000000000E+00  0.00000000000E+00  0.19406607604E+04  0.19406607604E+04  0.25500000920E-02 0.  1.
       -2   -1    0    0    0  501  0.00000000000E+00  0.00000000000E+00 -0.11505756375E+04  0.11505756375E+04  0.25500000920E-02 0. -1.
    10030    2    1    2    0    0  0.00000000000E+00  0.00000000000E+00  0.79008512282E+03  0.30912363979E+04  0.29885628597E+04 0.  0.
        1    1    3    3  502    0 -0.49600074320E+03 -0.44755806697E+01  0.18530216507E+04  0.19182611934E+04  0.50400001928E-02 0.  1.
       -1    1    3    3    0  502  0.49600074320E+03  0.44755806697E+01 -0.10629365279E+04  0.11729752045E+04  0.50400001928E-02 0. -1.
</event>
<event>
 5   0  0.4935331E-06  0.2889478E+04  0.7818609E-02  0.8276015E-01
        2   -1    0    0  501    0  0.00000000000E+00  0.00000000000E+00  0.23108949448E+04  0.23108949448E+04  0.25500000920E-02 0. -1.
       -2   -1    0    0    0  501  0.00000000000E+00  0.00000000000E+00 -0.90323024679E+03  0.90323024679E+03  0.25500000920E-02 0.  1.
    10030    2    1    2    0    0  0.00000000000E+00  0.00000000000E+00  0.14076646980E+04  0.32141251916E+04  0.28894776077E+04 0.  0.
        5    1    3    3  502    0 -0.10717968700E+04  0.28542297819E+02 -0.37330707887E+03  0.11353164574E+04  0.46999998093E+01 0.  1.
       -5    1    3    3    0  502  0.10717968700E+04 -0.28542297819E+02  0.17809717769E+04  0.20788087342E+04  0.46999998093E+01 0. -1.
</event>
<event>
 5   0  0.4532420E-06  0.2995445E+04  0.7818609E-02  0.8245033E-01
       -2   -1    0    0    0  501  0.00000000000E+00  0.00000000000E+00  0.10577991025E+04  0.10577991025E+04  0.25500000920E-02 0. -1.
        2   -1    0    0  501    0  0.00000000000E+00  0.00000000000E+00 -0.21206036754E+04  0.21206036754E+04  0.25500000920E-02 0.  1.
    10030    2    1    2    0    0  0.00000000000E+00  0.00000000000E+00 -0.10628045729E+04  0.31784027780E+04  0.29954449851E+04 0.  0.
        4    1    3    3  502    0  0.56918171895E+03 -0.63865513275E+03 -0.18358485929E+04  0.20253863525E+04  0.12699999809E+01 0.  1.
       -4    1    3    3    0  502 -0.56918171895E+03  0.63865513275E+03  0.77304402001E+03  0.11530164255E+04  0.12699999809E+01 0. -1.
</event>
<event>
 5   0  0.5003556E-06  0.3070860E+04  0.7818609E-02  0.8223781E-01
        2   -1    0    0  501    0  0.00000000000E+00  0.00000000000E+00  0.14570981034E+04  0.14570981034E+04  0.25500000920E-02 0.  1.
       -2   -1    0    0    0  501  0.00000000000E+00  0.00000000000E+00 -0.16179732639E+04  0.16179732639E+04  0.25500000920E-02 0. -1.
    10030    2    1    2    0    0  0.00000000000E+00  0.00000000000E+00 -0.16087516051E+03  0.30750713672E+04  0.30708603186E+04 0.  0.
        3    1    3    3  502    0  0.11002003412E+04  0.10436611493E+04  0.16046741813E+03  0.15249325191E+04  0.10100000352E+00 0.  1.
       -3    1    3    3    0  502 -0.11002003412E+04 -0.10436611493E+04 -0.32134257863E+03  0.15501388481E+04  0.10100000352E+00 0. -1.
</event>
<event>
 5   0  0.4935331E-06  0.3024372E+04  0.7818609E-02  0.8236805E-01
        2   -1    0    0  501    0  0.00000000000E+00  0.00000000000E+00  0.18301457482E+04  0.18301457482E+04  0.25500000920E-02 0.  1.
       -2   -1    0    0    0  501  0.00000000000E+00  0.00000000000E+00 -0.12494671303E+04  0.12494671303E+04  0.25500000920E-02 0. -1.
    10030    2    1    2    0    0  0.00000000000E+00  0.00000000000E+00  0.58067861786E+03  0.30796128785E+04  0.30243723025E+04 0.  0.
        5    1    3    3  502    0  0.43726935356E+02  0.50565520146E+03  0.17408170332E+04  0.18133023082E+04  0.46999998093E+01 0.  1.
       -5    1    3    3    0  502 -0.43726935356E+02 -0.50565520146E+03 -0.11601384154E+04  0.12663105703E+04  0.46999998093E+01 0. -1.
</event>
<event>
 5   0  0.1686012E-06  0.2861202E+04  0.7818609E-02  0.8284516E-01
        1   -1    0    0  501    0  0.00000000000E+00  0.00000000000E+00  0.11342666753E+04  0.11342666753E+04  0.50400001928E-02 0. -1.
       -1   -1    0    0    0  501  0.00000000000E+00  0.00000000000E+00 -0.18043539325E+04  0.18043539325E+04  0.50400001928E-02 0.  1.
    10030    2    1    2    0    0  0.00000000000E+00  0.00000000000E+00 -0.67008725722E+03  0.29386206078E+04  0.28612015211E+04 0.  0.
        4    1    3    3  502    0  0.64517530263E+02 -0.10019666035E+04  0.71160750486E+03  0.12306447254E+04  0.12699999809E+01 0. -1.
       -4    1    3    3    0  502 -0.64517530263E+02  0.10019666035E+04 -0.13816947621E+04  0.17079758824E+04  0.12699999809E+01 0.  1.
</event>
<event>
 5   0  0.1709858E-06  0.2950299E+04  0.7818609E-02  0.8258067E-01
        1   -1    0    0  501    0  0.00000000000E+00  0.00000000000E+00  0.12698435445E+04  0.12698435445E+04  0.50400001928E-02 0.  1.
       -1   -1    0    0    0  501  0.00000000000E+00  0.00000000000E+00 -0.17136488154E+04  0.17136488155E+04  0.50400001928E-02 0. -1.
    10030    2    1    2    0    0  0.00000000000E+00  0.00000000000E+00 -0.44380527091E+03  0.29834923600E+04  0.29502988906E+04 0.  0.
        3    1    3    3  502    0  0.13120223429E+04 -0.67152594668E+03 -0.16025654374E+03  0.14825761011E+04  0.10100000352E+00 0. -1.
       -3    1    3    3    0  502 -0.13120223429E+04  0.67152594668E+03 -0.28354872716E+03  0.15009162589E+04  0.10100000352E+00 0.  1.
</event>
<event>
 5   0  0.1672907E-06  0.2991435E+04  0.7818609E-02  0.8246181E-01
        1   -1    0    0  501    0  0.00000000000E+00  0.00000000000E+00  0.11506588273E+04  0.11506588273E+04  0.50400001928E-02 0.  1.
       -1   -1    0    0    0  501  0.00000000000E+00  0.00000000000E+00 -0.19442519814E+04  0.19442519814E+04  0.50400001928E-02 0. -1.
    10030    2    1    2    0    0  0.00000000000E+00  0.00000000000E+00 -0.79359315411E+03  0.30949108088E+04  0.29914349099E+04 0.  0.
        5    1    3    3  502    0  0.14189583549E+04  0.18955937237E+03 -0.84511357596E+03  0.16624122879E+04  0.46999998093E+01 0. -1.
       -5    1    3    3    0  502 -0.14189583549E+04 -0.18955937237E+03  0.51520421847E+02  0.14324985209E+04  0.46999998093E+01 0.  1.
</event>
<event>
 5   0  0.4768570E-06  0.2957307E+04  0.7818609E-02  0.8256028E-01
       -2   -1    0    0    0  501  0.00000000000E+00  0.00000000000E+00  0.14634705929E+04  0.14634705929E+04  0.25500000920E-02 0. -1.
        2   -1    0    0  501    0  0.00000000000E+00  0.00000000000E+00 -0.14939939553E+04  0.14939939553E+04  0.25500000920E-02 0.  1.
    10030    2    1    2    0    0  0.00000000000E+00  0.00000000000E+00 -0.30523362419E+02  0.29574645482E+04  0.29573070315E+04 0.  0.
        1    1    3    3  502    0  0.39972390002E+03  0.16930127416E+03 -0.14288340869E+04  0.14933214542E+04  0.50400001928E-02 0.  1.
       -1    1    3    3    0  502 -0.39972390002E+03 -0.16930127416E+03  0.13983107245E+04  0.14641430940E+04  0.50400001928E-02 0. -1.
</event>
<event>
 5   0  0.4935331E-06  0.2965274E+04  0.7818609E-02  0.8253717E-01
        2   -1    0    0  501    0  0.00000000000E+00  0.00000000000E+00  0.15016573375E+04  0.15016573375E+04  0.25500000920E-02 0.  1.
       -2   -1    0    0    0  501  0.00000000000E+00  0.00000000000E+00 -0.14638578910E+04  0.14638578910E+04  0.25500000920E-02 0. -1.
    10030    2    1    2    0    0  0.00000000000E+00  0.00000000000E+00  0.37799446476E+02  0.29655152286E+04  0.29652743166E+04 0.  0.
        5    1    3    3  502    0  0.95025485191E+03  0.67233309184E+03  0.93721981734E+03  0.14944628286E+04  0.46999998093E+01 0.  1.
       -5    1    3    3    0  502 -0.95025485191E+03 -0.67233309184E+03 -0.89942037086E+03  0.14710524000E+04  0.46999998093E+01 0. -1.
</event>
<event>
 5   0  0.1672907E-06  0.2862816E+04  0.7818609E-02  0.8284027E-01
       -1   -1    0    0    0  501  0.00000000000E+00  0.00000000000E+00  0.72754872628E+03  0.72754872630E+03  0.50400001928E-02 0. -1.
        1   -1    0    0  501    0  0.00000000000E+00  0.00000000000E+00 -0.28162088583E+04  0.28162088583E+04  0.50400001928E-02 0.  1.
    10030    2    1    2    0    0  0.00000000000E+00  0.00000000000E+00 -0.20886601320E+04  0.35437575846E+04  0.28628162133E+04 0.  0.
        5    1    3    3  502    0  0.86401286602E+03  0.11003679688E+03  0.36175840182E+03  0.94314238617E+03  0.46999998093E+01 0. -1.
       -5    1    3    3    0  502 -0.86401286602E+03 -0.11003679688E+03 -0.24504185338E+04  0.26006151984E+04  0.46999998093E+01 0.  1.
</event>
<event>
 5   0  0.1700885E-06  0.2988496E+04  0.7818609E-02  0.8247024E-01
       -1   -1    0    0    0  501  0.00000000000E+00  0.00000000000E+00  0.10972950466E+04  0.10972950466E+04  0.50400001928E-02 0. -1.
        1   -1    0    0  501    0  0.00000000000E+00  0.00000000000E+00 -0.20348007995E+04  0.20348007995E+04  0.50400001928E-02 0.  1.
    10030    2    1    2    0    0  0.00000000000E+00  0.00000000000E+00 -0.93750575289E+03  0.31320958461E+04  0.29884958345E+04 0.  0.
        1    1    3    3  502    0  0.87428352412E+03  0.85283285183E+02 -0.17356084394E+04  0.19452458904E+04  0.50400001928E-02 0.  1.
       -1    1    3    3    0  502 -0.87428352412E+03 -0.85283285183E+02  0.79810268648E+03  0.11868499558E+04  0.50400001928E-02 0. -1.
</event>
<event>
 5   0  0.4532420E-06  0.2998718E+04  0.7818609E-02  0.8244097E-01
       -2   -1    0    0    0  501  0.00000000000E+00  0.00000000000E+00  0.10538240494E+04  0.10538240494E+04  0.25500000920E-02 0. -1.
        2   -1    0    0  501    0  0.00000000000E+00  0.00000000000E+00 -0.21332575836E+04  0.21332575836E+04  0.25500000920E-02 0.  1.
    10030    2    1    2    0    0  0.00000000000E+00  0.00000000000E+00 -0.10794335343E+04  0.31870816330E+04  0.29987184897E+04 0.  0.
        4    1    3    3  502    0  0.92004650874E+03 -0.76890333950E+03  0.41703984934E+03  0.12694966611E+04  0.12699999809E+01 0. -1.
       -4    1    3    3    0  502 -0.92004650874E+03  0.76890333950E+03 -0.14964733836E+04  0.19175849719E+04  0.12699999809E+01 0.  1.
</event>
<event>
 5   0  0.1700885E-06  0.2994301E+04  0.7818609E-02  0.8245360E-01
       -1   -1    0    0    0  501  0.00000000000E+00  0.00000000000E+00  0.91407864760E+03  0.91407864761E+03  0.50400001928E-02 0. -1.
        1   -1    0    0  501    0  0.00000000000E+00  0.00000000000E+00 -0.24521523431E+04  0.24521523431E+04  0.50400001928E-02 0.  1.
    10030    2    1    2    0    0  0.00000000000E+00  0.00000000000E+00 -0.15380736955E+04  0.33662309907E+04  0.29943013192E+04 0.  0.
        1    1    3    3  502    0  0.84176270900E+03 -0.79305185070E+03  0.29983115483E+03  0.11947361289E+04  0.50400001928E-02 0. -1.
       -1    1    3    3    0  502 -0.84176270900E+03  0.79305185070E+03 -0.18379048503E+04  0.21714948618E+04  0.50400001928E-02 0.  1.
</event>
<event>
 5   0  0.4532420E-06  0.2988868E+04  0.7818609E-02  0.8246917E-01
        2   -1    0    0  501    0  0.00000000000E+00  0.00000000000E+00  0.20900159780E+04  0.20900159780E+04  0.25500000920E-02 0.  1.
       -2   -1    0    0    0  501  0.00000000000E+00  0.00000000000E+00 -0.10685723648E+04  0.10685723648E+04  0.25500000920E-02 0. -1.
    10030    2    1    2    0    0  0.00000000000E+00  0.00000000000E+00  0.10214436132E+04  0.31585883428E+04  0.29888682247E+04 0.  0.
        4    1    3    3  502    0 -0.11543850337E+04 -0.74700132865E+03 -0.10794012732E+03  0.13792274921E+04  0.12699999809E+01 0. -1.
       -4    1    3    3    0  502  0.11543850337E+04  0.74700132865E+03  0.11293837405E+04  0.17793608507E+04  0.12699999809E+01 0.  1.
</event>
<event>
 5   0  0.4768570E-06  0.2988864E+04  0.7818609E-02  0.8246918E-01
       -2   -1    0    0    0  501  0.00000000000E+00  0.00000000000E+00  0.12334438678E+04  0.12334438678E+04  0.25500000920E-02 0. -1.
        2   -1    0    0  501    0  0.00000000000E+00  0.00000000000E+00 -0.18106435813E+04  0.18106435813E+04  0.25500000920E-02 0.  1.
    10030    2    1    2    0    0  0.00000000000E+00  0.00000000000E+00 -0.57719971346E+03  0.30440874491E+04  0.29888641468E+04 0.  0.
        1    1    3    3  502    0  0.98691420232E+03 -0.52595273993E+03 -0.12982286164E+04  0.17134828473E+04  0.50400001928E-02 0.  1.
       -1    1    3    3    0  502 -0.98691420232E+03  0.52595273993E+03  0.72102890294E+03  0.13306046018E+04  0.50400001928E-02 0. -1.
</event>
<event>
 5   0  0.1734885E-06  0.2992536E+04  0.7818609E-02  0.8245865E-01
        1   -1    0    0  501    0  0.00000000000E+00  0.00000000000E+00  0.20434125836E+04  0.20434125836E+04  0.50400001928E-02 0.  1.
       -1   -1    0    0    0  501  0.00000000000E+00  0.00000000000E+00 -0.10956269941E+04  0.10956269942E+04  0.50400001928E-02 0. -1.
    10030    2    1    2    0    0  0.00000000000E+00  0.00000000000E+00  0.94778558942E+03  0.31390395777E+04  0.29925360394E+04 0.  0.
        2    1    3    3  502    0  0.33212619263E+03 -0.75630764091E+03 -0.83478643759E+03  0.11743838606E+04  0.25500000920E-02 0. -1.
       -2    1    3    3    0  502 -0.33212619263E+03  0.75630764091E+03  0.17825720270E+04  0.19646557172E+04  0.25500000920E-02 0.  1.
</event>
<event>
 5   0  0.1700885E-06  0.3051903E+04  0.7818609E-02  0.8229063E-01
        1   -1    0    0  501    0  0.00000000000E+00  0.00000000000E+00  0.19816252096E+04  0.19816252097E+04  0.50400001928E-02 0.  1.
       -1   -1    0    0    0  501  0.00000000000E+00  0.00000000000E+00 -0.11750597685E+04  0.11750597685E+04  0.50400001928E-02 0. -1.
    10030    2    1    2    0    0  0.00000000000E+00  0.00000000000E+00  0.80656544119E+03  0.31566849781E+04  0.30519030522E+04 0.  0.
        1    1    3    3  502    0  0.39845735941E+03  0.87359509531E+03  0.16300000184E+04  0.18917813610E+04  0.50400001928E-02 0.  1.
       -1    1    3    3    0  502 -0.39845735941E+03 -0.87359509531E+03 -0.82343457717E+03  0.12649036172E+04  0.50400001928E-02 0. -1.
</event>
<event>
 5   0  0.1545375E-06  0.2967452E+04  0.7818609E-02  0.8253087E-01
        3   -1    0    0  501    0  0.00000000000E+00  0.00000000000E+00  0.34174334045E+04  0.34174334060E+04  0.10100000352E+00 0.  1.
       -3   -1    0    0    0  501  0.00000000000E+00  0.00000000000E+00 -0.64418029414E+03  0.64418030205E+03  0.10100000352E+00 0. -1.
    10030    2    1    2    0    0  0.00000000000E+00  0.00000000000E+00  0.27732531104E+04  0.40616137081E+04  0.29674522910E+04 0.  0.
        5    1    3    3  502    0 -0.53699566073E+03 -0.95545540722E+03  0.27554580986E+04  0.29654393938E+04  0.46999998093E+01 0.  1.
       -5    1    3    3    0  502  0.53699566073E+03  0.95545540722E+03  0.17795011728E+02  0.10961743143E+04  0.46999998093E+01 0. -1.
</event>
<event>
 5   0  0.4532420E-06  0.2978022E+04  0.7818609E-02  0.8250035E-01
       -2   -1    0    0    0  501  0.00000000000E+00  0.00000000000E+00  0.17366141033E+04  0.17366141033E+04  0.25500000920E-02 0. -1.
        2   -1    0    0  501    0  0.00000000000E+00  0.00000000000E+00 -0.12767106923E+04  0.12767106923E+04  0.25500000920E-02 0.  1.
    10030    2    1    2    0    0  0.00000000000E+00  0.00000000000E+00  0.45990341106E+03  0.30133247956E+04  0.29780220241E+04 0.  0.
        4    1    3    3  502    0 -0.11615230277E+04  0.92110096378E+03  0.37157320279E+03  0.15282771304E+04  0.12699999809E+01 0. -1.
       -4    1    3    3    0  502  0.11615230277E+04 -0.92110096378E+03  0.88330208269E+02  0.14850476652E+04  0.12699999809E+01 0.  1.
</event>
<event>
 5   0  0.1686012E-06  0.2587460E+04  0.7818609E-02  0.8372473E-01
        1   -1    0    0  501    0  0.00000000000E+00  0.00000000000E+00  0.22039839798E+04  0.22039839798E+04  0.50400001928E-02 0.  1.
       -1   -1    0    0    0  501  0.00000000000E+00  0.00000000000E+00 -0.75941466757E+03  0.75941466758E+03  0.50400001928E-02 0. -1.
    10030    2    1    2    0    0  0.00000000000E+00  0.00000000000E+00  0.14445693122E+04  0.29633986474E+04  0.25874603466E+04 0.  0.
        4    1    3    3  502    0 -0.98925554802E+02 -0.11104008605E+04 -0.29571503389E+02  0.11151916531E+04  0.12699999809E+01 0. -1.
       -4    1    3    3    0  502  0.98925554802E+02  0.11104008605E+04  0.14741408156E+04  0.18482069942E+04  0.12699999809E+01 0.  1.
</event>
<event>
 5   0  0.4532420E-06  0.2944128E+04  0.7818609E-02  0.8259868E-01
        2   -1    0    0  501    0  0.00000000000E+00  0.00000000000E+00  0.21110788998E+04  0.21110788998E+04  0.25500000920E-02 0. -1.
       -2   -1    0    0    0  501  0.00000000000E+00  0.00000000000E+00 -0.10264760239E+04  0.10264760239E+04  0.25500000920E-02 0.  1.
    10030    2    1    2    0    0  0.00000000000E+00  0.00000000000E+00  0.10846028759E+04  0.31375549236E+04  0.29441276298E+04 0.  0.
        4    1    3    3  502    0 -0.60590880657E+03 -0.30279295326E+03 -0.85053183000E+03  0.10872971356E+04  0.12699999809E+01 0.  1.
       -4    1    3    3    0  502  0.60590880657E+03  0.30279295326E+03  0.19351347059E+04  0.20502577880E+04  0.12699999809E+01 0. -1.
</event>
<event>
 5   0  0.1734885E-06  0.2997065E+04  0.7818609E-02  0.8244569E-01
       -1   -1    0    0    0  501  0.00000000000E+00  0.00000000000E+00  0.24417811167E+04  0.24417811167E+04  0.50400001928E-02 0. -1.
        1   -1    0    0  501    0  0.00000000000E+00  0.00000000000E+00 -0.91965657260E+03  0.91965657261E+03  0.50400001928E-02 0.  1.
    10030    2    1    2    0    0  0.00000000000E+00  0.00000000000E+00  0.15221245441E+04  0.33614376893E+04  0.29970652664E+04 0.  0.
        2    1    3    3  502    0  0.13330358179E+04  0.39813886626E+03  0.13649323403E+03  0.13979018032E+04  0.25500000920E-02 0.  1.
       -2    1    3    3    0  502 -0.13330358179E+04 -0.39813886626E+03  0.13856313101E+04  0.19635358861E+04  0.25500000920E-02 0. -1.
</event>
<event>
 5   0  0.4768570E-06  0.2987515E+04  0.7818609E-02  0.8247305E-01
       -2   -1    0    0    0  501  0.00000000000E+00  0.00000000000E+00  0.12792827028E+04  0.12792827028E+04  0.25500000920E-02 0.  1.
        2   -1    0    0  501    0  0.00000000000E+00  0.00000000000E+00 -0.17441891641E+04  0.17441891641E+04  0.25500000920E-02 0. -1.
    10030    2    1    2    0    0  0.00000000000E+00  0.00000000000E+00 -0.46490646127E+03  0.30234718669E+04  0.29875147049E+04 0.  0.
        1    1    3    3  502    0  0.50755007329E+02 -0.99321593667E+03  0.89552733510E+03  0.13382911401E+04  0.50400001928E-02 0.  1.
       -1    1    3    3    0  502 -0.50755007329E+02  0.99321593667E+03 -0.13604337964E+04  0.16851807268E+04  0.50400001928E-02 0. -1.
</event>
<event>
 5   0  0.1709858E-06  0.3037966E+04  0.7818609E-02  0.8232972E-01
       -1   -1    0    0    0  501  0.00000000000E+00  0.00000000000E+00  0.10427209881E+04  0.10427209881E+04  0.50400001928E-02 0. -1.
        1   -1    0    0  501    0  0.00000000000E+00  0.00000000000E+00 -0.22127776669E+04  0.22127776669E+04  0.50400001928E-02 0.  1.
    10030    2    1    2    0    0  0.00000000000E+00  0.00000000000E+00 -0.11700566788E+04  0.32554986550E+04  0.30379662376E+04 0.  0.
        3    1    3    3  502    0 -0.12918176170E+04  0.39645913211E+03 -0.13284911487E+04  0.18949568178E+04  0.10100000352E+00 0.  1.
       -3    1    3    3    0  502  0.12918176170E+04 -0.39645913211E+03  0.15843446989E+03  0.13605418371E+04  0.10100000352E+00 0. -1.
</event>
<event>
 5   0  0.1700885E-06  0.2935861E+04  0.7818609E-02  0.8262287E-01
        1   -1    0    0  501    0  0.00000000000E+00  0.00000000000E+00  0.11222539276E+04  0.11222539276E+04  0.50400001928E-02 0. -1.
       -1   -1    0    0    0  501  0.00000000000E+00  0.00000000000E+00 -0.19200819965E+04  0.19200819965E+04  0.50400001928E-02 0.  1.
    10030    2    1    2    0    0  0.00000000000E+00  0.00000000000E+00 -0.79782806890E+03  0.30423359240E+04  0.29358607336E+04 0.  0.
        1    1    3    3  502    0 -0.12932430000E+04  0.69112122488E+03 -0.46990821926E+03  0.15397856146E+04  0.50400001928E-02 0. -1.
       -1    1    3    3    0  502  0.12932430000E+04 -0.69112122488E+03 -0.32791984964E+03  0.15025503094E+04  0.50400001928E-02 0.  1.
</event>
<event>
 5   0  0.1709858E-06  0.2941736E+04  0.7818609E-02  0.8260567E-01
       -1   -1    0    0    0  501  0.00000000000E+00  0.00000000000E+00  0.95316046127E+03  0.95316046129E+03  0.50400001928E-02 0. -1.
        1   -1    0    0  501    0  0.00000000000E+00  0.00000000000E+00 -0.22697669884E+04  0.22697669884E+04  0.50400001928E-02 0.  1.
    10030    2    1    2    0    0  0.00000000000E+00  0.00000000000E+00 -0.13166065272E+04  0.32229274497E+04  0.29417356439E+04 0.  0.
        3    1    3    3  502    0  0.94417400992E+03  0.10937058086E+04 -0.95992850946E+03  0.17346814434E+04  0.10100000352E+00 0.  1.
       -3    1    3    3    0  502 -0.94417400992E+03 -0.10937058086E+04 -0.35667801771E+03  0.14882460063E+04  0.10100000352E+00 0. -1.
</event>
<event>
 5   0  0.5003556E-06  0.2920002E+04  0.7818609E-02  0.8266951E-01
        2   -1    0    0  501    0  0.00000000000E+00  0.00000000000E+00  0.25588405816E+04  0.25588405816E+04  0.25500000920E-02 0.  1.
       -2   -1    0    0    0  501  0.00000000000E+00  0.00000000000E+00 -0.83303458108E+03  0.83303458108E+03  0.25500000920E-02 0. -1.
    10030    2    1    2    0    0  0.00000000000E+00  0.00000000000E+00  0.17258060005E+04  0.33918751627E+04  0.29200018438E+04 0.  0.
        3    1    3    3  502    0 -0.46445336329E+03 -0.92307953455E+02 -0.74135287419E+03  0.87968277192E+03  0.10100000352E+00 0. -1.
       -3    1    3    3    0  502  0.46445336329E+03  0.92307953455E+02  0.24671588747E+04  0.25121923908E+04  0.10100000352E+00 0.  1.
</event>
<event>
 5   0  0.4702748E-06  0.2967918E+04  0.7818609E-02  0.8252952E-01
       -2   -1    0    0    0  501  0.00000000000E+00  0.00000000000E+00  0.13768110399E+04  0.13768110399E+04  0.25500000920E-02 0.  1.
        2   -1    0    0  501    0  0.00000000000E+00  0.00000000000E+00 -0.15994452777E+04  0.15994452777E+04  0.25500000920E-02 0. -1.
    10030    2    1    2    0    0  0.00000000000E+00  0.00000000000E+00 -0.22263423773E+03  0.29762563176E+04  0.29679177320E+04 0.  0.
        2    1    3    3  502    0  0.70353522749E+01 -0.28508958686E+03  0.13490740020E+04  0.13788858660E+04  0.25500000920E-02 0.  1.
       -2    1    3    3    0  502 -0.70353522749E+01  0.28508958686E+03 -0.15717082397E+04  0.15973704516E+04  0.25500000920E-02 0. -1.
</event>
<event>
 5   0  0.1686012E-06  0.2995836E+04  0.7818609E-02  0.8244921E-01
       -1   -1    0    0    0  501  0.00000000000E+00  0.00000000000E+00  0.10063893016E+04  0.10063893016E+04  0.50400001928E-02 0. -1.
        1   -1    0    0  501    0  0.00000000000E+00  0.00000000000E+00 -0.22295134637E+04  0.22295134637E+04  0.50400001928E-02 0.  1.
    10030    2    1    2    0    0  0.00000000000E+00  0.00000000000E+00 -0.12231241621E+04  0.32359027654E+04  0.29958361089E+04 0.  0.
        4    1    3    3  502    0  0.45696279020E+03 -0.54985342440E+03 -0.20333242572E+04  0.21553567983E+04  0.12699999809E+01 0.  1.
       -4    1    3    3    0  502 -0.45696279020E+03  0.54985342440E+03  0.81020009514E+03  0.10805459671E+04  0.12699999809E+01 0. -1.
</event>
<event>
 5   0  0.4532420E-06  0.2982795E+04  0.7818609E-02  0.8248661E-01
       -2   -1    0    0    0  501  0.00000000000E+00  0.00000000000E+00  0.10766854752E+04  0.10766854752E+04  0.25500000920E-02 0. -1.
        2   -1    0    0  501    0  0.00000000000E+00  0.00000000000E+00 -0.20658457492E+04  0.20658457492E+04  0.25500000920E-02 0.  1.
    10030    2    1    2    0    0  0.00000000000E+00  0.00000000000E+00 -0.98916027403E+03  0.31425312245E+04  0.29827947380E+04 0.  0.
        4    1    3    3  502    0 -0.75960452871E+03 -0.38061345996E+03  0.79678439775E+03  0.11647886655E+04  0.12699999809E+01 0. -1.
       -4    1    3    3    0  502  0.75960452871E+03  0.38061345996E+03 -0.17859446718E+04  0.19777425589E+04  0.12699999809E+01 0.  1.
</event>
<event>
 5   0  0.1545375E-06  0.2993469E+04  0.7818609E-02  0.8245598E-01
        4   -1    0    0  501    0  0.00000000000E+00  0.00000000000E+00  0.18676916680E+04  0.18676920998E+04  0.12699999809E+01 0. -1.
       -4   -1    0    0    0  501  0.00000000000E+00  0.00000000000E+00 -0.11994550855E+04  0.11994557578E+04  0.12699999809E+01 0.  1.
    10030    2    1    2    0    0  0.00000000000E+00  0.00000000000E+00  0.66823658255E+03  0.30671478576E+04  0.29934688658E+04 0.  0.
        4    1    3    3  502    0  0.14027447573E+04  0.22175708122E+03  0.81834241738E+03  0.16390713780E+04  0.12699999809E+01 0. -1.
       -4    1    3    3    0  502 -0.14027447573E+04 -0.22175708122E+03 -0.15010583483E+03  0.14280764796E+04  0.12699999809E+01 0.  1.
</event>
<event>
 5   0  0.1686012E-06  0.3001676E+04  0.7818609E-02  0.8243252E-01
        1   -1    0    0  501    0  0.00000000000E+00  0.00000000000E+00  0.24158759556E+04  0.24158759556E+04  0.50400001928E-02 0.  1.
       -1   -1    0    0    0  501  0.00000000000E+00  0.00000000000E+00 -0.93238017582E+03  0.93238017583E+03  0.50400001928E-02 0. -1.
    10030    2    1    2    0    0  0.00000000000E+00  0.00000000000E+00  0.14834957798E+04  0.33482561314E+04  0.30016760973E+04 0.  0.
        4    1    3    3  502    0  0.11749864928E+02 -0.13340967121E+04 -0.25055189146E+02  0.13343843045E+04  0.12699999809E+01 0. -1.
       -4    1    3    3    0  502 -0.11749864928E+02  0.13340967121E+04  0.15085509689E+04  0.20138718269E+04  0.12699999809E+01 0.  1.
</event>
<event>
 5   0  0.4768570E-06  0.2933469E+04  0.7818609E-02  0.8262988E-01
        2   -1    0    0  501    0  0.00000000000E+00  0.00000000000E+00  0.16553964336E+04  0.16553964336E+04  0.25500000920E-02 0. -1.
       -2   -1    0    0    0  501  0.00000000000E+00  0.00000000000E+00 -0.12995742387E+04  0.12995742387E+04  0.25500000920E-02 0.  1.
    10030    2    1    2    0    0  0.00000000000E+00  0.00000000000E+00  0.35582219490E+03  0.29549706722E+04  0.29334693180E+04 0.  0.
        1    1    3    3  502    0  0.46639368089E+03  0.11732298688E+04  0.92992109662E+03  0.15680384678E+04  0.50400001928E-02 0. -1.
       -1    1    3    3    0  502 -0.46639368089E+03 -0.11732298688E+04 -0.57409890172E+03  0.13869322044E+04  0.50400001928E-02 0.  1.
</event>
<event>
 5   0  0.1700885E-06  0.3242086E+04  0.7818609E-02  0.8177790E-01
       -1   -1    0    0    0  501  0.00000000000E+00  0.00000000000E+00  0.22124427918E+04  0.22124427918E+04  0.50400001928E-02 0. -1.
        1   -1    0    0  501    0  0.00000000000E+00  0.00000000000E+00 -0.11877284267E+04  0.11877284267E+04  0.50400001928E-02 0.  1.
    10030    2    1    2    0    0  0.00000000000E+00  0.00000000000E+00  0.10247143652E+04  0.34001712185E+04  0.32420864863E+04 0.  0.
        1    1    3    3  502    0 -0.12161334580E+04  0.26651152815E+03 -0.57642168338E+03  0.13719587966E+04  0.50400001928E-02 0.  1.
       -1    1    3    3    0  502  0.12161334580E+04 -0.26651152815E+03  0.16011360485E+04  0.20282124219E+04  0.50400001928E-02 0. -1.
</event>
<event>
 5   0  0.4768570E-06  0.2994154E+04  0.7818609E-02  0.8245402E-01
       -2   -1    0    0    0  501  0.00000000000E+00  0.00000000000E+00  0.10698343158E+04  0.10698343158E+04  0.25500000920E-02 0. -1.
        2   -1    0    0  501    0  0.00000000000E+00  0.00000000000E+00 -0.20949402903E+04  0.20949402903E+04  0.25500000920E-02 0.  1.
    10030    2    1    2    0    0  0.00000000000E+00  0.00000000000E+00 -0.10251059745E+04  0.31647746061E+04  0.29941536447E+04 0.  0.
        1    1    3    3  502    0  0.13248487965E+04  0.12631468300E+03  0.21212491416E+03  0.13476560066E+04  0.50400001928E-02 0. -1.
       -1    1    3    3    0  502 -0.13248487965E+04 -0.12631468300E+03 -0.12372308887E+04  0.18171185995E+04  0.50400001928E-02 0.  1.
</event>
<event>
 5   0  0.1686012E-06  0.2981516E+04  0.7818609E-02  0.8249029E-01
        1   -1    0    0  501    0  0.00000000000E+00  0.00000000000E+00  0.12744376699E+04  0.12744376699E+04  0.50400001928E-02 0. -1.
       -1   -1    0    0    0  501  0.00000000000E+00  0.00000000000E+00 -0.17437958957E+04  0.17437958957E+04  0.50400001928E-02 0.  1.
    10030    2    1    2    0    0  0.00000000000E+00  0.00000000000E+00 -0.46935822588E+03  0.30182335656E+04  0.29815158414E+04 0.  0.
        4    1    3    3  502    0 -0.78415292467E+03 -0.81136080967E+03  0.75156490747E+03  0.13557483527E+04  0.12699999809E+01 0. -1.
       -4    1    3    3    0  502  0.78415292467E+03  0.81136080967E+03 -0.12209231333E+04  0.16624852129E+04  0.12699999809E+01 0.  1.
</event>
<event>
 5   0  0.4702748E-06  0.2973510E+04  0.7818609E-02  0.8251336E-01
       -2   -1    0    0    0  501  0.00000000000E+00  0.00000000000E+00  0.18497893692E+04  0.18497893692E+04  0.25500000920E-02 0. -1.
        2   -1    0    0  501    0  0.00000000000E+00  0.00000000000E+00 -0.11949690767E+04  0.11949690767E+04  0.25500000920E-02 0.  1.
    10030    2    1    2    0    0  0.00000000000E+00  0.00000000000E+00  0.65482029250E+03  0.30447584460E+04  0.29735104471E+04 0.  0.
        2    1    3    3  502    0 -0.14183355190E+04 -0.44505931018E+03  0.35426176661E+03  0.15281540607E+04  0.25500000920E-02 0.  1.
       -2    1    3    3    0  502  0.14183355190E+04  0.44505931018E+03  0.30055852589E+03  0.15166043853E+04  0.25500000920E-02 0. -1.
</event>
<event>
 5   0  0.4702748E-06  0.2980394E+04  0.7818609E-02  0.8249352E-01
       -2   -1    0    0    0  501  0.00000000000E+00  0.00000000000E+00  0.15914984502E+04  0.15914984502E+04  0.25500000920E-02 0. -1.
        2   -1    0    0  501    0  0.00000000000E+00  0.00000000000E+00 -0.13953436961E+04  0.13953436961E+04  0.25500000920E-02 0.  1.
    10030    2    1    2    0    0  0.00000000000E+00  0.00000000000E+00  0.19615475403E+03  0.29868421463E+04  0.29803941550E+04 0.  0.
        2    1    3    3  502    0 -0.13365809299E+04  0.62361248669E+03  0.31148458526E+03  0.15074361554E+04  0.25500000920E-02 0.  1.
       -2    1    3    3    0  502  0.13365809299E+04 -0.62361248669E+03 -0.11532983122E+03  0.14794059909E+04  0.25500000920E-02 0. -1.
</event>
<event>
 5   0  0.1686012E-06  0.2989843E+04  0.7818609E-02  0.8246637E-01
       -1   -1    0    0    0  501  0.00000000000E+00  0.00000000000E+00  0.19017577522E+04  0.19017577522E+04  0.50400001928E-02 0.  1.
        1   -1    0    0  501    0  0.00000000000E+00  0.00000000000E+00 -0.11751182375E+04  0.11751182375E+04  0.50400001928E-02 0. -1.
    10030    2    1    2    0    0  0.00000000000E+00  0.00000000000E+00  0.72663951473E+03  0.30768759897E+04  0.29898429510E+04 0.  0.
        4    1    3    3  502    0 -0.12889824150E+04 -0.55478188457E+03 -0.16697631855E+03  0.14132025013E+04  0.12699999809E+01 0.  1.
       -4    1    3    3    0  502  0.12889824150E+04  0.55478188457E+03  0.89361583327E+03  0.16636734884E+04  0.12699999809E+01 0. -1.
</event>
<event>
 5   0  0.1672907E-06  0.3011364E+04  0.7818609E-02  0.8240493E-01
       -1   -1    0    0    0  501  0.00000000000E+00  0.00000000000E+00  0.18547292475E+04  0.18547292476E+04  0.50400001928E-02 0. -1.
        1   -1    0    0  501    0  0.00000000000E+00  0.00000000000E+00 -0.12223227075E+04  0.12223227076E+04  0.50400001928E-02 0.  1.
    10030    2    1    2    0    0  0.00000000000E+00  0.00000000000E+00  0.63240653999E+03  0.30770519551E+04  0.30113635952E+04 0.  0.
        5    1    3    3  502    0 -0.66788626751E+03  0.79768685070E+03 -0.79596888206E+03  0.13099484453E+04  0.46999998093E+01 0.  1.
       -5    1    3    3    0  502  0.66788626751E+03 -0.79768685070E+03  0.14283754221E+04  0.17671035098E+04  0.46999998093E+01 0. -1.
</event>
<event>
 5   0  0.1734885E-06  0.2998147E+04  0.7818609E-02  0.8244260E-01
        1   -1    0    0  501    0  0.00000000000E+00  0.00000000000E+00  0.13163764596E+04  0.13163764596E+04  0.50400001928E-02 0. -1.
       -1   -1    0    0    0  501  0.00000000000E+00  0.00000000000E+00 -0.17071264787E+04  0.17071264787E+04  0.50400001928E-02 0.  1.
    10030    2    1    2    0    0  0.00000000000E+00  0.00000000000E+00 -0.39075001902E+03  0.30235029383E+04  0.29981468344E+04 0.  0.
        2    1    3    3  502    0 -0.82499147810E+03 -0.37102676310E+03 -0.14008713831E+04  0.16675468299E+04  0.25500000920E-02 0.  1.
       -2    1    3    3    0  502  0.82499147810E+03  0.37102676310E+03  0.10101213641E+04  0.13559561084E+04  0.25500000920E-02 0. -1.
</event>
<event>
 5   0  0.5003556E-06  0.2926861E+04  0.7818609E-02  0.8264930E-01
       -2   -1    0    0    0  501  0.00000000000E+00  0.00000000000E+00  0.73349011751E+03  0.73349011751E+03  0.25500000920E-02 0. -1.
        2   -1    0    0  501    0  0.00000000000E+00  0.00000000000E+00 -0.29197793904E+04  0.29197793904E+04  0.25500000920E-02 0.  1.
    10030    2    1    2    0    0  0.00000000000E+00  0.00000000000E+00 -0.21862892728E+04  0.36532695079E+04  0.29268613415E+04 0.  0.
        3    1    3    3  502    0 -0.23013034533E+03  0.12978446763E+04 -0.29952110637E+03  0.13516928952E+04  0.10100000352E+00 0.  1.
       -3    1    3    3    0  502  0.23013034533E+03 -0.12978446763E+04 -0.18867681665E+04  0.23015766126E+04  0.10100000352E+00 0. -1.
</event>
<event>
 5   0  0.1734885E-06  0.2993784E+04  0.7818609E-02  0.8245508E-01
        1   -1    0    0  501    0  0.00000000000E+00  0.00000000000E+00  0.24502630476E+04  0.24502630476E+04  0.50400001928E-02 0.  1.
       -1   -1    0    0    0  501  0.00000000000E+00  0.00000000000E+00 -0.91446715512E+03  0.91446715513E+03  0.50400001928E-02 0. -1.
    10030    2    1    2    0    0  0.00000000000E+00  0.00000000000E+00  0.15357958925E+04  0.33647302028E+04  0.29937836117E+04 0.  0.
        2    1    3    3  502    0 -0.12613726967E+04 -0.11694379581E+03  0.16641717292E+04  0.20914598910E+04  0.25500000920E-02 0. -1.
       -2    1    3    3    0  502  0.12613726967E+04  0.11694379581E+03 -0.12837583672E+03  0.12732703118E+04  0.25500000920E-02 0.  1.
</event>
<event>
 5   0  0.1700885E-06  0.2993255E+04  0.7818609E-02  0.8245659E-01
       -1   -1    0    0    0  501  0.00000000000E+00  0.00000000000E+00  0.15819683859E+04  0.15819683859E+04  0.50400001928E-02 0.  1.
        1   -1    0    0  501    0  0.00000000000E+00  0.00000000000E+00 -0.14158908137E+04  0.14158908137E+04  0.50400001928E-02 0. -1.
    10030    2    1    2    0    0  0.00000000000E+00  0.00000000000E+00  0.16607757220E+03  0.29978591996E+04  0.29932554218E+04 0.  0.
        1    1    3    3  502    0  0.95515043191E+01 -0.87214652156E+03 -0.11350405523E+04  0.14314495596E+04  0.50400001928E-02 0. -1.
       -1    1    3    3    0  502 -0.95515043191E+01  0.87214652156E+03  0.13011181245E+04  0.15664096400E+04  0.50400001928E-02 0.  1.
</event>
<event>
 5   0  0.4768570E-06  0.3021316E+04  0.7818609E-02  0.8237670E-01
       -2   -1    0    0    0  501  0.00000000000E+00  0.00000000000E+00  0.13659443405E+04  0.13659443405E+04  0.25500000920E-02 0.  1.
        2   -1    0    0  501    0  0.00000000000E+00  0.00000000000E+00 -0.16707037491E+04  0.16707037491E+04  0.25500000920E-02 0. -1.
    10030    2    1    2    0    0  0.00000000000E+00  0.00000000000E+00 -0.30475940856E+03  0.30366480895E+04  0.30213164883E+04 0.  0.
        1    1    3    3  502    0 -0.86602369586E+03 -0.86560267281E+03  0.73688307881E+03  0.14290772200E+04  0.50400001928E-02 0.  1.
       -1    1    3    3    0  502  0.86602369586E+03  0.86560267281E+03 -0.10416424874E+04  0.16075708695E+04  0.50400001928E-02 0. -1.
</event>
<event>
 5   0  0.1545375E-06  0.3038192E+04  0.7818609E-02  0.8232908E-01
        3   -1    0    0  501    0  0.00000000000E+00  0.00000000000E+00  0.12213612510E+04  0.12213612551E+04  0.10100000352E+00 0.  1.
       -3   -1    0    0    0  501  0.00000000000E+00  0.00000000000E+00 -0.18894103419E+04  0.18894103446E+04  0.10100000352E+00 0. -1.
    10030    2    1    2    0    0  0.00000000000E+00  0.00000000000E+00 -0.66804909097E+03  0.31107715998E+04  0.30381919554E+04 0.  0.
        4    1    3    3  502    0 -0.55839220056E+03 -0.43816888350E+03  0.10411378497E+04  0.12600648615E+04  0.12699999809E+01 0.  1.
       -4    1    3    3    0  502  0.55839220056E+03  0.43816888350E+03 -0.17091869407E+04  0.18507067383E+04  0.12699999809E+01 0. -1.
</event>
<event>
 5   0  0.1672907E-06  0.3003052E+04  0.7818609E-02  0.8242860E-01
       -1   -1    0    0    0  501  0.00000000000E+00  0.00000000000E+00  0.15532309475E+04  0.15532309475E+04  0.50400001928E-02 0. -1.
        1   -1    0    0  501    0  0.00000000000E+00  0.00000000000E+00 -0.14515418014E+04  0.14515418014E+04  0.50400001928E-02 0.  1.
    10030    2    1    2    0    0  0.00000000000E+00  0.00000000000E+00  0.10168914610E+03  0.30047727490E+04  0.30030515464E+04 0.  0.
        5    1    3    3  502    0  0.56794160236E+03 -0.13889391482E+04 -0.25520751550E+01  0.15005792962E+04  0.46999998093E+01 0.  1.
       -5    1    3    3    0  502 -0.56794160236E+03  0.13889391482E+04  0.10424122125E+03  0.15041934528E+04  0.46999998093E+01 0. -1.
</event>
<event>
 5   0  0.4702748E-06  0.3010863E+04  0.7818609E-02  0.8240636E-01
       -2   -1    0    0    0  501  0.00000000000E+00  0.00000000000E+00  0.95465089198E+03  0.95465089198E+03  0.25500000920E-02 0. -1.
        2   -1    0    0  501    0  0.00000000000E+00  0.00000000000E+00 -0.23739817126E+04  0.23739817126E+04  0.25500000920E-02 0.  1.
    10030    2    1    2    0    0  0.00000000000E+00  0.00000000000E+00 -0.14193308206E+04  0.33286326046E+04  0.30108628394E+04 0.  0.
        2    1    3    3  502    0 -0.91238415373E+03  0.11956793221E+04 -0.78156702000E+03  0.16949751892E+04  0.25500000920E-02 0.  1.
       -2    1    3    3    0  502  0.91238415373E+03 -0.11956793221E+04 -0.63776380064E+03  0.16336574154E+04  0.25500000920E-02 0. -1.
</event>
<event>
 5   0  0.4702748E-06  0.3053097E+04  0.7818609E-02  0.8228729E-01
       -2   -1    0    0    0  501  0.00000000000E+00  0.00000000000E+00  0.11055343444E+04  0.11055343444E+04  0.25500000920E-02 0.  1.
        2   -1    0    0  501    0  0.00000000000E+00  0.00000000000E+00 -0.21078948584E+04  0.21078948584E+04  0.25500000920E-02 0. -1.
    10030    2    1    2    0    0  0.00000000000E+00  0.00000000000E+00 -0.10023605140E+04  0.32134292028E+04  0.30530968936E+04 0.  0.
        2    1    3    3  502    0  0.44154644708E+03  0.13083463926E+04 -0.11862182210E+04  0.18203975433E+04  0.25500000920E-02 0. -1.
       -2    1    3    3    0  502 -0.44154644708E+03 -0.13083463926E+04  0.18385770697E+03  0.13930316595E+04  0.25500000920E-02 0.  1.
</event>
<event>
 5   0  0.1709858E-06  0.2845941E+04  0.7818609E-02  0.8289146E-01
       -1   -1    0    0    0  501  0.00000000000E+00  0.00000000000E+00  0.17876268043E+04  0.17876268043E+04  0.50400001928E-02 0.  1.
        1   -1    0    0  501    0  0.00000000000E+00  0.00000000000E+00 -0.11327002134E+04  0.11327002134E+04  0.50400001928E-02 0. -1.
    10030    2    1    2    0    0  0.00000000000E+00  0.00000000000E+00  0.65492659089E+03  0.29203270178E+04  0.28459411539E+04 0.  0.
        3    1    3    3  502    0  0.95338109968E+02  0.13446687927E+04 -0.14010168810E+03  0.13553051355E+04  0.10100000352E+00 0. -1.
       -3    1    3    3    0  502 -0.95338109968E+02 -0.13446687927E+04  0.79502827899E+03  0.15650218822E+04  0.10100000352E+00 0.  1.
</event>
<event>
 5   0  0.4935331E-06  0.3012993E+04  0.7818609E-02  0.8240030E-01
        2   -1    0    0  501    0  0.00000000000E+00  0.00000000000E+00  0.26182893211E+04  0.26182893211E+04  0.25500000920E-02 0.  1.
       -2   -1    0    0    0  501  0.00000000000E+00  0.00000000000E+00 -0.86679968317E+03  0.86679968317E+03  0.25500000920E-02 0. -1.
    10030    2    1    2    0    0  0.00000000000E+00  0.00000000000E+00  0.17514896379E+04  0.34850890043E+04  0.30129934311E+04 0.  0.
        5    1    3    3  502    0  0.12854940291E+04  0.76372904331E+03  0.10881891712E+04  0.18493119566E+04  0.46999998093E+01 0. -1.
       -5    1    3    3    0  502 -0.12854940291E+04 -0.76372904331E+03  0.66330046672E+03  0.16357770477E+04  0.46999998093E+01 0.  1.
</event>
<event>
 5   0  0.1686012E-06  0.3020005E+04  0.7818609E-02  0.8238041E-01
       -1   -1    0    0    0  501  0.00000000000E+00  0.00000000000E+00  0.11778479441E+04  0.11778479441E+04  0.50400001928E-02 0.  1.
        1   -1    0    0  501    0  0.00000000000E+00  0.00000000000E+00 -0.19358253165E+04  0.19358253165E+04  0.50400001928E-02 0. -1.
    10030    2    1    2    0    0  0.00000000000E+00  0.00000000000E+00 -0.75797737244E+03  0.31136732606E+04  0.30200052113E+04 0.  0.
        4    1    3    3  502    0  0.80985929003E+03 -0.12593893707E+04 -0.58042659917E+03  0.16058736895E+04  0.12699999809E+01 0. -1.
       -4    1    3    3    0  502 -0.80985929003E+03  0.12593893707E+04 -0.17755077327E+03  0.15077995711E+04  0.12699999809E+01 0.  1.
</event>
<event>
 5   0  0.4702748E-06  0.2989599E+04  0.7818609E-02  0.8246707E-01
       -2   -1    0    0    0  501  0.00000000000E+00  0.00000000000E+00  0.90902559460E+03  0.90902559460E+03  0.25500000920E-02 0. -1.
        2   -1    0    0  501    0  0.00000000000E+00  0.00000000000E+00 -0.24580442980E+04  0.24580442980E+04  0.25500000920E-02 0.  1.
    10030    2    1    2    0    0  0.00000000000E+00  0.00000000000E+00 -0.15490187034E+04  0.33670698926E+04  0.29895987554E+04 0.  0.
        2    1    3    3  502    0  0.74903964637E+03 -0.11333416902E+04 -0.14768680757E+04  0.20066547017E+04  0.25500000920E-02 0.  1.
       -2    1    3    3    0  502 -0.74903964637E+03  0.11333416902E+04 -0.72150627643E+02  0.13604151909E+04  0.25500000920E-02 0. -1.
</event>
<event>
 5   0  0.1672907E-06  0.2986850E+04  0.7818609E-02  0.8247496E-01
        1   -1    0    0  501    0  0.00000000000E+00  0.00000000000E+00  0.12624012345E+04  0.12624012345E+04  0.50400001928E-02 0. -1.
       -1   -1    0    0    0  501  0.00000000000E+00  0.00000000000E+00 -0.17667263274E+04  0.17667263274E+04  0.50400001928E-02 0.  1.
    10030    2    1    2    0    0  0.00000000000E+00  0.00000000000E+00 -0.50432509296E+03  0.30291275619E+04  0.29868495086E+04 0.  0.
        5    1    3    3  502    0  0.12626182401E+04 -0.56466587560E+03 -0.82337842265E+03  0.16096665767E+04  0.46999998093E+01 0. -1.
       -5    1    3    3    0  502 -0.12626182401E+04  0.56466587560E+03  0.31905332969E+03  0.14194609852E+04  0.46999998093E+01 0.  1.
</event>
<event>
 5   0  0.1545375E-06  0.2863842E+04  0.7818609E-02  0.8283718E-01
       -3   -1    0    0    0  501  0.00000000000E+00  0.00000000000E+00  0.13232028200E+04  0.13232028239E+04  0.10100000352E+00 0.  1.
        3   -1    0    0  501    0  0.00000000000E+00  0.00000000000E+00 -0.15495717056E+04  0.15495717089E+04  0.10100000352E+00 0. -1.
    10030    2    1    2    0    0  0.00000000000E+00  0.00000000000E+00 -0.22636888559E+03  0.28727745328E+04  0.28638419377E+04 0.  0.
        4    1    3    3  502    0  0.81546199714E+03  0.53164155120E+03 -0.11665908645E+04  0.15193935849E+04  0.12699999809E+01 0. -1.
       -4    1    3    3    0  502 -0.81546199714E+03 -0.53164155120E+03  0.94022197891E+03  0.13533809479E+04  0.12699999809E+01 0.  1.
</event>
<event>
 5   0  0.1734885E-06  0.2983016E+04  0.7818609E-02  0.8248598E-01
       -1   -1    0    0    0  501  0.00000000000E+00  0.00000000000E+00  0.10319856370E+04  0.10319856370E+04  0.50400001928E-02 0.  1.
        1   -1    0    0  501    0  0.00000000000E+00  0.00000000000E+00 -0.21556458381E+04  0.21556458381E+04  0.50400001928E-02 0. -1.
    10030    2    1    2    0    0  0.00000000000E+00  0.00000000000E+00 -0.11236602011E+04  0.31876314751E+04  0.29830156174E+04 0.  0.
        2    1    3    3  502    0  0.49964613699E+03 -0.38605954849E+03  0.88211919295E+03  0.10848145039E+04  0.25500000920E-02 0.  1.
       -2    1    3    3    0  502 -0.49964613699E+03  0.38605954849E+03 -0.20057793940E+04  0.21028169713E+04  0.25500000920E-02 0. -1.
</event>
<event>
 5   0  0.1672907E-06  0.3007005E+04  0.7818609E-02  0.8241733E-01
        1   -1    0    0  501    0  0.00000000000E+00  0.00000000000E+00  0.22960574175E+04  0.22960574175E+04  0.50400001928E-02 0. -1.
       -1   -1    0    0    0  501  0.00000000000E+00  0.00000000000E+00 -0.98452250182E+03  0.98452250183E+03  0.50400001928E-02 0.  1.
    10030    2    1    2    0    0  0.00000000000E+00  0.00000000000E+00  0.13115349157E+04  0.32805799194E+04  0.30070052830E+04 0.  0.
        5    1    3    3  502    0 -0.30016233709E+03  0.14705339856E+04  0.55861228295E+03  0.16014485331E+04  0.46999998093E+01 0.  1.
       -5    1    3    3    0  502  0.30016233709E+03 -0.14705339856E+04  0.75292263276E+03  0.16791313863E+04  0.46999998093E+01 0. -1.
</event>
<event>
 5   0  0.4702748E-06  0.2993032E+04  0.7818609E-02  0.8245724E-01
        2   -1    0    0  501    0  0.00000000000E+00  0.00000000000E+00  0.29161962650E+04  0.29161962650E+04  0.25500000920E-02 0.  1.
       -2   -1    0    0    0  501  0.00000000000E+00  0.00000000000E+00 -0.76797291801E+03  0.76797291801E+03  0.25500000920E-02 0. -1.
    10030    2    1    2    0    0  0.00000000000E+00  0.00000000000E+00  0.21482233470E+04  0.36841691830E+04  0.29930317440E+04 0.  0.
        2    1    3    3  502    0 -0.72470662663E+03 -0.12171840213E+04  0.16680499218E+04  0.21884074524E+04  0.25500000920E-02 0.  1.
       -2    1    3    3    0  502  0.72470662663E+03  0.12171840213E+04  0.48017342526E+03  0.14957617306E+04  0.25500000920E-02 0. -1.
</event>
<event>
 5   0  0.4702748E-06  0.3013580E+04  0.7818609E-02  0.8239864E-01
        2   -1    0    0  501    0  0.00000000000E+00  0.00000000000E+00  0.21125084814E+04  0.21125084814E+04  0.25500000920E-02 0. -1.
       -2   -1    0    0    0  501  0.00000000000E+00  0.00000000000E+00 -0.10747487446E+04  0.10747487446E+04  0.25500000920E-02 0.  1.
    10030    2    1    2    0    0  0.00000000000E+00  0.00000000000E+00  0.10377597368E+04  0.31872572260E+04  0.30135798236E+04 0.  0.
        2    1    3    3  502    0 -0.37601536320E+03 -0.13814783051E+04  0.10155682319E+04  0.17553485963E+04  0.25500000920E-02 0. -1.
       -2    1    3    3    0  502  0.37601536320E+03  0.13814783051E+04  0.22191504935E+02  0.14319086297E+04  0.25500000920E-02 0.  1.
</event>
<event>
 5   0  0.1686012E-06  0.3133611E+04  0.7818609E-02  0.8206574E-01
       -1   -1    0    0    0  501  0.00000000000E+00  0.00000000000E+00  0.16634552513E+04  0.16634552513E+04  0.50400001928E-02 0.  1.
        1   -1    0    0  501    0  0.00000000000E+00  0.00000000000E+00 -0.14757708426E+04  0.14757708426E+04  0.50400001928E-02 0. -1.
    10030    2    1    2    0    0  0.00000000000E+00  0.00000000000E+00  0.18768440872E+03  0.31392260939E+04  0.31336105424E+04 0.  0.
        4    1    3    3  502    0  0.52378789766E+02  0.76779209165E+03  0.14610695810E+04  0.16513552516E+04  0.12699999809E+01 0.  1.
       -4    1    3    3    0  502 -0.52378789766E+02 -0.76779209165E+03 -0.12733851723E+04  0.14878708423E+04  0.12699999809E+01 0. -1.
</event>
<event>
 5   0  0.4532420E-06  0.2875991E+04  0.7818609E-02  0.8280057E-01
        2   -1    0    0  501    0  0.00000000000E+00  0.00000000000E+00  0.18492986495E+04  0.18492986495E+04  0.25500000920E-02 0.  1.
       -2   -1    0    0    0  501  0.00000000000E+00  0.00000000000E+00 -0.11181702368E+04  0.11181702368E+04  0.25500000920E-02 0. -1.
    10030    2    1    2    0    0  0.00000000000E+00  0.00000000000E+00  0.73112841274E+03  0.29674688863E+04  0.28759907571E+04 0.  0.
        4    1    3    3  502    0  0.13113598077E+04 -0.50122013564E+03  0.68682427714E+03  0.15628868705E+04  0.12699999809E+01 0.  1.
       -4    1    3    3    0  502 -0.13113598077E+04  0.50122013564E+03  0.44304135594E+02  0.14045820157E+04  0.12699999809E+01 0. -1.
</event>
<event>
 5   0  0.1545375E-06  0.3008148E+04  0.7818609E-02  0.8241408E-01
        3   -1    0    0  501    0  0.00000000000E+00  0.00000000000E+00  0.87376357210E+03  0.87376357794E+03  0.10100000352E+00 0. -1.
       -3   -1    0    0    0  501  0.00000000000E+00  0.00000000000E+00 -0.25890744635E+04  0.25890744655E+04  0.10100000352E+00 0.  1.
    10030    2    1    2    0    0  0.00000000000E+00  0.00000000000E+00 -0.17153108914E+04  0.34628380434E+04  0.30081482445E+04 0.  0.
        4    1    3    3  502    0 -0.47045508578E+03 -0.67116261768E+03  0.59409834869E+03  0.10122952672E+04  0.12699999809E+01 0. -1.
       -4    1    3    3    0  502  0.47045508578E+03  0.67116261768E+03 -0.23094092401E+04  0.24505427763E+04  0.12699999809E+01 0.  1.
</event>
<event>
 5   0  0.1709858E-06  0.3000599E+04  0.7818609E-02  0.8243560E-01
       -1   -1    0    0    0  501  0.00000000000E+00  0.00000000000E+00  0.14609111960E+04  0.14609111961E+04  0.50400001928E-02 0. -1.
        1   -1    0    0  501    0  0.00000000000E+00  0.00000000000E+00 -0.15407496856E+04  0.15407496856E+04  0.50400001928E-02 0.  1.
    10030    2    1    2    0    0  0.00000000000E+00  0.00000000000E+00 -0.79838489550E+02  0.30016608816E+04  0.30005989176E+04 0.  0.
        3    1    3    3  502    0 -0.10722555618E+03  0.10918191203E+03  0.14530835727E+04  0.14611193960E+04  0.10100000352E+00 0. -1.
       -3    1    3    3    0  502  0.10722555618E+03 -0.10918191203E+03 -0.15329220623E+04  0.15405414857E+04  0.10100000352E+00 0.  1.
</event>
<event>
 5   0  0.4702748E-06  0.3032141E+04  0.7818609E-02  0.8234612E-01
       -2   -1    0    0    0  501  0.00000000000E+00  0.00000000000E+00  0.14948222218E+04  0.14948222218E+04  0.25500000920E-02 0. -1.
        2   -1    0    0  501    0  0.00000000000E+00  0.00000000000E+00 -0.15376210859E+04  0.15376210859E+04  0.25500000920E-02 0.  1.
    10030    2    1    2    0    0  0.00000000000E+00  0.00000000000E+00 -0.42798864086E+02  0.30324433078E+04  0.30321412685E+04 0.  0.
        2    1    3    3  502    0  0.60927617152E+03 -0.13058052871E+04 -0.49274805256E+03  0.15228741066E+04  0.25500000920E-02 0.  1.
       -2    1    3    3    0  502 -0.60927617152E+03  0.13058052871E+04  0.44994918847E+03  0.15095692012E+04  0.25500000920E-02 0. -1.
</event>
<event>
 5   0  0.1700885E-06  0.3038688E+04  0.7818609E-02  0.8232769E-01
       -1   -1    0    0    0  501  0.00000000000E+00  0.00000000000E+00  0.14712426825E+04  0.14712426825E+04  0.50400001928E-02 0.  1.
        1   -1    0    0  501    0  0.00000000000E+00  0.00000000000E+00 -0.15690179160E+04  0.15690179160E+04  0.50400001928E-02 0. -1.
    10030    2    1    2    0    0  0.00000000000E+00  0.00000000000E+00 -0.97775233526E+02  0.30402605985E+04  0.30386879587E+04 0.  0.
        1    1    3    3  502    0  0.46017651422E+03  0.11029718206E+03  0.13956318158E+04  0.14736743392E+04  0.50400001928E-02 0.  1.
       -1    1    3    3    0  502 -0.46017651422E+03 -0.11029718206E+03 -0.14934070494E+04  0.15665862593E+04  0.50400001928E-02 0. -1.
</event>
<event>
 5   0  0.4702748E-06  0.2995064E+04  0.7818609E-02  0.8245142E-01
       -2   -1    0    0    0  501  0.00000000000E+00  0.00000000000E+00  0.16035210915E+04  0.16035210915E+04  0.25500000920E-02 0.  1.
        2   -1    0    0  501    0  0.00000000000E+00  0.00000000000E+00 -0.13985484237E+04  0.13985484237E+04  0.25500000920E-02 0. -1.
    10030    2    1    2    0    0  0.00000000000E+00  0.00000000000E+00  0.20497266780E+03  0.30020695152E+04  0.29950638690E+04 0.  0.
        2    1    3    3  502    0  0.18157054284E+03  0.14566946804E+03 -0.13803029617E+04  0.13997941713E+04  0.25500000920E-02 0. -1.
       -2    1    3    3    0  502 -0.18157054284E+03 -0.14566946804E+03  0.15852756295E+04  0.16022753439E+04  0.25500000920E-02 0.  1.
</event>
<event>
 5   0  0.4702748E-06  0.3002768E+04  0.7818609E-02  0.8242941E-01
        2   -1    0    0  501    0  0.00000000000E+00  0.00000000000E+00  0.16748407499E+04  0.16748407499E+04  0.25500000920E-02 0.  1.
       -2   -1    0    0    0  501  0.00000000000E+00  0.00000000000E+00 -0.13458914441E+04  0.13458914441E+04  0.25500000920E-02 0. -1.
    10030    2    1    2    0    0  0.00000000000E+00  0.00000000000E+00  0.32894930579E+03  0.30207321941E+04  0.30027679468E+04 0.  0.
        2    1    3    3  502    0 -0.36488193073E+03 -0.36972350759E+03  0.15815608157E+04  0.16646828254E+04  0.25500000920E-02 0.  1.
       -2    1    3    3    0  502  0.36488193073E+03  0.36972350759E+03 -0.12526115099E+04  0.13560493687E+04  0.25500000920E-02 0. -1.
</event>
<event>
 5   0  0.1709858E-06  0.2404720E+04  0.7818609E-02  0.8437738E-01
       -1   -1    0    0    0  501  0.00000000000E+00  0.00000000000E+00  0.12657546693E+04  0.12657546693E+04  0.50400001928E-02 0.  1.
        1   -1    0    0  501    0  0.00000000000E+00  0.00000000000E+00 -0.11421408034E+04  0.11421408034E+04  0.50400001928E-02 0. -1.
    10030    2    1    2    0    0  0.00000000000E+00  0.00000000000E+00  0.12361386593E+03  0.24078954727E+04  0.24047204036E+04 0.  0.
        3    1    3    3  502    0 -0.71387042817E+03  0.88911721483E+03  0.44379409005E+03  0.12235577692E+04  0.10100000352E+00 0.  1.
       -3    1    3    3    0  502  0.71387042817E+03 -0.88911721483E+03 -0.32018022412E+03  0.11843377035E+04  0.10100000352E+00 0. -1.
</event>
<event>
 5   0  0.1700885E-06  0.2845459E+04  0.7818609E-02  0.8289293E-01
        1   -1    0    0  501    0  0.00000000000E+00  0.00000000000E+00  0.14908001263E+04  0.14908001263E+04  0.50400001928E-02 0. -1.
       -1   -1    0    0    0  501  0.00000000000E+00  0.00000000000E+00 -0.13577665789E+04  0.13577665789E+04  0.50400001928E-02 0.  1.
    10030    2    1    2    0    0  0.00000000000E+00  0.00000000000E+00  0.13303354734E+03  0.28485667052E+04  0.28454585481E+04 0.  0.
        1    1    3    3  502    0 -0.64160822945E+03  0.93694893784E+03  0.92455518998E+03  0.14643553980E+04  0.50400001928E-02 0.  1.
       -1    1    3    3    0  502  0.64160822945E+03 -0.93694893784E+03 -0.79152164264E+03  0.13842113072E+04  0.50400001928E-02 0. -1.
</event>
<event>
 5   0  0.1709858E-06  0.2987111E+04  0.7818609E-02  0.8247421E-01
        1   -1    0    0  501    0  0.00000000000E+00  0.00000000000E+00  0.11904748509E+04  0.11904748510E+04  0.50400001928E-02 0. -1.
       -1   -1    0    0    0  501  0.00000000000E+00  0.00000000000E+00 -0.18737970371E+04  0.18737970372E+04  0.50400001928E-02 0.  1.
    10030    2    1    2    0    0  0.00000000000E+00  0.00000000000E+00 -0.68332218620E+03  0.30642718881E+04  0.29871111453E+04 0.  0.
        3    1    3    3  502    0  0.83733539588E+03  0.24190231918E+03 -0.15858641010E+04  0.18095889738E+04  0.10100000352E+00 0.  1.
       -3    1    3    3    0  502 -0.83733539588E+03 -0.24190231918E+03  0.90254191479E+03  0.12546829143E+04  0.10100000352E+00 0. -1.
</event>
<event>
 5   0  0.1545375E-06  0.2981460E+04  0.7818609E-02  0.8249045E-01
        3   -1    0    0  501    0  0.00000000000E+00  0.00000000000E+00  0.14530366383E+04  0.14530366418E+04  0.10100000352E+00 0. -1.
       -3   -1    0    0    0  501  0.00000000000E+00  0.00000000000E+00 -0.15294009042E+04  0.15294009075E+04  0.10100000352E+00 0.  1.
    10030    2    1    2    0    0  0.00000000000E+00  0.00000000000E+00 -0.76364265934E+02  0.29824375493E+04  0.29814597489E+04 0.  0.
        5    1    3    3  502    0 -0.10181942351E+04  0.69389939814E+03 -0.87752679513E+03  0.15127098999E+04  0.46999998093E+01 0.  1.
       -5    1    3    3    0  502  0.10181942351E+04 -0.69389939814E+03  0.80116252920E+03  0.14697276494E+04  0.46999998093E+01 0. -1.
</event>
<event>
 5   0  0.1686012E-06  0.2969659E+04  0.7818609E-02  0.8252448E-01
        1   -1    0    0  501    0  0.00000000000E+00  0.00000000000E+00  0.24099078261E+04  0.24099078261E+04  0.50400001928E-02 0. -1.
       -1   -1    0    0    0  501  0.00000000000E+00  0.00000000000E+00 -0.91485584245E+03  0.91485584246E+03  0.50400001928E-02 0.  1.
    10030    2    1    2    0    0  0.00000000000E+00  0.00000000000E+00  0.14950519836E+04  0.33247636685E+04  0.29696587376E+04 0.  0.
        4    1    3    3  502    0  0.13427593182E+04 -0.37642610127E+03  0.13184199921E+04  0.19190966846E+04  0.12699999809E+01 0.  1.
       -4    1    3    3    0  502 -0.13427593182E+04  0.37642610127E+03  0.17663199147E+03  0.14056669839E+04  0.12699999809E+01 0. -1.
</event>
<event>
 5   0  0.1686012E-06  0.2561162E+04  0.7818609E-02  0.8381514E-01
       -1   -1    0    0    0  501  0.00000000000E+00  0.00000000000E+00  0.96863100514E+03  0.96863100516E+03  0.50400001928E-02 0. -1.
        1   -1    0    0  501    0  0.00000000000E+00  0.00000000000E+00 -0.16929955451E+04  0.16929955451E+04  0.50400001928E-02 0.  1.
    10030    2    1    2    0    0  0.00000000000E+00  0.00000000000E+00 -0.72436453994E+03  0.26616265502E+04  0.25611622179E+04 0.  0.
        4    1    3    3  502    0  0.87565845254E+02  0.70367160128E+03 -0.14703427383E+04  0.16324003433E+04  0.12699999809E+01 0.  1.
       -4    1    3    3    0  502 -0.87565845254E+02 -0.70367160128E+03  0.74597819839E+03  0.10292262070E+04  0.12699999809E+01 0. -1.
</event>
<event>
 5   0  0.4768570E-06  0.3012599E+04  0.7818609E-02  0.8240142E-01
       -2   -1    0    0    0  501  0.00000000000E+00  0.00000000000E+00  0.14978912501E+04  0.14978912501E+04  0.25500000920E-02 0.  1.
        2   -1    0    0  501    0  0.00000000000E+00  0.00000000000E+00 -0.15147552311E+04  0.15147552311E+04  0.25500000920E-02 0. -1.
    10030    2    1    2    0    0  0.00000000000E+00  0.00000000000E+00 -0.16863981053E+02  0.30126464812E+04  0.30125992808E+04 0.  0.
        1    1    3    3  502    0 -0.76340543874E+03 -0.46947319452E+03 -0.12191307938E+04  0.15131004054E+04  0.50400001928E-02 0. -1.
       -1    1    3    3    0  502  0.76340543874E+03  0.46947319452E+03  0.12022668128E+04  0.14995460758E+04  0.50400001928E-02 0.  1.
</event>
<event>
 5   0  0.5003556E-06  0.2660501E+04  0.7818609E-02  0.8347936E-01
        2   -1    0    0  501    0  0.00000000000E+00  0.00000000000E+00  0.24576511115E+04  0.24576511115E+04  0.25500000920E-02 0. -1.
       -2   -1    0    0    0  501  0.00000000000E+00  0.00000000000E+00 -0.72002353300E+03  0.72002353301E+03  0.25500000920E-02 0.  1.
    10030    2    1    2    0    0  0.00000000000E+00  0.00000000000E+00  0.17376275785E+04  0.31776746445E+04  0.26605011830E+04 0.  0.
        3    1    3    3  502    0  0.24614348956E+03  0.79692386823E+03  0.21065450162E+04  0.22656580026E+04  0.10100000352E+00 0. -1.
       -3    1    3    3    0  502 -0.24614348956E+03 -0.79692386823E+03 -0.36891743766E+03  0.91201664196E+03  0.10100000352E+00 0.  1.
</event>
<event>
 5   0  0.1545375E-06  0.2975840E+04  0.7818609E-02  0.8250664E-01
       -3   -1    0    0    0  501  0.00000000000E+00  0.00000000000E+00  0.17566518737E+04  0.17566518766E+04  0.10100000352E+00 0. -1.
        3   -1    0    0  501    0  0.00000000000E+00  0.00000000000E+00 -0.12602987798E+04  0.12602987839E+04  0.10100000352E+00 0.  1.
    10030    2    1    2    0    0  0.00000000000E+00  0.00000000000E+00  0.49635309387E+03  0.30169506605E+04  0.29758401997E+04 0.  0.
        4    1    3    3  502    0 -0.27656224554E+03 -0.91849129386E+03 -0.90498666248E+03  0.13187552482E+04  0.12699999809E+01 0.  1.
       -4    1    3    3    0  502  0.27656224554E+03  0.91849129386E+03  0.14013397563E+04  0.16981954122E+04  0.12699999809E+01 0. -1.
</event>
<event>
 5   0  0.4702748E-06  0.3004226E+04  0.7818609E-02  0.8242525E-01
        2   -1    0    0  501    0  0.00000000000E+00  0.00000000000E+00  0.23413116348E+04  0.23413116348E+04  0.25500000920E-02 0. -1.
       -2   -1    0    0    0  501  0.00000000000E+00  0.00000000000E+00 -0.96370885209E+03  0.96370885209E+03  0.25500000920E-02 0.  1.
    10030    2    1    2    0    0  0.00000000000E+00  0.00000000000E+00  0.13776027827E+04  0.33050204869E+04  0.30042255228E+04 0.  0.
        2    1    3    3  502    0  0.70337862423E+03  0.50899364007E+02  0.21478704309E+04  0.22606812297E+04  0.25500000920E-02 0. -1.
       -2    1    3    3    0  502 -0.70337862423E+03 -0.50899364007E+02 -0.77026764820E+03  0.10443392572E+04  0.25500000920E-02 0.  1.
</event>
<event>
 5   0  0.4532420E-06  0.3002460E+04  0.7818609E-02  0.8243029E-01
       -2   -1    0    0    0  501  0.00000000000E+00  0.00000000000E+00  0.12964158133E+04  0.12964158133E+04  0.25500000920E-02 0.  1.
        2   -1    0    0  501    0  0.00000000000E+00  0.00000000000E+00 -0.17384020888E+04  0.17384020888E+04  0.25500000920E-02 0. -1.
    10030    2    1    2    0    0  0.00000000000E+00  0.00000000000E+00 -0.44198627550E+03  0.30348179021E+04  0.30024602963E+04 0.  0.
        4    1    3    3  502    0  0.11963114046E+04 -0.88257246294E+03 -0.43203799770E+03  0.15481452043E+04  0.12699999809E+01 0.  1.
       -4    1    3    3    0  502 -0.11963114046E+04  0.88257246294E+03 -0.99482777983E+01  0.14866726978E+04  0.12699999809E+01 0. -1.
</event>
<event>
 5   0  0.1686012E-06  0.2886780E+04  0.7818609E-02  0.8276822E-01
       -1   -1    0    0    0  501  0.00000000000E+00  0.00000000000E+00  0.80707652719E+03  0.80707652720E+03  0.50400001928E-02 0.  1.
        1   -1    0    0  501    0  0.00000000000E+00  0.00000000000E+00 -0.25813841025E+04  0.25813841025E+04  0.50400001928E-02 0. -1.
    10030    2    1    2    0    0  0.00000000000E+00  0.00000000000E+00 -0.17743075753E+04  0.33884606297E+04  0.28867798786E+04 0.  0.
        4    1    3    3  502    0 -0.98314563905E+03  0.90105841074E+03 -0.23902503517E+03  0.13548491383E+04  0.12699999809E+01 0.  1.
       -4    1    3    3    0  502  0.98314563905E+03 -0.90105841074E+03 -0.15352825401E+04  0.20336114914E+04  0.12699999809E+01 0. -1.
</event>
<event>
 5   0  0.4935331E-06  0.3004577E+04  0.7818609E-02  0.8242425E-01
        2   -1    0    0  501    0  0.00000000000E+00  0.00000000000E+00  0.12816326131E+04  0.12816326131E+04  0.25500000920E-02 0.  1.
       -2   -1    0    0    0  501  0.00000000000E+00  0.00000000000E+00 -0.17609341721E+04  0.17609341721E+04  0.25500000920E-02 0. -1.
    10030    2    1    2    0    0  0.00000000000E+00  0.00000000000E+00 -0.47930155901E+03  0.30425667852E+04  0.30045769516E+04 0.  0.
        5    1    3    3  502    0 -0.80752007405E+03  0.11087766218E+04 -0.86007545247E+03  0.16190201175E+04  0.46999998093E+01 0.  1.
       -5    1    3    3    0  502  0.80752007405E+03 -0.11087766218E+04  0.38077389346E+03  0.14235466676E+04  0.46999998093E+01 0. -1.
</event>
<event>
 5   0  0.4768570E-06  0.2988165E+04  0.7818609E-02  0.8247119E-01
       -2   -1    0    0    0  501  0.00000000000E+00  0.00000000000E+00  0.14441337664E+04  0.14441337664E+04  0.25500000920E-02 0.  1.
        2   -1    0    0  501    0  0.00000000000E+00  0.00000000000E+00 -0.15457583490E+04  0.15457583490E+04  0.25500000920E-02 0. -1.
    10030    2    1    2    0    0  0.00000000000E+00  0.00000000000E+00 -0.10162458260E+03  0.29898921154E+04  0.29881645380E+04 0.  0.
        1    1    3    3  502    0 -0.13725743727E+04 -0.13543782674E+03 -0.62558152338E+03  0.15144821082E+04  0.50400001928E-02 0. -1.
       -1    1    3    3    0  502  0.13725743727E+04  0.13543782674E+03  0.52395694077E+03  0.14754100072E+04  0.50400001928E-02 0.  1.
</event>
<event>
 5   0  0.1686012E-06  0.2993788E+04  0.7818609E-02  0.8245507E-01
        1   -1    0    0  501    0  0.00000000000E+00  0.00000000000E+00  0.16306915969E+04  0.16306915969E+04  0.50400001928E-02 0.  1.
       -1   -1    0    0    0  501  0.00000000000E+00  0.00000000000E+00 -0.13740741643E+04  0.13740741644E+04  0.50400001928E-02 0. -1.
    10030    2    1    2    0    0  0.00000000000E+00  0.00000000000E+00  0.25661743251E+03  0.30047657612E+04  0.29937876967E+04 0.  0.
        4    1    3    3  502    0 -0.10122746140E+04 -0.10165839428E+04 -0.30051293341E+03  0.14657600223E+04  0.12699999809E+01 0. -1.
       -4    1    3    3    0  502  0.10122746140E+04  0.10165839428E+04  0.55713036591E+03  0.15390057389E+04  0.12699999809E+01 0.  1.
</event>
<event>
 5   0  0.1709858E-06  0.2981854E+04  0.7818609E-02  0.8248932E-01
        1   -1    0    0  501    0  0.00000000000E+00  0.00000000000E+00  0.13901194398E+04  0.13901194398E+04  0.50400001928E-02 0. -1.
       -1   -1    0    0    0  501  0.00000000000E+00  0.00000000000E+00 -0.15990444744E+04  0.15990444745E+04  0.50400001928E-02 0.  1.
    10030    2    1    2    0    0  0.00000000000E+00  0.00000000000E+00 -0.20892503467E+03  0.29891639142E+04  0.29818536577E+04 0.  0.
        3    1    3    3  502    0 -0.12177530744E+04 -0.12611885530E+03  0.74852557895E+03  0.14349630895E+04  0.10100000352E+00 0. -1.
       -3    1    3    3    0  502  0.12177530744E+04  0.12611885530E+03 -0.95745061362E+03  0.15542008247E+04  0.10100000352E+00 0.  1.
</event>
<event>
 5   0  0.4532420E-06  0.3028561E+04  0.7818609E-02  0.8235622E-01
        2   -1    0    0  501    0  0.00000000000E+00  0.00000000000E+00  0.17675541487E+04  0.17675541487E+04  0.25500000920E-02 0.  1.
       -2   -1    0    0    0  501  0.00000000000E+00  0.00000000000E+00 -0.12972987618E+04  0.12972987618E+04  0.25500000920E-02 0. -1.
    10030    2    1    2    0    0  0.00000000000E+00  0.00000000000E+00  0.47025538695E+03  0.30648529105E+04  0.30285612482E+04 0.  0.
        4    1    3    3  502    0 -0.12902022822E+04  0.27219104550E+03 -0.51833048611E+03  0.14168196780E+04  0.12699999809E+01 0. -1.
       -4    1    3    3    0  502  0.12902022822E+04 -0.27219104550E+03  0.98858587306E+03  0.16480332325E+04  0.12699999809E+01 0.  1.
</event>
<event>
 5   0  0.5003556E-06  0.2984730E+04  0.7818609E-02  0.8248105E-01
        2   -1    0    0  501    0  0.00000000000E+00  0.00000000000E+00  0.11546683440E+04  0.11546683440E+04  0.25500000920E-02 0.  1.
       -2   -1    0    0    0  501  0.00000000000E+00  0.00000000000E+00 -0.19288249577E+04  0.19288249577E+04  0.25500000920E-02 0. -1.
    10030    2    1    2    0    0  0.00000000000E+00  0.00000000000E+00 -0.77415661377E+03  0.30834933017E+04  0.29847298838E+04 0.  0.
        3    1    3    3  502    0 -0.44224964232E+03  0.10109352592E+04  0.65094707150E+03  0.12811350220E+04  0.10100000352E+00 0.  1.
       -3    1    3    3    0  502  0.44224964232E+03 -0.10109352592E+04 -0.14251036853E+04  0.18023582797E+04  0.10100000352E+00 0. -1.
</event>
<event>
 5   0  0.4702748E-06  0.2871444E+04  0.7818609E-02  0.8281425E-01
       -2   -1    0    0    0  501  0.00000000000E+00  0.00000000000E+00  0.10401255601E+04  0.10401255601E+04  0.25500000920E-02 0.  1.
        2   -1    0    0  501    0  0.00000000000E+00  0.00000000000E+00 -0.19817774754E+04  0.19817774754E+04  0.25500000920E-02 0. -1.
    10030    2    1    2    0    0  0.00000000000E+00  0.00000000000E+00 -0.94165191537E+03  0.30219030355E+04  0.28714438226E+04 0.  0.
        2    1    3    3  502    0  0.14060768725E+04 -0.25570420625E+03 -0.32629599684E+03  0.14659146940E+04  0.25500000920E-02 0. -1.
       -2    1    3    3    0  502 -0.14060768725E+04  0.25570420625E+03 -0.61535591853E+03  0.15559883415E+04  0.25500000920E-02 0.  1.
</event>
<event>
 5   0  0.4702748E-06  0.2990199E+04  0.7818609E-02  0.8246535E-01
       -2   -1    0    0    0  501  0.00000000000E+00  0.00000000000E+00  0.10605703984E+04  0.10605703984E+04  0.25500000920E-02 0.  1.
        2   -1    0    0  501    0  0.00000000000E+00  0.00000000000E+00 -0.21076613631E+04  0.21076613631E+04  0.25500000920E-02 0. -1.
    10030    2    1    2    0    0  0.00000000000E+00  0.00000000000E+00 -0.10470909647E+04  0.31682317616E+04  0.29901994928E+04 0.  0.
        2    1    3    3  502    0 -0.61639430601E+02 -0.14635573246E+04 -0.84056500624E+03  0.16888898696E+04  0.25500000920E-02 0.  1.
       -2    1    3    3    0  502  0.61639430601E+02  0.14635573246E+04 -0.20652595849E+03  0.14793418920E+04  0.25500000920E-02 0. -1.
</event>
<event>
 5   0  0.4532420E-06  0.3008164E+04  0.7818609E-02  0.8241404E-01
       -2   -1    0    0    0  501  0.00000000000E+00  0.00000000000E+00  0.19211181325E+04  0.19211181325E+04  0.25500000920E-02 0.  1.
        2   -1    0    0  501    0  0.00000000000E+00  0.00000000000E+00 -0.11775756451E+04  0.11775756451E+04  0.25500000920E-02 0. -1.
    10030    2    1    2    0    0  0.00000000000E+00  0.00000000000E+00  0.74354248743E+03  0.30986937776E+04  0.30081635090E+04 0.  0.
        4    1    3    3  502    0  0.13139673196E+03 -0.49413872439E+03  0.18288447536E+04  0.18989768102E+04  0.12699999809E+01 0.  1.
       -4    1    3    3    0  502 -0.13139673196E+03  0.49413872439E+03 -0.10853022661E+04  0.11997169674E+04  0.12699999809E+01 0. -1.
</event>
<event>
 5   0  0.4935331E-06  0.3006619E+04  0.7818609E-02  0.8241843E-01
       -2   -1    0    0    0  501  0.00000000000E+00  0.00000000000E+00  0.12788734251E+04  0.12788734251E+04  0.25500000920E-02 0. -1.
        2   -1    0    0  501    0  0.00000000000E+00  0.00000000000E+00 -0.17671332664E+04  0.17671332664E+04  0.25500000920E-02 0.  1.
    10030    2    1    2    0    0  0.00000000000E+00  0.00000000000E+00 -0.48825984130E+03  0.30460066915E+04  0.30066192131E+04 0.  0.
        5    1    3    3  502    0  0.10598122334E+04 -0.42424594928E+03 -0.12350699395E+04  0.16818461407E+04  0.46999998093E+01 0.  1.
       -5    1    3    3    0  502 -0.10598122334E+04  0.42424594928E+03  0.74681009820E+03  0.13641605508E+04  0.46999998093E+01 0. -1.
</event>
<event>
 5   0  0.4935331E-06  0.3000857E+04  0.7818609E-02  0.8243486E-01
        2   -1    0    0  501    0  0.00000000000E+00  0.00000000000E+00  0.15230047961E+04  0.15230047961E+04  0.25500000920E-02 0. -1.
       -2   -1    0    0    0  501  0.00000000000E+00  0.00000000000E+00 -0.14781868140E+04  0.14781868140E+04  0.25500000920E-02 0.  1.
    10030    2    1    2    0    0  0.00000000000E+00  0.00000000000E+00  0.44817982098E+02  0.30011916102E+04  0.30008569492E+04 0.  0.
        5    1    3    3  502    0  0.17912710940E+02  0.61621718359E+03  0.13904866283E+04  0.15210258499E+04  0.46999998093E+01 0. -1.
       -5    1    3    3    0  502 -0.17912710940E+02 -0.61621718359E+03 -0.13456686462E+04  0.14801657603E+04  0.46999998093E+01 0.  1.
</event>
<event>
 5   0  0.5003556E-06  0.2974819E+04  0.7818609E-02  0.8250958E-01
       -2   -1    0    0    0  501  0.00000000000E+00  0.00000000000E+00  0.12300563956E+04  0.12300563956E+04  0.25500000920E-02 0.  1.
        2   -1    0    0  501    0  0.00000000000E+00  0.00000000000E+00 -0.17986062070E+04  0.17986062070E+04  0.25500000920E-02 0. -1.
    10030    2    1    2    0    0  0.00000000000E+00  0.00000000000E+00 -0.56854981140E+03  0.30286626026E+04  0.29748190318E+04 0.  0.
        3    1    3    3  502    0  0.28852924040E+03  0.14466428566E+04 -0.47841556445E+03  0.15507759798E+04  0.10100000352E+00 0. -1.
       -3    1    3    3    0  502 -0.28852924040E+03 -0.14466428566E+04 -0.90134246945E+02  0.14778866228E+04  0.10100000352E+00 0.  1.
</event>
<event>
 5   0  0.1700885E-06  0.2615548E+04  0.7818609E-02  0.8362939E-01
       -1   -1    0    0    0  501  0.00000000000E+00  0.00000000000E+00  0.13929375198E+04  0.13929375198E+04  0.50400001928E-02 0. -1.
        1   -1    0    0  501    0  0.00000000000E+00  0.00000000000E+00 -0.12278176501E+04  0.12278176501E+04  0.50400001928E-02 0.  1.
    10030    2    1    2    0    0  0.00000000000E+00  0.00000000000E+00  0.16511986970E+03  0.26207551700E+04  0.26155483344E+04 0.  0.
        1    1    3    3  502    0 -0.51903095416E+03  0.10797303433E+04  0.60806803587E+03  0.13434870605E+04  0.50400001928E-02 0. -1.
       -1    1    3    3    0  502  0.51903095416E+03 -0.10797303433E+04 -0.44294816617E+03  0.12772681095E+04  0.50400001928E-02 0.  1.
</event>
<event>
 5   0  0.1700885E-06  0.2977760E+04  0.7818609E-02  0.8250110E-01
       -1   -1    0    0    0  501  0.00000000000E+00  0.00000000000E+00  0.11000737927E+04  0.11000737927E+04  0.50400001928E-02 0.  1.
        1   -1    0    0  501    0  0.00000000000E+00  0.00000000000E+00 -0.20151046261E+04  0.20151046261E+04  0.50400001928E-02 0. -1.
    10030    2    1    2    0    0  0.00000000000E+00  0.00000000000E+00 -0.91503083333E+03  0.31151784188E+04  0.29777600902E+04 0.  0.
        1    1    3    3  502    0 -0.90483968687E+03 -0.83650119165E+02  0.77633273988E+03  0.11951672370E+04  0.50400001928E-02 0.  1.
       -1    1    3    3    0  502  0.90483968687E+03  0.83650119165E+02 -0.16913635732E+04  0.19200111818E+04  0.50400001928E-02 0. -1.
</event>
<event>
 5   0  0.4702748E-06  0.3004725E+04  0.7818609E-02  0.8242383E-01
       -2   -1    0    0    0  501  0.00000000000E+00  0.00000000000E+00  0.11575047953E+04  0.11575047953E+04  0.25500000920E-02 0. -1.
        2   -1    0    0  501    0  0.00000000000E+00  0.00000000000E+00 -0.19499647993E+04  0.19499647993E+04  0.25500000920E-02 0.  1.
    10030    2    1    2    0    0  0.00000000000E+00  0.00000000000E+00 -0.79246000404E+03  0.31074695946E+04  0.30047253491E+04 0.  0.
        2    1    3    3  502    0 -0.51250359465E+03 -0.23952235241E+03  0.10431449732E+04  0.11866685835E+04  0.25500000920E-02 0. -1.
       -2    1    3    3    0  502  0.51250359465E+03  0.23952235241E+03 -0.18356049773E+04  0.19208010111E+04  0.25500000920E-02 0.  1.
</event>
<event>
 5   0  0.4532420E-06  0.3006348E+04  0.7818609E-02  0.8241920E-01
        2   -1    0    0  501    0  0.00000000000E+00  0.00000000000E+00  0.26503148311E+04  0.26503148311E+04  0.25500000920E-02 0.  1.
       -2   -1    0    0    0  501  0.00000000000E+00  0.00000000000E+00 -0.85255240704E+03  0.85255240704E+03  0.25500000920E-02 0. -1.
    10030    2    1    2    0    0  0.00000000000E+00  0.00000000000E+00  0.17977624240E+04  0.35028672381E+04  0.30063481426E+04 0.  0.
        4    1    3    3  502    0 -0.12942488988E+04 -0.54791979553E+02  0.10416957653E+02  0.12954506933E+04  0.12699999809E+01 0. -1.
       -4    1    3    3    0  502  0.12942488988E+04  0.54791979553E+02  0.17873454664E+04  0.22074165448E+04  0.12699999809E+01 0.  1.
</event>
<event>
 5   0  0.1672907E-06  0.2941955E+04  0.7818609E-02  0.8260503E-01
       -1   -1    0    0    0  501  0.00000000000E+00  0.00000000000E+00  0.13972469368E+04  0.13972469368E+04  0.50400001928E-02 0.  1.
        1   -1    0    0  501    0  0.00000000000E+00  0.00000000000E+00 -0.15485984771E+04  0.15485984771E+04  0.50400001928E-02 0. -1.
    10030    2    1    2    0    0  0.00000000000E+00  0.00000000000E+00 -0.15135154031E+03  0.29458454139E+04  0.29419547776E+04 0.  0.
        5    1    3    3  502    0  0.12068370194E+04  0.65656439417E+03 -0.60193716886E+03  0.14999609462E+04  0.46999998093E+01 0.  1.
       -5    1    3    3    0  502 -0.12068370194E+04 -0.65656439417E+03  0.45058562854E+03  0.14458844676E+04  0.46999998093E+01 0. -1.
</event>
<event>
 5   0  0.4532420E-06  0.2980719E+04  0.7818609E-02  0.8249258E-01
       -2   -1    0    0    0  501  0.00000000000E+00  0.00000000000E+00  0.89177175977E+03  0.89177175978E+03  0.25500000920E-02 0. -1.
        2   -1    0    0  501    0  0.00000000000E+00  0.00000000000E+00 -0.24907398448E+04  0.24907398448E+04  0.25500000920E-02 0.  1.
    10030    2    1    2    0    0  0.00000000000E+00  0.00000000000E+00 -0.15989680850E+04  0.33825116046E+04  0.29807190103E+04 0.  0.
        4    1    3    3  502    0 -0.12306394834E+04  0.24893074644E+03 -0.17106702254E+04  0.21219882864E+04  0.12699999809E+01 0.  1.
       -4    1    3    3    0  502  0.12306394834E+04 -0.24893074644E+03  0.11170214039E+03  0.12605233182E+04  0.12699999809E+01 0. -1.
</event>
<event>
 5   0  0.1672907E-06  0.3003156E+04  0.7818609E-02  0.8242830E-01
        1   -1    0    0  501    0  0.00000000000E+00  0.00000000000E+00  0.24214146578E+04  0.24214146578E+04  0.50400001928E-02 0. -1.
       -1   -1    0    0    0  501  0.00000000000E+00  0.00000000000E+00 -0.93116491013E+03  0.93116491015E+03  0.50400001928E-02 0.  1.
    10030    2    1    2    0    0  0.00000000000E+00  0.00000000000E+00  0.14902497477E+04  0.33525795680E+04  0.30031559149E+04 0.  0.
        5    1    3    3  502    0  0.50100577482E+03 -0.47923627942E+03 -0.74177911620E+03  0.10153484846E+04  0.46999998093E+01 0.  1.
       -5    1    3    3    0  502 -0.50100577482E+03  0.47923627942E+03  0.22320288639E+04  0.23372310834E+04  0.46999998093E+01 0. -1.
</event>
<event>
 5   0  0.1686012E-06  0.3032208E+04  0.7818609E-02  0.8234593E-01
        1   -1    0    0  501    0  0.00000000000E+00  0.00000000000E+00  0.75902184042E+03  0.75902184043E+03  0.50400001928E-02 0. -1.
       -1   -1    0    0    0  501  0.00000000000E+00  0.00000000000E+00 -0.30283334935E+04  0.30283334935E+04  0.50400001928E-02 0.  1.
    10030    2    1    2    0    0  0.00000000000E+00  0.00000000000E+00 -0.22693116531E+04  0.37873553339E+04  0.30322079491E+04 0.  0.
        4    1    3    3  502    0 -0.53266623763E+03 -0.12997054626E+04 -0.18473785882E+04  0.23207276599E+04  0.12699999809E+01 0.  1.
       -4    1    3    3    0  502  0.53266623763E+03  0.12997054626E+04 -0.42193306489E+03  0.14666276741E+04  0.12699999809E+01 0. -1.
</event>
<event>
 5   0  0.1700885E-06  0.2997244E+04  0.7818609E-02  0.8244518E-01
        1   -1    0    0  501    0  0.00000000000E+00  0.00000000000E+00  0.15244923700E+04  0.15244923700E+04  0.50400001928E-02 0.  1.
       -1   -1    0    0    0  501  0.00000000000E+00  0.00000000000E+00 -0.14731904967E+04  0.14731904967E+04  0.50400001928E-02 0. -1.
    10030    2    1    2    0    0  0.00000000000E+00  0.00000000000E+00  0.51301873348E+02  0.29976828667E+04  0.29972438485E+04 0.  0.
        1    1    3    3  502    0  0.14847143540E+04 -0.86193503281E+02 -0.15893405141E+03  0.14956824749E+04  0.50400001928E-02 0.  1.
       -1    1    3    3    0  502 -0.14847143540E+04  0.86193503281E+02  0.21023592476E+03  0.15020003918E+04  0.50400001928E-02 0. -1.
</event>
<event>
 5   0  0.1700885E-06  0.2998574E+04  0.7818609E-02  0.8244138E-01
        1   -1    0    0  501    0  0.00000000000E+00  0.00000000000E+00  0.30441476284E+04  0.30441476284E+04  0.50400001928E-02 0. -1.
       -1   -1    0    0    0  501  0.00000000000E+00  0.00000000000E+00 -0.73842061638E+03  0.73842061640E+03  0.50400001928E-02 0.  1.
    10030    2    1    2    0    0  0.00000000000E+00  0.00000000000E+00  0.23057270121E+04  0.37825682448E+04  0.29985739065E+04 0.  0.
        1    1    3    3  502    0 -0.10396470202E+04 -0.24055369971E+03 -0.17564125612E+03  0.10814720801E+04  0.50400001928E-02 0.  1.
       -1    1    3    3    0  502  0.10396470202E+04  0.24055369971E+03  0.24813682682E+04  0.27010961648E+04  0.50400001928E-02 0. -1.
</event>
<event>
 5   0  0.1700885E-06  0.2994263E+04  0.7818609E-02  0.8245371E-01
        1   -1    0    0  501    0  0.00000000000E+00  0.00000000000E+00  0.19319629755E+04  0.19319629755E+04  0.50400001928E-02 0.  1.
       -1   -1    0    0    0  501  0.00000000000E+00  0.00000000000E+00 -0.11601687542E+04  0.11601687542E+04  0.50400001928E-02 0. -1.
    10030    2    1    2    0    0  0.00000000000E+00  0.00000000000E+00  0.77179422129E+03  0.30921317297E+04  0.29942632338E+04 0.  0.
        1    1    3    3  502    0 -0.65138308458E+03  0.13469695859E+04  0.44030787012E+03  0.15596467577E+04  0.50400001928E-02 0.  1.
       -1    1    3    3    0  502  0.65138308458E+03 -0.13469695859E+04  0.33148635118E+03  0.15324849720E+04  0.50400001928E-02 0. -1.
</event>
<event>
 5   0  0.1734885E-06  0.2985361E+04  0.7818609E-02  0.8247923E-01
       -1   -1    0    0    0  501  0.00000000000E+00  0.00000000000E+00  0.14044354158E+04  0.14044354158E+04  0.50400001928E-02 0.  1.
        1   -1    0    0  501    0  0.00000000000E+00  0.00000000000E+00 -0.15864706694E+04  0.15864706694E+04  0.50400001928E-02 0. -1.
    10030    2    1    2    0    0  0.00000000000E+00  0.00000000000E+00 -0.18203525360E+03  0.29909060852E+04  0.29853613478E+04 0.  0.
        2    1    3    3  502    0  0.67414271265E+03 -0.68385431005E+03  0.10538955426E+04  0.14257702932E+04  0.25500000920E-02 0. -1.
       -2    1    3    3    0  502 -0.67414271265E+03  0.68385431005E+03 -0.12359307962E+04  0.15651357920E+04  0.25500000920E-02 0.  1.
</event>
<event>
 5   0  0.1672907E-06  0.2994337E+04  0.7818609E-02  0.8245350E-01
       -1   -1    0    0    0  501  0.00000000000E+00  0.00000000000E+00  0.16726103186E+04  0.16726103186E+04  0.50400001928E-02 0.  1.
        1   -1    0    0  501    0  0.00000000000E+00  0.00000000000E+00 -0.13401285629E+04  0.13401285629E+04  0.50400001928E-02 0. -1.
    10030    2    1    2    0    0  0.00000000000E+00  0.00000000000E+00  0.33248175571E+03  0.30127388814E+04  0.29943365626E+04 0.  0.
        5    1    3    3  502    0 -0.92837477639E+03 -0.10223486165E+04 -0.41559879951E+03  0.14421584071E+04  0.46999998093E+01 0. -1.
       -5    1    3    3    0  502  0.92837477639E+03  0.10223486165E+04  0.74808055522E+03  0.15705804743E+04  0.46999998093E+01 0.  1.
</event>
<event>
 5   0  0.5003556E-06  0.3028337E+04  0.7818609E-02  0.8235685E-01
        2   -1    0    0  501    0  0.00000000000E+00  0.00000000000E+00  0.19045234155E+04  0.19045234155E+04  0.25500000920E-02 0. -1.
       -2   -1    0    0    0  501  0.00000000000E+00  0.00000000000E+00 -0.12038213889E+04  0.12038213889E+04  0.25500000920E-02 0.  1.
    10030    2    1    2    0    0  0.00000000000E+00  0.00000000000E+00  0.70070202658E+03  0.31083448045E+04  0.30283368527E+04 0.  0.
        3    1    3    3  502    0 -0.48458717816E+03  0.81586612420E+03  0.15614583776E+04  0.18271876042E+04  0.10100000352E+00 0. -1.
       -3    1    3    3    0  502  0.48458717816E+03 -0.81586612420E+03 -0.86075635099E+03  0.12811572003E+04  0.10100000352E+00 0.  1.
</event>
<event>
 5   0  0.1709858E-06  0.2955460E+04  0.7818609E-02  0.8256565E-01
       -1   -1    0    0    0  501  0.00000000000E+00  0.00000000000E+00  0.12604318101E+04  0.12604318101E+04  0.50400001928E-02 0.  1.
        1   -1    0    0  501    0  0.00000000000E+00  0.00000000000E+00 -0.17324901834E+04  0.17324901834E+04  0.50400001928E-02 0. -1.
    10030    2    1    2    0    0  0.00000000000E+00  0.00000000000E+00 -0.47205837331E+03  0.29929219936E+04  0.29554598545E+04 0.  0.
        3    1    3    3  502    0 -0.12864602538E+04 -0.71219357193E+03 -0.38446842517E+03  0.15198735634E+04  0.10100000352E+00 0. -1.
       -3    1    3    3    0  502  0.12864602538E+04  0.71219357193E+03 -0.87589948146E+02  0.14730484302E+04  0.10100000352E+00 0.  1.
</event>
<event>
 5   0  0.1734885E-06  0.2607788E+04  0.7818609E-02  0.8365561E-01
        1   -1    0    0  501    0  0.00000000000E+00  0.00000000000E+00  0.18525085868E+04  0.18525085868E+04  0.50400001928E-02 0.  1.
       -1   -1    0    0    0  501  0.00000000000E+00  0.00000000000E+00 -0.91774985008E+03  0.91774985009E+03  0.50400001928E-02 0. -1.
    10030    2    1    2    0    0  0.00000000000E+00  0.00000000000E+00  0.93475873668E+03  0.27702584369E+04  0.26077879345E+04 0.  0.
        2    1    3    3  502    0 -0.65033148109E+03 -0.87302125222E+03 -0.29499709326E+03  0.11278831620E+04  0.25500000920E-02 0.  1.
       -2    1    3    3    0  502  0.65033148109E+03  0.87302125222E+03  0.12297558299E+04  0.16423752748E+04  0.25500000920E-02 0. -1.
</event>
<event>
 5   0  0.4935331E-06  0.3014840E+04  0.7818609E-02  0.8239506E-01
       -2   -1    0    0    0  501  0.00000000000E+00  0.00000000000E+00  0.28891417615E+04  0.28891417615E+04  0.25500000920E-02 0.  1.
        2   -1    0    0  501    0  0.00000000000E+00  0.00000000000E+00 -0.78650190677E+03  0.78650190677E+03  0.25500000920E-02 0. -1.
    10030    2    1    2    0    0  0.00000000000E+00  0.00000000000E+00  0.21026398548E+04  0.36756436683E+04  0.30148402972E+04 0.  0.
        5    1    3    3  502    0 -0.73656350404E+03  0.64802722988E+03 -0.34400797978E+03  0.10396291004E+04  0.46999998093E+01 0. -1.
       -5    1    3    3    0  502  0.73656350404E+03 -0.64802722988E+03  0.24466478346E+04  0.26360145680E+04  0.46999998093E+01 0.  1.
</event>
<event>
 5   0  0.5003556E-06  0.2979517E+04  0.7818609E-02  0.8249604E-01
       -2   -1    0    0    0  501  0.00000000000E+00  0.00000000000E+00  0.75768587841E+03  0.75768587841E+03  0.25500000920E-02 0. -1.
        2   -1    0    0  501    0  0.00000000000E+00  0.00000000000E+00 -0.29291565766E+04  0.29291565766E+04  0.25500000920E-02 0.  1.
    10030    2    1    2    0    0  0.00000000000E+00  0.00000000000E+00 -0.21714706982E+04  0.36868424550E+04  0.29795171245E+04 0.  0.
        3    1    3    3  502    0  0.54305254507E+03  0.64966756716E+03 -0.26024449226E+04  0.27367304580E+04  0.10100000352E+00 0.  1.
       -3    1    3    3    0  502 -0.54305254507E+03 -0.64966756716E+03  0.43097422440E+03  0.95011199699E+03  0.10100000352E+00 0. -1.
</event>
<event>
 5   0  0.1700885E-06  0.3240139E+04  0.7818609E-02  0.8178296E-01
       -1   -1    0    0    0  501  0.00000000000E+00  0.00000000000E+00  0.17615938400E+04  0.17615938400E+04  0.50400001928E-02 0. -1.
        1   -1    0    0  501    0  0.00000000000E+00  0.00000000000E+00 -0.14899151227E+04  0.14899151227E+04  0.50400001928E-02 0.  1.
    10030    2    1    2    0    0  0.00000000000E+00  0.00000000000E+00  0.27167871729E+03  0.32515089627E+04  0.32401390725E+04 0.  0.
        1    1    3    3  502    0 -0.14342834722E+04 -0.74656240358E+03  0.34983945644E+02  0.16173275419E+04  0.50400001928E-02 0.  1.
       -1    1    3    3    0  502  0.14342834722E+04  0.74656240358E+03  0.23669477165E+03  0.16341814208E+04  0.50400001928E-02 0. -1.
</event>
<event>
 5   0  0.4532420E-06  0.3036511E+04  0.7818609E-02  0.8233381E-01
        2   -1    0    0  501    0  0.00000000000E+00  0.00000000000E+00  0.25026490600E+04  0.25026490600E+04  0.25500000920E-02 0. -1.
       -2   -1    0    0    0  501  0.00000000000E+00  0.00000000000E+00 -0.92106409506E+03  0.92106409507E+03  0.25500000920E-02 0.  1.
    10030    2    1    2    0    0  0.00000000000E+00  0.00000000000E+00  0.15815849649E+04  0.34237131550E+04  0.30365112822E+04 0.  0.
        4    1    3    3  502    0  0.84098117486E+03  0.88351990778E+03 -0.22849751466E+03  0.12409953630E+04  0.12699999809E+01 0.  1.
       -4    1    3    3    0  502 -0.84098117486E+03 -0.88351990778E+03  0.18100824796E+04  0.21827177920E+04  0.12699999809E+01 0. -1.
</event>
<event>
 5   0  0.4768570E-06  0.3006255E+04  0.7818609E-02  0.8241947E-01
        2   -1    0    0  501    0  0.00000000000E+00  0.00000000000E+00  0.14222737173E+04  0.14222737173E+04  0.25500000920E-02 0. -1.
       -2   -1    0    0    0  501  0.00000000000E+00  0.00000000000E+00 -0.15885773790E+04  0.15885773790E+04  0.25500000920E-02 0.  1.
    10030    2    1    2    0    0  0.00000000000E+00  0.00000000000E+00 -0.16630366170E+03  0.30108510963E+04  0.30062547158E+04 0.  0.
        1    1    3    3  502    0 -0.32197600798E+03 -0.10666510923E+04 -0.10936437836E+04  0.15612398367E+04  0.50400001928E-02 0. -1.
       -1    1    3    3    0  502  0.32197600798E+03  0.10666510923E+04  0.92734012186E+03  0.14496112596E+04  0.50400001928E-02 0.  1.
</event>
<event>
 5   0  0.5003556E-06  0.3013800E+04  0.7818609E-02  0.8239801E-01
        2   -1    0    0  501    0  0.00000000000E+00  0.00000000000E+00  0.17554158090E+04  0.17554158090E+04  0.25500000920E-02 0. -1.
       -2   -1    0    0    0  501  0.00000000000E+00  0.00000000000E+00 -0.12935672064E+04  0.12935672064E+04  0.25500000920E-02 0.  1.
    10030    2    1    2    0    0  0.00000000000E+00  0.00000000000E+00  0.46184860258E+03  0.30489830154E+04  0.30138004739E+04 0.  0.
        3    1    3    3  502    0 -0.88227008528E+03 -0.30059373086E+03  0.14288038633E+04  0.17059418467E+04  0.10100000352E+00 0. -1.
       -3    1    3    3    0  502  0.88227008528E+03  0.30059373086E+03 -0.96695526071E+03  0.13430411687E+04  0.10100000352E+00 0.  1.
</event>
<event>
 5   0  0.1672907E-06  0.2642938E+04  0.7818609E-02  0.8353761E-01
       -1   -1    0    0    0  501  0.00000000000E+00  0.00000000000E+00  0.11232449791E+04  0.11232449792E+04  0.50400001928E-02 0.  1.
        1   -1    0    0  501    0  0.00000000000E+00  0.00000000000E+00 -0.15546745357E+04  0.15546745357E+04  0.50400001928E-02 0. -1.
    10030    2    1    2    0    0  0.00000000000E+00  0.00000000000E+00 -0.43142955658E+03  0.26779195149E+04  0.26429380367E+04 0.  0.
        5    1    3    3  502    0 -0.10554298557E+04  0.75157131334E+03 -0.47889614342E+03  0.13813599189E+04  0.46999998093E+01 0. -1.
       -5    1    3    3    0  502  0.10554298557E+04 -0.75157131334E+03  0.47466586838E+02  0.12965595960E+04  0.46999998093E+01 0.  1.
</event>
<event>
 5   0  0.1734885E-06  0.3009320E+04  0.7818609E-02  0.8241075E-01
        1   -1    0    0  501    0  0.00000000000E+00  0.00000000000E+00  0.14779198585E+04  0.14779198585E+04  0.50400001928E-02 0. -1.
       -1   -1    0    0    0  501  0.00000000000E+00  0.00000000000E+00 -0.15318838886E+04  0.15318838886E+04  0.50400001928E-02 0.  1.
    10030    2    1    2    0    0  0.00000000000E+00  0.00000000000E+00 -0.53964030054E+02  0.30098037471E+04  0.30093199364E+04 0.  0.
        2    1    3    3  502    0 -0.43683560450E+03 -0.71594649371E+03  0.12224573512E+04  0.14825001527E+04  0.25500000920E-02 0. -1.
       -2    1    3    3    0  502  0.43683560450E+03  0.71594649371E+03 -0.12764213812E+04  0.15273035945E+04  0.25500000920E-02 0.  1.
</event>
<event>
 5   0  0.1709858E-06  0.3002619E+04  0.7818609E-02  0.8242984E-01
        1   -1    0    0  501    0  0.00000000000E+00  0.00000000000E+00  0.16173512460E+04  0.16173512460E+04  0.50400001928E-02 0.  1.
       -1   -1    0    0    0  501  0.00000000000E+00  0.00000000000E+00 -0.13935931461E+04  0.13935931461E+04  0.50400001928E-02 0. -1.
    10030    2    1    2    0    0  0.00000000000E+00  0.00000000000E+00  0.22375809986E+03  0.30109443921E+04  0.30026185980E+04 0.  0.
        3    1    3    3  502    0 -0.11497742361E+04 -0.16898551830E+03 -0.84122618164E+03  0.14346422544E+04  0.10100000352E+00 0. -1.
       -3    1    3    3    0  502  0.11497742361E+04  0.16898551830E+03  0.10649842815E+04  0.15763021377E+04  0.10100000352E+00 0.  1.
</event>
<event>
 5   0  0.4702748E-06  0.2991379E+04  0.7818609E-02  0.8246197E-01
       -2   -1    0    0    0  501  0.00000000000E+00  0.00000000000E+00  0.14420119491E+04  0.14420119491E+04  0.25500000920E-02 0. -1.
        2   -1    0    0  501    0  0.00000000000E+00  0.00000000000E+00 -0.15513647380E+04  0.15513647380E+04  0.25500000920E-02 0.  1.
    10030    2    1    2    0    0  0.00000000000E+00  0.00000000000E+00 -0.10935278889E+03  0.29933766871E+04  0.29913786050E+04 0.  0.
        2    1    3    3  502    0 -0.14811123517E+04 -0.17517893552E+03 -0.16746828315E+03  0.15008088098E+04  0.25500000920E-02 0.  1.
       -2    1    3    3    0  502  0.14811123517E+04  0.17517893552E+03  0.58115494259E+02  0.14925678773E+04  0.25500000920E-02 0. -1.
</event>
<event>
 5   0  0.4532420E-06  0.2990227E+04  0.7818609E-02  0.8246527E-01
        2   -1    0    0  501    0  0.00000000000E+00  0.00000000000E+00  0.16364043150E+04  0.16364043150E+04  0.25500000920E-02 0.  1.
       -2   -1    0    0    0  501  0.00000000000E+00  0.00000000000E+00 -0.13660217683E+04  0.13660217683E+04  0.25500000920E-02 0. -1.
    10030    2    1    2    0    0  0.00000000000E+00  0.00000000000E+00  0.27038254672E+03  0.30024260833E+04  0.29902266911E+04 0.  0.
        4    1    3    3  502    0  0.53729420168E+03  0.13913223426E+04  0.30365236982E+02  0.14917729656E+04  0.12699999809E+01 0.  1.
       -4    1    3    3    0  502 -0.53729420168E+03 -0.13913223426E+04  0.24001730973E+03  0.15106531177E+04  0.12699999809E+01 0. -1.
</event>
<event>
 5   0  0.1734885E-06  0.2991876E+04  0.7818609E-02  0.8246055E-01
        1   -1    0    0  501    0  0.00000000000E+00  0.00000000000E+00  0.78195992420E+03  0.78195992422E+03  0.50400001928E-02 0. -1.
       -1   -1    0    0    0  501  0.00000000000E+00  0.00000000000E+00 -0.28618224417E+04  0.28618224417E+04  0.50400001928E-02 0.  1.
    10030    2    1    2    0    0  0.00000000000E+00  0.00000000000E+00 -0.20798625175E+04  0.36437823659E+04  0.29918759731E+04 0.  0.
        2    1    3    3  502    0 -0.14531662296E+04  0.31742071145E+03 -0.84589821140E+03  0.17111375699E+04  0.25500000920E-02 0. -1.
       -2    1    3    3    0  502  0.14531662296E+04 -0.31742071145E+03 -0.12339643061E+04  0.19326447960E+04  0.25500000920E-02 0.  1.
</event>
<event>
 5   0  0.1672907E-06  0.3008166E+04  0.7818609E-02  0.8241403E-01
        1   -1    0    0  501    0  0.00000000000E+00  0.00000000000E+00  0.16801916915E+04  0.16801916915E+04  0.50400001928E-02 0. -1.
       -1   -1    0    0    0  501  0.00000000000E+00  0.00000000000E+00 -0.13464326607E+04  0.13464326607E+04  0.50400001928E-02 0.  1.
    10030    2    1    2    0    0  0.00000000000E+00  0.00000000000E+00  0.33375903085E+03  0.30266243522E+04  0.30081655338E+04 0.  0.
        5    1    3    3  502    0 -0.53519769266E+03  0.69146093852E+03  0.13981897171E+04  0.16490941073E+04  0.46999998093E+01 0. -1.
       -5    1    3    3    0  502  0.53519769266E+03 -0.69146093852E+03 -0.10644306863E+04  0.13775302449E+04  0.46999998093E+01 0.  1.
</event>
<event>
 5   0  0.1734885E-06  0.2915954E+04  0.7818609E-02  0.8268147E-01
        1   -1    0    0  501    0  0.00000000000E+00  0.00000000000E+00  0.15708424661E+04  0.15708424661E+04  0.50400001928E-02 0.  1.
       -1   -1    0    0    0  501  0.00000000000E+00  0.00000000000E+00 -0.13532208662E+04  0.13532208662E+04  0.50400001928E-02 0. -1.
    10030    2    1    2    0    0  0.00000000000E+00  0.00000000000E+00  0.21762159990E+03  0.29240633323E+04  0.29159539109E+04 0.  0.
        2    1    3    3  502    0 -0.56890516387E+03  0.32892824175E+02  0.14545421429E+04  0.15621868867E+04  0.25500000920E-02 0.  1.
       -2    1    3    3    0  502  0.56890516387E+03 -0.32892824175E+02 -0.12369205430E+04  0.13618764456E+04  0.25500000920E-02 0. -1.
</event>
<event>
 5   0  0.4702748E-06  0.2933682E+04  0.7818609E-02  0.8262926E-01
       -2   -1    0    0    0  501  0.00000000000E+00  0.00000000000E+00  0.10616693685E+04  0.10616693685E+04  0.25500000920E-02 0. -1.
        2   -1    0    0  501    0  0.00000000000E+00  0.00000000000E+00 -0.20266406899E+04  0.20266406899E+04  0.25500000920E-02 0.  1.
    10030    2    1    2    0    0  0.00000000000E+00  0.00000000000E+00 -0.96497132142E+03  0.30883100584E+04  0.29336818787E+04 0.  0.
        2    1    3    3  502    0  0.13934779095E+04  0.29036113741E+03 -0.85546537977E+03  0.16606960259E+04  0.25500000920E-02 0.  1.
       -2    1    3    3    0  502 -0.13934779095E+04 -0.29036113741E+03 -0.10950594165E+03  0.14276140325E+04  0.25500000920E-02 0. -1.
</event>
<event>
 5   0  0.5003556E-06  0.3013375E+04  0.7818609E-02  0.8239922E-01
       -2   -1    0    0    0  501  0.00000000000E+00  0.00000000000E+00  0.11176034462E+04  0.11176034462E+04  0.25500000920E-02 0.  1.
        2   -1    0    0  501    0  0.00000000000E+00  0.00000000000E+00 -0.20312283919E+04  0.20312283919E+04  0.25500000920E-02 0. -1.
    10030    2    1    2    0    0  0.00000000000E+00  0.00000000000E+00 -0.91362494571E+03  0.31488318382E+04  0.30133754170E+04 0.  0.
        3    1    3    3  502    0 -0.13292319984E+03  0.13127580723E+04 -0.12169065841E+04  0.17949551466E+04  0.10100000352E+00 0. -1.
       -3    1    3    3    0  502  0.13292319984E+03 -0.13127580723E+04  0.30328163842E+03  0.13538766916E+04  0.10100000352E+00 0.  1.
</event>
<event>
 5   0  0.4702748E-06  0.3176224E+04  0.7818609E-02  0.8195125E-01
        2   -1    0    0  501    0  0.00000000000E+00  0.00000000000E+00  0.28938082662E+04  0.28938082662E+04  0.25500000920E-02 0. -1.
       -2   -1    0    0    0  501  0.00000000000E+00  0.00000000000E+00 -0.87155055791E+03  0.87155055791E+03  0.25500000920E-02 0.  1.
    10030    2    1    2    0    0  0.00000000000E+00  0.00000000000E+00  0.20222577083E+04  0.37653588241E+04  0.31762243050E+04 0.  0.
        2    1    3    3  502    0  0.99896650669E+03  0.83081491420E+03 -0.71439929433E+02  0.13012652177E+04  0.25500000920E-02 0.  1.
       -2    1    3    3    0  502 -0.99896650669E+03 -0.83081491420E+03  0.20936976377E+04  0.24640936064E+04  0.25500000920E-02 0. -1.
</event>
<event>
 5   0  0.1709858E-06  0.2986557E+04  0.7818609E-02  0.8247580E-01
        1   -1    0    0  501    0  0.00000000000E+00  0.00000000000E+00  0.20781926560E+04  0.20781926560E+04  0.50400001928E-02 0. -1.
       -1   -1    0    0    0  501  0.00000000000E+00  0.00000000000E+00 -0.10729905994E+04  0.10729905994E+04  0.50400001928E-02 0.  1.
    10030    2    1    2    0    0  0.00000000000E+00  0.00000000000E+00  0.10052020566E+04  0.31511832555E+04  0.29865573383E+04 0.  0.
        3    1    3    3  502    0 -0.90574135178E+03 -0.79229663921E+02  0.17524807721E+04  0.19742931906E+04  0.10100000352E+00 0. -1.
       -3    1    3    3    0  502  0.90574135178E+03  0.79229663921E+02 -0.74727871544E+03  0.11768900648E+04  0.10100000352E+00 0.  1.
</event>
<event>
 5   0  0.1672907E-06  0.2950757E+04  0.7818609E-02  0.8257934E-01
        1   -1    0    0  501    0  0.00000000000E+00  0.00000000000E+00  0.24414576123E+04  0.24414576123E+04  0.50400001928E-02 0. -1.
       -1   -1    0    0    0  501  0.00000000000E+00  0.00000000000E+00 -0.89157446775E+03  0.89157446776E+03  0.50400001928E-02 0.  1.
    10030    2    1    2    0    0  0.00000000000E+00  0.00000000000E+00  0.15498831446E+04  0.33330320801E+04  0.29507566970E+04 0.  0.
        5    1    3    3  502    0  0.37725703376E+03 -0.77277845321E+03  0.21290896990E+04  0.22962043558E+04  0.46999998093E+01 0. -1.
       -5    1    3    3    0  502 -0.37725703376E+03  0.77277845321E+03 -0.57920655439E+03  0.10368277243E+04  0.46999998093E+01 0.  1.
</event>
<event>
 5   0  0.4935331E-06  0.3062211E+04  0.7818609E-02  0.8226186E-01
        2   -1    0    0  501    0  0.00000000000E+00  0.00000000000E+00  0.17821895479E+04  0.17821895479E+04  0.25500000920E-02 0. -1.
       -2   -1    0    0    0  501  0.00000000000E+00  0.00000000000E+00 -0.13153954955E+04  0.13153954955E+04  0.25500000920E-02 0.  1.
    10030    2    1    2    0    0  0.00000000000E+00  0.00000000000E+00  0.46679405246E+03  0.30975850434E+04  0.30622110335E+04 0.  0.
        5    1    3    3  502    0 -0.47970483656E+03 -0.78279315054E+03  0.14728597181E+04  0.17355747423E+04  0.46999998093E+01 0. -1.
       -5    1    3    3    0  502  0.47970483656E+03  0.78279315054E+03 -0.10060656657E+04  0.13620103011E+04  0.46999998093E+01 0.  1.
</event>
<event>
 5   0  0.1672907E-06  0.2992648E+04  0.7818609E-02  0.8245833E-01
       -1   -1    0    0    0  501  0.00000000000E+00  0.00000000000E+00  0.87888545853E+03  0.87888545854E+03  0.50400001928E-02 0.  1.
        1   -1    0    0  501    0  0.00000000000E+00  0.00000000000E+00 -0.25475290102E+04  0.25475290102E+04  0.50400001928E-02 0. -1.
    10030    2    1    2    0    0  0.00000000000E+00  0.00000000000E+00 -0.16686435517E+04  0.34264144687E+04  0.29926484607E+04 0.  0.
        5    1    3    3  502    0  0.12147635855E+04 -0.29086069653E+03  0.10892964147E+03  0.12538493810E+04  0.46999998093E+01 0. -1.
       -5    1    3    3    0  502 -0.12147635855E+04  0.29086069653E+03 -0.17775731931E+04  0.21725650877E+04  0.46999998093E+01 0.  1.
</event>
<event>
 5   0  0.1734885E-06  0.2981711E+04  0.7818609E-02  0.8248973E-01
        1   -1    0    0  501    0  0.00000000000E+00  0.00000000000E+00  0.30520702209E+04  0.30520702209E+04  0.50400001928E-02 0. -1.
       -1   -1    0    0    0  501  0.00000000000E+00  0.00000000000E+00 -0.72824356876E+03  0.72824356878E+03  0.50400001928E-02 0.  1.
    10030    2    1    2    0    0  0.00000000000E+00  0.00000000000E+00  0.23238266522E+04  0.37803137897E+04  0.29817112602E+04 0.  0.
        2    1    3    3  502    0 -0.75472412445E+03  0.11528291250E+04  0.18836069606E+04  0.23337949090E+04  0.25500000920E-02 0. -1.
       -2    1    3    3    0  502  0.75472412445E+03 -0.11528291250E+04  0.44021969159E+03  0.14465188807E+04  0.25500000920E-02 0.  1.
</event>
<event>
 5   0  0.4935331E-06  0.3024614E+04  0.7818609E-02  0.8236737E-01
       -2   -1    0    0    0  501  0.00000000000E+00  0.00000000000E+00  0.11622527700E+04  0.11622527700E+04  0.25500000920E-02 0.  1.
        2   -1    0    0  501    0  0.00000000000E+00  0.00000000000E+00 -0.19677931224E+04  0.19677931224E+04  0.25500000920E-02 0. -1.
    10030    2    1    2    0    0  0.00000000000E+00  0.00000000000E+00 -0.80554035243E+03  0.31300458924E+04  0.30246143604E+04 0.  0.
        5    1    3    3  502    0 -0.14967023524E+04  0.20850432514E+03 -0.34190740788E+03  0.15493594647E+04  0.46999998093E+01 0.  1.
       -5    1    3    3    0  502  0.14967023524E+04 -0.20850432514E+03 -0.46363294455E+03  0.15806864277E+04  0.46999998093E+01 0. -1.
</event>
<event>
 5   0  0.1700885E-06  0.2963063E+04  0.7818609E-02  0.8254358E-01
        1   -1    0    0  501    0  0.00000000000E+00  0.00000000000E+00  0.10471315649E+04  0.10471315649E+04  0.50400001928E-02 0. -1.
       -1   -1    0    0    0  501  0.00000000000E+00  0.00000000000E+00 -0.20961415254E+04  0.20961415254E+04  0.50400001928E-02 0.  1.
    10030    2    1    2    0    0  0.00000000000E+00  0.00000000000E+00 -0.10490099605E+04  0.31432730902E+04  0.29630632499E+04 0.  0.
        1    1    3    3  502    0 -0.80778453631E+03 -0.10640844999E+04  0.15486995441E+03  0.13449075741E+04  0.50400001928E-02 0. -1.
       -1    1    3    3    0  502  0.80778453631E+03  0.10640844999E+04 -0.12038799149E+04  0.17983655161E+04  0.50400001928E-02 0.  1.
</event>
<event>
 5   0  0.5003556E-06  0.3155954E+04  0.7818609E-02  0.8200548E-01
       -2   -1    0    0    0  501  0.00000000000E+00  0.00000000000E+00  0.31160863979E+04  0.31160863979E+04  0.25500000920E-02 0.  1.
        2   -1    0    0  501    0  0.00000000000E+00  0.00000000000E+00 -0.79908270859E+03  0.79908270860E+03  0.25500000920E-02 0. -1.
    10030    2    1    2    0    0  0.00000000000E+00  0.00000000000E+00  0.23170036893E+04  0.39151691065E+04  0.31559535859E+04 0.  0.
        3    1    3    3  502    0 -0.14296233146E+04  0.29934353177E+03  0.41770479067E+03  0.15191796056E+04  0.10100000352E+00 0. -1.
       -3    1    3    3    0  502  0.14296233146E+04 -0.29934353177E+03  0.18992988986E+04  0.23959895009E+04  0.10100000352E+00 0.  1.
</event>
<event>
 5   0  0.4768570E-06  0.2823413E+04  0.7818609E-02  0.8296036E-01
       -2   -1    0    0    0  501  0.00000000000E+00  0.00000000000E+00  0.14394250626E+04  0.14394250626E+04  0.25500000920E-02 0.  1.
        2   -1    0    0  501    0  0.00000000000E+00  0.00000000000E+00 -0.13845216845E+04  0.13845216845E+04  0.25500000920E-02 0. -1.
    10030    2    1    2    0    0  0.00000000000E+00  0.00000000000E+00  0.54903378104E+02  0.28239467472E+04  0.28234129790E+04 0.  0.
        1    1    3    3  502    0  0.72376813020E+03 -0.60257521252E+02 -0.11833323859E+04  0.13884332215E+04  0.50400001928E-02 0. -1.
       -1    1    3    3    0  502 -0.72376813020E+03  0.60257521252E+02  0.12382357640E+04  0.14355135257E+04  0.50400001928E-02 0.  1.
</event>
<event>
 5   0  0.5003556E-06  0.2972182E+04  0.7818609E-02  0.8251719E-01
       -2   -1    0    0    0  501  0.00000000000E+00  0.00000000000E+00  0.85265533787E+03  0.85265533788E+03  0.25500000920E-02 0.  1.
        2   -1    0    0  501    0  0.00000000000E+00  0.00000000000E+00 -0.25901040571E+04  0.25901040571E+04  0.25500000920E-02 0. -1.
    10030    2    1    2    0    0  0.00000000000E+00  0.00000000000E+00 -0.17374487193E+04  0.34427593950E+04  0.29721817239E+04 0.  0.
        3    1    3    3  502    0  0.80652515357E+03 -0.23435411051E+03  0.55137806516E+03  0.10047001809E+04  0.10100000352E+00 0.  1.
       -3    1    3    3    0  502 -0.80652515357E+03  0.23435411051E+03 -0.22888267844E+04  0.24380592142E+04  0.10100000352E+00 0. -1.
</event>
<event>
 5   0  0.1734885E-06  0.3008188E+04  0.7818609E-02  0.8241397E-01
       -1   -1    0    0    0  501  0.00000000000E+00  0.00000000000E+00  0.12458946020E+04  0.12458946020E+04  0.50400001928E-02 0.  1.
        1   -1    0    0  501    0  0.00000000000E+00  0.00000000000E+00 -0.18158031363E+04  0.18158031363E+04  0.50400001928E-02 0. -1.
    10030    2    1    2    0    0  0.00000000000E+00  0.00000000000E+00 -0.56990853431E+03  0.30616977383E+04  0.30081883756E+04 0.  0.
        2    1    3    3  502    0 -0.25824136104E+03 -0.53295164533E+03 -0.16921443283E+04  0.17927851195E+04  0.25500000920E-02 0. -1.
       -2    1    3    3    0  502  0.25824136104E+03  0.53295164533E+03  0.11222357940E+04  0.12689126188E+04  0.25500000920E-02 0.  1.
</event>
<event>
 5   0  0.4532420E-06  0.2994721E+04  0.7818609E-02  0.8245240E-01
        2   -1    0    0  501    0  0.00000000000E+00  0.00000000000E+00  0.13646348238E+04  0.13646348238E+04  0.25500000920E-02 0. -1.
       -2   -1    0    0    0  501  0.00000000000E+00  0.00000000000E+00 -0.16429948731E+04  0.16429948731E+04  0.25500000920E-02 0.  1.
    10030    2    1    2    0    0  0.00000000000E+00  0.00000000000E+00 -0.27836004925E+03  0.30076296969E+04  0.29947207010E+04 0.  0.
        4    1    3    3  502    0 -0.97640735890E+03  0.77174464050E+03  0.69695017733E+03  0.14264299083E+04  0.12699999809E+01 0. -1.
       -4    1    3    3    0  502  0.97640735890E+03 -0.77174464050E+03 -0.97531022658E+03  0.15811997887E+04  0.12699999809E+01 0.  1.
</event>
<event>
 5   0  0.1672907E-06  0.2899594E+04  0.7818609E-02  0.8272998E-01
        1   -1    0    0  501    0  0.00000000000E+00  0.00000000000E+00  0.19428301511E+04  0.19428301511E+04  0.50400001928E-02 0.  1.
       -1   -1    0    0    0  501  0.00000000000E+00  0.00000000000E+00 -0.10818811834E+04  0.10818811834E+04  0.50400001928E-02 0. -1.
    10030    2    1    2    0    0  0.00000000000E+00  0.00000000000E+00  0.86094896763E+03  0.30247113345E+04  0.28995940289E+04 0.  0.
        5    1    3    3  502    0  0.92753931588E+02 -0.44665639354E+03  0.18660034702E+04  0.19209623282E+04  0.46999998093E+01 0.  1.
       -5    1    3    3    0  502 -0.92753931588E+02  0.44665639354E+03 -0.10050545026E+04  0.11037490063E+04  0.46999998093E+01 0. -1.
</event>
<event>
 5   0  0.1734885E-06  0.3004477E+04  0.7818609E-02  0.8242454E-01
        1   -1    0    0  501    0  0.00000000000E+00  0.00000000000E+00  0.11889941922E+04  0.11889941922E+04  0.50400001928E-02 0. -1.
       -1   -1    0    0    0  501  0.00000000000E+00  0.00000000000E+00 -0.18980083539E+04  0.18980083539E+04  0.50400001928E-02 0.  1.
    10030    2    1    2    0    0  0.00000000000E+00  0.00000000000E+00 -0.70901416169E+03  0.30870025461E+04  0.30044772654E+04 0.  0.
        2    1    3    3  502    0 -0.17357124789E+03 -0.25962441325E+03  0.11552720039E+04  0.11967394107E+04  0.25500000920E-02 0. -1.
       -2    1    3    3    0  502  0.17357124789E+03  0.25962441325E+03 -0.18642861656E+04  0.18902631354E+04  0.25500000920E-02 0.  1.
</event>
<event>
 5   0  0.1734885E-06  0.2963206E+04  0.7818609E-02  0.8254316E-01
        1   -1    0    0  501    0  0.00000000000E+00  0.00000000000E+00  0.14226962615E+04  0.14226962615E+04  0.50400001928E-02 0. -1.
       -1   -1    0    0    0  501  0.00000000000E+00  0.00000000000E+00 -0.15429483326E+04  0.15429483326E+04  0.50400001928E-02 0.  1.
    10030    2    1    2    0    0  0.00000000000E+00  0.00000000000E+00 -0.12025207106E+03  0.29656445941E+04  0.29632055781E+04 0.  0.
        2    1    3    3  502    0  0.85483358167E+02  0.51553480682E+03 -0.14476521390E+04  0.15390842267E+04  0.25500000920E-02 0.  1.
       -2    1    3    3    0  502 -0.85483358167E+02 -0.51553480682E+03  0.13274000679E+04  0.14265603674E+04  0.25500000920E-02 0. -1.
</event>
<event>
 5   0  0.1709858E-06  0.2970648E+04  0.7818609E-02  0.8252163E-01
        1   -1    0    0  501    0  0.00000000000E+00  0.00000000000E+00  0.14778179283E+04  0.14778179284E+04  0.50400001928E-02 0. -1.
       -1   -1    0    0    0  501  0.00000000000E+00  0.00000000000E+00 -0.14928680929E+04  0.14928680929E+04  0.50400001928E-02 0.  1.
    10030    2    1    2    0    0  0.00000000000E+00  0.00000000000E+00 -0.15050164539E+02  0.29706860213E+04  0.29706478972E+04 0.  0.
        3    1    3    3  502    0 -0.14518935031E+04 -0.31193750014E+03 -0.37315963419E+02  0.14854939379E+04  0.10100000352E+00 0.  1.
       -3    1    3    3    0  502  0.14518935031E+04  0.31193750014E+03  0.22265798880E+02  0.14851920833E+04  0.10100000352E+00 0. -1.
</event>
<event>
 5   0  0.1672907E-06  0.2705343E+04  0.7818609E-02  0.8333273E-01
        1   -1    0    0  501    0  0.00000000000E+00  0.00000000000E+00  0.14295797784E+04  0.14295797784E+04  0.50400001928E-02 0.  1.
       -1   -1    0    0    0  501  0.00000000000E+00  0.00000000000E+00 -0.12799009149E+04  0.12799009150E+04  0.50400001928E-02 0. -1.
    10030    2    1    2    0    0  0.00000000000E+00  0.00000000000E+00  0.14967886348E+03  0.27094806934E+04  0.27053432066E+04 0.  0.
        5    1    3    3  502    0 -0.30896874346E+03  0.72594040611E+03 -0.10255889904E+04  0.12939497768E+04  0.46999998093E+01 0. -1.
       -5    1    3    3    0  502  0.30896874346E+03 -0.72594040611E+03  0.11752678538E+04  0.14155309166E+04  0.46999998093E+01 0.  1.
</event>
<event>
 5   0  0.4935331E-06  0.3003222E+04  0.7818609E-02  0.8242811E-01
        2   -1    0    0  501    0  0.00000000000E+00  0.00000000000E+00  0.24398987527E+04  0.24398987527E+04  0.25500000920E-02 0.  1.
       -2   -1    0    0    0  501  0.00000000000E+00  0.00000000000E+00 -0.92415143349E+03  0.92415143350E+03  0.25500000920E-02 0. -1.
    10030    2    1    2    0    0  0.00000000000E+00  0.00000000000E+00  0.15157473192E+04  0.33640501862E+04  0.30032222228E+04 0.  0.
        5    1    3    3  502    0  0.70607666049E+03  0.12409407977E+04  0.23687222486E+03  0.14472763574E+04  0.46999998093E+01 0. -1.
       -5    1    3    3    0  502 -0.70607666049E+03 -0.12409407977E+04  0.12788750943E+04  0.19167738288E+04  0.46999998093E+01 0.  1.
</event>
<event>
 5   0  0.1709858E-06  0.3012061E+04  0.7818609E-02  0.8240295E-01
        1   -1    0    0  501    0  0.00000000000E+00  0.00000000000E+00  0.30312355856E+04  0.30312355856E+04  0.50400001928E-02 0.  1.
       -1   -1    0    0    0  501  0.00000000000E+00  0.00000000000E+00 -0.74825181530E+03  0.74825181531E+03  0.50400001928E-02 0. -1.
    10030    2    1    2    0    0  0.00000000000E+00  0.00000000000E+00  0.22829837703E+04  0.37794874009E+04  0.30120607760E+04 0.  0.
        3    1    3    3  502    0 -0.10251518863E+04 -0.63360469004E+03  0.81940843320E+01  0.12051798399E+04  0.10100000352E+00 0. -1.
       -3    1    3    3    0  502  0.10251518863E+04  0.63360469004E+03  0.22747896859E+04  0.25743075610E+04  0.10100000352E+00 0.  1.
</event>
<event>
 5   0  0.1672907E-06  0.2992070E+04  0.7818609E-02  0.8245999E-01
       -1   -1    0    0    0  501  0.00000000000E+00  0.00000000000E+00  0.19491248387E+04  0.19491248387E+04  0.50400001928E-02 0.  1.
        1   -1    0    0  501    0  0.00000000000E+00  0.00000000000E+00 -0.11482695294E+04  0.11482695295E+04  0.50400001928E-02 0. -1.
    10030    2    1    2    0    0  0.00000000000E+00  0.00000000000E+00  0.80085530926E+03  0.30973943682E+04  0.29920699600E+04 0.  0.
        5    1    3    3  502    0 -0.14906647866E+04 -0.86975966530E+02  0.49560001480E+03  0.15733047351E+04  0.46999998093E+01 0. -1.
       -5    1    3    3    0  502  0.14906647866E+04  0.86975966530E+02  0.30525529446E+03  0.15240896331E+04  0.46999998093E+01 0.  1.
</event>
<event>
 5   0  0.1686012E-06  0.2938063E+04  0.7818609E-02  0.8261642E-01
       -1   -1    0    0    0  501  0.00000000000E+00  0.00000000000E+00  0.18020846013E+04  0.18020846013E+04  0.50400001928E-02 0.  1.
        1   -1    0    0  501    0  0.00000000000E+00  0.00000000000E+00 -0.11975316448E+04  0.11975316449E+04  0.50400001928E-02 0. -1.
    10030    2    1    2    0    0  0.00000000000E+00  0.00000000000E+00  0.60455295646E+03  0.29996162462E+04  0.29380628562E+04 0.  0.
        4    1    3    3  502    0 -0.11291036630E+04  0.92499885107E+03  0.47174736804E+03  0.15339638680E+04  0.12699999809E+01 0.  1.
       -4    1    3    3    0  502  0.11291036630E+04 -0.92499885107E+03  0.13280558842E+03  0.14656523781E+04  0.12699999809E+01 0. -1.
</event>
<event>
 5   0  0.1734885E-06  0.2974027E+04  0.7818609E-02  0.8251187E-01
        1   -1    0    0  501    0  0.00000000000E+00  0.00000000000E+00  0.19411350785E+04  0.19411350785E+04  0.50400001928E-02 0. -1.
       -1   -1    0    0    0  501  0.00000000000E+00  0.00000000000E+00 -0.11391321313E+04  0.11391321313E+04  0.50400001928E-02 0.  1.
    10030    2    1    2    0    0  0.00000000000E+00  0.00000000000E+00  0.80200294719E+03  0.30802672098E+04  0.29740271277E+04 0.  0.
        2    1    3    3  502    0 -0.12143776426E+03  0.99361146250E+03  0.15399189616E+04  0.18366712491E+04  0.25500000920E-02 0. -1.
       -2    1    3    3    0  502  0.12143776426E+03 -0.99361146250E+03 -0.73791601445E+03  0.12435959607E+04  0.25500000920E-02 0.  1.
</event>
<event>
 5   0  0.4702748E-06  0.2987098E+04  0.7818609E-02  0.8247425E-01
        2   -1    0    0  501    0  0.00000000000E+00  0.00000000000E+00  0.20972485290E+04  0.20972485290E+04  0.25500000920E-02 0.  1.
       -2   -1    0    0    0  501  0.00000000000E+00  0.00000000000E+00 -0.10636264060E+04  0.10636264060E+04  0.25500000920E-02 0. -1.
    10030    2    1    2    0    0  0.00000000000E+00  0.00000000000E+00  0.10336221230E+04  0.31608749350E+04  0.29870982009E+04 0.  0.
        2    1    3    3  502    0 -0.15280456758E+03  0.12835519292E+04  0.13085600113E+04  0.18393433867E+04  0.25500000920E-02 0.  1.
       -2    1    3    3    0  502  0.15280456758E+03 -0.12835519292E+04 -0.27493788836E+03  0.13215315484E+04  0.25500000920E-02 0. -1.
</event>
<event>
 5   0  0.5003556E-06  0.3007274E+04  0.7818609E-02  0.8241657E-01
        2   -1    0    0  501    0  0.00000000000E+00  0.00000000000E+00  0.12113810142E+04  0.12113810142E+04  0.25500000920E-02 0.  1.
       -2   -1    0    0    0  501  0.00000000000E+00  0.00000000000E+00 -0.18664027881E+04  0.18664027881E+04  0.25500000920E-02 0. -1.
    10030    2    1    2    0    0  0.00000000000E+00  0.00000000000E+00 -0.65502177391E+03  0.30777838022E+04  0.30072744486E+04 0.  0.
        3    1    3    3  502    0  0.12584933015E+04  0.43191440778E+03 -0.10443394358E+04  0.16914491754E+04  0.10100000352E+00 0. -1.
       -3    1    3    3    0  502 -0.12584933015E+04 -0.43191440778E+03  0.38931766184E+03  0.13863346269E+04  0.10100000352E+00 0.  1.
</event>
<event>
 5   0  0.4532420E-06  0.2994425E+04  0.7818609E-02  0.8245325E-01
        2   -1    0    0  501    0  0.00000000000E+00  0.00000000000E+00  0.21170006863E+04  0.21170006863E+04  0.25500000920E-02 0. -1.
       -2   -1    0    0    0  501  0.00000000000E+00  0.00000000000E+00 -0.10588778250E+04  0.10588778251E+04  0.25500000920E-02 0.  1.
    10030    2    1    2    0    0  0.00000000000E+00  0.00000000000E+00  0.10581228612E+04  0.31758785113E+04  0.29944248745E+04 0.  0.
        4    1    3    3  502    0  0.13415469167E+04 -0.10681516314E+03  0.12249343002E+04  0.18197865978E+04  0.12699999809E+01 0. -1.
       -4    1    3    3    0  502 -0.13415469167E+04  0.10681516314E+03 -0.16681143896E+03  0.13560919135E+04  0.12699999809E+01 0.  1.
</event>
<event>
 5   0  0.1672907E-06  0.3034574E+04  0.7818609E-02  0.8233926E-01
       -1   -1    0    0    0  501  0.00000000000E+00  0.00000000000E+00  0.20611695804E+04  0.20611695804E+04  0.50400001928E-02 0.  1.
        1   -1    0    0  501    0  0.00000000000E+00  0.00000000000E+00 -0.11169191436E+04  0.11169191437E+04  0.50400001928E-02 0. -1.
    10030    2    1    2    0    0  0.00000000000E+00  0.00000000000E+00  0.94425043672E+03  0.31780887240E+04  0.30345739488E+04 0.  0.
        5    1    3    3  502    0  0.20571837832E+03 -0.11417316653E+04  0.14962614867E+04  0.18933282265E+04  0.46999998093E+01 0.  1.
       -5    1    3    3    0  502 -0.20571837832E+03  0.11417316653E+04 -0.55201105000E+03  0.12847604975E+04  0.46999998093E+01 0. -1.
</event>
<event>
 5   0  0.4768570E-06  0.3003706E+04  0.7818609E-02  0.8242673E-01
       -2   -1    0    0    0  501  0.00000000000E+00  0.00000000000E+00  0.18409138336E+04  0.18409138336E+04  0.25500000920E-02 0. -1.
        2   -1    0    0  501    0  0.00000000000E+00  0.00000000000E+00 -0.12252405558E+04  0.12252405558E+04  0.25500000920E-02 0.  1.
    10030    2    1    2    0    0  0.00000000000E+00  0.00000000000E+00  0.61567327772E+03  0.30661543894E+04  0.30037059035E+04 0.  0.
        1    1    3    3  502    0 -0.14449854366E+04 -0.40595097872E+03  0.25398397125E+03  0.15222637639E+04  0.50400001928E-02 0.  1.
       -1    1    3    3    0  502  0.14449854366E+04  0.40595097872E+03  0.36168930647E+03  0.15438906255E+04  0.50400001928E-02 0. -1.
</event>
<event>
 5   0  0.4935331E-06  0.2996995E+04  0.7818609E-02  0.8244589E-01
        2   -1    0    0  501    0  0.00000000000E+00  0.00000000000E+00  0.15040912303E+04  0.15040912303E+04  0.25500000920E-02 0.  1.
       -2   -1    0    0    0  501  0.00000000000E+00  0.00000000000E+00 -0.14929247136E+04  0.14929247137E+04  0.25500000920E-02 0. -1.
    10030    2    1    2    0    0  0.00000000000E+00  0.00000000000E+00  0.11166516663E+02  0.29970159440E+04  0.29969951414E+04 0.  0.
        5    1    3    3  502    0  0.78029018647E+02 -0.89056857268E+03  0.12082020868E+04  0.15029887834E+04  0.46999998093E+01 0.  1.
       -5    1    3    3    0  502 -0.78029018647E+02  0.89056857268E+03 -0.11970355701E+04  0.14940271606E+04  0.46999998093E+01 0. -1.
</event>
<event>
 5   0  0.1686012E-06  0.2995464E+04  0.7818609E-02  0.8245027E-01
        1   -1    0    0  501    0  0.00000000000E+00  0.00000000000E+00  0.20127955791E+04  0.20127955791E+04  0.50400001928E-02 0.  1.
       -1   -1    0    0    0  501  0.00000000000E+00  0.00000000000E+00 -0.11144707954E+04  0.11144707954E+04  0.50400001928E-02 0. -1.
    10030    2    1    2    0    0  0.00000000000E+00  0.00000000000E+00  0.89832478373E+03  0.31272663745E+04  0.29954644982E+04 0.  0.
        4    1    3    3  502    0  0.47217222615E+03 -0.82990341584E+03  0.16538475637E+04  0.19096857510E+04  0.12699999809E+01 0.  1.
       -4    1    3    3    0  502 -0.47217222615E+03  0.82990341584E+03 -0.75552277998E+03  0.12175806235E+04  0.12699999809E+01 0. -1.
</event>
<event>
 5   0  0.1734885E-06  0.3032790E+04  0.7818609E-02  0.8234429E-01
        1   -1    0    0  501    0  0.00000000000E+00  0.00000000000E+00  0.15207965445E+04  0.15207965445E+04  0.50400001928E-02 0.  1.
       -1   -1    0    0    0  501  0.00000000000E+00  0.00000000000E+00 -0.15120065399E+04  0.15120065399E+04  0.50400001928E-02 0. -1.
    10030    2    1    2    0    0  0.00000000000E+00  0.00000000000E+00  0.87900046235E+01  0.30328030844E+04  0.30327903463E+04 0.  0.
        2    1    3    3  502    0  0.87247563710E+03 -0.89023235942E+03 -0.85916344642E+03  0.15138986818E+04  0.25500000920E-02 0. -1.
       -2    1    3    3    0  502 -0.87247563710E+03  0.89023235942E+03  0.86795345104E+03  0.15189044026E+04  0.25500000920E-02 0.  1.
</event>
<event>
 5   0  0.1734885E-06  0.2964974E+04  0.7818609E-02  0.8253804E-01
        1   -1    0    0  501    0  0.00000000000E+00  0.00000000000E+00  0.20019174338E+04  0.20019174338E+04  0.50400001928E-02 0. -1.
       -1   -1    0    0    0  501  0.00000000000E+00  0.00000000000E+00 -0.10978315593E+04  0.10978315594E+04  0.50400001928E-02 0.  1.
    10030    2    1    2    0    0  0.00000000000E+00  0.00000000000E+00  0.90408587443E+03  0.30997489931E+04  0.29649742920E+04 0.  0.
        2    1    3    3  502    0  0.22626515119E+03 -0.20634453352E+03  0.19684921142E+04  0.19921684640E+04  0.25500000920E-02 0. -1.
       -2    1    3    3    0  502 -0.22626515119E+03  0.20634453352E+03 -0.10644062398E+04  0.11075805291E+04  0.25500000920E-02 0.  1.
</event>
<event>
 5   0  0.1672907E-06  0.2796767E+04  0.7818609E-02  0.8304273E-01
        1   -1    0    0  501    0  0.00000000000E+00  0.00000000000E+00  0.12014160651E+04  0.12014160651E+04  0.50400001928E-02 0.  1.
       -1   -1    0    0    0  501  0.00000000000E+00  0.00000000000E+00 -0.16276430814E+04  0.16276430814E+04  0.50400001928E-02 0. -1.
    10030    2    1    2    0    0  0.00000000000E+00  0.00000000000E+00 -0.42622701630E+03  0.28290591465E+04  0.27967670952E+04 0.  0.
        5    1    3    3  502    0 -0.22539106647E+03  0.12495686138E+04 -0.80573767808E+03  0.15038145329E+04  0.46999998093E+01 0.  1.
       -5    1    3    3    0  502  0.22539106647E+03 -0.12495686138E+04  0.37951066178E+03  0.13252446136E+04  0.46999998093E+01 0. -1.
</event>
<event>
 5   0  0.1686012E-06  0.2953169E+04  0.7818609E-02  0.8257232E-01
       -1   -1    0    0    0  501  0.00000000000E+00  0.00000000000E+00  0.94194983733E+03  0.94194983735E+03  0.50400001928E-02 0. -1.
        1   -1    0    0  501    0  0.00000000000E+00  0.00000000000E+00 -0.23146684466E+04  0.23146684466E+04  0.50400001928E-02 0.  1.
    10030    2    1    2    0    0  0.00000000000E+00  0.00000000000E+00 -0.13727186093E+04  0.32566182840E+04  0.29531688518E+04 0.  0.
        4    1    3    3  502    0 -0.14929226568E+03 -0.64084685069E+03 -0.21440510098E+04  0.22427503677E+04  0.12699999809E+01 0.  1.
       -4    1    3    3    0  502  0.14929226568E+03  0.64084685069E+03  0.77133240048E+03  0.10138679162E+04  0.12699999809E+01 0. -1.
</event>
<event>
 5   0  0.4702748E-06  0.2994572E+04  0.7818609E-02  0.8245283E-01
       -2   -1    0    0    0  501  0.00000000000E+00  0.00000000000E+00  0.68683425576E+03  0.68683425577E+03  0.25500000920E-02 0.  1.
        2   -1    0    0  501    0  0.00000000000E+00  0.00000000000E+00 -0.32640561499E+04  0.32640561500E+04  0.25500000920E-02 0. -1.
    10030    2    1    2    0    0  0.00000000000E+00  0.00000000000E+00 -0.25772218942E+04  0.39508904057E+04  0.29945721407E+04 0.  0.
        2    1    3    3  502    0 -0.58811213437E+03 -0.88492572612E+03  0.10322331659E+03  0.10675319557E+04  0.25500000920E-02 0.  1.
       -2    1    3    3    0  502  0.58811213437E+03  0.88492572612E+03 -0.26804452108E+04  0.28833584500E+04  0.25500000920E-02 0. -1.
</event>
<event>
 5   0  0.4702748E-06  0.2999799E+04  0.7818609E-02  0.8243788E-01
       -2   -1    0    0    0  501  0.00000000000E+00  0.00000000000E+00  0.96832470741E+03  0.96832470741E+03  0.25500000920E-02 0.  1.
        2   -1    0    0  501    0  0.00000000000E+00  0.00000000000E+00 -0.23232898432E+04  0.23232898432E+04  0.25500000920E-02 0. -1.
    10030    2    1    2    0    0  0.00000000000E+00  0.00000000000E+00 -0.13549651358E+04  0.32916145506E+04  0.29997992984E+04 0.  0.
        2    1    3    3  502    0  0.30018830304E+03  0.89241038809E+03 -0.19586176167E+04  0.21731756226E+04  0.25500000920E-02 0. -1.
       -2    1    3    3    0  502 -0.30018830304E+03 -0.89241038809E+03  0.60365248092E+03  0.11184389280E+04  0.25500000920E-02 0.  1.
</event>
<event>
 5   0  0.5003556E-06  0.2961743E+04  0.7818609E-02  0.8254741E-01
        2   -1    0    0  501    0  0.00000000000E+00  0.00000000000E+00  0.21961871554E+04  0.21961871554E+04  0.25500000920E-02 0. -1.
       -2   -1    0    0    0  501  0.00000000000E+00  0.00000000000E+00 -0.99853967322E+03  0.99853967322E+03  0.25500000920E-02 0.  1.
    10030    2    1    2    0    0  0.00000000000E+00  0.00000000000E+00  0.11976474822E+04  0.31947268286E+04  0.29617427332E+04 0.  0.
        3    1    3    3  502    0 -0.43799029736E+03 -0.19346448234E+03  0.21103849402E+04  0.21640213983E+04  0.10100000352E+00 0. -1.
       -3    1    3    3    0  502  0.43799029736E+03  0.19346448234E+03 -0.91273745802E+03  0.10307054303E+04  0.10100000352E+00 0.  1.
</event>
<event>
 5   0  0.1700885E-06  0.2940855E+04  0.7818609E-02  0.8260825E-01
       -1   -1    0    0    0  501  0.00000000000E+00  0.00000000000E+00  0.14352503605E+04  0.14352503605E+04  0.50400001928E-02 0. -1.
        1   -1    0    0  501    0  0.00000000000E+00  0.00000000000E+00 -0.15064664924E+04  0.15064664925E+04  0.50400001928E-02 0.  1.
    10030    2    1    2    0    0  0.00000000000E+00  0.00000000000E+00 -0.71216131983E+02  0.29417168529E+04  0.29408546896E+04 0.  0.
        1    1    3    3  502    0  0.69690644395E+03  0.12591370378E+04 -0.33744461012E+03  0.14781655985E+04  0.50400001928E-02 0.  1.
       -1    1    3    3    0  502 -0.69690644395E+03 -0.12591370378E+04  0.26622847813E+03  0.14635512544E+04  0.50400001928E-02 0. -1.
</event>
<event>
 5   0  0.1734885E-06  0.2966190E+04  0.7818609E-02  0.8253452E-01
       -1   -1    0    0    0  501  0.00000000000E+00  0.00000000000E+00  0.11574274205E+04  0.11574274205E+04  0.50400001928E-02 0. -1.
        1   -1    0    0  501    0  0.00000000000E+00  0.00000000000E+00 -0.19003962970E+04  0.19003962970E+04  0.50400001928E-02 0.  1.
    10030    2    1    2    0    0  0.00000000000E+00  0.00000000000E+00 -0.74296887649E+03  0.30578237175E+04  0.29661900033E+04 0.  0.
        2    1    3    3  502    0 -0.66711470325E+03  0.13245183501E+04 -0.38531134948E+03  0.15322714261E+04  0.25500000920E-02 0.  1.
       -2    1    3    3    0  502  0.66711470325E+03 -0.13245183501E+04 -0.35765752701E+03  0.15255522914E+04  0.25500000920E-02 0. -1.
</event>
<event>
 5   0  0.1734885E-06  0.3015462E+04  0.7818609E-02  0.8239329E-01
       -1   -1    0    0    0  501  0.00000000000E+00  0.00000000000E+00  0.16532685193E+04  0.16532685193E+04  0.50400001928E-02 0. -1.
        1   -1    0    0  501    0  0.00000000000E+00  0.00000000000E+00 -0.13750053644E+04  0.13750053644E+04  0.50400001928E-02 0.  1.
    10030    2    1    2    0    0  0.00000000000E+00  0.00000000000E+00  0.27826315488E+03  0.30282738837E+04  0.30154622086E+04 0.  0.
        2    1    3    3  502    0  0.13014811453E+04 -0.74057219109E+03  0.31581297155E+03  0.15303719074E+04  0.25500000920E-02 0.  1.
       -2    1    3    3    0  502 -0.13014811453E+04  0.74057219109E+03 -0.37549816679E+02  0.14979019763E+04  0.25500000920E-02 0. -1.
</event>
<event>
 5   0  0.5003556E-06  0.2412880E+04  0.7818609E-02  0.8434697E-01
       -2   -1    0    0    0  501  0.00000000000E+00  0.00000000000E+00  0.10417114137E+04  0.10417114137E+04  0.25500000920E-02 0. -1.
        2   -1    0    0  501    0  0.00000000000E+00  0.00000000000E+00 -0.13972177868E+04  0.13972177868E+04  0.25500000920E-02 0.  1.
    10030    2    1    2    0    0  0.00000000000E+00  0.00000000000E+00 -0.35550637320E+03  0.24389292005E+04  0.24128802009E+04 0.  0.
        3    1    3    3  502    0 -0.14235934055E+03  0.60152190840E+03 -0.12249898042E+04  0.13721132674E+04  0.10100000352E+00 0.  1.
       -3    1    3    3    0  502  0.14235934055E+03 -0.60152190840E+03  0.86948343097E+03  0.10668159331E+04  0.10100000352E+00 0. -1.
</event>
<event>
 5   0  0.4702748E-06  0.2963882E+04  0.7818609E-02  0.8254120E-01
       -2   -1    0    0    0  501  0.00000000000E+00  0.00000000000E+00  0.14735166080E+04  0.14735166080E+04  0.25500000920E-02 0.  1.
        2   -1    0    0  501    0  0.00000000000E+00  0.00000000000E+00 -0.14904138744E+04  0.14904138744E+04  0.25500000920E-02 0. -1.
    10030    2    1    2    0    0  0.00000000000E+00  0.00000000000E+00 -0.16897266405E+02  0.29639304823E+04  0.29638823166E+04 0.  0.
        2    1    3    3  502    0 -0.46581083804E+03 -0.13504777076E+04 -0.40263751062E+03  0.14842124985E+04  0.25500000920E-02 0.  1.
       -2    1    3    3    0  502  0.46581083804E+03  0.13504777076E+04  0.38574024421E+03  0.14797179838E+04  0.25500000920E-02 0. -1.
</event>
<event>
 5   0  0.4702748E-06  0.3011049E+04  0.7818609E-02  0.8240583E-01
       -2   -1    0    0    0  501  0.00000000000E+00  0.00000000000E+00  0.24298717087E+04  0.24298717087E+04  0.25500000920E-02 0. -1.
        2   -1    0    0  501    0  0.00000000000E+00  0.00000000000E+00 -0.93280822634E+03  0.93280822634E+03  0.25500000920E-02 0.  1.
    10030    2    1    2    0    0  0.00000000000E+00  0.00000000000E+00  0.14970634824E+04  0.33626799350E+04  0.30110491984E+04 0.  0.
        2    1    3    3  502    0 -0.45570461318E+03  0.20555110808E+02 -0.85377149786E+03  0.96799533967E+03  0.25500000920E-02 0.  1.
       -2    1    3    3    0  502  0.45570461318E+03 -0.20555110808E+02  0.23508349802E+04  0.23946845954E+04  0.25500000920E-02 0. -1.
</event>
<event>
 5   0  0.1686012E-06  0.3015494E+04  0.7818609E-02  0.8239320E-01
       -1   -1    0    0    0  501  0.00000000000E+00  0.00000000000E+00  0.74749551492E+03  0.74749551494E+03  0.50400001928E-02 0. -1.
        1   -1    0    0  501    0  0.00000000000E+00  0.00000000000E+00 -0.30412236334E+04  0.30412236334E+04  0.50400001928E-02 0.  1.
    10030    2    1    2    0    0  0.00000000000E+00  0.00000000000E+00 -0.22937281185E+04  0.37887191484E+04  0.30154940066E+04 0.  0.
        4    1    3    3  502    0 -0.14603861076E+04 -0.18770257574E+02 -0.16173408038E+04  0.21791908578E+04  0.12699999809E+01 0.  1.
       -4    1    3    3    0  502  0.14603861076E+04  0.18770257574E+02 -0.67638731468E+03  0.16095282906E+04  0.12699999809E+01 0. -1.
</event>
<event>
 5   0  0.1545375E-06  0.2798933E+04  0.7818609E-02  0.8303600E-01
        3   -1    0    0  501    0  0.00000000000E+00  0.00000000000E+00  0.14721637903E+04  0.14721637937E+04  0.10100000352E+00 0.  1.
       -3   -1    0    0    0  501  0.00000000000E+00  0.00000000000E+00 -0.13303593641E+04  0.13303593679E+04  0.10100000352E+00 0. -1.
    10030    2    1    2    0    0  0.00000000000E+00  0.00000000000E+00  0.14180442616E+03  0.28025231616E+04  0.27989332926E+04 0.  0.
        5    1    3    3  502    0 -0.12419252120E+04  0.61670682879E+02  0.71383425063E+03  0.14337931973E+04  0.46999998093E+01 0.  1.
       -5    1    3    3    0  502  0.12419252120E+04 -0.61670682879E+02 -0.57202982447E+03  0.13687299643E+04  0.46999998093E+01 0. -1.
</event>
<event>
 5   0  0.4768570E-06  0.3019087E+04  0.7818609E-02  0.8238301E-01
       -2   -1    0    0    0  501  0.00000000000E+00  0.00000000000E+00  0.19194814549E+04  0.19194814549E+04  0.25500000920E-02 0. -1.
        2   -1    0    0  501    0  0.00000000000E+00  0.00000000000E+00 -0.11871545470E+04  0.11871545470E+04  0.25500000920E-02 0.  1.
    10030    2    1    2    0    0  0.00000000000E+00  0.00000000000E+00  0.73232690784E+03  0.31066360019E+04  0.30190867076E+04 0.  0.
        1    1    3    3  502    0 -0.11695405944E+04 -0.67559613752E+03 -0.32752646846E+03  0.13897945642E+04  0.50400001928E-02 0.  1.
       -1    1    3    3    0  502  0.11695405944E+04  0.67559613752E+03  0.10598533763E+04  0.17168414377E+04  0.50400001928E-02 0. -1.
</event>
<event>
 5   0  0.5003556E-06  0.2998685E+04  0.7818609E-02  0.8244107E-01
        2   -1    0    0  501    0  0.00000000000E+00  0.00000000000E+00  0.13441222465E+04  0.13441222466E+04  0.25500000920E-02 0.  1.
       -2   -1    0    0    0  501  0.00000000000E+00  0.00000000000E+00 -0.16724873450E+04  0.16724873450E+04  0.25500000920E-02 0. -1.
    10030    2    1    2    0    0  0.00000000000E+00  0.00000000000E+00 -0.32836509843E+03  0.30166095915E+04  0.29986846766E+04 0.  0.
        3    1    3    3  502    0 -0.50260081919E+03 -0.13748217836E+02  0.12567873614E+04  0.13536288556E+04  0.10100000352E+00 0.  1.
       -3    1    3    3    0  502  0.50260081919E+03  0.13748217836E+02 -0.15851524598E+04  0.16629807359E+04  0.10100000352E+00 0. -1.
</event>
<event>
 5   0  0.1734885E-06  0.2977221E+04  0.7818609E-02  0.8250266E-01
        1   -1    0    0  501    0  0.00000000000E+00  0.00000000000E+00  0.11207129322E+04  0.11207129322E+04  0.50400001928E-02 0. -1.
       -1   -1    0    0    0  501  0.00000000000E+00  0.00000000000E+00 -0.19772784385E+04  0.19772784385E+04  0.50400001928E-02 0.  1.
    10030    2    1    2    0    0  0.00000000000E+00  0.00000000000E+00 -0.85656550639E+03  0.30979913707E+04  0.29772211987E+04 0.  0.
        2    1    3    3  502    0  0.39148232436E+03 -0.74619536483E+03 -0.17052111084E+04  0.19020543780E+04  0.25500000920E-02 0.  1.
       -2    1    3    3    0  502 -0.39148232436E+03  0.74619536483E+03  0.84864560197E+03  0.11959369927E+04  0.25500000920E-02 0. -1.
</event>
<event>
 5   0  0.5003556E-06  0.2978085E+04  0.7818609E-02  0.8250017E-01
       -2   -1    0    0    0  501  0.00000000000E+00  0.00000000000E+00  0.17643559208E+04  0.17643559208E+04  0.25500000920E-02 0. -1.
        2   -1    0    0  501    0  0.00000000000E+00  0.00000000000E+00 -0.12566897316E+04  0.12566897316E+04  0.25500000920E-02 0.  1.
    10030    2    1    2    0    0  0.00000000000E+00  0.00000000000E+00  0.50766618919E+03  0.30210456523E+04  0.29780852698E+04 0.  0.
        3    1    3    3  502    0  0.47166709124E+03  0.20433753535E+03  0.16714992828E+04  0.17487519939E+04  0.10100000352E+00 0. -1.
       -3    1    3    3    0  502 -0.47166709124E+03 -0.20433753535E+03 -0.11638330937E+04  0.12722936585E+04  0.10100000352E+00 0.  1.
</event>
<event>
 5   0  0.4702748E-06  0.2983496E+04  0.7818609E-02  0.8248459E-01
       -2   -1    0    0    0  501  0.00000000000E+00  0.00000000000E+00  0.10676318587E+04  0.10676318587E+04  0.25500000920E-02 0. -1.
        2   -1    0    0  501    0  0.00000000000E+00  0.00000000000E+00 -0.20843445430E+04  0.20843445430E+04  0.25500000920E-02 0.  1.
    10030    2    1    2    0    0  0.00000000000E+00  0.00000000000E+00 -0.10167126844E+04  0.31519764017E+04  0.29834963641E+04 0.  0.
        2    1    3    3  502    0  0.96178263037E+03 -0.12605476423E+03  0.68895497309E+03  0.11897792176E+04  0.25500000920E-02 0. -1.
       -2    1    3    3    0  502 -0.96178263037E+03  0.12605476423E+03 -0.17056676575E+04  0.19621971841E+04  0.25500000920E-02 0.  1.
</event>
<event>
 5   0  0.4935331E-06  0.3136472E+04  0.7818609E-02  0.8205799E-01
       -2   -1    0    0    0  501  0.00000000000E+00  0.00000000000E+00  0.84014195964E+03  0.84014195965E+03  0.25500000920E-02 0.  1.
        2   -1    0    0  501    0  0.00000000000E+00  0.00000000000E+00 -0.29273197361E+04  0.29273197361E+04  0.25500000920E-02 0. -1.
    10030    2    1    2    0    0  0.00000000000E+00  0.00000000000E+00 -0.20871777764E+04  0.37674616957E+04  0.31364719923E+04 0.  0.
        5    1    3    3  502    0 -0.95451880291E+03 -0.10272791110E+04 -0.18869267783E+04  0.23509409337E+04  0.46999998093E+01 0. -1.
       -5    1    3    3    0  502  0.95451880291E+03  0.10272791110E+04 -0.20025099809E+03  0.14165207620E+04  0.46999998093E+01 0.  1.
</event>
<event>
 5   0  0.1672907E-06  0.3021686E+04  0.7818609E-02  0.8237565E-01
       -1   -1    0    0    0  501  0.00000000000E+00  0.00000000000E+00  0.96003604403E+03  0.96003604404E+03  0.50400001928E-02 0. -1.
        1   -1    0    0  501    0  0.00000000000E+00  0.00000000000E+00 -0.23776680457E+04  0.23776680457E+04  0.50400001928E-02 0.  1.
    10030    2    1    2    0    0  0.00000000000E+00  0.00000000000E+00 -0.14176320016E+04  0.33377040897E+04  0.30216863005E+04 0.  0.
        5    1    3    3  502    0 -0.18972990191E+03  0.99156963289E+03  0.53275580326E+03  0.11415159256E+04  0.46999998093E+01 0. -1.
       -5    1    3    3    0  502  0.18972990191E+03 -0.99156963289E+03 -0.19503878049E+04  0.21961881641E+04  0.46999998093E+01 0.  1.
</event>
<event>
 5   0  0.1672907E-06  0.2902972E+04  0.7818609E-02  0.8271994E-01
       -1   -1    0    0    0  501  0.00000000000E+00  0.00000000000E+00  0.11835706286E+04  0.11835706286E+04  0.50400001928E-02 0.  1.
        1   -1    0    0  501    0  0.00000000000E+00  0.00000000000E+00 -0.17800466581E+04  0.17800466581E+04  0.50400001928E-02 0. -1.
    10030    2    1    2    0    0  0.00000000000E+00  0.00000000000E+00 -0.59647602952E+03  0.29636172867E+04  0.29029715411E+04 0.  0.
        5    1    3    3  502    0  0.12905474455E+04  0.36364089787E+03  0.26929051784E+03  0.13675843246E+04  0.46999998093E+01 0.  1.
       -5    1    3    3    0  502 -0.12905474455E+04 -0.36364089787E+03 -0.86576654735E+03  0.15960329622E+04  0.46999998093E+01 0. -1.
</event>
<event>
 5   0  0.4768570E-06  0.2985937E+04  0.7818609E-02  0.8247758E-01
        2   -1    0    0  501    0  0.00000000000E+00  0.00000000000E+00  0.17857351829E+04  0.17857351829E+04  0.25500000920E-02 0. -1.
       -2   -1    0    0    0  501  0.00000000000E+00  0.00000000000E+00 -0.12482002998E+04  0.12482002998E+04  0.25500000920E-02 0.  1.
    10030    2    1    2    0    0  0.00000000000E+00  0.00000000000E+00  0.53753488313E+03  0.30339354827E+04  0.29859371665E+04 0.  0.
        1    1    3    3  502    0 -0.57521684920E+02 -0.71702485813E+03 -0.10605138550E+04  0.12814534826E+04  0.50400001928E-02 0.  1.
       -1    1    3    3    0  502  0.57521684920E+02  0.71702485813E+03  0.15980487381E+04  0.17524820001E+04  0.50400001928E-02 0. -1.
</event>
<event>
 5   0  0.1686012E-06  0.3009438E+04  0.7818609E-02  0.8241041E-01
        1   -1    0    0  501    0  0.00000000000E+00  0.00000000000E+00  0.32248031592E+04  0.32248031593E+04  0.50400001928E-02 0.  1.
       -1   -1    0    0    0  501  0.00000000000E+00  0.00000000000E+00 -0.70211411224E+03  0.70211411226E+03  0.50400001928E-02 0. -1.
    10030    2    1    2    0    0  0.00000000000E+00  0.00000000000E+00  0.25226890470E+04  0.39269172715E+04  0.30094383578E+04 0.  0.
        4    1    3    3  502    0 -0.72388198291E+03 -0.61923069196E+03  0.27812355153E+04  0.29398510811E+04  0.12699999809E+01 0.  1.
       -4    1    3    3    0  502  0.72388198291E+03  0.61923069196E+03 -0.25854646824E+03  0.98706619038E+03  0.12699999809E+01 0. -1.
</event>
<event>
 5   0  0.4702748E-06  0.2975907E+04  0.7818609E-02  0.8250644E-01
       -2   -1    0    0    0  501  0.00000000000E+00  0.00000000000E+00  0.10660287385E+04  0.10660287385E+04  0.25500000920E-02 0.  1.
        2   -1    0    0  501    0  0.00000000000E+00  0.00000000000E+00 -0.20768720030E+04  0.20768720030E+04  0.25500000920E-02 0. -1.
    10030    2    1    2    0    0  0.00000000000E+00  0.00000000000E+00 -0.10108432645E+04  0.31429007415E+04  0.29759067468E+04 0.  0.
        2    1    3    3  502    0 -0.36358520260E+03 -0.14213200232E+04 -0.76767111099E+03  0.16557970113E+04  0.25500000920E-02 0. -1.
       -2    1    3    3    0  502  0.36358520260E+03  0.14213200232E+04 -0.24317215353E+03  0.14871037302E+04  0.25500000920E-02 0.  1.
</event>
<event>
 5   0  0.1700885E-06  0.2954627E+04  0.7818609E-02  0.8256808E-01
        1   -1    0    0  501    0  0.00000000000E+00  0.00000000000E+00  0.14458696290E+04  0.14458696290E+04  0.50400001928E-02 0.  1.
       -1   -1    0    0    0  501  0.00000000000E+00  0.00000000000E+00 -0.15094407276E+04  0.15094407276E+04  0.50400001928E-02 0. -1.
    10030    2    1    2    0    0  0.00000000000E+00  0.00000000000E+00 -0.63571098543E+02  0.29553103566E+04  0.29546265448E+04 0.  0.
        1    1    3    3  502    0 -0.34529098940E+03 -0.10420807263E+04 -0.10205973695E+04  0.14989253145E+04  0.50400001928E-02 0. -1.
       -1    1    3    3    0  502  0.34529098940E+03  0.10420807263E+04  0.95702627099E+03  0.14563850421E+04  0.50400001928E-02 0.  1.
</event>
<event>
 5   0  0.4532420E-06  0.2987748E+04  0.7818609E-02  0.8247238E-01
        2   -1    0    0  501    0  0.00000000000E+00  0.00000000000E+00  0.13962082300E+04  0.13962082300E+04  0.25500000920E-02 0. -1.
       -2   -1    0    0    0  501  0.00000000000E+00  0.00000000000E+00 -0.15983718891E+04  0.15983718891E+04  0.25500000920E-02 0.  1.
    10030    2    1    2    0    0  0.00000000000E+00  0.00000000000E+00 -0.20216365917E+03  0.29945801191E+04  0.29877483068E+04 0.  0.
        4    1    3    3  502    0  0.62121189042E+03 -0.24069307980E+02 -0.14625600202E+04  0.15892032500E+04  0.12699999809E+01 0.  1.
       -4    1    3    3    0  502 -0.62121189042E+03  0.24069307980E+02  0.12603963610E+04  0.14053768691E+04  0.12699999809E+01 0. -1.
</event>
<event>
 5   0  0.1686012E-06  0.3000850E+04  0.7818609E-02  0.8243488E-01
       -1   -1    0    0    0  501  0.00000000000E+00  0.00000000000E+00  0.10572445804E+04  0.10572445805E+04  0.50400001928E-02 0. -1.
        1   -1    0    0  501    0  0.00000000000E+00  0.00000000000E+00 -0.21293802895E+04  0.21293802895E+04  0.50400001928E-02 0.  1.
    10030    2    1    2    0    0  0.00000000000E+00  0.00000000000E+00 -0.10721357090E+04  0.31866248699E+04  0.30008503933E+04 0.  0.
        4    1    3    3  502    0 -0.60013957464E+02 -0.64679418921E+03 -0.19723263042E+04  0.20765396845E+04  0.12699999809E+01 0.  1.
       -4    1    3    3    0  502  0.60013957464E+02  0.64679418921E+03  0.90019059517E+03  0.11100851854E+04  0.12699999809E+01 0. -1.
</event>
<event>
 5   0  0.1545375E-06  0.3004959E+04  0.7818609E-02  0.8242316E-01
        4   -1    0    0  501    0  0.00000000000E+00  0.00000000000E+00  0.15400804162E+04  0.15400809398E+04  0.12699999809E+01 0.  1.
       -4   -1    0    0    0  501  0.00000000000E+00  0.00000000000E+00 -0.14657959919E+04  0.14657965421E+04  0.12699999809E+01 0. -1.
    10030    2    1    2    0    0  0.00000000000E+00  0.00000000000E+00  0.74284424277E+02  0.30058774819E+04  0.30049594441E+04 0.  0.
        5    1    3    3  502    0 -0.48738546957E+03  0.33597454684E+03 -0.13442212870E+04  0.14688010248E+04  0.46999998093E+01 0. -1.
       -5    1    3    3    0  502  0.48738546957E+03 -0.33597454684E+03  0.14185057113E+04  0.15370764571E+04  0.46999998093E+01 0.  1.
</event>
<event>
 5   0  0.1686012E-06  0.2976749E+04  0.7818609E-02  0.8250402E-01
        1   -1    0    0  501    0  0.00000000000E+00  0.00000000000E+00  0.13500321160E+04  0.13500321161E+04  0.50400001928E-02 0.  1.
       -1   -1    0    0    0  501  0.00000000000E+00  0.00000000000E+00 -0.16408935623E+04  0.16408935623E+04  0.50400001928E-02 0. -1.
    10030    2    1    2    0    0  0.00000000000E+00  0.00000000000E+00 -0.29086144625E+03  0.29909256784E+04  0.29767492391E+04 0.  0.
        4    1    3    3  502    0 -0.63699151720E+03 -0.10128553645E+04  0.74401001333E+03  0.14089665344E+04  0.12699999809E+01 0. -1.
       -4    1    3    3    0  502  0.63699151720E+03  0.10128553645E+04 -0.10348714596E+04  0.15819591439E+04  0.12699999809E+01 0.  1.
</event>
<event>
 5   0  0.1672907E-06  0.2961739E+04  0.7818609E-02  0.8254742E-01
        1   -1    0    0  501    0  0.00000000000E+00  0.00000000000E+00  0.16009077115E+04  0.16009077115E+04  0.50400001928E-02 0.  1.
       -1   -1    0    0    0  501  0.00000000000E+00  0.00000000000E+00 -0.13698319870E+04  0.13698319870E+04  0.50400001928E-02 0. -1.
    10030    2    1    2    0    0  0.00000000000E+00  0.00000000000E+00  0.23107572453E+03  0.29707396985E+04  0.29617390779E+04 0.  0.
        5    1    3    3  502    0 -0.11507299083E+04 -0.92318421558E+03 -0.13320768125E+02  0.14753467222E+04  0.46999998093E+01 0.  1.
       -5    1    3    3    0  502  0.11507299083E+04  0.92318421558E+03  0.24439649266E+03  0.14953929763E+04  0.46999998093E+01 0. -1.
</event>
<event>
 5   0  0.4768570E-06  0.2995391E+04  0.7818609E-02  0.8245048E-01
        2   -1    0    0  501    0  0.00000000000E+00  0.00000000000E+00  0.15376070742E+04  0.15376070742E+04  0.25500000920E-02 0. -1.
       -2   -1    0    0    0  501  0.00000000000E+00  0.00000000000E+00 -0.14588199201E+04  0.14588199201E+04  0.25500000920E-02 0.  1.
    10030    2    1    2    0    0  0.00000000000E+00  0.00000000000E+00  0.78787154166E+02  0.29964269943E+04  0.29953910123E+04 0.  0.
        1    1    3    3  502    0  0.62446204112E+03 -0.49793643524E+02  0.14002535758E+04  0.15339955425E+04  0.50400001928E-02 0. -1.
       -1    1    3    3    0  502 -0.62446204112E+03  0.49793643524E+02 -0.13214664217E+04  0.14624314518E+04  0.50400001928E-02 0.  1.
</event>
<event>
 5   0  0.1672907E-06  0.3027880E+04  0.7818609E-02  0.8235814E-01
       -1   -1    0    0    0  501  0.00000000000E+00  0.00000000000E+00  0.13251859942E+04  0.13251859942E+04  0.50400001928E-02 0.  1.
        1   -1    0    0  501    0  0.00000000000E+00  0.00000000000E+00 -0.17295791215E+04  0.17295791216E+04  0.50400001928E-02 0. -1.
    10030    2    1    2    0    0  0.00000000000E+00  0.00000000000E+00 -0.40439312732E+03  0.30547651158E+04  0.30278798046E+04 0.  0.
        5    1    3    3  502    0 -0.11785594765E+04 -0.93919995113E+03 -0.56369183795E+02  0.15080777708E+04  0.46999998093E+01 0. -1.
       -5    1    3    3    0  502  0.11785594765E+04  0.93919995113E+03 -0.34802394353E+03  0.15466873450E+04  0.46999998093E+01 0.  1.
</event>
<event>
 5   0  0.4768570E-06  0.3021455E+04  0.7818609E-02  0.8237631E-01
        2   -1    0    0  501    0  0.00000000000E+00  0.00000000000E+00  0.24368998923E+04  0.24368998923E+04  0.25500000920E-02 0.  1.
       -2   -1    0    0    0  501  0.00000000000E+00  0.00000000000E+00 -0.93655778070E+03  0.93655778070E+03  0.25500000920E-02 0. -1.
    10030    2    1    2    0    0  0.00000000000E+00  0.00000000000E+00  0.15003421116E+04  0.33734576730E+04  0.30214549839E+04 0.  0.
        1    1    3    3  502    0 -0.82857495757E+03 -0.12570837162E+04  0.88918160212E+03  0.17485536456E+04  0.50400001928E-02 0.  1.
       -1    1    3    3    0  502  0.82857495757E+03  0.12570837162E+04  0.61116050947E+03  0.16249040274E+04  0.50400001928E-02 0. -1.
</event>
<event>
 5   0  0.1709858E-06  0.3006548E+04  0.7818609E-02  0.8241864E-01
       -1   -1    0    0    0  501  0.00000000000E+00  0.00000000000E+00  0.10724957906E+04  0.10724957906E+04  0.50400001928E-02 0.  1.
        1   -1    0    0  501    0  0.00000000000E+00  0.00000000000E+00 -0.21070778330E+04  0.21070778330E+04  0.50400001928E-02 0. -1.
    10030    2    1    2    0    0  0.00000000000E+00  0.00000000000E+00 -0.10345820424E+04  0.31795736236E+04  0.30065475924E+04 0.  0.
        3    1    3    3  502    0  0.27900119551E+03 -0.18197612123E+03 -0.20675576251E+04  0.20942185939E+04  0.10100000352E+00 0. -1.
       -3    1    3    3    0  502 -0.27900119551E+03  0.18197612123E+03  0.10329755827E+04  0.10853550297E+04  0.10100000352E+00 0.  1.
</event>
<event>
 5   0  0.1672907E-06  0.3009237E+04  0.7818609E-02  0.8241098E-01
       -1   -1    0    0    0  501  0.00000000000E+00  0.00000000000E+00  0.14944281346E+04  0.14944281346E+04  0.50400001928E-02 0.  1.
        1   -1    0    0  501    0  0.00000000000E+00  0.00000000000E+00 -0.15148784158E+04  0.15148784158E+04  0.50400001928E-02 0. -1.
    10030    2    1    2    0    0  0.00000000000E+00  0.00000000000E+00 -0.20450281215E+02  0.30093065505E+04  0.30092370629E+04 0.  0.
        5    1    3    3  502    0  0.71651683998E+03  0.11511405627E+03  0.13078368600E+04  0.14956961490E+04  0.46999998093E+01 0.  1.
       -5    1    3    3    0  502 -0.71651683998E+03 -0.11511405627E+03 -0.13282871412E+04  0.15136104014E+04  0.46999998093E+01 0. -1.
</event>
<event>
 5   0  0.4532420E-06  0.3002935E+04  0.7818609E-02  0.8242893E-01
       -2   -1    0    0    0  501  0.00000000000E+00  0.00000000000E+00  0.99173316157E+03  0.99173316157E+03  0.25500000920E-02 0.  1.
        2   -1    0    0  501    0  0.00000000000E+00  0.00000000000E+00 -0.22731967182E+04  0.22731967182E+04  0.25500000920E-02 0. -1.
    10030    2    1    2    0    0  0.00000000000E+00  0.00000000000E+00 -0.12814635566E+04  0.32649298797E+04  0.30029349431E+04 0.  0.
        4    1    3    3  502    0  0.32305364936E+03 -0.14609498144E+04 -0.50465242775E+03  0.15790546876E+04  0.12699999809E+01 0. -1.
       -4    1    3    3    0  502 -0.32305364936E+03  0.14609498144E+04 -0.77681112886E+03  0.16858751921E+04  0.12699999809E+01 0.  1.
</event>
<event>
 5   0  0.4702748E-06  0.2932931E+04  0.7818609E-02  0.8263146E-01
       -2   -1    0    0    0  501  0.00000000000E+00  0.00000000000E+00  0.90034744336E+03  0.90034744337E+03  0.25500000920E-02 0.  1.
        2   -1    0    0  501    0  0.00000000000E+00  0.00000000000E+00 -0.23885456351E+04  0.23885456351E+04  0.25500000920E-02 0. -1.
    10030    2    1    2    0    0  0.00000000000E+00  0.00000000000E+00 -0.14881981917E+04  0.32888930784E+04  0.29329309272E+04 0.  0.
        2    1    3    3  502    0  0.16479943284E+03  0.13169046718E+04 -0.44592146339E+02  0.13279251588E+04  0.25500000920E-02 0.  1.
       -2    1    3    3    0  502 -0.16479943284E+03 -0.13169046718E+04 -0.14436060454E+04  0.19609679197E+04  0.25500000920E-02 0. -1.
</event>
<event>
 5   0  0.1700885E-06  0.2937777E+04  0.7818609E-02  0.8261726E-01
       -1   -1    0    0    0  501  0.00000000000E+00  0.00000000000E+00  0.10750196653E+04  0.10750196654E+04  0.50400001928E-02 0.  1.
        1   -1    0    0  501    0  0.00000000000E+00  0.00000000000E+00 -0.20070644314E+04  0.20070644314E+04  0.50400001928E-02 0. -1.
    10030    2    1    2    0    0  0.00000000000E+00  0.00000000000E+00 -0.93204476604E+03  0.30820840968E+04  0.29377772097E+04 0.  0.
        1    1    3    3  502    0 -0.88323868139E+03  0.10991574243E+04 -0.89779164301E+03  0.16716122296E+04  0.50400001928E-02 0. -1.
       -1    1    3    3    0  502  0.88323868139E+03 -0.10991574243E+04 -0.34253123030E+02  0.14104718672E+04  0.50400001928E-02 0.  1.
</event>
<event>
 5   0  0.4935331E-06  0.2979180E+04  0.7818609E-02  0.8249701E-01
       -2   -1    0    0    0  501  0.00000000000E+00  0.00000000000E+00  0.11851010000E+04  0.11851010000E+04  0.25500000920E-02 0. -1.
        2   -1    0    0  501    0  0.00000000000E+00  0.00000000000E+00 -0.18723120143E+04  0.18723120143E+04  0.25500000920E-02 0.  1.
    10030    2    1    2    0    0  0.00000000000E+00  0.00000000000E+00 -0.68721101431E+03  0.30574130143E+04  0.29791803171E+04 0.  0.
        5    1    3    3  502    0 -0.14439193251E+04 -0.21674277539E+03 -0.64626743223E+03  0.15967354609E+04  0.46999998093E+01 0. -1.
       -5    1    3    3    0  502  0.14439193251E+04  0.21674277539E+03 -0.40943582088E+02  0.14606775534E+04  0.46999998093E+01 0.  1.
</event>
<event>
 5   0  0.1700885E-06  0.3005559E+04  0.7818609E-02  0.8242145E-01
        1   -1    0    0  501    0  0.00000000000E+00  0.00000000000E+00  0.10045490490E+04  0.10045490490E+04  0.50400001928E-02 0.  1.
       -1   -1    0    0    0  501  0.00000000000E+00  0.00000000000E+00 -0.22481195158E+04  0.22481195158E+04  0.50400001928E-02 0. -1.
    10030    2    1    2    0    0  0.00000000000E+00  0.00000000000E+00 -0.12435704668E+04  0.32526685649E+04  0.30055590640E+04 0.  0.
        1    1    3    3  502    0 -0.87687649411E+03 -0.12020712101E+04 -0.39359706166E+03  0.15390926636E+04  0.50400001928E-02 0. -1.
       -1    1    3    3    0  502  0.87687649411E+03  0.12020712101E+04 -0.84997340513E+03  0.17135759013E+04  0.50400001928E-02 0.  1.
</event>
<event>
 5   0  0.4532420E-06  0.2995592E+04  0.7818609E-02  0.8244991E-01
        2   -1    0    0  501    0  0.00000000000E+00  0.00000000000E+00  0.10372564785E+04  0.10372564785E+04  0.25500000920E-02 0.  1.
       -2   -1    0    0    0  501  0.00000000000E+00  0.00000000000E+00 -0.21628145705E+04  0.21628145705E+04  0.25500000920E-02 0. -1.
    10030    2    1    2    0    0  0.00000000000E+00  0.00000000000E+00 -0.11255580919E+04  0.32000710490E+04  0.29955923789E+04 0.  0.
        4    1    3    3  502    0  0.71350273445E+03  0.79644209050E+03 -0.16831721183E+04  0.19941103652E+04  0.12699999809E+01 0. -1.
       -4    1    3    3    0  502 -0.71350273445E+03 -0.79644209050E+03  0.55761402641E+03  0.12059606838E+04  0.12699999809E+01 0.  1.
</event>
<event>
 5   0  0.1686012E-06  0.3055086E+04  0.7818609E-02  0.8228173E-01
       -1   -1    0    0    0  501  0.00000000000E+00  0.00000000000E+00  0.10799140000E+04  0.10799140001E+04  0.50400001928E-02 0. -1.
        1   -1    0    0  501    0  0.00000000000E+00  0.00000000000E+00 -0.21607165764E+04  0.21607165764E+04  0.50400001928E-02 0.  1.
    10030    2    1    2    0    0  0.00000000000E+00  0.00000000000E+00 -0.10808025763E+04  0.32406305764E+04  0.30550863038E+04 0.  0.
        4    1    3    3  502    0  0.14122022838E+04  0.48566870603E+03 -0.19964823284E+03  0.15066686471E+04  0.12699999809E+01 0.  1.
       -4    1    3    3    0  502 -0.14122022838E+04 -0.48566870603E+03 -0.88115434351E+03  0.17339619293E+04  0.12699999809E+01 0. -1.
</event>
<event>
 5   0  0.1734885E-06  0.2987465E+04  0.7818609E-02  0.8247320E-01
       -1   -1    0    0    0  501  0.00000000000E+00  0.00000000000E+00  0.19143328576E+04  0.19143328576E+04  0.50400001928E-02 0.  1.
        1   -1    0    0  501    0  0.00000000000E+00  0.00000000000E+00 -0.11655424166E+04  0.11655424166E+04  0.50400001928E-02 0. -1.
    10030    2    1    2    0    0  0.00000000000E+00  0.00000000000E+00  0.74879044102E+03  0.30798752742E+04  0.29874645738E+04 0.  0.
        2    1    3    3  502    0 -0.45591714678E+03 -0.52068127595E+03  0.17390740999E+04  0.18717233131E+04  0.25500000920E-02 0.  1.
       -2    1    3    3    0  502  0.45591714678E+03  0.52068127595E+03 -0.99028365892E+03  0.12081519610E+04  0.25500000920E-02 0. -1.
</event>
<event>
 5   0  0.4702748E-06  0.2955844E+04  0.7818609E-02  0.8256453E-01
        2   -1    0    0  501    0  0.00000000000E+00  0.00000000000E+00  0.16195972856E+04  0.16195972856E+04  0.25500000920E-02 0.  1.
       -2   -1    0    0    0  501  0.00000000000E+00  0.00000000000E+00 -0.13486401060E+04  0.13486401060E+04  0.25500000920E-02 0. -1.
    10030    2    1    2    0    0  0.00000000000E+00  0.00000000000E+00  0.27095717958E+03  0.29682373916E+04  0.29558442820E+04 0.  0.
        2    1    3    3  502    0 -0.98998450156E+02 -0.13685207105E+04  0.68696624096E+03  0.15344615487E+04  0.25500000920E-02 0.  1.
       -2    1    3    3    0  502  0.98998450156E+02  0.13685207105E+04 -0.41600906138E+03  0.14337758428E+04  0.25500000920E-02 0. -1.
</event>
<event>
 5   0  0.1672907E-06  0.3049904E+04  0.7818609E-02  0.8229622E-01
       -1   -1    0    0    0  501  0.00000000000E+00  0.00000000000E+00  0.13544444157E+04  0.13544444157E+04  0.50400001928E-02 0.  1.
        1   -1    0    0  501    0  0.00000000000E+00  0.00000000000E+00 -0.17169246847E+04  0.17169246847E+04  0.50400001928E-02 0. -1.
    10030    2    1    2    0    0  0.00000000000E+00  0.00000000000E+00 -0.36248026898E+03  0.30713691004E+04  0.30499042945E+04 0.  0.
        5    1    3    3  502    0  0.15225072072E+03 -0.77146160235E+03 -0.14970050200E+04  0.16909699601E+04  0.46999998093E+01 0. -1.
       -5    1    3    3    0  502 -0.15225072072E+03  0.77146160235E+03  0.11345247511E+04  0.13803991403E+04  0.46999998093E+01 0.  1.
</event>
<event>
 5   0  0.1700885E-06  0.3002287E+04  0.7818609E-02  0.8243078E-01
       -1   -1    0    0    0  501  0.00000000000E+00  0.00000000000E+00  0.11952163942E+04  0.11952163942E+04  0.50400001928E-02 0.  1.
        1   -1    0    0  501    0  0.00000000000E+00  0.00000000000E+00 -0.18853757042E+04  0.18853757043E+04  0.50400001928E-02 0. -1.
    10030    2    1    2    0    0  0.00000000000E+00  0.00000000000E+00 -0.69015931003E+03  0.30805920985E+04  0.30022870955E+04 0.  0.
        1    1    3    3  502    0  0.13746203764E+04  0.55697064620E+03 -0.10744817216E+03  0.14870583680E+04  0.50400001928E-02 0.  1.
       -1    1    3    3    0  502 -0.13746203764E+04 -0.55697064620E+03 -0.58271113787E+03  0.15935337305E+04  0.50400001928E-02 0. -1.
</event>
<event>
 5   0  0.1672907E-06  0.3023887E+04  0.7818609E-02  0.8236942E-01
       -1   -1    0    0    0  501  0.00000000000E+00  0.00000000000E+00  0.17964433061E+04  0.17964433061E+04  0.50400001928E-02 0. -1.
        1   -1    0    0  501    0  0.00000000000E+00  0.00000000000E+00 -0.12724998649E+04  0.12724998649E+04  0.50400001928E-02 0.  1.
    10030    2    1    2    0    0  0.00000000000E+00  0.00000000000E+00  0.52394344123E+03  0.30689431710E+04  0.30238874743E+04 0.  0.
        5    1    3    3  502    0  0.45378014836E+03 -0.10186731692E+04  0.12981345064E+04  0.17113698418E+04  0.46999998093E+01 0. -1.
       -5    1    3    3    0  502 -0.45378014836E+03  0.10186731692E+04 -0.77419106520E+03  0.13575733292E+04  0.46999998093E+01 0.  1.
</event>
<event>
 5   0  0.4702748E-06  0.2940815E+04  0.7818609E-02  0.8260836E-01
       -2   -1    0    0    0  501  0.00000000000E+00  0.00000000000E+00  0.73797536301E+03  0.73797536302E+03  0.25500000920E-02 0.  1.
        2   -1    0    0  501    0  0.00000000000E+00  0.00000000000E+00 -0.29297697690E+04  0.29297697690E+04  0.25500000920E-02 0. -1.
    10030    2    1    2    0    0  0.00000000000E+00  0.00000000000E+00 -0.21917944059E+04  0.36677451320E+04  0.29408147910E+04 0.  0.
        2    1    3    3  502    0 -0.40267254814E+03  0.13193553830E+04 -0.17309272764E+04  0.22133578662E+04  0.25500000920E-02 0. -1.
       -2    1    3    3    0  502  0.40267254814E+03 -0.13193553830E+04 -0.46086712958E+03  0.14543872658E+04  0.25500000920E-02 0.  1.
</event>
<event>
 5   0  0.4702748E-06  0.2957295E+04  0.7818609E-02  0.8256032E-01
       -2   -1    0    0    0  501  0.00000000000E+00  0.00000000000E+00  0.11550993046E+04  0.11550993046E+04  0.25500000920E-02 0. -1.
        2   -1    0    0  501    0  0.00000000000E+00  0.00000000000E+00 -0.18928224007E+04  0.18928224007E+04  0.25500000920E-02 0.  1.
    10030    2    1    2    0    0  0.00000000000E+00  0.00000000000E+00 -0.73772309611E+03  0.30479217054E+04  0.29572946007E+04 0.  0.
        2    1    3    3  502    0  0.11441689278E+04  0.90850635908E+03 -0.60363950787E+03  0.15807868279E+04  0.25500000920E-02 0.  1.
       -2    1    3    3    0  502 -0.11441689278E+04 -0.90850635908E+03 -0.13408358824E+03  0.14671348774E+04  0.25500000920E-02 0. -1.
</event>
<event>
 5   0  0.1700885E-06  0.3011249E+04  0.7818609E-02  0.8240526E-01
       -1   -1    0    0    0  501  0.00000000000E+00  0.00000000000E+00  0.11465251223E+04  0.11465251223E+04  0.50400001928E-02 0.  1.
        1   -1    0    0  501    0  0.00000000000E+00  0.00000000000E+00 -0.19771964473E+04  0.19771964473E+04  0.50400001928E-02 0. -1.
    10030    2    1    2    0    0  0.00000000000E+00  0.00000000000E+00 -0.83067132504E+03  0.31237215696E+04  0.30112491751E+04 0.  0.
        1    1    3    3  502    0 -0.99946800185E+03 -0.25956664607E+03  0.72130648305E+03  0.12596007991E+04  0.50400001928E-02 0.  1.
       -1    1    3    3    0  502  0.99946800185E+03  0.25956664607E+03 -0.15519778081E+04  0.18641207706E+04  0.50400001928E-02 0. -1.
</event>
<event>
 5   0  0.5003556E-06  0.3065538E+04  0.7818609E-02  0.8225260E-01
       -2   -1    0    0    0  501  0.00000000000E+00  0.00000000000E+00  0.11880360549E+04  0.11880360549E+04  0.25500000920E-02 0.  1.
        2   -1    0    0  501    0  0.00000000000E+00  0.00000000000E+00 -0.19775326549E+04  0.19775326549E+04  0.25500000920E-02 0. -1.
    10030    2    1    2    0    0  0.00000000000E+00  0.00000000000E+00 -0.78949659996E+03  0.31655687097E+04  0.30655375344E+04 0.  0.
        3    1    3    3  502    0 -0.12742618087E+04  0.81132488178E+03 -0.66281271694E+03  0.16496399392E+04  0.10100000352E+00 0.  1.
       -3    1    3    3    0  502  0.12742618087E+04 -0.81132488178E+03 -0.12668388302E+03  0.15159287706E+04  0.10100000352E+00 0. -1.
</event>
<event>
 5   0  0.5003556E-06  0.3008708E+04  0.7818609E-02  0.8241249E-01
        2   -1    0    0  501    0  0.00000000000E+00  0.00000000000E+00  0.13957276678E+04  0.13957276678E+04  0.25500000920E-02 0. -1.
       -2   -1    0    0    0  501  0.00000000000E+00  0.00000000000E+00 -0.16214341843E+04  0.16214341843E+04  0.25500000920E-02 0.  1.
    10030    2    1    2    0    0  0.00000000000E+00  0.00000000000E+00 -0.22570651647E+03  0.30171618521E+04  0.30087077310E+04 0.  0.
        3    1    3    3  502    0  0.13764314127E+04  0.15251086297E+02  0.49571645385E+03  0.14630553108E+04  0.10100000352E+00 0. -1.
       -3    1    3    3    0  502 -0.13764314127E+04 -0.15251086297E+02 -0.72142297032E+03  0.15541065414E+04  0.10100000352E+00 0.  1.
</event>
<event>
 5   0  0.4532420E-06  0.2939378E+04  0.7818609E-02  0.8261257E-01
       -2   -1    0    0    0  501  0.00000000000E+00  0.00000000000E+00  0.15287387092E+04  0.15287387092E+04  0.25500000920E-02 0.  1.
        2   -1    0    0  501    0  0.00000000000E+00  0.00000000000E+00 -0.14129198907E+04  0.14129198907E+04  0.25500000920E-02 0. -1.
    10030    2    1    2    0    0  0.00000000000E+00  0.00000000000E+00  0.11581881851E+03  0.29416585999E+04  0.29393777096E+04 0.  0.
        4    1    3    3  502    0 -0.54495209234E+03 -0.12401264160E+04 -0.51270616952E+03  0.14483630552E+04  0.12699999809E+01 0. -1.
       -4    1    3    3    0  502  0.54495209234E+03  0.12401264160E+04  0.62852498803E+03  0.14932955448E+04  0.12699999809E+01 0.  1.
</event>
<event>
 5   0  0.1686012E-06  0.3021585E+04  0.7818609E-02  0.8237594E-01
       -1   -1    0    0    0  501  0.00000000000E+00  0.00000000000E+00  0.12412384091E+04  0.12412384091E+04  0.50400001928E-02 0.  1.
        1   -1    0    0  501    0  0.00000000000E+00  0.00000000000E+00 -0.18388848592E+04  0.18388848593E+04  0.50400001928E-02 0. -1.
    10030    2    1    2    0    0  0.00000000000E+00  0.00000000000E+00 -0.59764645013E+03  0.30801232684E+04  0.30215853569E+04 0.  0.
        4    1    3    3  502    0  0.42778152385E+02  0.35880885391E+03 -0.17941847583E+04  0.18302115516E+04  0.12699999809E+01 0. -1.
       -4    1    3    3    0  502 -0.42778152385E+02 -0.35880885391E+03  0.11965383081E+04  0.12499117168E+04  0.12699999809E+01 0.  1.
</event>
<event>
 5   0  0.1686012E-06  0.3062115E+04  0.7818609E-02  0.8226213E-01
        1   -1    0    0  501    0  0.00000000000E+00  0.00000000000E+00  0.27149006054E+04  0.27149006054E+04  0.50400001928E-02 0.  1.
       -1   -1    0    0    0  501  0.00000000000E+00  0.00000000000E+00 -0.86343388892E+03  0.86343388894E+03  0.50400001928E-02 0. -1.
    10030    2    1    2    0    0  0.00000000000E+00  0.00000000000E+00  0.18514667165E+04  0.35783344944E+04  0.30621150781E+04 0.  0.
        4    1    3    3  502    0  0.83240062083E+01 -0.15289438029E+04  0.10191990292E+04  0.18375273374E+04  0.12699999809E+01 0.  1.
       -4    1    3    3    0  502 -0.83240062083E+01  0.15289438029E+04  0.83226768729E+03  0.17408071570E+04  0.12699999809E+01 0. -1.
</event>
<event>
 5   0  0.4935331E-06  0.2579805E+04  0.7818609E-02  0.8375094E-01
       -2   -1    0    0    0  501  0.00000000000E+00  0.00000000000E+00  0.10486635152E+04  0.10486635152E+04  0.25500000920E-02 0. -1.
        2   -1    0    0  501    0  0.00000000000E+00  0.00000000000E+00 -0.15866365053E+04  0.15866365053E+04  0.25500000920E-02 0.  1.
    10030    2    1    2    0    0  0.00000000000E+00  0.00000000000E+00 -0.53797299005E+03  0.26353000205E+04  0.25798045004E+04 0.  0.
        5    1    3    3  502    0 -0.18616845439E+03  0.22105876618E+03 -0.15531284840E+04  0.15797961417E+04  0.46999998093E+01 0.  1.
       -5    1    3    3    0  502  0.18616845439E+03 -0.22105876618E+03  0.10151554939E+04  0.10555038789E+04  0.46999998093E+01 0. -1.
</event>
<event>
 5   0  0.1686012E-06  0.2985360E+04  0.7818609E-02  0.8247924E-01
        1   -1    0    0  501    0  0.00000000000E+00  0.00000000000E+00  0.19071827379E+04  0.19071827380E+04  0.50400001928E-02 0. -1.
       -1   -1    0    0    0  501  0.00000000000E+00  0.00000000000E+00 -0.11682640409E+04  0.11682640409E+04  0.50400001928E-02 0.  1.
    10030    2    1    2    0    0  0.00000000000E+00  0.00000000000E+00  0.73891869703E+03  0.30754467789E+04  0.29853596180E+04 0.  0.
        4    1    3    3  502    0  0.20578671254E+03  0.28312881455E+03 -0.11253904927E+04  0.11785650049E+04  0.12699999809E+01 0.  1.
       -4    1    3    3    0  502 -0.20578671254E+03 -0.28312881455E+03  0.18643091898E+04  0.18968817740E+04  0.12699999809E+01 0. -1.
</event>
<event>
 5   0  0.5003556E-06  0.2892690E+04  0.7818609E-02  0.8275056E-01
        2   -1    0    0  501    0  0.00000000000E+00  0.00000000000E+00  0.95728975866E+03  0.95728975866E+03  0.25500000920E-02 0. -1.
       -2   -1    0    0    0  501  0.00000000000E+00  0.00000000000E+00 -0.21852459506E+04  0.21852459506E+04  0.25500000920E-02 0.  1.
    10030    2    1    2    0    0  0.00000000000E+00  0.00000000000E+00 -0.12279561920E+04  0.31425357093E+04  0.28926897993E+04 0.  0.
        3    1    3    3  502    0  0.30486632113E+01  0.10545163594E+04 -0.16893758570E+04  0.19914830763E+04  0.10100000352E+00 0.  1.
       -3    1    3    3    0  502 -0.30486632113E+01 -0.10545163594E+04  0.46141966507E+03  0.11510526330E+04  0.10100000352E+00 0. -1.
</event>
<event>
 5   0  0.4935331E-06  0.3023928E+04  0.7818609E-02  0.8236931E-01
        2   -1    0    0  501    0  0.00000000000E+00  0.00000000000E+00  0.31950799596E+04  0.31950799596E+04  0.25500000920E-02 0.  1.
       -2   -1    0    0    0  501  0.00000000000E+00  0.00000000000E+00 -0.71548582417E+03  0.71548582418E+03  0.25500000920E-02 0. -1.
    10030    2    1    2    0    0  0.00000000000E+00  0.00000000000E+00  0.24795941354E+04  0.39105657838E+04  0.30239275244E+04 0.  0.
        5    1    3    3  502    0  0.13800132130E+04 -0.56478776290E+03  0.91626083453E+03  0.17501364781E+04  0.46999998093E+01 0. -1.
       -5    1    3    3    0  502 -0.13800132130E+04  0.56478776290E+03  0.15633333009E+04  0.21604293057E+04  0.46999998093E+01 0.  1.
</event>
<event>
 5   0  0.1686012E-06  0.2871609E+04  0.7818609E-02  0.8281375E-01
       -1   -1    0    0    0  501  0.00000000000E+00  0.00000000000E+00  0.10438580368E+04  0.10438580369E+04  0.50400001928E-02 0. -1.
        1   -1    0    0  501    0  0.00000000000E+00  0.00000000000E+00 -0.19749183228E+04  0.19749183228E+04  0.50400001928E-02 0.  1.
    10030    2    1    2    0    0  0.00000000000E+00  0.00000000000E+00 -0.93106028597E+03  0.30187763597E+04  0.28716088615E+04 0.  0.
        4    1    3    3  502    0 -0.92808110180E+03  0.77364306316E+03 -0.12809598048E+04  0.17608855032E+04  0.12699999809E+01 0.  1.
       -4    1    3    3    0  502  0.92808110180E+03 -0.77364306316E+03  0.34989951888E+03  0.12578908565E+04  0.12699999809E+01 0. -1.
</event>
<event>
 5   0  0.1709858E-06  0.2948317E+04  0.7818609E-02  0.8258645E-01
       -1   -1    0    0    0  501  0.00000000000E+00  0.00000000000E+00  0.14876762002E+04  0.14876762002E+04  0.50400001928E-02 0.  1.
        1   -1    0    0  501    0  0.00000000000E+00  0.00000000000E+00 -0.14607638286E+04  0.14607638286E+04  0.50400001928E-02 0. -1.
    10030    2    1    2    0    0  0.00000000000E+00  0.00000000000E+00  0.26912371633E+02  0.29484400288E+04  0.29483172027E+04 0.  0.
        3    1    3    3  502    0  0.62692254648E+03 -0.93767975737E+03 -0.93572421145E+03  0.14655562141E+04  0.10100000352E+00 0.  1.
       -3    1    3    3    0  502 -0.62692254648E+03  0.93767975737E+03  0.96263658308E+03  0.14828838147E+04  0.10100000352E+00 0. -1.
</event>
<event>
 5   0  0.1686012E-06  0.3008165E+04  0.7818609E-02  0.8241403E-01
       -1   -1    0    0    0  501  0.00000000000E+00  0.00000000000E+00  0.31211119033E+04  0.31211119033E+04  0.50400001928E-02 0. -1.
        1   -1    0    0  501    0  0.00000000000E+00  0.00000000000E+00 -0.72482620686E+03  0.72482620688E+03  0.50400001928E-02 0.  1.
    10030    2    1    2    0    0  0.00000000000E+00  0.00000000000E+00  0.23962856964E+04  0.38459381102E+04  0.30081646910E+04 0.  0.
        4    1    3    3  502    0  0.13770753466E+04 -0.56541168584E+03  0.92323504136E+03  0.17516824596E+04  0.12699999809E+01 0.  1.
       -4    1    3    3    0  502 -0.13770753466E+04  0.56541168584E+03  0.14730506551E+04  0.20942556506E+04  0.12699999809E+01 0. -1.
</event>
<event>
 5   0  0.4935331E-06  0.2995193E+04  0.7818609E-02  0.8245105E-01
        2   -1    0    0  501    0  0.00000000000E+00  0.00000000000E+00  0.17763832101E+04  0.17763832101E+04  0.25500000920E-02 0. -1.
       -2   -1    0    0    0  501  0.00000000000E+00  0.00000000000E+00 -0.12625624257E+04  0.12625624257E+04  0.25500000920E-02 0.  1.
    10030    2    1    2    0    0  0.00000000000E+00  0.00000000000E+00  0.51382078438E+03  0.30389456358E+04  0.29951926113E+04 0.  0.
        5    1    3    3  502    0  0.11786202057E+04  0.51824548383E+03  0.10329683562E+04  0.16506876403E+04  0.46999998093E+01 0. -1.
       -5    1    3    3    0  502 -0.11786202057E+04 -0.51824548383E+03 -0.51914757185E+03  0.13882579955E+04  0.46999998093E+01 0.  1.
</event>
<event>
 5   0  0.1686012E-06  0.2950072E+04  0.7818609E-02  0.8258133E-01
        1   -1    0    0  501    0  0.00000000000E+00  0.00000000000E+00  0.25791175936E+04  0.25791175936E+04  0.50400001928E-02 0.  1.
       -1   -1    0    0    0  501  0.00000000000E+00  0.00000000000E+00 -0.84359540445E+03  0.84359540446E+03  0.50400001928E-02 0. -1.
    10030    2    1    2    0    0  0.00000000000E+00  0.00000000000E+00  0.17355221892E+04  0.34227129981E+04  0.29500723717E+04 0.  0.
        4    1    3    3  502    0 -0.14227179475E+04  0.38925730142E+03  0.85722090591E+03  0.17060119869E+04  0.12699999809E+01 0. -1.
       -4    1    3    3    0  502  0.14227179475E+04 -0.38925730142E+03  0.87830128327E+03  0.17167010112E+04  0.12699999809E+01 0.  1.
</event>
<event>
 5   0  0.1734885E-06  0.3112468E+04  0.7818609E-02  0.8212325E-01
       -1   -1    0    0    0  501  0.00000000000E+00  0.00000000000E+00  0.84154945330E+03  0.84154945332E+03  0.50400001928E-02 0.  1.
        1   -1    0    0  501    0  0.00000000000E+00  0.00000000000E+00 -0.28778629164E+04  0.28778629164E+04  0.50400001928E-02 0. -1.
    10030    2    1    2    0    0  0.00000000000E+00  0.00000000000E+00 -0.20363134631E+04  0.37194123697E+04  0.31124678080E+04 0.  0.
        2    1    3    3  502    0  0.20801832384E+03 -0.13621882764E+03 -0.28539714512E+04  0.28647827555E+04  0.25500000920E-02 0. -1.
       -2    1    3    3    0  502 -0.20801832384E+03  0.13621882764E+03  0.81765798807E+03  0.85462961423E+03  0.25500000920E-02 0.  1.
</event>
<event>
 5   0  0.1672907E-06  0.3000338E+04  0.7818609E-02  0.8243634E-01
       -1   -1    0    0    0  501  0.00000000000E+00  0.00000000000E+00  0.94711459103E+03  0.94711459104E+03  0.50400001928E-02 0.  1.
        1   -1    0    0  501    0  0.00000000000E+00  0.00000000000E+00 -0.23761724570E+04  0.23761724570E+04  0.50400001928E-02 0. -1.
    10030    2    1    2    0    0  0.00000000000E+00  0.00000000000E+00 -0.14290578660E+04  0.33232870480E+04  0.30003383841E+04 0.  0.
        5    1    3    3  502    0 -0.95410796121E+02  0.32120317109E+03 -0.23341852832E+04  0.23581174108E+04  0.46999998093E+01 0. -1.
       -5    1    3    3    0  502  0.95410796121E+02 -0.32120317109E+03  0.90512741722E+03  0.96516963718E+03  0.46999998093E+01 0.  1.
</event>
<event>
 5   0  0.4702748E-06  0.2958115E+04  0.7818609E-02  0.8255793E-01
        2   -1    0    0  501    0  0.00000000000E+00  0.00000000000E+00  0.21236939847E+04  0.21236939847E+04  0.25500000920E-02 0. -1.
       -2   -1    0    0    0  501  0.00000000000E+00  0.00000000000E+00 -0.10300974697E+04  0.10300974697E+04  0.25500000920E-02 0.  1.
    10030    2    1    2    0    0  0.00000000000E+00  0.00000000000E+00  0.10935965150E+04  0.31537914544E+04  0.29581154812E+04 0.  0.
        2    1    3    3  502    0  0.53966485597E+03 -0.13592501338E+04  0.78234892479E+03  0.16585743647E+04  0.25500000920E-02 0. -1.
       -2    1    3    3    0  502 -0.53966485597E+03  0.13592501338E+04  0.31124759023E+03  0.14952170897E+04  0.25500000920E-02 0.  1.
</event>
<event>
 5   0  0.4532420E-06  0.2927842E+04  0.7818609E-02  0.8264642E-01
        2   -1    0    0  501    0  0.00000000000E+00  0.00000000000E+00  0.16380298646E+04  0.16380298646E+04  0.25500000920E-02 0.  1.
       -2   -1    0    0    0  501  0.00000000000E+00  0.00000000000E+00 -0.13083184673E+04  0.13083184673E+04  0.25500000920E-02 0. -1.
    10030    2    1    2    0    0  0.00000000000E+00  0.00000000000E+00  0.32971139725E+03  0.29463483319E+04  0.29278420188E+04 0.  0.
        4    1    3    3  502    0 -0.96942047071E+03  0.29721749100E+03 -0.89772988006E+03  0.13542654232E+04  0.12699999809E+01 0. -1.
       -4    1    3    3    0  502  0.96942047071E+03 -0.29721749100E+03  0.12274412773E+04  0.15920829087E+04  0.12699999809E+01 0.  1.
</event>
<event>
 5   0  0.5003556E-06  0.2986382E+04  0.7818609E-02  0.8247630E-01
        2   -1    0    0  501    0  0.00000000000E+00  0.00000000000E+00  0.94374352405E+03  0.94374352405E+03  0.25500000920E-02 0. -1.
       -2   -1    0    0    0  501  0.00000000000E+00  0.00000000000E+00 -0.23625267437E+04  0.23625267437E+04  0.25500000920E-02 0.  1.
    10030    2    1    2    0    0  0.00000000000E+00  0.00000000000E+00 -0.14187832197E+04  0.33062702678E+04  0.29863819681E+04 0.  0.
        3    1    3    3  502    0  0.35601651472E+03  0.12212387957E+04 -0.15751018018E+04  0.20246277809E+04  0.10100000352E+00 0.  1.
       -3    1    3    3    0  502 -0.35601651472E+03 -0.12212387957E+04  0.15631858210E+03  0.12816424869E+04  0.10100000352E+00 0. -1.
</event>
<event>
 5   0  0.1700885E-06  0.3039012E+04  0.7818609E-02  0.8232678E-01
       -1   -1    0    0    0  501  0.00000000000E+00  0.00000000000E+00  0.13782023975E+04  0.13782023975E+04  0.50400001928E-02 0.  1.
        1   -1    0    0  501    0  0.00000000000E+00  0.00000000000E+00 -0.16752976513E+04  0.16752976513E+04  0.50400001928E-02 0. -1.
    10030    2    1    2    0    0  0.00000000000E+00  0.00000000000E+00 -0.29709525380E+03  0.30535000489E+04  0.30390124973E+04 0.  0.
        1    1    3    3  502    0 -0.85755995187E+03  0.10277507866E+04 -0.87115512880E+03  0.15970572967E+04  0.50400001928E-02 0. -1.
       -1    1    3    3    0  502  0.85755995187E+03 -0.10277507866E+04  0.57405987500E+03  0.14564427522E+04  0.50400001928E-02 0.  1.
</event>
<event>
 5   0  0.1709858E-06  0.3001377E+04  0.7818609E-02  0.8243338E-01
       -1   -1    0    0    0  501  0.00000000000E+00  0.00000000000E+00  0.18424546429E+04  0.18424546429E+04  0.50400001928E-02 0.  1.
        1   -1    0    0  501    0  0.00000000000E+00  0.00000000000E+00 -0.12223185978E+04  0.12223185978E+04  0.50400001928E-02 0. -1.
    10030    2    1    2    0    0  0.00000000000E+00  0.00000000000E+00  0.62013604510E+03  0.30647732407E+04  0.30013774009E+04 0.  0.
        3    1    3    3  502    0 -0.13057394617E+04 -0.11930455740E+03  0.10554714898E+04  0.16832139481E+04  0.10100000352E+00 0.  1.
       -3    1    3    3    0  502  0.13057394617E+04  0.11930455740E+03 -0.43533544467E+03  0.13815592926E+04  0.10100000352E+00 0. -1.
</event>
<event>
 5   0  0.1672907E-06  0.2866855E+04  0.7818609E-02  0.8282808E-01
        1   -1    0    0  501    0  0.00000000000E+00  0.00000000000E+00  0.13055011329E+04  0.13055011329E+04  0.50400001928E-02 0. -1.
       -1   -1    0    0    0  501  0.00000000000E+00  0.00000000000E+00 -0.15738889538E+04  0.15738889538E+04  0.50400001928E-02 0.  1.
    10030    2    1    2    0    0  0.00000000000E+00  0.00000000000E+00 -0.26838782091E+03  0.28793900866E+04  0.28668545915E+04 0.  0.
        5    1    3    3  502    0 -0.20637067081E+03  0.56782975563E+03  0.11713637982E+04  0.13180040678E+04  0.46999998093E+01 0. -1.
       -5    1    3    3    0  502  0.20637067081E+03 -0.56782975563E+03 -0.14397516191E+04  0.15613860188E+04  0.46999998093E+01 0.  1.
</event>
<event>
 5   0  0.1672907E-06  0.3001788E+04  0.7818609E-02  0.8243221E-01
        1   -1    0    0  501    0  0.00000000000E+00  0.00000000000E+00  0.22994599037E+04  0.22994599037E+04  0.50400001928E-02 0.  1.
       -1   -1    0    0    0  501  0.00000000000E+00  0.00000000000E+00 -0.97965732425E+03  0.97965732426E+03  0.50400001928E-02 0. -1.
    10030    2    1    2    0    0  0.00000000000E+00  0.00000000000E+00  0.13198025794E+04  0.32791172279E+04  0.30017879582E+04 0.  0.
        5    1    3    3  502    0 -0.56116014966E+03  0.22164079921E+03  0.21611442432E+04  0.22437896263E+04  0.46999998093E+01 0.  1.
       -5    1    3    3    0  502  0.56116014966E+03 -0.22164079921E+03 -0.84134166376E+03  0.10353276016E+04  0.46999998093E+01 0. -1.
</event>
<event>
 5   0  0.4702748E-06  0.3030328E+04  0.7818609E-02  0.8235123E-01
       -2   -1    0    0    0  501  0.00000000000E+00  0.00000000000E+00  0.12236833021E+04  0.12236833021E+04  0.25500000920E-02 0. -1.
        2   -1    0    0  501    0  0.00000000000E+00  0.00000000000E+00 -0.18760746631E+04  0.18760746631E+04  0.25500000920E-02 0.  1.
    10030    2    1    2    0    0  0.00000000000E+00  0.00000000000E+00 -0.65239136096E+03  0.30997579652E+04  0.30303275326E+04 0.  0.
        2    1    3    3  502    0  0.55354140895E+03  0.99024389649E+02  0.11129897993E+04  0.12469804387E+04  0.25500000920E-02 0. -1.
       -2    1    3    3    0  502 -0.55354140895E+03 -0.99024389649E+02 -0.17653811603E+04  0.18527775264E+04  0.25500000920E-02 0.  1.
</event>
<event>
 5   0  0.4702748E-06  0.2977214E+04  0.7818609E-02  0.8250268E-01
       -2   -1    0    0    0  501  0.00000000000E+00  0.00000000000E+00  0.69818806963E+03  0.69818806963E+03  0.25500000920E-02 0. -1.
        2   -1    0    0  501    0  0.00000000000E+00  0.00000000000E+00 -0.31738591346E+04  0.31738591346E+04  0.25500000920E-02 0.  1.
    10030    2    1    2    0    0  0.00000000000E+00  0.00000000000E+00 -0.24756710649E+04  0.38720472042E+04  0.29772138535E+04 0.  0.
        2    1    3    3  502    0 -0.21774669026E+03  0.29685744355E+03  0.63804575730E+03  0.73664126366E+03  0.25500000920E-02 0. -1.
       -2    1    3    3    0  502  0.21774669026E+03 -0.29685744355E+03 -0.31137168222E+04  0.31354059405E+04  0.25500000920E-02 0.  1.
</event>
<event>
 5   0  0.1709858E-06  0.2999557E+04  0.7818609E-02  0.8243858E-01
        1   -1    0    0  501    0  0.00000000000E+00  0.00000000000E+00  0.23920004954E+04  0.23920004954E+04  0.50400001928E-02 0.  1.
       -1   -1    0    0    0  501  0.00000000000E+00  0.00000000000E+00 -0.94035721068E+03  0.94035721070E+03  0.50400001928E-02 0. -1.
    10030    2    1    2    0    0  0.00000000000E+00  0.00000000000E+00  0.14516432847E+04  0.33323577061E+04  0.29995565764E+04 0.  0.
        3    1    3    3  502    0 -0.10611257512E+03 -0.13878954791E+04  0.13461867319E+04  0.19364225951E+04  0.10100000352E+00 0.  1.
       -3    1    3    3    0  502  0.10611257512E+03  0.13878954791E+04  0.10545655278E+03  0.13959351110E+04  0.10100000352E+00 0. -1.
</event>
<event>
 5   0  0.1700885E-06  0.2917493E+04  0.7818609E-02  0.8267692E-01
       -1   -1    0    0    0  501  0.00000000000E+00  0.00000000000E+00  0.22380935586E+04  0.22380935586E+04  0.50400001928E-02 0.  1.
        1   -1    0    0  501    0  0.00000000000E+00  0.00000000000E+00 -0.95078291623E+03  0.95078291625E+03  0.50400001928E-02 0. -1.
    10030    2    1    2    0    0  0.00000000000E+00  0.00000000000E+00  0.12873106423E+04  0.31888764748E+04  0.29174928418E+04 0.  0.
        1    1    3    3  502    0  0.10301736844E+04 -0.38745287981E+03  0.16900829370E+04  0.20168683368E+04  0.50400001928E-02 0.  1.
       -1    1    3    3    0  502 -0.10301736844E+04  0.38745287981E+03 -0.40277229464E+03  0.11720081380E+04  0.50400001928E-02 0. -1.
</event>
<event>
 5   0  0.4768570E-06  0.3018220E+04  0.7818609E-02  0.8238547E-01
       -2   -1    0    0    0  501  0.00000000000E+00  0.00000000000E+00  0.85479408594E+03  0.85479408595E+03  0.25500000920E-02 0.  1.
        2   -1    0    0  501    0  0.00000000000E+00  0.00000000000E+00 -0.26642827199E+04  0.26642827199E+04  0.25500000920E-02 0. -1.
    10030    2    1    2    0    0  0.00000000000E+00  0.00000000000E+00 -0.18094886339E+04  0.35190768058E+04  0.30182200796E+04 0.  0.
        1    1    3    3  502    0  0.19616660202E+03 -0.11477564338E+04 -0.20240430151E+04  0.23350752224E+04  0.50400001928E-02 0. -1.
       -1    1    3    3    0  502 -0.19616660202E+03  0.11477564338E+04  0.21455438114E+03  0.11840015835E+04  0.50400001928E-02 0.  1.
</event>
<event>
 5   0  0.4935331E-06  0.3040503E+04  0.7818609E-02  0.8232259E-01
       -2   -1    0    0    0  501  0.00000000000E+00  0.00000000000E+00  0.18888085391E+04  0.18888085391E+04  0.25500000920E-02 0.  1.
        2   -1    0    0  501    0  0.00000000000E+00  0.00000000000E+00 -0.12236095639E+04  0.12236095639E+04  0.25500000920E-02 0. -1.
    10030    2    1    2    0    0  0.00000000000E+00  0.00000000000E+00  0.66519897520E+03  0.31124181031E+04  0.30405027169E+04 0.  0.
        5    1    3    3  502    0  0.76196694228E+03  0.98256627198E+03  0.12279952701E+04  0.17475767718E+04  0.46999998093E+01 0.  1.
       -5    1    3    3    0  502 -0.76196694228E+03 -0.98256627198E+03 -0.56279629491E+03  0.13648413313E+04  0.46999998093E+01 0. -1.
</event>
<event>
 5   0  0.1734885E-06  0.2986625E+04  0.7818609E-02  0.8247561E-01
        1   -1    0    0  501    0  0.00000000000E+00  0.00000000000E+00  0.12297059990E+04  0.12297059990E+04  0.50400001928E-02 0.  1.
       -1   -1    0    0    0  501  0.00000000000E+00  0.00000000000E+00 -0.18134269718E+04  0.18134269718E+04  0.50400001928E-02 0. -1.
    10030    2    1    2    0    0  0.00000000000E+00  0.00000000000E+00 -0.58372097287E+03  0.30431329708E+04  0.29866248683E+04 0.  0.
        2    1    3    3  502    0  0.58682730947E+03 -0.10260388446E+04 -0.12217391035E+04  0.16999318924E+04  0.25500000920E-02 0. -1.
       -2    1    3    3    0  502 -0.58682730947E+03  0.10260388446E+04  0.63801813067E+03  0.13432010784E+04  0.25500000920E-02 0.  1.
</event>
<event>
 5   0  0.1734885E-06  0.2916896E+04  0.7818609E-02  0.8267868E-01
       -1   -1    0    0    0  501  0.00000000000E+00  0.00000000000E+00  0.11806920800E+04  0.11806920800E+04  0.50400001928E-02 0.  1.
        1   -1    0    0  501    0  0.00000000000E+00  0.00000000000E+00 -0.18015454095E+04  0.18015454095E+04  0.50400001928E-02 0. -1.
    10030    2    1    2    0    0  0.00000000000E+00  0.00000000000E+00 -0.62085332953E+03  0.29822374895E+04  0.29168958821E+04 0.  0.
        2    1    3    3  502    0 -0.70127952492E+03  0.11821380929E+04  0.18817283078E+03  0.13873184411E+04  0.25500000920E-02 0.  1.
       -2    1    3    3    0  502  0.70127952492E+03 -0.11821380929E+04 -0.80902616031E+03  0.15949190484E+04  0.25500000920E-02 0. -1.
</event>
<event>
 5   0  0.1709858E-06  0.3012559E+04  0.7818609E-02  0.8240154E-01
       -1   -1    0    0    0  501  0.00000000000E+00  0.00000000000E+00  0.14349861238E+04  0.14349861238E+04  0.50400001928E-02 0.  1.
        1   -1    0    0  501    0  0.00000000000E+00  0.00000000000E+00 -0.15811150745E+04  0.15811150745E+04  0.50400001928E-02 0. -1.
    10030    2    1    2    0    0  0.00000000000E+00  0.00000000000E+00 -0.14612895062E+03  0.30161011983E+04  0.30125591726E+04 0.  0.
        3    1    3    3  502    0  0.22649712722E+03  0.11209592518E+04  0.90840828532E+03  0.14604986189E+04  0.10100000352E+00 0.  1.
       -3    1    3    3    0  502 -0.22649712722E+03 -0.11209592518E+04 -0.10545372359E+04  0.15556025794E+04  0.10100000352E+00 0. -1.
</event>
<event>
 5   0  0.5003556E-06  0.3146701E+04  0.7818609E-02  0.8203037E-01
        2   -1    0    0  501    0  0.00000000000E+00  0.00000000000E+00  0.10200665601E+04  0.10200665601E+04  0.25500000920E-02 0. -1.
       -2   -1    0    0    0  501  0.00000000000E+00  0.00000000000E+00 -0.24267353338E+04  0.24267353338E+04  0.25500000920E-02 0.  1.
    10030    2    1    2    0    0  0.00000000000E+00  0.00000000000E+00 -0.14066687736E+04  0.34468018939E+04  0.31467008528E+04 0.  0.
        3    1    3    3  502    0  0.67045158451E+03  0.78064852819E+02  0.85341427339E+03  0.10880787566E+04  0.10100000352E+00 0. -1.
       -3    1    3    3    0  502 -0.67045158451E+03 -0.78064852819E+02 -0.22600830470E+04  0.23587231372E+04  0.10100000352E+00 0.  1.
</event>
<event>
 5   0  0.1672907E-06  0.2981010E+04  0.7818609E-02  0.8249174E-01
       -1   -1    0    0    0  501  0.00000000000E+00  0.00000000000E+00  0.12936312872E+04  0.12936312872E+04  0.50400001928E-02 0.  1.
        1   -1    0    0  501    0  0.00000000000E+00  0.00000000000E+00 -0.17173402430E+04  0.17173402430E+04  0.50400001928E-02 0. -1.
    10030    2    1    2    0    0  0.00000000000E+00  0.00000000000E+00 -0.42370895575E+03  0.30109715302E+04  0.29810099424E+04 0.  0.
        5    1    3    3  502    0  0.31763890171E+03 -0.67681111565E+01 -0.16827335728E+04  0.17124703344E+04  0.46999998093E+01 0. -1.
       -5    1    3    3    0  502 -0.31763890171E+03  0.67681111565E+01  0.12590246171E+04  0.12985011958E+04  0.46999998093E+01 0.  1.
</event>
<event>
 5   0  0.1686012E-06  0.3007623E+04  0.7818609E-02  0.8241558E-01
       -1   -1    0    0    0  501  0.00000000000E+00  0.00000000000E+00  0.79403193611E+03  0.79403193613E+03  0.50400001928E-02 0. -1.
        1   -1    0    0  501    0  0.00000000000E+00  0.00000000000E+00 -0.28480571915E+04  0.28480571915E+04  0.50400001928E-02 0.  1.
    10030    2    1    2    0    0  0.00000000000E+00  0.00000000000E+00 -0.20540252554E+04  0.36420891276E+04  0.30076225601E+04 0.  0.
        4    1    3    3  502    0 -0.62160212060E+03  0.11570263248E+04 -0.19138631432E+04  0.23212007359E+04  0.12699999809E+01 0.  1.
       -4    1    3    3    0  502  0.62160212060E+03 -0.11570263248E+04 -0.14016211216E+03  0.13208883917E+04  0.12699999809E+01 0. -1.
</event>
<event>
 5   0  0.5003556E-06  0.3003093E+04  0.7818609E-02  0.8242848E-01
       -2   -1    0    0    0  501  0.00000000000E+00  0.00000000000E+00  0.15181521539E+04  0.15181521539E+04  0.25500000920E-02 0.  1.
        2   -1    0    0  501    0  0.00000000000E+00  0.00000000000E+00 -0.14851228898E+04  0.14851228898E+04  0.25500000920E-02 0. -1.
    10030    2    1    2    0    0  0.00000000000E+00  0.00000000000E+00  0.33029264087E+02  0.30032750436E+04  0.30030934144E+04 0.  0.
        3    1    3    3  502    0  0.65516511973E+03 -0.21460898838E+03 -0.13174866387E+04  0.14869665111E+04  0.10100000352E+00 0. -1.
       -3    1    3    3    0  502 -0.65516511973E+03  0.21460898838E+03  0.13505159027E+04  0.15163085325E+04  0.10100000352E+00 0.  1.
</event>
<event>
 5   0  0.4935331E-06  0.2990502E+04  0.7818609E-02  0.8246448E-01
       -2   -1    0    0    0  501  0.00000000000E+00  0.00000000000E+00  0.14400160951E+04  0.14400160951E+04  0.25500000920E-02 0. -1.
        2   -1    0    0  501    0  0.00000000000E+00  0.00000000000E+00 -0.15526046200E+04  0.15526046200E+04  0.25500000920E-02 0.  1.
    10030    2    1    2    0    0  0.00000000000E+00  0.00000000000E+00 -0.11258852487E+03  0.29926207151E+04  0.29905020596E+04 0.  0.
        5    1    3    3  502    0  0.23959982364E+03 -0.10676880761E+04  0.96344074493E+03  0.14579458366E+04  0.46999998093E+01 0. -1.
       -5    1    3    3    0  502 -0.23959982364E+03  0.10676880761E+04 -0.10760292698E+04  0.15346748785E+04  0.46999998093E+01 0.  1.
</event>
<event>
 5   0  0.4935331E-06  0.2875841E+04  0.7818609E-02  0.8280102E-01
       -2   -1    0    0    0  501  0.00000000000E+00  0.00000000000E+00  0.21865107582E+04  0.21865107582E+04  0.25500000920E-02 0. -1.
        2   -1    0    0  501    0  0.00000000000E+00  0.00000000000E+00 -0.94562310710E+03  0.94562310710E+03  0.25500000920E-02 0.  1.
    10030    2    1    2    0    0  0.00000000000E+00  0.00000000000E+00  0.12408876511E+04  0.31321338653E+04  0.28758408140E+04 0.  0.
        5    1    3    3  502    0 -0.22195143873E+03 -0.13911418736E+04  0.93431973198E+03  0.16904181747E+04  0.46999998093E+01 0. -1.
       -5    1    3    3    0  502  0.22195143873E+03  0.13911418736E+04  0.30656791912E+03  0.14417156906E+04  0.46999998093E+01 0.  1.
</event>
<event>
 5   0  0.4935331E-06  0.2973499E+04  0.7818609E-02  0.8251339E-01
       -2   -1    0    0    0  501  0.00000000000E+00  0.00000000000E+00  0.13166782525E+04  0.13166782525E+04  0.25500000920E-02 0. -1.
        2   -1    0    0  501    0  0.00000000000E+00  0.00000000000E+00 -0.16787884751E+04  0.16787884751E+04  0.25500000920E-02 0.  1.
    10030    2    1    2    0    0  0.00000000000E+00  0.00000000000E+00 -0.36211022258E+03  0.29954667276E+04  0.29734991345E+04 0.  0.
        5    1    3    3  502    0  0.60493612055E+03 -0.12918482899E+03  0.11808816790E+04  0.13330941676E+04  0.46999998093E+01 0. -1.
       -5    1    3    3    0  502 -0.60493612055E+03  0.12918482899E+03 -0.15429919016E+04  0.16623725600E+04  0.46999998093E+01 0.  1.
</event>
<event>
 5   0  0.4702748E-06  0.2777837E+04  0.7818609E-02  0.8310182E-01
        2   -1    0    0  501    0  0.00000000000E+00  0.00000000000E+00  0.13771095134E+04  0.13771095134E+04  0.25500000920E-02 0. -1.
       -2   -1    0    0    0  501  0.00000000000E+00  0.00000000000E+00 -0.14008285693E+04  0.14008285693E+04  0.25500000920E-02 0.  1.
    10030    2    1    2    0    0  0.00000000000E+00  0.00000000000E+00 -0.23719055907E+02  0.27779380827E+04  0.27778368198E+04 0.  0.
        2    1    3    3  502    0  0.40412113307E+03 -0.10355212978E+04 -0.84464200957E+03  0.13960796441E+04  0.25500000920E-02 0.  1.
       -2    1    3    3    0  502 -0.40412113307E+03  0.10355212978E+04  0.82092295366E+03  0.13818584386E+04  0.25500000920E-02 0. -1.
</event>
<event>
 5   0  0.4532420E-06  0.2972723E+04  0.7818609E-02  0.8251563E-01
        2   -1    0    0  501    0  0.00000000000E+00  0.00000000000E+00  0.28293695731E+04  0.28293695731E+04  0.25500000920E-02 0. -1.
       -2   -1    0    0    0  501  0.00000000000E+00  0.00000000000E+00 -0.78083499147E+03  0.78083499147E+03  0.25500000920E-02 0.  1.
    10030    2    1    2    0    0  0.00000000000E+00  0.00000000000E+00  0.20485345816E+04  0.36102045646E+04  0.29727231734E+04 0.  0.
        4    1    3    3  502    0  0.71271863655E+02  0.11533193965E+04 -0.11111979906E+03  0.11608507792E+04  0.12699999809E+01 0.  1.
       -4    1    3    3    0  502 -0.71271863655E+02 -0.11533193965E+04  0.21596543807E+04  0.24493537854E+04  0.12699999809E+01 0. -1.
</event>
<event>
 5   0  0.4935331E-06  0.2996624E+04  0.7818609E-02  0.8244696E-01
       -2   -1    0    0    0  501  0.00000000000E+00  0.00000000000E+00  0.15073295099E+04  0.15073295099E+04  0.25500000920E-02 0.  1.
        2   -1    0    0  501    0  0.00000000000E+00  0.00000000000E+00 -0.14893481578E+04  0.14893481578E+04  0.25500000920E-02 0. -1.
    10030    2    1    2    0    0  0.00000000000E+00  0.00000000000E+00  0.17981352126E+02  0.29966776678E+04  0.29966237194E+04 0.  0.
        5    1    3    3  502    0  0.20261608099E+03  0.10982074557E+04 -0.98992842686E+03  0.14923448906E+04  0.46999998093E+01 0. -1.
       -5    1    3    3    0  502 -0.20261608099E+03 -0.10982074557E+04  0.10079097790E+04  0.15043327772E+04  0.46999998093E+01 0.  1.
</event>
<event>
 5   0  0.4935331E-06  0.3011203E+04  0.7818609E-02  0.8240539E-01
       -2   -1    0    0    0  501  0.00000000000E+00  0.00000000000E+00  0.29939431915E+04  0.29939431915E+04  0.25500000920E-02 0. -1.
        2   -1    0    0  501    0  0.00000000000E+00  0.00000000000E+00 -0.75714072811E+03  0.75714072812E+03  0.25500000920E-02 0.  1.
    10030    2    1    2    0    0  0.00000000000E+00  0.00000000000E+00  0.22368024633E+04  0.37510839196E+04  0.30112032996E+04 0.  0.
        5    1    3    3  502    0  0.47828088260E+03 -0.14153155262E+04  0.88553822325E+03  0.17366838158E+04  0.46999998093E+01 0. -1.
       -5    1    3    3    0  502 -0.47828088260E+03  0.14153155262E+04  0.13512642401E+04  0.20144001037E+04  0.46999998093E+01 0.  1.
</event>
<event>
 5   0  0.4532420E-06  0.2965748E+04  0.7818609E-02  0.8253580E-01
        2   -1    0    0  501    0  0.00000000000E+00  0.00000000000E+00  0.10284010635E+04  0.10284010636E+04  0.25500000920E-02 0. -1.
       -2   -1    0    0    0  501  0.00000000000E+00  0.00000000000E+00 -0.21381879245E+04  0.21381879245E+04  0.25500000920E-02 0.  1.
    10030    2    1    2    0    0  0.00000000000E+00  0.00000000000E+00 -0.11097868610E+04  0.31665889881E+04  0.29657476195E+04 0.  0.
        4    1    3    3  502    0  0.97243040522E+02 -0.81509535119E+03 -0.18734638197E+04  0.20454107013E+04  0.12699999809E+01 0.  1.
       -4    1    3    3    0  502 -0.97243040522E+02  0.81509535119E+03  0.76367695873E+03  0.11211782867E+04  0.12699999809E+01 0. -1.
</event>
<event>
 5   0  0.4768570E-06  0.3003686E+04  0.7818609E-02  0.8242679E-01
        2   -1    0    0  501    0  0.00000000000E+00  0.00000000000E+00  0.22153977533E+04  0.22153977533E+04  0.25500000920E-02 0.  1.
       -2   -1    0    0    0  501  0.00000000000E+00  0.00000000000E+00 -0.10181164778E+04  0.10181164778E+04  0.25500000920E-02 0. -1.
    10030    2    1    2    0    0  0.00000000000E+00  0.00000000000E+00  0.11972812755E+04  0.32335142311E+04  0.30036863734E+04 0.  0.
        1    1    3    3  502    0  0.69491580250E+03 -0.12063640300E+04 -0.77641583719E+01  0.13922221187E+04  0.50400001928E-02 0. -1.
       -1    1    3    3    0  502 -0.69491580250E+03  0.12063640300E+04  0.12050454339E+04  0.18412921124E+04  0.50400001928E-02 0.  1.
</event>
<event>
 5   0  0.1734885E-06  0.2961067E+04  0.7818609E-02  0.8254936E-01
        1   -1    0    0  501    0  0.00000000000E+00  0.00000000000E+00  0.25069516766E+04  0.25069516766E+04  0.50400001928E-02 0.  1.
       -1   -1    0    0    0  501  0.00000000000E+00  0.00000000000E+00 -0.87436075900E+03  0.87436075901E+03  0.50400001928E-02 0. -1.
    10030    2    1    2    0    0  0.00000000000E+00  0.00000000000E+00  0.16325909176E+04  0.33813124356E+04  0.29610674904E+04 0.  0.
        2    1    3    3  502    0 -0.71592001632E+03  0.61426816507E+02  0.22944867958E+04  0.24043677713E+04  0.25500000920E-02 0.  1.
       -2    1    3    3    0  502  0.71592001632E+03 -0.61426816507E+02 -0.66189587820E+03  0.97694466432E+03  0.25500000920E-02 0. -1.
</event>
<event>
 5   0  0.5003556E-06  0.2432204E+04  0.7818609E-02  0.8427544E-01
        2   -1    0    0  501    0  0.00000000000E+00  0.00000000000E+00  0.72050551944E+03  0.72050551944E+03  0.25500000920E-02 0. -1.
       -2   -1    0    0    0  501  0.00000000000E+00  0.00000000000E+00 -0.20525918345E+04  0.20525918345E+04  0.25500000920E-02 0.  1.
    10030    2    1    2    0    0  0.00000000000E+00  0.00000000000E+00 -0.13320863151E+04  0.27730973540E+04  0.24322037299E+04 0.  0.
        3    1    3    3  502    0  0.21879330858E+03 -0.42949094647E+00  0.69788029367E+03  0.73137378326E+03  0.10100000352E+00 0. -1.
       -3    1    3    3    0  502 -0.21879330858E+03  0.42949094647E+00 -0.20299666087E+04  0.20417235707E+04  0.10100000352E+00 0.  1.
</event>
<event>
 5   0  0.1686012E-06  0.2933796E+04  0.7818609E-02  0.8262893E-01
        1   -1    0    0  501    0  0.00000000000E+00  0.00000000000E+00  0.19135410211E+04  0.19135410212E+04  0.50400001928E-02 0. -1.
       -1   -1    0    0    0  501  0.00000000000E+00  0.00000000000E+00 -0.11245069503E+04  0.11245069503E+04  0.50400001928E-02 0.  1.
    10030    2    1    2    0    0  0.00000000000E+00  0.00000000000E+00  0.78903407081E+03  0.30380479715E+04  0.29337962970E+04 0.  0.
        4    1    3    3  502    0  0.27438639399E+03  0.14164147997E+04  0.66902123329E+03  0.15903175159E+04  0.12699999809E+01 0. -1.
       -4    1    3    3    0  502 -0.27438639399E+03 -0.14164147997E+04  0.12001283753E+03  0.14477304556E+04  0.12699999809E+01 0.  1.
</event>
<event>
 5   0  0.1700885E-06  0.2975128E+04  0.7818609E-02  0.8250869E-01
       -1   -1    0    0    0  501  0.00000000000E+00  0.00000000000E+00  0.18304324826E+04  0.18304324826E+04  0.50400001928E-02 0.  1.
        1   -1    0    0  501    0  0.00000000000E+00  0.00000000000E+00 -0.12089201736E+04  0.12089201736E+04  0.50400001928E-02 0. -1.
    10030    2    1    2    0    0  0.00000000000E+00  0.00000000000E+00  0.62151230895E+03  0.30393526562E+04  0.29751280676E+04 0.  0.
        1    1    3    3  502    0 -0.53108296026E+03  0.12093882979E+04  0.10097618902E+04  0.16626148804E+04  0.50400001928E-02 0.  1.
       -1    1    3    3    0  502  0.53108296026E+03 -0.12093882979E+04 -0.38824958122E+03  0.13767377757E+04  0.50400001928E-02 0. -1.
</event>
<event>
 5   0  0.1672907E-06  0.3009383E+04  0.7818609E-02  0.8241057E-01
       -1   -1    0    0    0  501  0.00000000000E+00  0.00000000000E+00  0.11453515545E+04  0.11453515545E+04  0.50400001928E-02 0.  1.
        1   -1    0    0  501    0  0.00000000000E+00  0.00000000000E+00 -0.19767692747E+04  0.19767692747E+04  0.50400001928E-02 0. -1.
    10030    2    1    2    0    0  0.00000000000E+00  0.00000000000E+00 -0.83141772028E+03  0.31221208292E+04  0.30093825025E+04 0.  0.
        5    1    3    3  502    0  0.13760702818E+04  0.60833399112E+03 -0.43732212470E+03  0.15668160058E+04  0.46999998093E+01 0. -1.
       -5    1    3    3    0  502 -0.13760702818E+04 -0.60833399112E+03 -0.39409559558E+03  0.15553048234E+04  0.46999998093E+01 0.  1.
</event>
<event>
 5   0  0.4532420E-06  0.3010368E+04  0.7818609E-02  0.8240776E-01
        2   -1    0    0  501    0  0.00000000000E+00  0.00000000000E+00  0.22746821873E+04  0.22746821873E+04  0.25500000920E-02 0.  1.
       -2   -1    0    0    0  501  0.00000000000E+00  0.00000000000E+00 -0.99599812453E+03  0.99599812453E+03  0.25500000920E-02 0. -1.
    10030    2    1    2    0    0  0.00000000000E+00  0.00000000000E+00  0.12786840628E+04  0.32706803119E+04  0.30103682117E+04 0.  0.
        4    1    3    3  502    0  0.42519880014E+03 -0.13764196554E+04  0.11132386987E+04  0.18206117380E+04  0.12699999809E+01 0.  1.
       -4    1    3    3    0  502 -0.42519880014E+03  0.13764196554E+04  0.16544536412E+03  0.14500685738E+04  0.12699999809E+01 0. -1.
</event>
<event>
 5   0  0.1686012E-06  0.3033262E+04  0.7818609E-02  0.8234296E-01
       -1   -1    0    0    0  501  0.00000000000E+00  0.00000000000E+00  0.13090735333E+04  0.13090735334E+04  0.50400001928E-02 0.  1.
        1   -1    0    0  501    0  0.00000000000E+00  0.00000000000E+00 -0.17570971544E+04  0.17570971545E+04  0.50400001928E-02 0. -1.
    10030    2    1    2    0    0  0.00000000000E+00  0.00000000000E+00 -0.44802362110E+03  0.30661706878E+04  0.30332618617E+04 0.  0.
        4    1    3    3  502    0  0.72681179758E+03 -0.12998679807E+04  0.65902190493E+02  0.14907236055E+04  0.12699999809E+01 0.  1.
       -4    1    3    3    0  502 -0.72681179758E+03  0.12998679807E+04 -0.51392581159E+03  0.15754470823E+04  0.12699999809E+01 0. -1.
</event>
<event>
 5   0  0.4702748E-06  0.2980094E+04  0.7818609E-02  0.8249438E-01
        2   -1    0    0  501    0  0.00000000000E+00  0.00000000000E+00  0.16266921606E+04  0.16266921607E+04  0.25500000920E-02 0.  1.
       -2   -1    0    0    0  501  0.00000000000E+00  0.00000000000E+00 -0.13648800772E+04  0.13648800772E+04  0.25500000920E-02 0. -1.
    10030    2    1    2    0    0  0.00000000000E+00  0.00000000000E+00  0.26181208341E+03  0.29915722379E+04  0.29800937716E+04 0.  0.
        2    1    3    3  502    0 -0.13666626622E+04  0.37400504680E+03  0.59376019145E+03  0.15362935176E+04  0.25500000920E-02 0.  1.
       -2    1    3    3    0  502  0.13666626622E+04 -0.37400504680E+03 -0.33194810803E+03  0.14552787203E+04  0.25500000920E-02 0. -1.
</event>
<event>
 5   0  0.4768570E-06  0.2988398E+04  0.7818609E-02  0.8247052E-01
       -2   -1    0    0    0  501  0.00000000000E+00  0.00000000000E+00  0.15208495465E+04  0.15208495465E+04  0.25500000920E-02 0.  1.
        2   -1    0    0  501    0  0.00000000000E+00  0.00000000000E+00 -0.14680151443E+04  0.14680151443E+04  0.25500000920E-02 0. -1.
    10030    2    1    2    0    0  0.00000000000E+00  0.00000000000E+00  0.52834402211E+02  0.29888646909E+04  0.29883976754E+04 0.  0.
        1    1    3    3  502    0  0.16553410435E+03  0.76423794553E+03  0.12998675258E+04  0.15169432295E+04  0.50400001928E-02 0.  1.
       -1    1    3    3    0  502 -0.16553410435E+03 -0.76423794553E+03 -0.12470331235E+04  0.14719214613E+04  0.50400001928E-02 0. -1.
</event>
<event>
 5   0  0.4935331E-06  0.3041003E+04  0.7818609E-02  0.8232118E-01
        2   -1    0    0  501    0  0.00000000000E+00  0.00000000000E+00  0.13688892743E+04  0.13688892743E+04  0.25500000920E-02 0. -1.
       -2   -1    0    0    0  501  0.00000000000E+00  0.00000000000E+00 -0.16889060374E+04  0.16889060374E+04  0.25500000920E-02 0.  1.
    10030    2    1    2    0    0  0.00000000000E+00  0.00000000000E+00 -0.32001676308E+03  0.30577953117E+04  0.30410033606E+04 0.  0.
        5    1    3    3  502    0 -0.17133535036E+03 -0.98615402301E+03 -0.13109016942E+04  0.16493455979E+04  0.46999998093E+01 0.  1.
       -5    1    3    3    0  502  0.17133535036E+03  0.98615402301E+03  0.99088493116E+03  0.14084497138E+04  0.46999998093E+01 0. -1.
</event>
<event>
 5   0  0.1734885E-06  0.2971299E+04  0.7818609E-02  0.8251974E-01
        1   -1    0    0  501    0  0.00000000000E+00  0.00000000000E+00  0.21539692137E+04  0.21539692137E+04  0.50400001928E-02 0. -1.
       -1   -1    0    0    0  501  0.00000000000E+00  0.00000000000E+00 -0.10246916396E+04  0.10246916396E+04  0.50400001928E-02 0.  1.
    10030    2    1    2    0    0  0.00000000000E+00  0.00000000000E+00  0.11292775741E+04  0.31786608534E+04  0.29712988711E+04 0.  0.
        2    1    3    3  502    0 -0.30124217931E+03 -0.14453771512E+04  0.38790572276E+03  0.15265427638E+04  0.25500000920E-02 0.  1.
       -2    1    3    3    0  502  0.30124217931E+03  0.14453771512E+04  0.74137185137E+03  0.16521180896E+04  0.25500000920E-02 0. -1.
</event>
<event>
 5   0  0.1686012E-06  0.2950292E+04  0.7818609E-02  0.8258069E-01
        1   -1    0    0  501    0  0.00000000000E+00  0.00000000000E+00  0.13803645929E+04  0.13803645929E+04  0.50400001928E-02 0. -1.
       -1   -1    0    0    0  501  0.00000000000E+00  0.00000000000E+00 -0.15764353233E+04  0.15764353233E+04  0.50400001928E-02 0.  1.
    10030    2    1    2    0    0  0.00000000000E+00  0.00000000000E+00 -0.19607073040E+03  0.29567999162E+04  0.29502918522E+04 0.  0.
        4    1    3    3  502    0 -0.42201891561E+03 -0.13434452454E+04 -0.53844619266E+03  0.15076043937E+04  0.12699999809E+01 0.  1.
       -4    1    3    3    0  502  0.42201891561E+03  0.13434452454E+04  0.34237546227E+03  0.14491955226E+04  0.12699999809E+01 0. -1.
</event>
<event>
 5   0  0.4532420E-06  0.3015725E+04  0.7818609E-02  0.8239255E-01
        2   -1    0    0  501    0  0.00000000000E+00  0.00000000000E+00  0.21693570058E+04  0.21693570058E+04  0.25500000920E-02 0. -1.
       -2   -1    0    0    0  501  0.00000000000E+00  0.00000000000E+00 -0.10480750523E+04  0.10480750523E+04  0.25500000920E-02 0.  1.
    10030    2    1    2    0    0  0.00000000000E+00  0.00000000000E+00  0.11212819535E+04  0.32174320581E+04  0.30157247602E+04 0.  0.
        4    1    3    3  502    0  0.82262801705E+03 -0.85383003440E+03 -0.43328426190E+03  0.12623309576E+04  0.12699999809E+01 0.  1.
       -4    1    3    3    0  502 -0.82262801705E+03  0.85383003440E+03  0.15545662154E+04  0.19551011004E+04  0.12699999809E+01 0. -1.
</event>
<event>
 5   0  0.5003556E-06  0.2998717E+04  0.7818609E-02  0.8244097E-01
        2   -1    0    0  501    0  0.00000000000E+00  0.00000000000E+00  0.15117919803E+04  0.15117919803E+04  0.25500000920E-02 0.  1.
       -2   -1    0    0    0  501  0.00000000000E+00  0.00000000000E+00 -0.14870277492E+04  0.14870277492E+04  0.25500000920E-02 0. -1.
    10030    2    1    2    0    0  0.00000000000E+00  0.00000000000E+00  0.24764231003E+02  0.29988197295E+04  0.29987174763E+04 0.  0.
        3    1    3    3  502    0  0.11260580763E+03 -0.88036213808E+03  0.12208764881E+04  0.15093896023E+04  0.10100000352E+00 0.  1.
       -3    1    3    3    0  502 -0.11260580763E+03  0.88036213808E+03 -0.11961122571E+04  0.14894301272E+04  0.10100000352E+00 0. -1.
</event>
<event>
 5   0  0.1700885E-06  0.3026594E+04  0.7818609E-02  0.8236177E-01
       -1   -1    0    0    0  501  0.00000000000E+00  0.00000000000E+00  0.12072200330E+04  0.12072200330E+04  0.50400001928E-02 0. -1.
        1   -1    0    0  501    0  0.00000000000E+00  0.00000000000E+00 -0.18969766436E+04  0.18969766436E+04  0.50400001928E-02 0.  1.
    10030    2    1    2    0    0  0.00000000000E+00  0.00000000000E+00 -0.68975661058E+03  0.31041966765E+04  0.30265942617E+04 0.  0.
        1    1    3    3  502    0  0.55309612333E+01  0.52340011225E+03  0.11114187664E+04  0.12285072012E+04  0.50400001928E-02 0. -1.
       -1    1    3    3    0  502 -0.55309612333E+01 -0.52340011225E+03 -0.18011753770E+04  0.18756894753E+04  0.50400001928E-02 0.  1.
</event>
<event>
 5   0  0.1709858E-06  0.2895701E+04  0.7818609E-02  0.8274158E-01
       -1   -1    0    0    0  501  0.00000000000E+00  0.00000000000E+00  0.12332979920E+04  0.12332979920E+04  0.50400001928E-02 0.  1.
        1   -1    0    0  501    0  0.00000000000E+00  0.00000000000E+00 -0.16997276584E+04  0.16997276584E+04  0.50400001928E-02 0. -1.
    10030    2    1    2    0    0  0.00000000000E+00  0.00000000000E+00 -0.46642966645E+03  0.29330256504E+04  0.28957007497E+04 0.  0.
        3    1    3    3  502    0  0.13068053824E+04 -0.28073938337E+03 -0.79690940842E+03  0.15561553664E+04  0.10100000352E+00 0. -1.
       -3    1    3    3    0  502 -0.13068053824E+04  0.28073938337E+03  0.33047974197E+03  0.13768702840E+04  0.10100000352E+00 0.  1.
</event>
<event>
 5   0  0.1734885E-06  0.2971182E+04  0.7818609E-02  0.8252008E-01
        1   -1    0    0  501    0  0.00000000000E+00  0.00000000000E+00  0.25457495877E+04  0.25457495877E+04  0.50400001928E-02 0. -1.
       -1   -1    0    0    0  501  0.00000000000E+00  0.00000000000E+00 -0.86692770446E+03  0.86692770448E+03  0.50400001928E-02 0.  1.
    10030    2    1    2    0    0  0.00000000000E+00  0.00000000000E+00  0.16788218833E+04  0.34126772922E+04  0.29711821528E+04 0.  0.
        2    1    3    3  502    0  0.86792886800E+03  0.42299354867E+03 -0.45740879328E+03  0.10683851676E+04  0.25500000920E-02 0.  1.
       -2    1    3    3    0  502 -0.86792886800E+03 -0.42299354867E+03  0.21362306766E+04  0.23442921246E+04  0.25500000920E-02 0. -1.
</event>
<event>
 5   0  0.1734885E-06  0.3094604E+04  0.7818609E-02  0.8217220E-01
       -1   -1    0    0    0  501  0.00000000000E+00  0.00000000000E+00  0.13730248941E+04  0.13730248941E+04  0.50400001928E-02 0. -1.
        1   -1    0    0  501    0  0.00000000000E+00  0.00000000000E+00 -0.17437005103E+04  0.17437005103E+04  0.50400001928E-02 0.  1.
    10030    2    1    2    0    0  0.00000000000E+00  0.00000000000E+00 -0.37067561627E+03  0.31167254044E+04  0.30946044713E+04 0.  0.
        2    1    3    3  502    0  0.10593124024E+04 -0.61716325426E+03 -0.11360723763E+04  0.16714346210E+04  0.25500000920E-02 0. -1.
       -2    1    3    3    0  502 -0.10593124024E+04  0.61716325426E+03  0.76539676002E+03  0.14452907834E+04  0.25500000920E-02 0.  1.
</event>
<event>
 5   0  0.4935331E-06  0.2996762E+04  0.7818609E-02  0.8244656E-01
       -2   -1    0    0    0  501  0.00000000000E+00  0.00000000000E+00  0.13018222532E+04  0.13018222532E+04  0.25500000920E-02 0.  1.
        2   -1    0    0  501    0  0.00000000000E+00  0.00000000000E+00 -0.17246174464E+04  0.17246174464E+04  0.25500000920E-02 0. -1.
    10030    2    1    2    0    0  0.00000000000E+00  0.00000000000E+00 -0.42279519320E+03  0.30264396996E+04  0.29967618323E+04 0.  0.
        5    1    3    3  502    0 -0.13469170863E+04 -0.55107847289E+03  0.14885652973E+03  0.14628921618E+04  0.46999998093E+01 0. -1.
       -5    1    3    3    0  502  0.13469170863E+04  0.55107847289E+03 -0.57165172293E+03  0.15635475378E+04  0.46999998093E+01 0.  1.
</event>
<event>
 5   0  0.1672907E-06  0.2999707E+04  0.7818609E-02  0.8243815E-01
        1   -1    0    0  501    0  0.00000000000E+00  0.00000000000E+00  0.19606182352E+04  0.19606182352E+04  0.50400001928E-02 0. -1.
       -1   -1    0    0    0  501  0.00000000000E+00  0.00000000000E+00 -0.11473728649E+04  0.11473728649E+04  0.50400001928E-02 0.  1.
    10030    2    1    2    0    0  0.00000000000E+00  0.00000000000E+00  0.81324537035E+03  0.31079911001E+04  0.29997067600E+04 0.  0.
        5    1    3    3  502    0  0.25253047100E+03  0.14385168054E+04  0.76016735368E+03  0.16465050057E+04  0.46999998093E+01 0.  1.
       -5    1    3    3    0  502 -0.25253047100E+03 -0.14385168054E+04  0.53078016672E+02  0.14614860944E+04  0.46999998093E+01 0. -1.
</event>
<event>
 5   0  0.1709858E-06  0.3035833E+04  0.7818609E-02  0.8233572E-01
        1   -1    0    0  501    0  0.00000000000E+00  0.00000000000E+00  0.24758683055E+04  0.24758683055E+04  0.50400001928E-02 0.  1.
       -1   -1    0    0    0  501  0.00000000000E+00  0.00000000000E+00 -0.93061087478E+03  0.93061087480E+03  0.50400001928E-02 0. -1.
    10030    2    1    2    0    0  0.00000000000E+00  0.00000000000E+00  0.15452574307E+04  0.34064791803E+04  0.30358326500E+04 0.  0.
        3    1    3    3  502    0 -0.69178358832E+03  0.25969386232E+03 -0.71517389641E+03  0.10283380512E+04  0.10100000352E+00 0. -1.
       -3    1    3    3    0  502  0.69178358832E+03 -0.25969386232E+03  0.22604313271E+04  0.23781411291E+04  0.10100000352E+00 0.  1.
</event>
<event>
 5   0  0.1672907E-06  0.3002682E+04  0.7818609E-02  0.8242965E-01
       -1   -1    0    0    0  501  0.00000000000E+00  0.00000000000E+00  0.18895234725E+04  0.18895234725E+04  0.50400001928E-02 0. -1.
        1   -1    0    0  501    0  0.00000000000E+00  0.00000000000E+00 -0.11929063690E+04  0.11929063690E+04  0.50400001928E-02 0.  1.
    10030    2    1    2    0    0  0.00000000000E+00  0.00000000000E+00  0.69661710349E+03  0.30824298415E+04  0.30026818577E+04 0.  0.
        5    1    3    3  502    0 -0.57892785616E+02 -0.11996434914E+04 -0.57645319966E+03  0.13322223773E+04  0.46999998093E+01 0.  1.
       -5    1    3    3    0  502  0.57892785616E+02  0.11996434914E+04  0.12730703031E+04  0.17502074642E+04  0.46999998093E+01 0. -1.
</event>
<event>
 5   0  0.1700885E-06  0.3044684E+04  0.7818609E-02  0.8231085E-01
        1   -1    0    0  501    0  0.00000000000E+00  0.00000000000E+00  0.17027599023E+04  0.17027599023E+04  0.50400001928E-02 0. -1.
       -1   -1    0    0    0  501  0.00000000000E+00  0.00000000000E+00 -0.13610407040E+04  0.13610407040E+04  0.50400001928E-02 0.  1.
    10030    2    1    2    0    0  0.00000000000E+00  0.00000000000E+00  0.34171919830E+03  0.30638006064E+04  0.30446842439E+04 0.  0.
        1    1    3    3  502    0 -0.12999251635E+04  0.40088455256E+02 -0.62538152829E+03  0.14430920174E+04  0.50400001928E-02 0.  1.
       -1    1    3    3    0  502  0.12999251635E+04 -0.40088455256E+02  0.96710072659E+03  0.16207085889E+04  0.50400001928E-02 0. -1.
</event>
<event>
 5   0  0.4702748E-06  0.2992184E+04  0.7818609E-02  0.8245966E-01
       -2   -1    0    0    0  501  0.00000000000E+00  0.00000000000E+00  0.90863723651E+03  0.90863723651E+03  0.25500000920E-02 0. -1.
        2   -1    0    0  501    0  0.00000000000E+00  0.00000000000E+00 -0.24633495310E+04  0.24633495310E+04  0.25500000920E-02 0.  1.
    10030    2    1    2    0    0  0.00000000000E+00  0.00000000000E+00 -0.15547122945E+04  0.33719867675E+04  0.29921838917E+04 0.  0.
        2    1    3    3  502    0  0.11652896540E+04  0.34206554057E+03 -0.17619760806E+04  0.21399692803E+04  0.25500000920E-02 0. -1.
       -2    1    3    3    0  502 -0.11652896540E+04 -0.34206554057E+03  0.20726378619E+03  0.12320174872E+04  0.25500000920E-02 0.  1.
</event>
<event>
 5   0  0.4768570E-06  0.3008022E+04  0.7818609E-02  0.8241444E-01
        2   -1    0    0  501    0  0.00000000000E+00  0.00000000000E+00  0.22358759261E+04  0.22358759261E+04  0.25500000920E-02 0. -1.
       -2   -1    0    0    0  501  0.00000000000E+00  0.00000000000E+00 -0.10117060218E+04  0.10117060218E+04  0.25500000920E-02 0.  1.
    10030    2    1    2    0    0  0.00000000000E+00  0.00000000000E+00  0.12241699042E+04  0.32475819479E+04  0.30080220335E+04 0.  0.
        1    1    3    3  502    0 -0.81743724846E+03  0.19817071375E+03 -0.73403817206E+03  0.11163723953E+04  0.50400001928E-02 0.  1.
       -1    1    3    3    0  502  0.81743724846E+03 -0.19817071375E+03  0.19582080763E+04  0.21312095526E+04  0.50400001928E-02 0. -1.
</event>
<event>
 5   0  0.1545375E-06  0.3003230E+04  0.7818609E-02  0.8242809E-01
        3   -1    0    0  501    0  0.00000000000E+00  0.00000000000E+00  0.12535039260E+04  0.12535039301E+04  0.10100000352E+00 0.  1.
       -3   -1    0    0    0  501  0.00000000000E+00  0.00000000000E+00 -0.17988353687E+04  0.17988353716E+04  0.10100000352E+00 0. -1.
    10030    2    1    2    0    0  0.00000000000E+00  0.00000000000E+00 -0.54533144271E+03  0.30523393016E+04  0.30032297331E+04 0.  0.
        4    1    3    3  502    0  0.55185405311E+03  0.12188921778E+04 -0.96543079863E+03  0.16499391737E+04  0.12699999809E+01 0. -1.
       -4    1    3    3    0  502 -0.55185405311E+03 -0.12188921778E+04  0.42009935592E+03  0.14024001279E+04  0.12699999809E+01 0.  1.
</event>
<event>
 5   0  0.1734885E-06  0.2971288E+04  0.7818609E-02  0.8251978E-01
       -1   -1    0    0    0  501  0.00000000000E+00  0.00000000000E+00  0.88927246151E+03  0.88927246153E+03  0.50400001928E-02 0.  1.
        1   -1    0    0  501    0  0.00000000000E+00  0.00000000000E+00 -0.24819596296E+04  0.24819596296E+04  0.50400001928E-02 0. -1.
    10030    2    1    2    0    0  0.00000000000E+00  0.00000000000E+00 -0.15926871681E+04  0.33712320911E+04  0.29712881713E+04 0.  0.
        2    1    3    3  502    0 -0.12811675632E+04  0.28552017319E+03 -0.68146595642E+01  0.13126151507E+04  0.25500000920E-02 0.  1.
       -2    1    3    3    0  502  0.12811675632E+04 -0.28552017319E+03 -0.15858725085E+04  0.20586169404E+04  0.25500000920E-02 0. -1.
</event>
<event>
 5   0  0.1709858E-06  0.3022166E+04  0.7818609E-02  0.8237429E-01
        1   -1    0    0  501    0  0.00000000000E+00  0.00000000000E+00  0.16915809453E+04  0.16915809453E+04  0.50400001928E-02 0. -1.
       -1   -1    0    0    0  501  0.00000000000E+00  0.00000000000E+00 -0.13498449843E+04  0.13498449844E+04  0.50400001928E-02 0.  1.
    10030    2    1    2    0    0  0.00000000000E+00  0.00000000000E+00  0.34173596096E+03  0.30414259297E+04  0.30221661468E+04 0.  0.
        3    1    3    3  502    0 -0.26985826699E+03  0.24259497536E+03  0.16470822126E+04  0.16865810481E+04  0.10100000352E+00 0. -1.
       -3    1    3    3    0  502  0.26985826699E+03 -0.24259497536E+03 -0.13053462517E+04  0.13548448816E+04  0.10100000352E+00 0.  1.
</event>
<event>
 5   0  0.4702748E-06  0.3004204E+04  0.7818609E-02  0.8242531E-01
        2   -1    0    0  501    0  0.00000000000E+00  0.00000000000E+00  0.12046883196E+04  0.12046883196E+04  0.25500000920E-02 0.  1.
       -2   -1    0    0    0  501  0.00000000000E+00  0.00000000000E+00 -0.18729414284E+04  0.18729414284E+04  0.25500000920E-02 0. -1.
    10030    2    1    2    0    0  0.00000000000E+00  0.00000000000E+00 -0.66825310880E+03  0.30776297479E+04  0.30042041622E+04 0.  0.
        2    1    3    3  502    0  0.87510106375E+03 -0.68770890068E+03  0.69927250777E+03  0.13144304637E+04  0.25500000920E-02 0.  1.
       -2    1    3    3    0  502 -0.87510106375E+03  0.68770890068E+03 -0.13675256166E+04  0.17631992842E+04  0.25500000920E-02 0. -1.
</event>
<event>
 5   0  0.4768570E-06  0.2929219E+04  0.7818609E-02  0.8264237E-01
       -2   -1    0    0    0  501  0.00000000000E+00  0.00000000000E+00  0.12337393239E+04  0.12337393239E+04  0.25500000920E-02 0. -1.
        2   -1    0    0  501    0  0.00000000000E+00  0.00000000000E+00 -0.17386829802E+04  0.17386829802E+04  0.25500000920E-02 0.  1.
    10030    2    1    2    0    0  0.00000000000E+00  0.00000000000E+00 -0.50494365635E+03  0.29724223041E+04  0.29292193940E+04 0.  0.
        1    1    3    3  502    0 -0.80804323663E+03  0.12169432952E+04 -0.14509667496E+03  0.14679706745E+04  0.50400001928E-02 0. -1.
       -1    1    3    3    0  502  0.80804323663E+03 -0.12169432952E+04 -0.35984698140E+03  0.15044516297E+04  0.50400001928E-02 0.  1.
</event>
<event>
 5   0  0.1700885E-06  0.3013930E+04  0.7818609E-02  0.8239764E-01
       -1   -1    0    0    0  501  0.00000000000E+00  0.00000000000E+00  0.12345128144E+04  0.12345128144E+04  0.50400001928E-02 0. -1.
        1   -1    0    0  501    0  0.00000000000E+00  0.00000000000E+00 -0.18395459297E+04  0.18395459297E+04  0.50400001928E-02 0.  1.
    10030    2    1    2    0    0  0.00000000000E+00  0.00000000000E+00 -0.60503311530E+03  0.30740587442E+04  0.30139296760E+04 0.  0.
        1    1    3    3  502    0  0.29629976395E+03 -0.93164944258E+03  0.86717524347E+03  0.13068118215E+04  0.50400001928E-02 0. -1.
       -1    1    3    3    0  502 -0.29629976395E+03  0.93164944258E+03 -0.14722083588E+04  0.17672469227E+04  0.50400001928E-02 0.  1.
</event>
<event>
 5   0  0.4702748E-06  0.2971394E+04  0.7818609E-02  0.8251947E-01
       -2   -1    0    0    0  501  0.00000000000E+00  0.00000000000E+00  0.96900588002E+03  0.96900588003E+03  0.25500000920E-02 0.  1.
        2   -1    0    0  501    0  0.00000000000E+00  0.00000000000E+00 -0.22778965697E+04  0.22778965697E+04  0.25500000920E-02 0. -1.
    10030    2    1    2    0    0  0.00000000000E+00  0.00000000000E+00 -0.13088906897E+04  0.32469024497E+04  0.29713937270E+04 0.  0.
        2    1    3    3  502    0  0.72881701302E+03 -0.11963288039E+04 -0.11952241710E+04  0.18414498810E+04  0.25500000920E-02 0.  1.
       -2    1    3    3    0  502 -0.72881701302E+03  0.11963288039E+04 -0.11366651873E+03  0.14054525687E+04  0.25500000920E-02 0. -1.
</event>
<event>
 5   0  0.1686012E-06  0.2968307E+04  0.7818609E-02  0.8252839E-01
        1   -1    0    0  501    0  0.00000000000E+00  0.00000000000E+00  0.21370085156E+04  0.21370085156E+04  0.50400001928E-02 0. -1.
       -1   -1    0    0    0  501  0.00000000000E+00  0.00000000000E+00 -0.10307451252E+04  0.10307451252E+04  0.50400001928E-02 0.  1.
    10030    2    1    2    0    0  0.00000000000E+00  0.00000000000E+00  0.11062633904E+04  0.31677536408E+04  0.29683066620E+04 0.  0.
        4    1    3    3  502    0  0.14005618941E+04 -0.38093460710E+03  0.88383163669E+03  0.16993659903E+04  0.12699999809E+01 0.  1.
       -4    1    3    3    0  502 -0.14005618941E+04  0.38093460710E+03  0.22243175368E+03  0.14683876505E+04  0.12699999809E+01 0. -1.
</event>
<event>
 5   0  0.1709858E-06  0.2984380E+04  0.7818609E-02  0.8248205E-01
        1   -1    0    0  501    0  0.00000000000E+00  0.00000000000E+00  0.89014351750E+03  0.89014351752E+03  0.50400001928E-02 0. -1.
       -1   -1    0    0    0  501  0.00000000000E+00  0.00000000000E+00 -0.25014286319E+04  0.25014286319E+04  0.50400001928E-02 0.  1.
    10030    2    1    2    0    0  0.00000000000E+00  0.00000000000E+00 -0.16112851144E+04  0.33915721494E+04  0.29843796549E+04 0.  0.
        3    1    3    3  502    0 -0.14158039695E+04  0.40060540048E+03 -0.52348247020E+03  0.15617360448E+04  0.10100000352E+00 0. -1.
       -3    1    3    3    0  502  0.14158039695E+04 -0.40060540048E+03 -0.10878026442E+04  0.18298361046E+04  0.10100000352E+00 0.  1.
</event>
<event>
 5   0  0.4935331E-06  0.3002480E+04  0.7818609E-02  0.8243023E-01
       -2   -1    0    0    0  501  0.00000000000E+00  0.00000000000E+00  0.30797350667E+04  0.30797350667E+04  0.25500000920E-02 0. -1.
        2   -1    0    0  501    0  0.00000000000E+00  0.00000000000E+00 -0.73179093807E+03  0.73179093807E+03  0.25500000920E-02 0.  1.
    10030    2    1    2    0    0  0.00000000000E+00  0.00000000000E+00  0.23479441287E+04  0.38115260048E+04  0.30024804502E+04 0.  0.
        5    1    3    3  502    0  0.16549843049E+03 -0.50290285006E+03 -0.60933513794E+03  0.80722512809E+03  0.46999998093E+01 0.  1.
       -5    1    3    3    0  502 -0.16549843049E+03  0.50290285006E+03  0.29572792666E+04  0.30043008767E+04  0.46999998093E+01 0. -1.
</event>
<event>
 5   0  0.4702748E-06  0.3003824E+04  0.7818609E-02  0.8242640E-01
       -2   -1    0    0    0  501  0.00000000000E+00  0.00000000000E+00  0.12302293805E+04  0.12302293805E+04  0.25500000920E-02 0.  1.
        2   -1    0    0  501    0  0.00000000000E+00  0.00000000000E+00 -0.18335931543E+04  0.18335931543E+04  0.25500000920E-02 0. -1.
    10030    2    1    2    0    0  0.00000000000E+00  0.00000000000E+00 -0.60336377382E+03  0.30638225348E+04  0.30038243426E+04 0.  0.
        2    1    3    3  502    0 -0.78716807294E+03  0.38050985323E+03 -0.15472696325E+04  0.17772069770E+04  0.25500000920E-02 0. -1.
       -2    1    3    3    0  502  0.78716807294E+03 -0.38050985323E+03  0.94390585868E+03  0.12866155578E+04  0.25500000920E-02 0.  1.
</event>
<event>
 5   0  0.1545375E-06  0.2997834E+04  0.7818609E-02  0.8244350E-01
        3   -1    0    0  501    0  0.00000000000E+00  0.00000000000E+00  0.24892920877E+04  0.24892920898E+04  0.10100000352E+00 0. -1.
       -3   -1    0    0    0  501  0.00000000000E+00  0.00000000000E+00 -0.90256646053E+03  0.90256646618E+03  0.10100000352E+00 0.  1.
    10030    2    1    2    0    0  0.00000000000E+00  0.00000000000E+00  0.15867256272E+04  0.33918585560E+04  0.29978335924E+04 0.  0.
        5    1    3    3  502    0 -0.10474714917E+04 -0.55132209606E+02 -0.41811645972E+03  0.11291942040E+04  0.46999998093E+01 0.  1.
       -5    1    3    3    0  502  0.10474714917E+04  0.55132209606E+02  0.20048420869E+04  0.22626643520E+04  0.46999998093E+01 0. -1.
</event>
<event>
 5   0  0.1672907E-06  0.3036088E+04  0.7818609E-02  0.8233500E-01
       -1   -1    0    0    0  501  0.00000000000E+00  0.00000000000E+00  0.16525705500E+04  0.16525705500E+04  0.50400001928E-02 0. -1.
        1   -1    0    0  501    0  0.00000000000E+00  0.00000000000E+00 -0.13944682533E+04  0.13944682533E+04  0.50400001928E-02 0.  1.
    10030    2    1    2    0    0  0.00000000000E+00  0.00000000000E+00  0.25810229673E+03  0.30470388033E+04  0.30360877249E+04 0.  0.
        5    1    3    3  502    0 -0.13758448845E+04 -0.64146069745E+03  0.12528184095E+03  0.15232001189E+04  0.46999998093E+01 0. -1.
       -5    1    3    3    0  502  0.13758448845E+04  0.64146069745E+03  0.13282045578E+03  0.15238386844E+04  0.46999998093E+01 0.  1.
</event>
<event>
 5   0  0.1734885E-06  0.3154337E+04  0.7818609E-02  0.8200982E-01
       -1   -1    0    0    0  501  0.00000000000E+00  0.00000000000E+00  0.11606347570E+04  0.11606347570E+04  0.50400001928E-02 0. -1.
        1   -1    0    0  501    0  0.00000000000E+00  0.00000000000E+00 -0.21431903694E+04  0.21431903694E+04  0.50400001928E-02 0.  1.
    10030    2    1    2    0    0  0.00000000000E+00  0.00000000000E+00 -0.98255561235E+03  0.33038251264E+04  0.31543374795E+04 0.  0.
        2    1    3    3  502    0 -0.33988545968E+03 -0.40205945039E+03  0.10658822698E+04  0.11888140899E+04  0.25500000920E-02 0. -1.
       -2    1    3    3    0  502  0.33988545968E+03  0.40205945039E+03 -0.20484378821E+04  0.21150110365E+04  0.25500000920E-02 0.  1.
</event>
<event>
 5   0  0.1700885E-06  0.3045515E+04  0.7818609E-02  0.8230852E-01
       -1   -1    0    0    0  501  0.00000000000E+00  0.00000000000E+00  0.24647634136E+04  0.24647634136E+04  0.50400001928E-02 0. -1.
        1   -1    0    0  501    0  0.00000000000E+00  0.00000000000E+00 -0.94077590194E+03  0.94077590195E+03  0.50400001928E-02 0.  1.
    10030    2    1    2    0    0  0.00000000000E+00  0.00000000000E+00  0.15239875117E+04  0.34055393156E+04  0.30455147503E+04 0.  0.
        1    1    3    3  502    0 -0.10655259625E+04  0.46845424967E+03 -0.33590576605E+03  0.12114568273E+04  0.50400001928E-02 0.  1.
       -1    1    3    3    0  502  0.10655259625E+04 -0.46845424967E+03  0.18598932777E+04  0.21940824882E+04  0.50400001928E-02 0. -1.
</event>
<event>
 5   0  0.4702748E-06  0.3032761E+04  0.7818609E-02  0.8234437E-01
        2   -1    0    0  501    0  0.00000000000E+00  0.00000000000E+00  0.15847988829E+04  0.15847988829E+04  0.25500000920E-02 0.  1.
       -2   -1    0    0    0  501  0.00000000000E+00  0.00000000000E+00 -0.14509155712E+04  0.14509155712E+04  0.25500000920E-02 0. -1.
    10030    2    1    2    0    0  0.00000000000E+00  0.00000000000E+00  0.13388331171E+03  0.30357144542E+04  0.30327607070E+04 0.  0.
        2    1    3    3  502    0  0.46659543298E+03  0.59996432791E+03 -0.12464875521E+04  0.14599314061E+04  0.25500000920E-02 0. -1.
       -2    1    3    3    0  502 -0.46659543298E+03 -0.59996432791E+03  0.13803708639E+04  0.15757830481E+04  0.25500000920E-02 0.  1.
</event>
<event>
 5   0  0.1700885E-06  0.2918383E+04  0.7818609E-02  0.8267429E-01
        1   -1    0    0  501    0  0.00000000000E+00  0.00000000000E+00  0.19087072629E+04  0.19087072629E+04  0.50400001928E-02 0.  1.
       -1   -1    0    0    0  501  0.00000000000E+00  0.00000000000E+00 -0.11155403512E+04  0.11155403512E+04  0.50400001928E-02 0. -1.
    10030    2    1    2    0    0  0.00000000000E+00  0.00000000000E+00  0.79316691171E+03  0.30242476141E+04  0.29183830937E+04 0.  0.
        1    1    3    3  502    0  0.65347983085E+03 -0.80531892357E+03 -0.66713434883E+03  0.12331434213E+04  0.50400001928E-02 0.  1.
       -1    1    3    3    0  502 -0.65347983085E+03  0.80531892357E+03  0.14603012605E+04  0.17911041928E+04  0.50400001928E-02 0. -1.
</event>
<event>
 5   0  0.1545375E-06  0.2947202E+04  0.7818609E-02  0.8258970E-01
       -4   -1    0    0    0  501  0.00000000000E+00  0.00000000000E+00  0.16616192539E+04  0.16616197392E+04  0.12699999809E+01 0.  1.
        4   -1    0    0  501    0  0.00000000000E+00  0.00000000000E+00 -0.13068566986E+04  0.13068573157E+04  0.12699999809E+01 0. -1.
    10030    2    1    2    0    0  0.00000000000E+00  0.00000000000E+00  0.35476255531E+03  0.29684770549E+04  0.29472019875E+04 0.  0.
        1    1    3    3  502    0  0.68099593009E+03  0.22658281286E+03  0.14736857426E+04  0.16391598140E+04  0.50400001928E-02 0.  1.
       -1    1    3    3    0  502 -0.68099593009E+03 -0.22658281286E+03 -0.11189231873E+04  0.13293172409E+04  0.50400001928E-02 0. -1.
</event>
<event>
 5   0  0.1709858E-06  0.2961231E+04  0.7818609E-02  0.8254889E-01
       -1   -1    0    0    0  501  0.00000000000E+00  0.00000000000E+00  0.10980416642E+04  0.10980416643E+04  0.50400001928E-02 0.  1.
        1   -1    0    0  501    0  0.00000000000E+00  0.00000000000E+00 -0.19964837163E+04  0.19964837163E+04  0.50400001928E-02 0. -1.
    10030    2    1    2    0    0  0.00000000000E+00  0.00000000000E+00 -0.89844205202E+03  0.30945253805E+04  0.29612310295E+04 0.  0.
        3    1    3    3  502    0  0.46102715806E+03 -0.73379628213E+03 -0.17037675959E+04  0.19114986412E+04  0.10100000352E+00 0. -1.
       -3    1    3    3    0  502 -0.46102715806E+03  0.73379628213E+03  0.80532554391E+03  0.11830267393E+04  0.10100000352E+00 0.  1.
</event>
<event>
 5   0  0.1545375E-06  0.2988746E+04  0.7818609E-02  0.8246952E-01
       -3   -1    0    0    0  501  0.00000000000E+00  0.00000000000E+00  0.21437815086E+04  0.21437815109E+04  0.10100000352E+00 0.  1.
        3   -1    0    0  501    0  0.00000000000E+00  0.00000000000E+00 -0.10416873166E+04  0.10416873215E+04  0.10100000352E+00 0. -1.
    10030    2    1    2    0    0  0.00000000000E+00  0.00000000000E+00  0.11020941920E+04  0.31854688324E+04  0.29887455687E+04 0.  0.
        3    1    3    3  502    0  0.11224618005E+04 -0.73831224051E+03  0.12484270850E+04  0.18340108109E+04  0.10100000352E+00 0.  1.
       -3    1    3    3    0  502 -0.11224618005E+04  0.73831224051E+03 -0.14633289296E+03  0.13514580215E+04  0.10100000352E+00 0. -1.
</event>
<event>
 5   0  0.1672907E-06  0.3036231E+04  0.7818609E-02  0.8233460E-01
        1   -1    0    0  501    0  0.00000000000E+00  0.00000000000E+00  0.25529414093E+04  0.25529414093E+04  0.50400001928E-02 0.  1.
       -1   -1    0    0    0  501  0.00000000000E+00  0.00000000000E+00 -0.90275241303E+03  0.90275241304E+03  0.50400001928E-02 0. -1.
    10030    2    1    2    0    0  0.00000000000E+00  0.00000000000E+00  0.16501889962E+04  0.34556938223E+04  0.30362305693E+04 0.  0.
        5    1    3    3  502    0 -0.20242043172E+03  0.12173360577E+04  0.18314240721E+04  0.22083970047E+04  0.46999998093E+01 0.  1.
       -5    1    3    3    0  502  0.20242043172E+03 -0.12173360577E+04 -0.18123507588E+03  0.12472968176E+04  0.46999998093E+01 0. -1.
</event>
<event>
 5   0  0.4702748E-06  0.3037292E+04  0.7818609E-02  0.8233162E-01
       -2   -1    0    0    0  501  0.00000000000E+00  0.00000000000E+00  0.12671556966E+04  0.12671556966E+04  0.25500000920E-02 0.  1.
        2   -1    0    0  501    0  0.00000000000E+00  0.00000000000E+00 -0.18200486713E+04  0.18200486713E+04  0.25500000920E-02 0. -1.
    10030    2    1    2    0    0  0.00000000000E+00  0.00000000000E+00 -0.55289297476E+03  0.30872043679E+04  0.30372915842E+04 0.  0.
        2    1    3    3  502    0 -0.74523665262E+03 -0.16136259240E+03 -0.16113719380E+04  0.17826763804E+04  0.25500000920E-02 0. -1.
       -2    1    3    3    0  502  0.74523665262E+03  0.16136259240E+03  0.10584789632E+04  0.13045279875E+04  0.25500000920E-02 0.  1.
</event>
<event>
 5   0  0.1545375E-06  0.2874663E+04  0.7818609E-02  0.8280456E-01
       -3   -1    0    0    0  501  0.00000000000E+00  0.00000000000E+00  0.10568204735E+04  0.10568204783E+04  0.10100000352E+00 0. -1.
        3   -1    0    0  501    0  0.00000000000E+00  0.00000000000E+00 -0.19548460568E+04  0.19548460594E+04  0.10100000352E+00 0.  1.
    10030    2    1    2    0    0  0.00000000000E+00  0.00000000000E+00 -0.89802558327E+03  0.30116665377E+04  0.28746626561E+04 0.  0.
        5    1    3    3  502    0 -0.46600553508E+02 -0.56804431315E+02  0.10548437206E+04  0.10574099110E+04  0.46999998093E+01 0. -1.
       -5    1    3    3    0  502  0.46600553508E+02  0.56804431315E+02 -0.19528693039E+04  0.19542566267E+04  0.46999998093E+01 0.  1.
</event>
<event>
 5   0  0.1700885E-06  0.2954554E+04  0.7818609E-02  0.8256829E-01
       -1   -1    0    0    0  501  0.00000000000E+00  0.00000000000E+00  0.12022429947E+04  0.12022429947E+04  0.50400001928E-02 0. -1.
        1   -1    0    0  501    0  0.00000000000E+00  0.00000000000E+00 -0.18152300293E+04  0.18152300293E+04  0.50400001928E-02 0.  1.
    10030    2    1    2    0    0  0.00000000000E+00  0.00000000000E+00 -0.61298703461E+03  0.30174730240E+04  0.29545541705E+04 0.  0.
        1    1    3    3  502    0 -0.22924933827E+03  0.12693467666E+03 -0.17913040840E+04  0.18103695735E+04  0.50400001928E-02 0.  1.
       -1    1    3    3    0  502  0.22924933827E+03 -0.12693467666E+03  0.11783170494E+04  0.12071034505E+04  0.50400001928E-02 0. -1.
</event>
<event>
 5   0  0.4702748E-06  0.3026223E+04  0.7818609E-02  0.8236282E-01
        2   -1    0    0  501    0  0.00000000000E+00  0.00000000000E+00  0.14867046911E+04  0.14867046911E+04  0.25500000920E-02 0. -1.
       -2   -1    0    0    0  501  0.00000000000E+00  0.00000000000E+00 -0.15399870257E+04  0.15399870257E+04  0.25500000920E-02 0.  1.
    10030    2    1    2    0    0  0.00000000000E+00  0.00000000000E+00 -0.53282334613E+02  0.30266917168E+04  0.30262226853E+04 0.  0.
        2    1    3    3  502    0  0.14627411738E+04 -0.37017618238E+03  0.86795050524E+02  0.15113489102E+04  0.25500000920E-02 0. -1.
       -2    1    3    3    0  502 -0.14627411738E+04  0.37017618238E+03 -0.14007738514E+03  0.15153428066E+04  0.25500000920E-02 0.  1.
</event>
<event>
 5   0  0.1734885E-06  0.2999472E+04  0.7818609E-02  0.8243882E-01
        1   -1    0    0  501    0  0.00000000000E+00  0.00000000000E+00  0.17530874809E+04  0.17530874809E+04  0.50400001928E-02 0.  1.
       -1   -1    0    0    0  501  0.00000000000E+00  0.00000000000E+00 -0.12829985681E+04  0.12829985681E+04  0.50400001928E-02 0. -1.
    10030    2    1    2    0    0  0.00000000000E+00  0.00000000000E+00  0.47008891276E+03  0.30360860490E+04  0.29994724388E+04 0.  0.
        2    1    3    3  502    0  0.57572967352E+03 -0.13123737636E+03 -0.11603773856E+04  0.13019844787E+04  0.25500000920E-02 0. -1.
       -2    1    3    3    0  502 -0.57572967352E+03  0.13123737636E+03  0.16304662983E+04  0.17341015703E+04  0.25500000920E-02 0.  1.
</event>
<event>
 5   0  0.1734885E-06  0.3116319E+04  0.7818609E-02  0.8211274E-01
       -1   -1    0    0    0  501  0.00000000000E+00  0.00000000000E+00  0.20475591507E+04  0.20475591507E+04  0.50400001928E-02 0. -1.
        1   -1    0    0  501    0  0.00000000000E+00  0.00000000000E+00 -0.11857341393E+04  0.11857341393E+04  0.50400001928E-02 0.  1.
    10030    2    1    2    0    0  0.00000000000E+00  0.00000000000E+00  0.86182501142E+03  0.32332932899E+04  0.31163188458E+04 0.  0.
        2    1    3    3  502    0  0.11701350174E+04  0.26951343735E+03  0.14611640823E+04  0.18912572346E+04  0.25500000920E-02 0. -1.
       -2    1    3    3    0  502 -0.11701350174E+04 -0.26951343735E+03 -0.59933907092E+03  0.13420360553E+04  0.25500000920E-02 0.  1.
</event>
<event>
 5   0  0.1686012E-06  0.2977450E+04  0.7818609E-02  0.8250200E-01
       -1   -1    0    0    0  501  0.00000000000E+00  0.00000000000E+00  0.93367115697E+03  0.93367115698E+03  0.50400001928E-02 0. -1.
        1   -1    0    0  501    0  0.00000000000E+00  0.00000000000E+00 -0.23737501569E+04  0.23737501569E+04  0.50400001928E-02 0.  1.
    10030    2    1    2    0    0  0.00000000000E+00  0.00000000000E+00 -0.14400790000E+04  0.33074213139E+04  0.29774499528E+04 0.  0.
        4    1    3    3  502    0  0.27513673273E+03 -0.69762536463E+03  0.70853264592E+03  0.10316983543E+04  0.12699999809E+01 0. -1.
       -4    1    3    3    0  502 -0.27513673273E+03  0.69762536463E+03 -0.21486116459E+04  0.22757229596E+04  0.12699999809E+01 0.  1.
</event>
<event>
 5   0  0.1686012E-06  0.3015376E+04  0.7818609E-02  0.8239354E-01
        1   -1    0    0  501    0  0.00000000000E+00  0.00000000000E+00  0.17416386223E+04  0.17416386223E+04  0.50400001928E-02 0. -1.
       -1   -1    0    0    0  501  0.00000000000E+00  0.00000000000E+00 -0.13051638126E+04  0.13051638126E+04  0.50400001928E-02 0.  1.
    10030    2    1    2    0    0  0.00000000000E+00  0.00000000000E+00  0.43647480972E+03  0.30468024349E+04  0.30153763974E+04 0.  0.
        4    1    3    3  502    0 -0.62331046710E+03  0.12598461013E+04 -0.33278445796E+03  0.14444636533E+04  0.12699999809E+01 0.  1.
       -4    1    3    3    0  502  0.62331046710E+03 -0.12598461013E+04  0.76925926768E+03  0.16023387816E+04  0.12699999809E+01 0. -1.
</event>
<event>
 5   0  0.1672907E-06  0.2784727E+04  0.7818609E-02  0.8308026E-01
       -1   -1    0    0    0  501  0.00000000000E+00  0.00000000000E+00  0.27796111643E+04  0.27796111643E+04  0.50400001928E-02 0.  1.
        1   -1    0    0  501    0  0.00000000000E+00  0.00000000000E+00 -0.69746282498E+03  0.69746282499E+03  0.50400001928E-02 0. -1.
    10030    2    1    2    0    0  0.00000000000E+00  0.00000000000E+00  0.20821483393E+04  0.34770739893E+04  0.27847265252E+04 0.  0.
        5    1    3    3  502    0  0.44865084189E+03  0.36913294006E+03  0.26210175098E+04  0.26846417977E+04  0.46999998093E+01 0.  1.
       -5    1    3    3    0  502 -0.44865084189E+03 -0.36913294006E+03 -0.53886917048E+03  0.79243219158E+03  0.46999998093E+01 0. -1.
</event>
<event>
 5   0  0.1709858E-06  0.3005131E+04  0.7818609E-02  0.8242267E-01
        1   -1    0    0  501    0  0.00000000000E+00  0.00000000000E+00  0.12526594450E+04  0.12526594451E+04  0.50400001928E-02 0.  1.
       -1   -1    0    0    0  501  0.00000000000E+00  0.00000000000E+00 -0.18023277043E+04  0.18023277043E+04  0.50400001928E-02 0. -1.
    10030    2    1    2    0    0  0.00000000000E+00  0.00000000000E+00 -0.54966825925E+03  0.30549871494E+04  0.30051308270E+04 0.  0.
        3    1    3    3  502    0  0.13909146671E+04 -0.49137163354E+03  0.15585515337E+02  0.14752398489E+04  0.10100000352E+00 0. -1.
       -3    1    3    3    0  502 -0.13909146671E+04  0.49137163354E+03 -0.56525377459E+03  0.15797473004E+04  0.10100000352E+00 0.  1.
</event>
<event>
 5   0  0.4935331E-06  0.2984216E+04  0.7818609E-02  0.8248253E-01
        2   -1    0    0  501    0  0.00000000000E+00  0.00000000000E+00  0.14677786376E+04  0.14677786376E+04  0.25500000920E-02 0. -1.
       -2   -1    0    0    0  501  0.00000000000E+00  0.00000000000E+00 -0.15168404696E+04  0.15168404696E+04  0.25500000920E-02 0.  1.
    10030    2    1    2    0    0  0.00000000000E+00  0.00000000000E+00 -0.49061831986E+02  0.29846191072E+04  0.29842158354E+04 0.  0.
        5    1    3    3  502    0 -0.11847930824E+04 -0.30270778061E+03  0.83056842296E+03  0.14782532407E+04  0.46999998093E+01 0. -1.
       -5    1    3    3    0  502  0.11847930824E+04  0.30270778061E+03 -0.87963025495E+03  0.15063658665E+04  0.46999998093E+01 0.  1.
</event>
<event>
 5   0  0.1672907E-06  0.3162011E+04  0.7818609E-02  0.8198923E-01
       -1   -1    0    0    0  501  0.00000000000E+00  0.00000000000E+00  0.18826386172E+04  0.18826386172E+04  0.50400001928E-02 0.  1.
        1   -1    0    0  501    0  0.00000000000E+00  0.00000000000E+00 -0.13276993352E+04  0.13276993353E+04  0.50400001928E-02 0. -1.
    10030    2    1    2    0    0  0.00000000000E+00  0.00000000000E+00  0.55493928197E+03  0.32103379525E+04  0.31620107784E+04 0.  0.
        5    1    3    3  502    0 -0.12152125606E+04 -0.98702082457E+03  0.50130291210E+03  0.16438608139E+04  0.46999998093E+01 0. -1.
       -5    1    3    3    0  502  0.12152125606E+04  0.98702082457E+03  0.53636369875E+02  0.15664771386E+04  0.46999998093E+01 0.  1.
</event>
<event>
 5   0  0.4768570E-06  0.3006579E+04  0.7818609E-02  0.8241855E-01
       -2   -1    0    0    0  501  0.00000000000E+00  0.00000000000E+00  0.96894130409E+03  0.96894130409E+03  0.25500000920E-02 0.  1.
        2   -1    0    0  501    0  0.00000000000E+00  0.00000000000E+00 -0.23323182213E+04  0.23323182213E+04  0.25500000920E-02 0. -1.
    10030    2    1    2    0    0  0.00000000000E+00  0.00000000000E+00 -0.13633769172E+04  0.33012595254E+04  0.30065790919E+04 0.  0.
        1    1    3    3  502    0  0.68388114136E+03  0.74518175148E+03 -0.19028485669E+04  0.21549528827E+04  0.50400001928E-02 0. -1.
       -1    1    3    3    0  502 -0.68388114136E+03 -0.74518175148E+03  0.53947164966E+03  0.11463066427E+04  0.50400001928E-02 0.  1.
</event>
<event>
 5   0  0.1709858E-06  0.2823014E+04  0.7818609E-02  0.8296159E-01
        1   -1    0    0  501    0  0.00000000000E+00  0.00000000000E+00  0.11347909200E+04  0.11347909200E+04  0.50400001928E-02 0. -1.
       -1   -1    0    0    0  501  0.00000000000E+00  0.00000000000E+00 -0.17556991986E+04  0.17556991986E+04  0.50400001928E-02 0.  1.
    10030    2    1    2    0    0  0.00000000000E+00  0.00000000000E+00 -0.62090827861E+03  0.28904901186E+04  0.28230136442E+04 0.  0.
        3    1    3    3  502    0  0.23461836224E+02 -0.17660762619E+03 -0.17441406721E+04  0.17532163032E+04  0.10100000352E+00 0.  1.
       -3    1    3    3    0  502 -0.23461836224E+02  0.17660762619E+03  0.11232323935E+04  0.11372738155E+04  0.10100000352E+00 0. -1.
</event>
<event>
 5   0  0.1686012E-06  0.3011630E+04  0.7818609E-02  0.8240418E-01
        1   -1    0    0  501    0  0.00000000000E+00  0.00000000000E+00  0.16424474230E+04  0.16424474230E+04  0.50400001928E-02 0. -1.
       -1   -1    0    0    0  501  0.00000000000E+00  0.00000000000E+00 -0.13805485586E+04  0.13805485587E+04  0.50400001928E-02 0.  1.
    10030    2    1    2    0    0  0.00000000000E+00  0.00000000000E+00  0.26189886432E+03  0.30229959816E+04  0.30116297398E+04 0.  0.
        4    1    3    3  502    0  0.14636505947E+04 -0.10259382209E+03 -0.20897041928E+03  0.14820488537E+04  0.12699999809E+01 0.  1.
       -4    1    3    3    0  502 -0.14636505947E+04  0.10259382209E+03  0.47086928359E+03  0.15409471279E+04  0.12699999809E+01 0. -1.
</event>
<event>
 5   0  0.4768570E-06  0.2914172E+04  0.7818609E-02  0.8268673E-01
       -2   -1    0    0    0  501  0.00000000000E+00  0.00000000000E+00  0.97329758094E+03  0.97329758095E+03  0.25500000920E-02 0.  1.
        2   -1    0    0  501    0  0.00000000000E+00  0.00000000000E+00 -0.21813462886E+04  0.21813462886E+04  0.25500000920E-02 0. -1.
    10030    2    1    2    0    0  0.00000000000E+00  0.00000000000E+00 -0.12080487077E+04  0.31546438696E+04  0.29141716257E+04 0.  0.
        1    1    3    3  502    0 -0.10988209000E+04  0.11123294911E+03 -0.16328831339E+04  0.19713161766E+04  0.50400001928E-02 0. -1.
       -1    1    3    3    0  502  0.10988209000E+04 -0.11123294911E+03  0.42483442620E+03  0.11833276930E+04  0.50400001928E-02 0.  1.
</event>
<event>
 5   0  0.5003556E-06  0.3023775E+04  0.7818609E-02  0.8236974E-01
       -2   -1    0    0    0  501  0.00000000000E+00  0.00000000000E+00  0.87796045912E+03  0.87796045913E+03  0.25500000920E-02 0.  1.
        2   -1    0    0  501    0  0.00000000000E+00  0.00000000000E+00 -0.26035389812E+04  0.26035389812E+04  0.25500000920E-02 0. -1.
    10030    2    1    2    0    0  0.00000000000E+00  0.00000000000E+00 -0.17255785220E+04  0.34814994403E+04  0.30237753086E+04 0.  0.
        3    1    3    3  502    0  0.11455866962E+04  0.72981853277E+03 -0.98359205931E+02  0.13618658205E+04  0.10100000352E+00 0.  1.
       -3    1    3    3    0  502 -0.11455866962E+04 -0.72981853277E+03 -0.16272193161E+04  0.21196336198E+04  0.10100000352E+00 0. -1.
</event>
<event>
 5   0  0.4768570E-06  0.2914761E+04  0.7818609E-02  0.8268499E-01
       -2   -1    0    0    0  501  0.00000000000E+00  0.00000000000E+00  0.10999030058E+04  0.10999030058E+04  0.25500000920E-02 0.  1.
        2   -1    0    0  501    0  0.00000000000E+00  0.00000000000E+00 -0.19310404606E+04  0.19310404606E+04  0.25500000920E-02 0. -1.
    10030    2    1    2    0    0  0.00000000000E+00  0.00000000000E+00 -0.83113745474E+03  0.30309434664E+04  0.29147605095E+04 0.  0.
        1    1    3    3  502    0  0.21068111194E+03 -0.32258097185E+03 -0.18771225604E+04  0.19162552339E+04  0.50400001928E-02 0. -1.
       -1    1    3    3    0  502 -0.21068111194E+03  0.32258097185E+03  0.10459851057E+04  0.11146882325E+04  0.50400001928E-02 0.  1.
</event>
<event>
 5   0  0.5003556E-06  0.3007459E+04  0.7818609E-02  0.8241604E-01
        2   -1    0    0  501    0  0.00000000000E+00  0.00000000000E+00  0.16561263804E+04  0.16561263804E+04  0.25500000920E-02 0.  1.
       -2   -1    0    0    0  501  0.00000000000E+00  0.00000000000E+00 -0.13653563415E+04  0.13653563415E+04  0.25500000920E-02 0. -1.
    10030    2    1    2    0    0  0.00000000000E+00  0.00000000000E+00  0.29077003885E+03  0.30214827219E+04  0.30074591640E+04 0.  0.
        3    1    3    3  502    0  0.40009836483E+03 -0.13466047193E+04  0.68433744911E+03  0.15626070287E+04  0.10100000352E+00 0.  1.
       -3    1    3    3    0  502 -0.40009836483E+03  0.13466047193E+04 -0.39356741026E+03  0.14588756932E+04  0.10100000352E+00 0. -1.
</event>
<event>
 5   0  0.4702748E-06  0.2972182E+04  0.7818609E-02  0.8251719E-01
        2   -1    0    0  501    0  0.00000000000E+00  0.00000000000E+00  0.16182086720E+04  0.16182086720E+04  0.25500000920E-02 0.  1.
       -2   -1    0    0    0  501  0.00000000000E+00  0.00000000000E+00 -0.13647602226E+04  0.13647602226E+04  0.25500000920E-02 0. -1.
    10030    2    1    2    0    0  0.00000000000E+00  0.00000000000E+00  0.25344844936E+03  0.29829688947E+04  0.29721822471E+04 0.  0.
        2    1    3    3  502    0  0.45690091378E+03  0.11415705075E+04  0.96433391471E+03  0.15626520943E+04  0.25500000920E-02 0.  1.
       -2    1    3    3    0  502 -0.45690091378E+03 -0.11415705075E+04 -0.71088546536E+03  0.14203168004E+04  0.25500000920E-02 0. -1.
</event>
<event>
 5   0  0.4768570E-06  0.2969672E+04  0.7818609E-02  0.8252445E-01
        2   -1    0    0  501    0  0.00000000000E+00  0.00000000000E+00  0.12415670792E+04  0.12415670792E+04  0.25500000920E-02 0.  1.
       -2   -1    0    0    0  501  0.00000000000E+00  0.00000000000E+00 -0.17757705743E+04  0.17757705743E+04  0.25500000920E-02 0. -1.
    10030    2    1    2    0    0  0.00000000000E+00  0.00000000000E+00 -0.53420349515E+03  0.30173376535E+04  0.29696722279E+04 0.  0.
        1    1    3    3  502    0  0.40148380212E+03 -0.14132664312E+04 -0.48555746786E+03  0.15473452438E+04  0.50400001928E-02 0. -1.
       -1    1    3    3    0  502 -0.40148380212E+03  0.14132664312E+04 -0.48646027292E+02  0.14699924098E+04  0.50400001928E-02 0.  1.
</event>
<event>
 5   0  0.1672907E-06  0.2911684E+04  0.7818609E-02  0.8269410E-01
        1   -1    0    0  501    0  0.00000000000E+00  0.00000000000E+00  0.16343714274E+04  0.16343714274E+04  0.50400001928E-02 0. -1.
       -1   -1    0    0    0  501  0.00000000000E+00  0.00000000000E+00 -0.12968142339E+04  0.12968142339E+04  0.50400001928E-02 0.  1.
    10030    2    1    2    0    0  0.00000000000E+00  0.00000000000E+00  0.33755719354E+03  0.29311856613E+04  0.29116841385E+04 0.  0.
        5    1    3    3  502    0 -0.14470046222E+04  0.22617969496E+02  0.32833332356E+03  0.14839672539E+04  0.46999998093E+01 0. -1.
       -5    1    3    3    0  502  0.14470046222E+04 -0.22617969496E+02  0.92238699805E+01  0.14472184075E+04  0.46999998093E+01 0.  1.
</event>
<event>
 5   0  0.1672907E-06  0.3013119E+04  0.7818609E-02  0.8239994E-01
        1   -1    0    0  501    0  0.00000000000E+00  0.00000000000E+00  0.11141110451E+04  0.11141110451E+04  0.50400001928E-02 0.  1.
       -1   -1    0    0    0  501  0.00000000000E+00  0.00000000000E+00 -0.20372493864E+04  0.20372493864E+04  0.50400001928E-02 0. -1.
    10030    2    1    2    0    0  0.00000000000E+00  0.00000000000E+00 -0.92313834132E+03  0.31513604316E+04  0.30131193425E+04 0.  0.
        5    1    3    3  502    0  0.13186460447E+03 -0.66360474304E+03  0.94627212941E+03  0.11632766489E+04  0.46999998093E+01 0.  1.
       -5    1    3    3    0  502 -0.13186460447E+03  0.66360474304E+03 -0.18694104707E+04  0.19880837827E+04  0.46999998093E+01 0. -1.
</event>
<event>
 5   0  0.4702748E-06  0.2996124E+04  0.7818609E-02  0.8244839E-01
        2   -1    0    0  501    0  0.00000000000E+00  0.00000000000E+00  0.21633318263E+04  0.21633318263E+04  0.25500000920E-02 0.  1.
       -2   -1    0    0    0  501  0.00000000000E+00  0.00000000000E+00 -0.10373764078E+04  0.10373764078E+04  0.25500000920E-02 0. -1.
    10030    2    1    2    0    0  0.00000000000E+00  0.00000000000E+00  0.11259554186E+04  0.32007082341E+04  0.29961237616E+04 0.  0.
        2    1    3    3  502    0 -0.13958357621E+04 -0.35018380348E+03  0.10075724582E+04  0.17567550852E+04  0.25500000920E-02 0.  1.
       -2    1    3    3    0  502  0.13958357621E+04  0.35018380348E+03  0.11838296036E+03  0.14439531489E+04  0.25500000920E-02 0. -1.
</event>
<event>
 5   0  0.1709858E-06  0.3016979E+04  0.7818609E-02  0.8238899E-01
        1   -1    0    0  501    0  0.00000000000E+00  0.00000000000E+00  0.18477101724E+04  0.18477101724E+04  0.50400001928E-02 0.  1.
       -1   -1    0    0    0  501  0.00000000000E+00  0.00000000000E+00 -0.12315459626E+04  0.12315459626E+04  0.50400001928E-02 0. -1.
    10030    2    1    2    0    0  0.00000000000E+00  0.00000000000E+00  0.61616420975E+03  0.30792561350E+04  0.30169786230E+04 0.  0.
        3    1    3    3  502    0  0.12491588030E+04 -0.81595199951E+03  0.81314273778E+02  0.14942514521E+04  0.10100000352E+00 0.  1.
       -3    1    3    3    0  502 -0.12491588030E+04  0.81595199951E+03  0.53484993598E+03  0.15850046829E+04  0.10100000352E+00 0. -1.
</event>
<event>
 5   0  0.1672907E-06  0.2963029E+04  0.7818609E-02  0.8254368E-01
       -1   -1    0    0    0  501  0.00000000000E+00  0.00000000000E+00  0.21513782174E+04  0.21513782174E+04  0.50400001928E-02 0.  1.
        1   -1    0    0  501    0  0.00000000000E+00  0.00000000000E+00 -0.10202225965E+04  0.10202225965E+04  0.50400001928E-02 0. -1.
    10030    2    1    2    0    0  0.00000000000E+00  0.00000000000E+00  0.11311556209E+04  0.31716008139E+04  0.29630286337E+04 0.  0.
        5    1    3    3  502    0 -0.10589979564E+03  0.94233179257E+03 -0.65281678658E+03  0.11512583641E+04  0.46999998093E+01 0. -1.
       -5    1    3    3    0  502  0.10589979564E+03 -0.94233179257E+03  0.17839724075E+04  0.20203424499E+04  0.46999998093E+01 0.  1.
</event>
<event>
 5   0  0.1734885E-06  0.3003584E+04  0.7818609E-02  0.8242708E-01
       -1   -1    0    0    0  501  0.00000000000E+00  0.00000000000E+00  0.97704847885E+03  0.97704847886E+03  0.50400001928E-02 0. -1.
        1   -1    0    0  501    0  0.00000000000E+00  0.00000000000E+00 -0.23083596050E+04  0.23083596050E+04  0.50400001928E-02 0.  1.
    10030    2    1    2    0    0  0.00000000000E+00  0.00000000000E+00 -0.13313111261E+04  0.32854080838E+04  0.30035840196E+04 0.  0.
        2    1    3    3  502    0  0.13540012523E+04 -0.52192492051E+03 -0.10888052559E+04  0.18141725109E+04  0.25500000920E-02 0.  1.
       -2    1    3    3    0  502 -0.13540012523E+04  0.52192492051E+03 -0.24250587018E+03  0.14712355729E+04  0.25500000920E-02 0. -1.
</event>
<event>
 5   0  0.5003556E-06  0.2989690E+04  0.7818609E-02  0.8246681E-01
       -2   -1    0    0    0  501  0.00000000000E+00  0.00000000000E+00  0.13946964621E+04  0.13946964621E+04  0.25500000920E-02 0.  1.
        2   -1    0    0  501    0  0.00000000000E+00  0.00000000000E+00 -0.16021851906E+04  0.16021851906E+04  0.25500000920E-02 0. -1.
    10030    2    1    2    0    0  0.00000000000E+00  0.00000000000E+00 -0.20748872843E+03  0.29968816527E+04  0.29896902963E+04 0.  0.
        3    1    3    3  502    0  0.11246368064E+04  0.23831412335E+03 -0.10615323178E+04  0.15647531562E+04  0.10100000352E+00 0. -1.
       -3    1    3    3    0  502 -0.11246368064E+04 -0.23831412335E+03  0.85404358936E+03  0.14321284965E+04  0.10100000352E+00 0.  1.
</event>
<event>
 5   0  0.1545375E-06  0.2990331E+04  0.7818609E-02  0.8246497E-01
       -3   -1    0    0    0  501  0.00000000000E+00  0.00000000000E+00  0.14052207367E+04  0.14052207404E+04  0.10100000352E+00 0. -1.
        3   -1    0    0  501    0  0.00000000000E+00  0.00000000000E+00 -0.15908670773E+04  0.15908670805E+04  0.10100000352E+00 0.  1.
    10030    2    1    2    0    0  0.00000000000E+00  0.00000000000E+00 -0.18564634050E+03  0.29960878208E+04  0.29903306952E+04 0.  0.
        2    1    3    3  502    0 -0.14085928783E+04  0.98054347514E+02 -0.58547182608E+03  0.15285698581E+04  0.25500000920E-02 0. -1.
       -2    1    3    3    0  502  0.14085928783E+04 -0.98054347514E+02  0.39982548557E+03  0.14675179627E+04  0.25500000920E-02 0.  1.
</event>
<event>
 5   0  0.4702748E-06  0.3009926E+04  0.7818609E-02  0.8240902E-01
       -2   -1    0    0    0  501  0.00000000000E+00  0.00000000000E+00  0.17785694867E+04  0.17785694867E+04  0.25500000920E-02 0.  1.
        2   -1    0    0  501    0  0.00000000000E+00  0.00000000000E+00 -0.12734471433E+04  0.12734471433E+04  0.25500000920E-02 0. -1.
    10030    2    1    2    0    0  0.00000000000E+00  0.00000000000E+00  0.50512234340E+03  0.30520166301E+04  0.30099263992E+04 0.  0.
        2    1    3    3  502    0 -0.10687756234E+04  0.96981728577E+01 -0.82175399955E+03  0.13482043701E+04  0.25500000920E-02 0. -1.
       -2    1    3    3    0  502  0.10687756234E+04 -0.96981728577E+01  0.13268763429E+04  0.17038122600E+04  0.25500000920E-02 0.  1.
</event>
<event>
 5   0  0.1700885E-06  0.2942895E+04  0.7818609E-02  0.8260228E-01
       -1   -1    0    0    0  501  0.00000000000E+00  0.00000000000E+00  0.76803827748E+03  0.76803827750E+03  0.50400001928E-02 0.  1.
        1   -1    0    0  501    0  0.00000000000E+00  0.00000000000E+00 -0.28190748480E+04  0.28190748480E+04  0.50400001928E-02 0. -1.
    10030    2    1    2    0    0  0.00000000000E+00  0.00000000000E+00 -0.20510365705E+04  0.35871131255E+04  0.29428947588E+04 0.  0.
        1    1    3    3  502    0 -0.66675724662E+03 -0.36687858370E+03 -0.25605624483E+04  0.26712628423E+04  0.50400001928E-02 0. -1.
       -1    1    3    3    0  502  0.66675724662E+03  0.36687858370E+03  0.50952587777E+03  0.91585028320E+03  0.50400001928E-02 0.  1.
</event>
<event>
 5   0  0.4768570E-06  0.2979056E+04  0.7818609E-02  0.8249737E-01
        2   -1    0    0  501    0  0.00000000000E+00  0.00000000000E+00  0.14485858759E+04  0.14485858759E+04  0.25500000920E-02 0. -1.
       -2   -1    0    0    0  501  0.00000000000E+00  0.00000000000E+00 -0.15316272467E+04  0.15316272467E+04  0.25500000920E-02 0.  1.
    10030    2    1    2    0    0  0.00000000000E+00  0.00000000000E+00 -0.83041370725E+02  0.29802131226E+04  0.29790559557E+04 0.  0.
        1    1    3    3  502    0  0.86508847199E+03 -0.10405994207E+04 -0.66423205377E+03  0.15074579397E+04  0.50400001928E-02 0. -1.
       -1    1    3    3    0  502 -0.86508847199E+03  0.10405994207E+04  0.58119068305E+03  0.14727551829E+04  0.50400001928E-02 0.  1.
</event>
<event>
 5   0  0.1734885E-06  0.2870800E+04  0.7818609E-02  0.8281619E-01
        1   -1    0    0  501    0  0.00000000000E+00  0.00000000000E+00  0.15568159559E+04  0.15568159559E+04  0.50400001928E-02 0. -1.
       -1   -1    0    0    0  501  0.00000000000E+00  0.00000000000E+00 -0.13234534462E+04  0.13234534462E+04  0.50400001928E-02 0.  1.
    10030    2    1    2    0    0  0.00000000000E+00  0.00000000000E+00  0.23336250971E+03  0.28802694021E+04  0.28708001964E+04 0.  0.
        2    1    3    3  502    0 -0.15051689103E+03  0.13331976293E+04 -0.39519979671E+03  0.13986615504E+04  0.25500000920E-02 0.  1.
       -2    1    3    3    0  502  0.15051689103E+03 -0.13331976293E+04  0.62856230641E+03  0.14816078517E+04  0.25500000920E-02 0. -1.
</event>
<event>
 5   0  0.1709858E-06  0.2995979E+04  0.7818609E-02  0.8244880E-01
        1   -1    0    0  501    0  0.00000000000E+00  0.00000000000E+00  0.19417990647E+04  0.19417990647E+04  0.50400001928E-02 0. -1.
       -1   -1    0    0    0  501  0.00000000000E+00  0.00000000000E+00 -0.11556151556E+04  0.11556151556E+04  0.50400001928E-02 0.  1.
    10030    2    1    2    0    0  0.00000000000E+00  0.00000000000E+00  0.78618390909E+03  0.30974142202E+04  0.29959789240E+04 0.  0.
        3    1    3    3  502    0 -0.62464879362E+03  0.76253443418E+03  0.15592569409E+04  0.18447024412E+04  0.10100000352E+00 0. -1.
       -3    1    3    3    0  502  0.62464879362E+03 -0.76253443418E+03 -0.77307303179E+03  0.12527117790E+04  0.10100000352E+00 0.  1.
</event>
<event>
 5   0  0.1672907E-06  0.2628422E+04  0.7818609E-02  0.8358611E-01
        1   -1    0    0  501    0  0.00000000000E+00  0.00000000000E+00  0.11249361692E+04  0.11249361692E+04  0.50400001928E-02 0. -1.
       -1   -1    0    0    0  501  0.00000000000E+00  0.00000000000E+00 -0.15353317438E+04  0.15353317438E+04  0.50400001928E-02 0.  1.
    10030    2    1    2    0    0  0.00000000000E+00  0.00000000000E+00 -0.41039557462E+03  0.26602679130E+04  0.26284217396E+04 0.  0.
        5    1    3    3  502    0  0.10599007332E+04 -0.21112556939E+03  0.55163535299E+03  0.12133784335E+04  0.46999998093E+01 0. -1.
       -5    1    3    3    0  502 -0.10599007332E+04  0.21112556939E+03 -0.96203092762E+03  0.14468894795E+04  0.46999998093E+01 0.  1.
</event>
<event>
 5   0  0.1734885E-06  0.2963258E+04  0.7818609E-02  0.8254301E-01
       -1   -1    0    0    0  501  0.00000000000E+00  0.00000000000E+00  0.13359311914E+04  0.13359311914E+04  0.50400001928E-02 0. -1.
        1   -1    0    0  501    0  0.00000000000E+00  0.00000000000E+00 -0.16432164136E+04  0.16432164136E+04  0.50400001928E-02 0.  1.
    10030    2    1    2    0    0  0.00000000000E+00  0.00000000000E+00 -0.30728522221E+03  0.29791476050E+04  0.29632577081E+04 0.  0.
        2    1    3    3  502    0  0.12298282359E+04  0.18742657813E+03  0.65541976104E+03  0.14061227810E+04  0.25500000920E-02 0. -1.
       -2    1    3    3    0  502 -0.12298282359E+04 -0.18742657813E+03 -0.96270498325E+03  0.15730248240E+04  0.25500000920E-02 0.  1.
</event>
<event>
 5   0  0.4532420E-06  0.3030794E+04  0.7818609E-02  0.8234992E-01
        2   -1    0    0  501    0  0.00000000000E+00  0.00000000000E+00  0.20317164142E+04  0.20317164142E+04  0.25500000920E-02 0. -1.
       -2   -1    0    0    0  501  0.00000000000E+00  0.00000000000E+00 -0.11302894874E+04  0.11302894874E+04  0.25500000920E-02 0.  1.
    10030    2    1    2    0    0  0.00000000000E+00  0.00000000000E+00  0.90142692684E+03  0.31620059017E+04  0.30307937603E+04 0.  0.
        4    1    3    3  502    0  0.30772070069E+00 -0.40633702760E+03 -0.10723929135E+04  0.11467946845E+04  0.12699999809E+01 0.  1.
       -4    1    3    3    0  502 -0.30772070069E+00  0.40633702760E+03  0.19738198403E+04  0.20152112171E+04  0.12699999809E+01 0. -1.
</event>
<event>
 5   0  0.1686012E-06  0.2966104E+04  0.7818609E-02  0.8253477E-01
        1   -1    0    0  501    0  0.00000000000E+00  0.00000000000E+00  0.90104353636E+03  0.90104353637E+03  0.50400001928E-02 0.  1.
       -1   -1    0    0    0  501  0.00000000000E+00  0.00000000000E+00 -0.24409961080E+04  0.24409961080E+04  0.50400001928E-02 0. -1.
    10030    2    1    2    0    0  0.00000000000E+00  0.00000000000E+00 -0.15399525717E+04  0.33420396444E+04  0.29661043579E+04 0.  0.
        4    1    3    3  502    0 -0.60616046185E+03 -0.43950495487E+02 -0.22942403396E+04  0.23733736538E+04  0.12699999809E+01 0. -1.
       -4    1    3    3    0  502  0.60616046185E+03  0.43950495487E+02  0.75428776797E+03  0.96866599062E+03  0.12699999809E+01 0.  1.
</event>
<event>
 5   0  0.1672907E-06  0.3079876E+04  0.7818609E-02  0.8221283E-01
       -1   -1    0    0    0  501  0.00000000000E+00  0.00000000000E+00  0.14143116846E+04  0.14143116846E+04  0.50400001928E-02 0. -1.
        1   -1    0    0  501    0  0.00000000000E+00  0.00000000000E+00 -0.16767226368E+04  0.16767226368E+04  0.50400001928E-02 0.  1.
    10030    2    1    2    0    0  0.00000000000E+00  0.00000000000E+00 -0.26241095222E+03  0.30910343215E+04  0.30798755930E+04 0.  0.
        5    1    3    3  502    0 -0.91172109044E+03 -0.47249166933E+03 -0.12829269945E+04  0.16432916624E+04  0.46999998093E+01 0.  1.
       -5    1    3    3    0  502  0.91172109044E+03  0.47249166933E+03  0.10205160423E+04  0.14477426591E+04  0.46999998093E+01 0. -1.
</event>
<event>
 5   0  0.1734885E-06  0.2981791E+04  0.7818609E-02  0.8248950E-01
        1   -1    0    0  501    0  0.00000000000E+00  0.00000000000E+00  0.15139837359E+04  0.15139837359E+04  0.50400001928E-02 0.  1.
       -1   -1    0    0    0  501  0.00000000000E+00  0.00000000000E+00 -0.14681590970E+04  0.14681590970E+04  0.50400001928E-02 0. -1.
    10030    2    1    2    0    0  0.00000000000E+00  0.00000000000E+00  0.45824638954E+02  0.29821428329E+04  0.29817907335E+04 0.  0.
        2    1    3    3  502    0  0.43434856044E+03 -0.87328555028E+03 -0.11048212349E+04  0.14737422723E+04  0.25500000920E-02 0. -1.
       -2    1    3    3    0  502 -0.43434856044E+03  0.87328555028E+03  0.11506458738E+04  0.15084005606E+04  0.25500000920E-02 0.  1.
</event>
<event>
 5   0  0.4768570E-06  0.2988885E+04  0.7818609E-02  0.8246912E-01
        2   -1    0    0  501    0  0.00000000000E+00  0.00000000000E+00  0.68002274616E+03  0.68002274617E+03  0.25500000920E-02 0.  1.
       -2   -1    0    0    0  501  0.00000000000E+00  0.00000000000E+00 -0.32842413833E+04  0.32842413833E+04  0.25500000920E-02 0. -1.
    10030    2    1    2    0    0  0.00000000000E+00  0.00000000000E+00 -0.26042186371E+04  0.39642641294E+04  0.29888853069E+04 0.  0.
        1    1    3    3  502    0 -0.42714914782E+03  0.75847790832E+02  0.59466591124E+03  0.73609566489E+03  0.50400001928E-02 0.  1.
       -1    1    3    3    0  502  0.42714914782E+03 -0.75847790832E+02 -0.31988845483E+04  0.32281684645E+04  0.50400001928E-02 0. -1.
</event>
<event>
 5   0  0.5003556E-06  0.3006974E+04  0.7818609E-02  0.8241742E-01
        2   -1    0    0  501    0  0.00000000000E+00  0.00000000000E+00  0.17007967795E+04  0.17007967795E+04  0.25500000920E-02 0. -1.
       -2   -1    0    0    0  501  0.00000000000E+00  0.00000000000E+00 -0.13290668030E+04  0.13290668030E+04  0.25500000920E-02 0.  1.
    10030    2    1    2    0    0  0.00000000000E+00  0.00000000000E+00  0.37172997646E+03  0.30298635825E+04  0.30069735870E+04 0.  0.
        3    1    3    3  502    0 -0.95759813342E+03 -0.31300574679E+03 -0.93865279925E+03  0.13769661835E+04  0.10100000352E+00 0.  1.
       -3    1    3    3    0  502  0.95759813342E+03  0.31300574679E+03  0.13103827757E+04  0.16528973990E+04  0.10100000352E+00 0. -1.
</event>
<event>
 5   0  0.5003556E-06  0.3003265E+04  0.7818609E-02  0.8242799E-01
        2   -1    0    0  501    0  0.00000000000E+00  0.00000000000E+00  0.17206633222E+04  0.17206633222E+04  0.25500000920E-02 0. -1.
       -2   -1    0    0    0  501  0.00000000000E+00  0.00000000000E+00 -0.13104831478E+04  0.13104831478E+04  0.25500000920E-02 0.  1.
    10030    2    1    2    0    0  0.00000000000E+00  0.00000000000E+00  0.41018017439E+03  0.30311464701E+04  0.30032650811E+04 0.  0.
        3    1    3    3  502    0 -0.68936916794E+03  0.59229251175E+03  0.14115366670E+04  0.16788317491E+04  0.10100000352E+00 0. -1.
       -3    1    3    3    0  502  0.68936916794E+03 -0.59229251175E+03 -0.10013564926E+04  0.13523147210E+04  0.10100000352E+00 0.  1.
</event>
<event>
 5   0  0.1686012E-06  0.2997778E+04  0.7818609E-02  0.8244366E-01
       -1   -1    0    0    0  501  0.00000000000E+00  0.00000000000E+00  0.90686827934E+03  0.90686827935E+03  0.50400001928E-02 0.  1.
        1   -1    0    0  501    0  0.00000000000E+00  0.00000000000E+00 -0.24773921362E+04  0.24773921362E+04  0.50400001928E-02 0. -1.
    10030    2    1    2    0    0  0.00000000000E+00  0.00000000000E+00 -0.15705238568E+04  0.33842604155E+04  0.29977780730E+04 0.  0.
        4    1    3    3  502    0 -0.14703428860E+04 -0.55702677199E+02 -0.11078569460E+04  0.18418359363E+04  0.12699999809E+01 0.  1.
       -4    1    3    3    0  502  0.14703428860E+04  0.55702677199E+02 -0.46266691082E+03  0.15424244792E+04  0.12699999809E+01 0. -1.
</event>
<event>
 5   0  0.4768570E-06  0.2957007E+04  0.7818609E-02  0.8256116E-01
       -2   -1    0    0    0  501  0.00000000000E+00  0.00000000000E+00  0.16972296783E+04  0.16972296783E+04  0.25500000920E-02 0. -1.
        2   -1    0    0  501    0  0.00000000000E+00  0.00000000000E+00 -0.12879648130E+04  0.12879648130E+04  0.25500000920E-02 0.  1.
    10030    2    1    2    0    0  0.00000000000E+00  0.00000000000E+00  0.40926486526E+03  0.29851944913E+04  0.29570066657E+04 0.  0.
        1    1    3    3  502    0  0.18440378073E+03  0.55323582441E+02 -0.12752564347E+04  0.12897071091E+04  0.50400001928E-02 0.  1.
       -1    1    3    3    0  502 -0.18440378073E+03 -0.55323582441E+02  0.16845212999E+04  0.16954873822E+04  0.50400001928E-02 0. -1.
</event>
<event>
 5   0  0.1734885E-06  0.2831577E+04  0.7818609E-02  0.8293532E-01
        1   -1    0    0  501    0  0.00000000000E+00  0.00000000000E+00  0.20437092489E+04  0.20437092489E+04  0.50400001928E-02 0. -1.
       -1   -1    0    0    0  501  0.00000000000E+00  0.00000000000E+00 -0.98079335575E+03  0.98079335577E+03  0.50400001928E-02 0.  1.
    10030    2    1    2    0    0  0.00000000000E+00  0.00000000000E+00  0.10629158932E+04  0.30245026047E+04  0.28315765591E+04 0.  0.
        2    1    3    3  502    0  0.26592372994E+03  0.13452494731E+04  0.15526116855E+03  0.13800426100E+04  0.25500000920E-02 0.  1.
       -2    1    3    3    0  502 -0.26592372994E+03 -0.13452494731E+04  0.90765472461E+03  0.16444599947E+04  0.25500000920E-02 0. -1.
</event>
<event>
 5   0  0.1709858E-06  0.3015195E+04  0.7818609E-02  0.8239405E-01
       -1   -1    0    0    0  501  0.00000000000E+00  0.00000000000E+00  0.10064161499E+04  0.10064161499E+04  0.50400001928E-02 0.  1.
        1   -1    0    0  501    0  0.00000000000E+00  0.00000000000E+00 -0.22583597233E+04  0.22583597233E+04  0.50400001928E-02 0. -1.
    10030    2    1    2    0    0  0.00000000000E+00  0.00000000000E+00 -0.12519435734E+04  0.32647758731E+04  0.30151946522E+04 0.  0.
        3    1    3    3  502    0  0.10798796633E+04  0.52705145281E+03  0.35984451405E+03  0.12543569690E+04  0.10100000352E+00 0.  1.
       -3    1    3    3    0  502 -0.10798796633E+04 -0.52705145281E+03 -0.16117880874E+04  0.20104189041E+04  0.10100000352E+00 0. -1.
</event>
<event>
 5   0  0.1672907E-06  0.2999836E+04  0.7818609E-02  0.8243778E-01
       -1   -1    0    0    0  501  0.00000000000E+00  0.00000000000E+00  0.98219094420E+03  0.98219094422E+03  0.50400001928E-02 0.  1.
        1   -1    0    0  501    0  0.00000000000E+00  0.00000000000E+00 -0.22905469170E+04  0.22905469170E+04  0.50400001928E-02 0. -1.
    10030    2    1    2    0    0  0.00000000000E+00  0.00000000000E+00 -0.13083559728E+04  0.32727378612E+04  0.29998362883E+04 0.  0.
        5    1    3    3  502    0 -0.12962696649E+04  0.61675763242E+03 -0.17985304270E+03  0.14467460829E+04  0.46999998093E+01 0.  1.
       -5    1    3    3    0  502  0.12962696649E+04 -0.61675763242E+03 -0.11285029301E+04  0.18259917783E+04  0.46999998093E+01 0. -1.
</event>
<event>
 5   0  0.4702748E-06  0.2974146E+04  0.7818609E-02  0.8251153E-01
       -2   -1    0    0    0  501  0.00000000000E+00  0.00000000000E+00  0.22567171506E+04  0.22567171506E+04  0.25500000920E-02 0. -1.
        2   -1    0    0  501    0  0.00000000000E+00  0.00000000000E+00 -0.97991253030E+03  0.97991253031E+03  0.25500000920E-02 0.  1.
    10030    2    1    2    0    0  0.00000000000E+00  0.00000000000E+00  0.12768046203E+04  0.32366296809E+04  0.29741455333E+04 0.  0.
        2    1    3    3  502    0  0.18520726499E+03  0.14552270843E+04  0.37317634892E+03  0.15136869509E+04  0.25500000920E-02 0. -1.
       -2    1    3    3    0  502 -0.18520726499E+03 -0.14552270843E+04  0.90362827141E+03  0.17229427300E+04  0.25500000920E-02 0.  1.
</event>
<event>
 5   0  0.4768570E-06  0.2944156E+04  0.7818609E-02  0.8259860E-01
        2   -1    0    0  501    0  0.00000000000E+00  0.00000000000E+00  0.21665174896E+04  0.21665174896E+04  0.25500000920E-02 0.  1.
       -2   -1    0    0    0  501  0.00000000000E+00  0.00000000000E+00 -0.10002290760E+04  0.10002290760E+04  0.25500000920E-02 0. -1.
    10030    2    1    2    0    0  0.00000000000E+00  0.00000000000E+00  0.11662884136E+04  0.31667465655E+04  0.29441561009E+04 0.  0.
        1    1    3    3  502    0  0.13700565246E+04  0.51391365276E+03  0.41020370150E+03  0.15196806243E+04  0.50400001928E-02 0.  1.
       -1    1    3    3    0  502 -0.13700565246E+04 -0.51391365276E+03  0.75608471208E+03  0.16470659413E+04  0.50400001928E-02 0. -1.
</event>
<event>
 5   0  0.4935331E-06  0.2977529E+04  0.7818609E-02  0.8250177E-01
       -2   -1    0    0    0  501  0.00000000000E+00  0.00000000000E+00  0.15882166505E+04  0.15882166505E+04  0.25500000920E-02 0. -1.
        2   -1    0    0  501    0  0.00000000000E+00  0.00000000000E+00 -0.13955396002E+04  0.13955396002E+04  0.25500000920E-02 0.  1.
    10030    2    1    2    0    0  0.00000000000E+00  0.00000000000E+00  0.19267705024E+03  0.29837562507E+04  0.29775286595E+04 0.  0.
        5    1    3    3  502    0 -0.47847509111E+03  0.12193719275E+04  0.80534277096E+03  0.15376623099E+04  0.46999998093E+01 0. -1.
       -5    1    3    3    0  502  0.47847509111E+03 -0.12193719275E+04 -0.61266572072E+03  0.14460939409E+04  0.46999998093E+01 0.  1.
</event>
<event>
 5   0  0.1734885E-06  0.2947829E+04  0.7818609E-02  0.8258787E-01
        1   -1    0    0  501    0  0.00000000000E+00  0.00000000000E+00  0.20422424598E+04  0.20422424598E+04  0.50400001928E-02 0.  1.
       -1   -1    0    0    0  501  0.00000000000E+00  0.00000000000E+00 -0.10637445078E+04  0.10637445078E+04  0.50400001928E-02 0. -1.
    10030    2    1    2    0    0  0.00000000000E+00  0.00000000000E+00  0.97849795205E+03  0.31059869676E+04  0.29478291675E+04 0.  0.
        2    1    3    3  502    0 -0.27444807554E+03 -0.94780105188E+03  0.16428782512E+04  0.19164283259E+04  0.25500000920E-02 0.  1.
       -2    1    3    3    0  502  0.27444807554E+03  0.94780105188E+03 -0.66438029915E+03  0.11895586417E+04  0.25500000920E-02 0. -1.
</event>
<event>
 5   0  0.4532420E-06  0.3027193E+04  0.7818609E-02  0.8236008E-01
       -2   -1    0    0    0  501  0.00000000000E+00  0.00000000000E+00  0.98491577252E+03  0.98491577252E+03  0.25500000920E-02 0. -1.
        2   -1    0    0  501    0  0.00000000000E+00  0.00000000000E+00 -0.23260609666E+04  0.23260609666E+04  0.25500000920E-02 0.  1.
    10030    2    1    2    0    0  0.00000000000E+00  0.00000000000E+00 -0.13411451940E+04  0.33109767391E+04  0.30271928474E+04 0.  0.
        4    1    3    3  502    0 -0.13259227023E+04 -0.38228090302E+02  0.12676677640E+03  0.13325178527E+04  0.12699999809E+01 0. -1.
       -4    1    3    3    0  502  0.13259227023E+04  0.38228090302E+02 -0.14679119704E+04  0.19784588864E+04  0.12699999809E+01 0.  1.
</event>
<event>
 5   0  0.4768570E-06  0.2981988E+04  0.7818609E-02  0.8248893E-01
        2   -1    0    0  501    0  0.00000000000E+00  0.00000000000E+00  0.23041606387E+04  0.23041606387E+04  0.25500000920E-02 0.  1.
       -2   -1    0    0    0  501  0.00000000000E+00  0.00000000000E+00 -0.96480368964E+03  0.96480368965E+03  0.25500000920E-02 0. -1.
    10030    2    1    2    0    0  0.00000000000E+00  0.00000000000E+00  0.13393569491E+04  0.32689643284E+04  0.29819877168E+04 0.  0.
        1    1    3    3  502    0 -0.13159829632E+04  0.70256869114E+01 -0.98627955485E+02  0.13196923859E+04  0.50400001928E-02 0. -1.
       -1    1    3    3    0  502  0.13159829632E+04 -0.70256869114E+01  0.14379849046E+04  0.19492719424E+04  0.50400001928E-02 0.  1.
</event>
<event>
 5   0  0.1700885E-06  0.2875398E+04  0.7818609E-02  0.8280235E-01
       -1   -1    0    0    0  501  0.00000000000E+00  0.00000000000E+00  0.82664249870E+03  0.82664249872E+03  0.50400001928E-02 0.  1.
        1   -1    0    0  501    0  0.00000000000E+00  0.00000000000E+00 -0.25004501756E+04  0.25004501756E+04  0.50400001928E-02 0. -1.
    10030    2    1    2    0    0  0.00000000000E+00  0.00000000000E+00 -0.16738076769E+04  0.33270926743E+04  0.28753979767E+04 0.  0.
        1    1    3    3  502    0 -0.51831024913E+03 -0.88919408668E+03  0.32461269992E+03  0.10792057464E+04  0.50400001928E-02 0.  1.
       -1    1    3    3    0  502  0.51831024913E+03  0.88919408668E+03 -0.19984203768E+04  0.22478869279E+04  0.50400001928E-02 0. -1.
</event>
<event>
 5   0  0.1672907E-06  0.2972730E+04  0.7818609E-02  0.8251561E-01
       -1   -1    0    0    0  501  0.00000000000E+00  0.00000000000E+00  0.17504719113E+04  0.17504719113E+04  0.50400001928E-02 0.  1.
        1   -1    0    0  501    0  0.00000000000E+00  0.00000000000E+00 -0.12621055242E+04  0.12621055242E+04  0.50400001928E-02 0. -1.
    10030    2    1    2    0    0  0.00000000000E+00  0.00000000000E+00  0.48836638709E+03  0.30125774355E+04  0.29727295667E+04 0.  0.
        5    1    3    3  502    0  0.75758493288E+03 -0.85033156024E+03  0.12121088692E+04  0.16631983326E+04  0.46999998093E+01 0.  1.
       -5    1    3    3    0  502 -0.75758493288E+03  0.85033156024E+03 -0.72374248212E+03  0.13493791029E+04  0.46999998093E+01 0. -1.
</event>
<event>
 5   0  0.4935331E-06  0.2749769E+04  0.7818609E-02  0.8319035E-01
        2   -1    0    0  501    0  0.00000000000E+00  0.00000000000E+00  0.18276238874E+04  0.18276238874E+04  0.25500000920E-02 0.  1.
       -2   -1    0    0    0  501  0.00000000000E+00  0.00000000000E+00 -0.10342978231E+04  0.10342978231E+04  0.25500000920E-02 0. -1.
    10030    2    1    2    0    0  0.00000000000E+00  0.00000000000E+00  0.79332606431E+03  0.28619217105E+04  0.27497690144E+04 0.  0.
        5    1    3    3  502    0  0.37042298369E+03  0.62337237293E+03  0.16124149573E+04  0.17679678692E+04  0.46999998093E+01 0.  1.
       -5    1    3    3    0  502 -0.37042298369E+03 -0.62337237293E+03 -0.81908889298E+03  0.10939538412E+04  0.46999998093E+01 0. -1.
</event>
<event>
 5   0  0.4935331E-06  0.3032247E+04  0.7818609E-02  0.8234582E-01
       -2   -1    0    0    0  501  0.00000000000E+00  0.00000000000E+00  0.11048382041E+04  0.11048382041E+04  0.25500000920E-02 0. -1.
        2   -1    0    0  501    0  0.00000000000E+00  0.00000000000E+00 -0.20805135393E+04  0.20805135393E+04  0.25500000920E-02 0.  1.
    10030    2    1    2    0    0  0.00000000000E+00  0.00000000000E+00 -0.97567533526E+03  0.31853517434E+04  0.30322472474E+04 0.  0.
        5    1    3    3  502    0  0.52345484561E+03  0.48078574020E+03 -0.18946536167E+04  0.20235845227E+04  0.46999998093E+01 0.  1.
       -5    1    3    3    0  502 -0.52345484561E+03 -0.48078574020E+03  0.91897828143E+03  0.11617672207E+04  0.46999998093E+01 0. -1.
</event>
<event>
 5   0  0.4935331E-06  0.2989554E+04  0.7818609E-02  0.8246720E-01
        2   -1    0    0  501    0  0.00000000000E+00  0.00000000000E+00  0.68838556361E+03  0.68838556361E+03  0.25500000920E-02 0. -1.
       -2   -1    0    0    0  501  0.00000000000E+00  0.00000000000E+00 -0.32457955262E+04  0.32457955262E+04  0.25500000920E-02 0.  1.
    10030    2    1    2    0    0  0.00000000000E+00  0.00000000000E+00 -0.25574099626E+04  0.39341810898E+04  0.29895543365E+04 0.  0.
        5    1    3    3  502    0 -0.58933431013E+03 -0.12171412240E+04 -0.44061435816E+03  0.14222906843E+04  0.46999998093E+01 0. -1.
       -5    1    3    3    0  502  0.58933431013E+03  0.12171412240E+04 -0.21167956044E+04  0.25118904055E+04  0.46999998093E+01 0.  1.
</event>
<event>
 5   0  0.4532420E-06  0.3028762E+04  0.7818609E-02  0.8235565E-01
        2   -1    0    0  501    0  0.00000000000E+00  0.00000000000E+00  0.16110384342E+04  0.16110384342E+04  0.25500000920E-02 0. -1.
       -2   -1    0    0    0  501  0.00000000000E+00  0.00000000000E+00 -0.14235231645E+04  0.14235231645E+04  0.25500000920E-02 0.  1.
    10030    2    1    2    0    0  0.00000000000E+00  0.00000000000E+00  0.18751526967E+03  0.30345615987E+04  0.30287624733E+04 0.  0.
        4    1    3    3  502    0  0.57571393794E+02 -0.11924868152E+04  0.10272118431E+04  0.15749619213E+04  0.12699999809E+01 0. -1.
       -4    1    3    3    0  502 -0.57571393794E+02  0.11924868152E+04 -0.83969657343E+03  0.14595996774E+04  0.12699999809E+01 0.  1.
</event>
<event>
 5   0  0.4532420E-06  0.2998850E+04  0.7818609E-02  0.8244059E-01
       -2   -1    0    0    0  501  0.00000000000E+00  0.00000000000E+00  0.12529603695E+04  0.12529603695E+04  0.25500000920E-02 0. -1.
        2   -1    0    0  501    0  0.00000000000E+00  0.00000000000E+00 -0.17943712037E+04  0.17943712037E+04  0.25500000920E-02 0.  1.
    10030    2    1    2    0    0  0.00000000000E+00  0.00000000000E+00 -0.54141083422E+03  0.30473315733E+04  0.29988504507E+04 0.  0.
        4    1    3    3  502    0 -0.44296755938E+03  0.73619138942E+03 -0.15194233801E+04  0.17455219968E+04  0.12699999809E+01 0. -1.
       -4    1    3    3    0  502  0.44296755938E+03 -0.73619138942E+03  0.97801254587E+03  0.13018095764E+04  0.12699999809E+01 0.  1.
</event>
<event>
 5   0  0.1672907E-06  0.3006573E+04  0.7818609E-02  0.8241856E-01
        1   -1    0    0  501    0  0.00000000000E+00  0.00000000000E+00  0.18376602928E+04  0.18376602928E+04  0.50400001928E-02 0. -1.
       -1   -1    0    0    0  501  0.00000000000E+00  0.00000000000E+00 -0.12297544738E+04  0.12297544738E+04  0.50400001928E-02 0.  1.
    10030    2    1    2    0    0  0.00000000000E+00  0.00000000000E+00  0.60790581898E+03  0.30674147666E+04  0.30065734426E+04 0.  0.
        5    1    3    3  502    0 -0.40148244367E+03  0.62563145685E+03 -0.10291041509E+04  0.12695197186E+04  0.46999998093E+01 0.  1.
       -5    1    3    3    0  502  0.40148244367E+03 -0.62563145685E+03  0.16370099699E+04  0.17978950481E+04  0.46999998093E+01 0. -1.
</event>
<event>
 5   0  0.5003556E-06  0.2986176E+04  0.7818609E-02  0.8247689E-01
       -2   -1    0    0    0  501  0.00000000000E+00  0.00000000000E+00  0.19543649976E+04  0.19543649976E+04  0.25500000920E-02 0.  1.
        2   -1    0    0  501    0  0.00000000000E+00  0.00000000000E+00 -0.11406835104E+04  0.11406835104E+04  0.25500000920E-02 0. -1.
    10030    2    1    2    0    0  0.00000000000E+00  0.00000000000E+00  0.81368148725E+03  0.30950485080E+04  0.29861761006E+04 0.  0.
        3    1    3    3  502    0 -0.13236279996E+04  0.59170393327E+03  0.37175989341E+02  0.14503401981E+04  0.10100000352E+00 0. -1.
       -3    1    3    3    0  502  0.13236279996E+04 -0.59170393327E+03  0.77650549791E+03  0.16447083098E+04  0.10100000352E+00 0.  1.
</event>
<event>
 5   0  0.4702748E-06  0.2997515E+04  0.7818609E-02  0.8244441E-01
        2   -1    0    0  501    0  0.00000000000E+00  0.00000000000E+00  0.10929790039E+04  0.10929790039E+04  0.25500000920E-02 0. -1.
       -2   -1    0    0    0  501  0.00000000000E+00  0.00000000000E+00 -0.20551850782E+04  0.20551850782E+04  0.25500000920E-02 0.  1.
    10030    2    1    2    0    0  0.00000000000E+00  0.00000000000E+00 -0.96220607438E+03  0.31481640821E+04  0.29975150639E+04 0.  0.
        2    1    3    3  502    0 -0.28600627275E+03 -0.81348450378E+03  0.80635967384E+03  0.11805814455E+04  0.25500000920E-02 0. -1.
       -2    1    3    3    0  502  0.28600627275E+03  0.81348450378E+03 -0.17685657482E+04  0.19675826366E+04  0.25500000920E-02 0.  1.
</event>
<event>
 5   0  0.1709858E-06  0.2991087E+04  0.7818609E-02  0.8246281E-01
        1   -1    0    0  501    0  0.00000000000E+00  0.00000000000E+00  0.14380412266E+04  0.14380412266E+04  0.50400001928E-02 0. -1.
       -1   -1    0    0    0  501  0.00000000000E+00  0.00000000000E+00 -0.15553446806E+04  0.15553446806E+04  0.50400001928E-02 0.  1.
    10030    2    1    2    0    0  0.00000000000E+00  0.00000000000E+00 -0.11730345402E+03  0.29933859072E+04  0.29910866068E+04 0.  0.
        3    1    3    3  502    0  0.39209551549E+03 -0.11938343372E+04 -0.87024396356E+03  0.15284972634E+04  0.10100000352E+00 0.  1.
       -3    1    3    3    0  502 -0.39209551549E+03  0.11938343372E+04  0.75294050954E+03  0.14648886439E+04  0.10100000352E+00 0. -1.
</event>
<event>
 5   0  0.4935331E-06  0.2576571E+04  0.7818609E-02  0.8376203E-01
       -2   -1    0    0    0  501  0.00000000000E+00  0.00000000000E+00  0.61917929496E+03  0.61917929497E+03  0.25500000920E-02 0. -1.
        2   -1    0    0  501    0  0.00000000000E+00  0.00000000000E+00 -0.26804505145E+04  0.26804505145E+04  0.25500000920E-02 0.  1.
    10030    2    1    2    0    0  0.00000000000E+00  0.00000000000E+00 -0.20612712196E+04  0.32996298095E+04  0.25765709459E+04 0.  0.
        5    1    3    3  502    0  0.34248248974E+03 -0.11236219042E+04 -0.35318813639E+03  0.12266150126E+04  0.46999998093E+01 0. -1.
       -5    1    3    3    0  502 -0.34248248974E+03  0.11236219042E+04 -0.17080830832E+04  0.20730147970E+04  0.46999998093E+01 0.  1.
</event>
<event>
 5   0  0.4702748E-06  0.3014282E+04  0.7818609E-02  0.8239664E-01
       -2   -1    0    0    0  501  0.00000000000E+00  0.00000000000E+00  0.12533414885E+04  0.12533414885E+04  0.25500000920E-02 0.  1.
        2   -1    0    0  501    0  0.00000000000E+00  0.00000000000E+00 -0.18123344406E+04  0.18123344406E+04  0.25500000920E-02 0. -1.
    10030    2    1    2    0    0  0.00000000000E+00  0.00000000000E+00 -0.55899295217E+03  0.30656759291E+04  0.30142819679E+04 0.  0.
        2    1    3    3  502    0  0.58295305535E+03 -0.31432763747E+03 -0.16564027758E+04  0.17839019828E+04  0.25500000920E-02 0. -1.
       -2    1    3    3    0  502 -0.58295305535E+03  0.31432763747E+03  0.10974098237E+04  0.12817739463E+04  0.25500000920E-02 0.  1.
</event>
<event>
 5   0  0.1700885E-06  0.3008516E+04  0.7818609E-02  0.8241303E-01
       -1   -1    0    0    0  501  0.00000000000E+00  0.00000000000E+00  0.15424599656E+04  0.15424599656E+04  0.50400001928E-02 0.  1.
        1   -1    0    0  501    0  0.00000000000E+00  0.00000000000E+00 -0.14670023658E+04  0.14670023658E+04  0.50400001928E-02 0. -1.
    10030    2    1    2    0    0  0.00000000000E+00  0.00000000000E+00  0.75457599784E+02  0.30094623315E+04  0.30085161916E+04 0.  0.
        1    1    3    3  502    0  0.15105821749E+03  0.11217954397E+04  0.10287718319E+04  0.15295800325E+04  0.50400001928E-02 0.  1.
       -1    1    3    3    0  502 -0.15105821749E+03 -0.11217954397E+04 -0.95331423209E+03  0.14798822990E+04  0.50400001928E-02 0. -1.
</event>
<event>
 5   0  0.4935331E-06  0.2941367E+04  0.7818609E-02  0.8260675E-01
        2   -1    0    0  501    0  0.00000000000E+00  0.00000000000E+00  0.24265418466E+04  0.24265418466E+04  0.25500000920E-02 0. -1.
       -2   -1    0    0    0  501  0.00000000000E+00  0.00000000000E+00 -0.89135505955E+03  0.89135505956E+03  0.25500000920E-02 0.  1.
    10030    2    1    2    0    0  0.00000000000E+00  0.00000000000E+00  0.15351867871E+04  0.33178969062E+04  0.29413672686E+04 0.  0.
        5    1    3    3  502    0  0.10575229270E+04  0.62708755720E+03  0.16779308444E+04  0.20801604636E+04  0.46999998093E+01 0. -1.
       -5    1    3    3    0  502 -0.10575229270E+04 -0.62708755720E+03 -0.14274405737E+03  0.12377364426E+04  0.46999998093E+01 0.  1.
</event>
<event>
 5   0  0.1734885E-06  0.2993027E+04  0.7818609E-02  0.8245725E-01
        1   -1    0    0  501    0  0.00000000000E+00  0.00000000000E+00  0.26618300036E+04  0.26618300036E+04  0.50400001928E-02 0.  1.
       -1   -1    0    0    0  501  0.00000000000E+00  0.00000000000E+00 -0.84135847390E+03  0.84135847392E+03  0.50400001928E-02 0. -1.
    10030    2    1    2    0    0  0.00000000000E+00  0.00000000000E+00  0.18204715297E+04  0.35031884776E+04  0.29930273836E+04 0.  0.
        2    1    3    3  502    0 -0.41293347178E+03 -0.13625625608E+04  0.14497388113E+04  0.20319531011E+04  0.25500000920E-02 0.  1.
       -2    1    3    3    0  502  0.41293347178E+03  0.13625625608E+04  0.37073271842E+03  0.14712353764E+04  0.25500000920E-02 0. -1.
</event>
<event>
 5   0  0.5003556E-06  0.3315416E+04  0.7818609E-02  0.8158984E-01
       -2   -1    0    0    0  501  0.00000000000E+00  0.00000000000E+00  0.20884964512E+04  0.20884964512E+04  0.25500000920E-02 0. -1.
        2   -1    0    0  501    0  0.00000000000E+00  0.00000000000E+00 -0.13157773412E+04  0.13157773412E+04  0.25500000920E-02 0.  1.
    10030    2    1    2    0    0  0.00000000000E+00  0.00000000000E+00  0.77271910997E+03  0.34042737924E+04  0.33154162982E+04 0.  0.
        3    1    3    3  502    0 -0.10541420645E+04  0.12767267142E+04  0.47071803131E+03  0.17212850055E+04  0.10100000352E+00 0.  1.
       -3    1    3    3    0  502  0.10541420645E+04 -0.12767267142E+04  0.30200107866E+03  0.16829887869E+04  0.10100000352E+00 0. -1.
</event>
<event>
 5   0  0.1734885E-06  0.2975184E+04  0.7818609E-02  0.8250853E-01
        1   -1    0    0  501    0  0.00000000000E+00  0.00000000000E+00  0.12089509987E+04  0.12089509987E+04  0.50400001928E-02 0.  1.
       -1   -1    0    0    0  501  0.00000000000E+00  0.00000000000E+00 -0.18304542925E+04  0.18304542925E+04  0.50400001928E-02 0. -1.
    10030    2    1    2    0    0  0.00000000000E+00  0.00000000000E+00 -0.62150329386E+03  0.30394052912E+04  0.29751837221E+04 0.  0.
        2    1    3    3  502    0 -0.37392898889E+03  0.11359542609E+03  0.11555718897E+04  0.12198660590E+04  0.25500000920E-02 0.  1.
       -2    1    3    3    0  502  0.37392898889E+03 -0.11359542609E+03 -0.17770751836E+04  0.18195392322E+04  0.25500000920E-02 0. -1.
</event>
<event>
 5   0  0.1672907E-06  0.2988765E+04  0.7818609E-02  0.8246946E-01
        1   -1    0    0  501    0  0.00000000000E+00  0.00000000000E+00  0.10993755307E+04  0.10993755307E+04  0.50400001928E-02 0. -1.
       -1   -1    0    0    0  501  0.00000000000E+00  0.00000000000E+00 -0.20313164396E+04  0.20313164396E+04  0.50400001928E-02 0.  1.
    10030    2    1    2    0    0  0.00000000000E+00  0.00000000000E+00 -0.93194090891E+03  0.31306919702E+04  0.29887653563E+04 0.  0.
        5    1    3    3  502    0  0.14714291878E+04  0.22341871823E+03 -0.60704214478E+03  0.16073400492E+04  0.46999998093E+01 0.  1.
       -5    1    3    3    0  502 -0.14714291878E+04 -0.22341871823E+03 -0.32489876413E+03  0.15233519210E+04  0.46999998093E+01 0. -1.
</event>
<event>
 5   0  0.4702748E-06  0.3293925E+04  0.7818609E-02  0.8164443E-01
        2   -1    0    0  501    0  0.00000000000E+00  0.00000000000E+00  0.15944768359E+04  0.15944768359E+04  0.25500000920E-02 0. -1.
       -2   -1    0    0    0  501  0.00000000000E+00  0.00000000000E+00 -0.17011762599E+04  0.17011762599E+04  0.25500000920E-02 0.  1.
    10030    2    1    2    0    0  0.00000000000E+00  0.00000000000E+00 -0.10669942396E+03  0.32956530958E+04  0.32939254031E+04 0.  0.
        2    1    3    3  502    0 -0.73756663562E+03 -0.72498714093E+02  0.14182125162E+04  0.16001835353E+04  0.25500000920E-02 0. -1.
       -2    1    3    3    0  502  0.73756663562E+03  0.72498714093E+02 -0.15249119401E+04  0.16954695605E+04  0.25500000920E-02 0.  1.
</event>
<event>
 5   0  0.4768570E-06  0.3009598E+04  0.7818609E-02  0.8240995E-01
        2   -1    0    0  501    0  0.00000000000E+00  0.00000000000E+00  0.26794471435E+04  0.26794471435E+04  0.25500000920E-02 0. -1.
       -2   -1    0    0    0  501  0.00000000000E+00  0.00000000000E+00 -0.84510712682E+03  0.84510712682E+03  0.25500000920E-02 0.  1.
    10030    2    1    2    0    0  0.00000000000E+00  0.00000000000E+00  0.18343400167E+04  0.35245542703E+04  0.30095978980E+04 0.  0.
        1    1    3    3  502    0 -0.82501865278E+03  0.96622929103E+03  0.18614646808E+04  0.22537314787E+04  0.50400001928E-02 0. -1.
       -1    1    3    3    0  502  0.82501865278E+03 -0.96622929103E+03 -0.27124664104E+02  0.12708227916E+04  0.50400001928E-02 0.  1.
</event>
<event>
 5   0  0.1686012E-06  0.2946888E+04  0.7818609E-02  0.8259062E-01
        1   -1    0    0  501    0  0.00000000000E+00  0.00000000000E+00  0.12340632998E+04  0.12340632998E+04  0.50400001928E-02 0. -1.
       -1   -1    0    0    0  501  0.00000000000E+00  0.00000000000E+00 -0.17592591744E+04  0.17592591744E+04  0.50400001928E-02 0.  1.
    10030    2    1    2    0    0  0.00000000000E+00  0.00000000000E+00 -0.52519587457E+03  0.29933224742E+04  0.29468879734E+04 0.  0.
        4    1    3    3  502    0  0.18060898543E+03 -0.63132683386E+03  0.10772170585E+04  0.12615828870E+04  0.12699999809E+01 0. -1.
       -4    1    3    3    0  502 -0.18060898543E+03  0.63132683386E+03 -0.16024129331E+04  0.17317395872E+04  0.12699999809E+01 0.  1.
</event>
<event>
 5   0  0.1709858E-06  0.2962368E+04  0.7818609E-02  0.8254559E-01
       -1   -1    0    0    0  501  0.00000000000E+00  0.00000000000E+00  0.10641335388E+04  0.10641335388E+04  0.50400001928E-02 0.  1.
        1   -1    0    0  501    0  0.00000000000E+00  0.00000000000E+00 -0.20616829795E+04  0.20616829795E+04  0.50400001928E-02 0. -1.
    10030    2    1    2    0    0  0.00000000000E+00  0.00000000000E+00 -0.99754944071E+03  0.31258165183E+04  0.29623679751E+04 0.  0.
        3    1    3    3  502    0 -0.79788330270E+03 -0.61701145163E+03 -0.16433283571E+04  0.19281724497E+04  0.10100000352E+00 0.  1.
       -3    1    3    3    0  502  0.79788330270E+03  0.61701145163E+03  0.64577891641E+03  0.11976440687E+04  0.10100000352E+00 0. -1.
</event>
<event>
 5   0  0.4702748E-06  0.2976248E+04  0.7818609E-02  0.8250546E-01
        2   -1    0    0  501    0  0.00000000000E+00  0.00000000000E+00  0.11500161294E+04  0.11500161294E+04  0.25500000920E-02 0.  1.
       -2   -1    0    0    0  501  0.00000000000E+00  0.00000000000E+00 -0.19256366804E+04  0.19256366804E+04  0.25500000920E-02 0. -1.
    10030    2    1    2    0    0  0.00000000000E+00  0.00000000000E+00 -0.77562055099E+03  0.30756528098E+04  0.29762481360E+04 0.  0.
        2    1    3    3  502    0  0.99668806913E+02  0.66891362042E+02  0.11450051723E+04  0.11512797965E+04  0.25500000920E-02 0.  1.
       -2    1    3    3    0  502 -0.99668806913E+02 -0.66891362042E+02 -0.19206257232E+04  0.19243730133E+04  0.25500000920E-02 0. -1.
</event>
<event>
 5   0  0.1709858E-06  0.3056290E+04  0.7818609E-02  0.8227837E-01
        1   -1    0    0  501    0  0.00000000000E+00  0.00000000000E+00  0.17036192405E+04  0.17036192405E+04  0.50400001928E-02 0.  1.
       -1   -1    0    0    0  501  0.00000000000E+00  0.00000000000E+00 -0.13707444401E+04  0.13707444401E+04  0.50400001928E-02 0. -1.
    10030    2    1    2    0    0  0.00000000000E+00  0.00000000000E+00  0.33287480033E+03  0.30743636806E+04  0.30562896473E+04 0.  0.
        3    1    3    3  502    0  0.67283563446E+03 -0.45802788359E+03 -0.11345513983E+04  0.13963180937E+04  0.10100000352E+00 0. -1.
       -3    1    3    3    0  502 -0.67283563446E+03  0.45802788359E+03  0.14674261986E+04  0.16780455869E+04  0.10100000352E+00 0.  1.
</event>
<event>
 5   0  0.1700885E-06  0.3015928E+04  0.7818609E-02  0.8239197E-01
        1   -1    0    0  501    0  0.00000000000E+00  0.00000000000E+00  0.15014988756E+04  0.15014988756E+04  0.50400001928E-02 0.  1.
       -1   -1    0    0    0  501  0.00000000000E+00  0.00000000000E+00 -0.15144571869E+04  0.15144571869E+04  0.50400001928E-02 0. -1.
    10030    2    1    2    0    0  0.00000000000E+00  0.00000000000E+00 -0.12958311248E+02  0.30159560625E+04  0.30159282241E+04 0.  0.
        1    1    3    3  502    0 -0.83980049608E+03 -0.35269691553E+03 -0.12082788223E+04  0.15131416655E+04  0.50400001928E-02 0. -1.
       -1    1    3    3    0  502  0.83980049608E+03  0.35269691553E+03  0.11953205111E+04  0.15028143970E+04  0.50400001928E-02 0.  1.
</event>
<event>
 5   0  0.1734885E-06  0.2961122E+04  0.7818609E-02  0.8254921E-01
        1   -1    0    0  501    0  0.00000000000E+00  0.00000000000E+00  0.20277201771E+04  0.20277201771E+04  0.50400001928E-02 0. -1.
       -1   -1    0    0    0  501  0.00000000000E+00  0.00000000000E+00 -0.10810467657E+04  0.10810467657E+04  0.50400001928E-02 0.  1.
    10030    2    1    2    0    0  0.00000000000E+00  0.00000000000E+00  0.94667341138E+03  0.31087669428E+04  0.29611216383E+04 0.  0.
        2    1    3    3  502    0 -0.71535375283E+03  0.10598494314E+04 -0.31023443737E+03  0.13157724785E+04  0.25500000920E-02 0.  1.
       -2    1    3    3    0  502  0.71535375283E+03 -0.10598494314E+04  0.12569078487E+04  0.17929944644E+04  0.25500000920E-02 0. -1.
</event>
<event>
 5   0  0.4532420E-06  0.2953819E+04  0.7818609E-02  0.8257043E-01
       -2   -1    0    0    0  501  0.00000000000E+00  0.00000000000E+00  0.16223099995E+04  0.16223099995E+04  0.25500000920E-02 0.  1.
        2   -1    0    0  501    0  0.00000000000E+00  0.00000000000E+00 -0.13445402195E+04  0.13445402195E+04  0.25500000920E-02 0. -1.
    10030    2    1    2    0    0  0.00000000000E+00  0.00000000000E+00  0.27776978003E+03  0.29668502191E+04  0.29538185746E+04 0.  0.
        4    1    3    3  502    0 -0.13490378057E+04 -0.31551942187E+03 -0.37504026978E+03  0.14353091387E+04  0.12699999809E+01 0. -1.
       -4    1    3    3    0  502  0.13490378057E+04  0.31551942187E+03  0.65281004981E+03  0.15315410804E+04  0.12699999809E+01 0.  1.
</event>
<event>
 5   0  0.1734885E-06  0.3007285E+04  0.7818609E-02  0.8241654E-01
       -1   -1    0    0    0  501  0.00000000000E+00  0.00000000000E+00  0.19028967564E+04  0.19028967564E+04  0.50400001928E-02 0.  1.
        1   -1    0    0  501    0  0.00000000000E+00  0.00000000000E+00 -0.11881577290E+04  0.11881577291E+04  0.50400001928E-02 0. -1.
    10030    2    1    2    0    0  0.00000000000E+00  0.00000000000E+00  0.71473902731E+03  0.30910544854E+04  0.30072854794E+04 0.  0.
        2    1    3    3  502    0 -0.44087961356E+03  0.43949095838E+03  0.17642231731E+04  0.18708315105E+04  0.25500000920E-02 0.  1.
       -2    1    3    3    0  502  0.44087961356E+03 -0.43949095838E+03 -0.10494841458E+04  0.12202229749E+04  0.25500000920E-02 0. -1.
</event>
<event>
 5   0  0.4532420E-06  0.2990096E+04  0.7818609E-02  0.8246565E-01
        2   -1    0    0  501    0  0.00000000000E+00  0.00000000000E+00  0.13413777844E+04  0.13413777844E+04  0.25500000920E-02 0.  1.
       -2   -1    0    0    0  501  0.00000000000E+00  0.00000000000E+00 -0.16663227120E+04  0.16663227120E+04  0.25500000920E-02 0. -1.
    10030    2    1    2    0    0  0.00000000000E+00  0.00000000000E+00 -0.32494492757E+03  0.30077004964E+04  0.29900958296E+04 0.  0.
        4    1    3    3  502    0  0.13881410111E+04  0.14053375927E+02  0.39580306274E+03  0.14435354659E+04  0.12699999809E+01 0. -1.
       -4    1    3    3    0  502 -0.13881410111E+04 -0.14053375927E+02 -0.72074799031E+03  0.15641650304E+04  0.12699999809E+01 0.  1.
</event>
<event>
 5   0  0.4768570E-06  0.2906456E+04  0.7818609E-02  0.8270959E-01
       -2   -1    0    0    0  501  0.00000000000E+00  0.00000000000E+00  0.14868729618E+04  0.14868729618E+04  0.25500000920E-02 0. -1.
        2   -1    0    0  501    0  0.00000000000E+00  0.00000000000E+00 -0.14203440925E+04  0.14203440925E+04  0.25500000920E-02 0.  1.
    10030    2    1    2    0    0  0.00000000000E+00  0.00000000000E+00  0.66528869320E+02  0.29072170542E+04  0.29064557299E+04 0.  0.
        1    1    3    3  502    0  0.57878194756E+02 -0.13939419471E+04 -0.37359411186E+03  0.14442979601E+04  0.50400001928E-02 0.  1.
       -1    1    3    3    0  502 -0.57878194756E+02  0.13939419471E+04  0.44012298118E+03  0.14629190941E+04  0.50400001928E-02 0. -1.
</event>
<event>
 5   0  0.1545375E-06  0.3255774E+04  0.7818609E-02  0.8174241E-01
        4   -1    0    0  501    0  0.00000000000E+00  0.00000000000E+00  0.18632561467E+04  0.18632565795E+04  0.12699999809E+01 0. -1.
       -4   -1    0    0    0  501  0.00000000000E+00  0.00000000000E+00 -0.14222495573E+04  0.14222501243E+04  0.12699999809E+01 0.  1.
    10030    2    1    2    0    0  0.00000000000E+00  0.00000000000E+00  0.44100658941E+03  0.32855067038E+04  0.32557744838E+04 0.  0.
        5    1    3    3  502    0 -0.46050215588E+03  0.10824440498E+04  0.13560560888E+04  0.17951761926E+04  0.46999998093E+01 0. -1.
       -5    1    3    3    0  502  0.46050215588E+03 -0.10824440498E+04 -0.91504949937E+03  0.14903305113E+04  0.46999998093E+01 0.  1.
</event>
<event>
 5   0  0.5003556E-06  0.2999166E+04  0.7818609E-02  0.8243969E-01
       -2   -1    0    0    0  501  0.00000000000E+00  0.00000000000E+00  0.17193468930E+04  0.17193468930E+04  0.25500000920E-02 0.  1.
        2   -1    0    0  501    0  0.00000000000E+00  0.00000000000E+00 -0.13079085230E+04  0.13079085230E+04  0.25500000920E-02 0. -1.
    10030    2    1    2    0    0  0.00000000000E+00  0.00000000000E+00  0.41143837000E+03  0.30272554161E+04  0.29991655209E+04 0.  0.
        3    1    3    3  502    0 -0.11261769593E+04 -0.27826569396E+03 -0.75346637092E+03  0.13832635044E+04  0.10100000352E+00 0. -1.
       -3    1    3    3    0  502  0.11261769593E+04  0.27826569396E+03  0.11649047409E+04  0.16439919117E+04  0.10100000352E+00 0.  1.
</event>
<event>
 5   0  0.4532420E-06  0.2965807E+04  0.7818609E-02  0.8253563E-01
       -2   -1    0    0    0  501  0.00000000000E+00  0.00000000000E+00  0.11138420729E+04  0.11138420729E+04  0.25500000920E-02 0. -1.
        2   -1    0    0  501    0  0.00000000000E+00  0.00000000000E+00 -0.19742497142E+04  0.19742497142E+04  0.25500000920E-02 0.  1.
    10030    2    1    2    0    0  0.00000000000E+00  0.00000000000E+00 -0.86040764131E+03  0.30880917871E+04  0.29658067329E+04 0.  0.
        4    1    3    3  502    0  0.91251370936E+03  0.90210862819E+03 -0.12041685544E+04  0.17596888268E+04  0.12699999809E+01 0.  1.
       -4    1    3    3    0  502 -0.91251370936E+03 -0.90210862819E+03  0.34376091310E+03  0.13284029604E+04  0.12699999809E+01 0. -1.
</event>
<event>
 5   0  0.1709858E-06  0.3008426E+04  0.7818609E-02  0.8241329E-01
        1   -1    0    0  501    0  0.00000000000E+00  0.00000000000E+00  0.19050940080E+04  0.19050940080E+04  0.50400001928E-02 0.  1.
       -1   -1    0    0    0  501  0.00000000000E+00  0.00000000000E+00 -0.11876879091E+04  0.11876879091E+04  0.50400001928E-02 0. -1.
    10030    2    1    2    0    0  0.00000000000E+00  0.00000000000E+00  0.71740609889E+03  0.30927819171E+04  0.30084262457E+04 0.  0.
        3    1    3    3  502    0 -0.16608147263E+03  0.14278408538E+04 -0.96829436220E+02  0.14407249943E+04  0.10100000352E+00 0. -1.
       -3    1    3    3    0  502  0.16608147263E+03 -0.14278408538E+04  0.81423553511E+03  0.16520569228E+04  0.10100000352E+00 0.  1.
</event>
<event>
 5   0  0.1734885E-06  0.2997182E+04  0.7818609E-02  0.8244536E-01
       -1   -1    0    0    0  501  0.00000000000E+00  0.00000000000E+00  0.20838301561E+04  0.20838301561E+04  0.50400001928E-02 0. -1.
        1   -1    0    0  501    0  0.00000000000E+00  0.00000000000E+00 -0.10777150992E+04  0.10777150992E+04  0.50400001928E-02 0.  1.
    10030    2    1    2    0    0  0.00000000000E+00  0.00000000000E+00  0.10061150569E+04  0.31615452552E+04  0.29971821588E+04 0.  0.
        2    1    3    3  502    0 -0.71959994953E+03 -0.40313021213E+02  0.18890078684E+04  0.20218308420E+04  0.25500000920E-02 0. -1.
       -2    1    3    3    0  502  0.71959994953E+03  0.40313021213E+02 -0.88289281149E+03  0.11397144132E+04  0.25500000920E-02 0.  1.
</event>
<event>
 5   0  0.1672907E-06  0.2918611E+04  0.7818609E-02  0.8267362E-01
       -1   -1    0    0    0  501  0.00000000000E+00  0.00000000000E+00  0.13820830817E+04  0.13820830817E+04  0.50400001928E-02 0. -1.
        1   -1    0    0  501    0  0.00000000000E+00  0.00000000000E+00 -0.15408422060E+04  0.15408422060E+04  0.50400001928E-02 0.  1.
    10030    2    1    2    0    0  0.00000000000E+00  0.00000000000E+00 -0.15875912426E+03  0.29229252877E+04  0.29186105903E+04 0.  0.
        5    1    3    3  502    0 -0.50977115475E+03  0.12764557028E+03  0.12840256462E+04  0.13874090860E+04  0.46999998093E+01 0. -1.
       -5    1    3    3    0  502  0.50977115475E+03 -0.12764557028E+03 -0.14427847704E+04  0.15355162017E+04  0.46999998093E+01 0.  1.
</event>
<event>
 5   0  0.4532420E-06  0.3008362E+04  0.7818609E-02  0.8241347E-01
        2   -1    0    0  501    0  0.00000000000E+00  0.00000000000E+00  0.24837260480E+04  0.24837260480E+04  0.25500000920E-02 0.  1.
       -2   -1    0    0    0  501  0.00000000000E+00  0.00000000000E+00 -0.91095430243E+03  0.91095430244E+03  0.25500000920E-02 0. -1.
    10030    2    1    2    0    0  0.00000000000E+00  0.00000000000E+00  0.15727717455E+04  0.33946803504E+04  0.30083622983E+04 0.  0.
        4    1    3    3  502    0 -0.81188133092E+03 -0.10011419502E+04 -0.88497888223E+02  0.12920023178E+04  0.12699999809E+01 0. -1.
       -4    1    3    3    0  502  0.81188133092E+03  0.10011419502E+04  0.16612696337E+04  0.21026780326E+04  0.12699999809E+01 0.  1.
</event>
<event>
 5   0  0.1700885E-06  0.3002333E+04  0.7818609E-02  0.8243065E-01
        1   -1    0    0  501    0  0.00000000000E+00  0.00000000000E+00  0.19186195908E+04  0.19186195908E+04  0.50400001928E-02 0. -1.
       -1   -1    0    0    0  501  0.00000000000E+00  0.00000000000E+00 -0.11745426196E+04  0.11745426197E+04  0.50400001928E-02 0.  1.
    10030    2    1    2    0    0  0.00000000000E+00  0.00000000000E+00  0.74407697115E+03  0.30931622105E+04  0.30023327466E+04 0.  0.
        1    1    3    3  502    0  0.86193387395E+02  0.14201914471E+04 -0.12111535316E+03  0.14279502706E+04  0.50400001928E-02 0. -1.
       -1    1    3    3    0  502 -0.86193387395E+02 -0.14201914471E+04  0.86519232431E+03  0.16652119398E+04  0.50400001928E-02 0.  1.
</event>
<event>
 5   0  0.1672907E-06  0.2982585E+04  0.7818609E-02  0.8248721E-01
       -1   -1    0    0    0  501  0.00000000000E+00  0.00000000000E+00  0.82702773221E+03  0.82702773223E+03  0.50400001928E-02 0.  1.
        1   -1    0    0  501    0  0.00000000000E+00  0.00000000000E+00 -0.26890910039E+04  0.26890910039E+04  0.50400001928E-02 0. -1.
    10030    2    1    2    0    0  0.00000000000E+00  0.00000000000E+00 -0.18620632717E+04  0.35161187361E+04  0.29825846742E+04 0.  0.
        5    1    3    3  502    0 -0.63570487238E+03 -0.96391487925E+03 -0.20436113918E+04  0.23472584412E+04  0.46999998093E+01 0. -1.
       -5    1    3    3    0  502  0.63570487238E+03  0.96391487925E+03  0.18154812007E+03  0.11688602949E+04  0.46999998093E+01 0.  1.
</event>
<event>
 5   0  0.1700885E-06  0.3080773E+04  0.7818609E-02  0.8221034E-01
        1   -1    0    0  501    0  0.00000000000E+00  0.00000000000E+00  0.16953630383E+04  0.16953630383E+04  0.50400001928E-02 0. -1.
       -1   -1    0    0    0  501  0.00000000000E+00  0.00000000000E+00 -0.13995765911E+04  0.13995765911E+04  0.50400001928E-02 0.  1.
    10030    2    1    2    0    0  0.00000000000E+00  0.00000000000E+00  0.29578644721E+03  0.30949396295E+04  0.30807729043E+04 0.  0.
        1    1    3    3  502    0 -0.30024486586E+02  0.15366692058E+04  0.25101369417E+03  0.15573251403E+04  0.50400001928E-02 0. -1.
       -1    1    3    3    0  502  0.30024486586E+02 -0.15366692058E+04  0.44772753048E+02  0.15376144892E+04  0.50400001928E-02 0.  1.
</event>
<event>
 5   0  0.1734885E-06  0.2989076E+04  0.7818609E-02  0.8246857E-01
        1   -1    0    0  501    0  0.00000000000E+00  0.00000000000E+00  0.78823247501E+03  0.78823247503E+03  0.50400001928E-02 0. -1.
       -1   -1    0    0    0  501  0.00000000000E+00  0.00000000000E+00 -0.28337378380E+04  0.28337378380E+04  0.50400001928E-02 0.  1.
    10030    2    1    2    0    0  0.00000000000E+00  0.00000000000E+00 -0.20455053630E+04  0.36219703130E+04  0.29890762383E+04 0.  0.
        2    1    3    3  502    0  0.37140496390E+03  0.84819365981E+03  0.39878941454E+03  0.10081701885E+04  0.25500000920E-02 0. -1.
       -2    1    3    3    0  502 -0.37140496390E+03 -0.84819365981E+03 -0.24442947775E+04  0.26138001245E+04  0.25500000920E-02 0.  1.
</event>
<event>
 5   0  0.4935331E-06  0.2982897E+04  0.7818609E-02  0.8248632E-01
        2   -1    0    0  501    0  0.00000000000E+00  0.00000000000E+00  0.11687818940E+04  0.11687818940E+04  0.25500000920E-02 0. -1.
       -2   -1    0    0    0  501  0.00000000000E+00  0.00000000000E+00 -0.19031944102E+04  0.19031944102E+04  0.25500000920E-02 0.  1.
    10030    2    1    2    0    0  0.00000000000E+00  0.00000000000E+00 -0.73441251618E+03  0.30719763042E+04  0.29828973615E+04 0.  0.
        5    1    3    3  502    0 -0.61573243453E+03 -0.10159020296E+04  0.56150754014E+03  0.13139620132E+04  0.46999998093E+01 0. -1.
       -5    1    3    3    0  502  0.61573243453E+03  0.10159020296E+04 -0.12959200563E+04  0.17580142909E+04  0.46999998093E+01 0.  1.
</event>
<event>
 5   0  0.4532420E-06  0.2993782E+04  0.7818609E-02  0.8245509E-01
        2   -1    0    0  501    0  0.00000000000E+00  0.00000000000E+00  0.14989652939E+04  0.14989652939E+04  0.25500000920E-02 0. -1.
       -2   -1    0    0    0  501  0.00000000000E+00  0.00000000000E+00 -0.14948192711E+04  0.14948192711E+04  0.25500000920E-02 0.  1.
    10030    2    1    2    0    0  0.00000000000E+00  0.00000000000E+00  0.41460227761E+01  0.29937845649E+04  0.29937816941E+04 0.  0.
        4    1    3    3  502    0  0.58313612483E+03 -0.13456462953E+04 -0.29770870118E+03  0.14964771217E+04  0.12699999809E+01 0.  1.
       -4    1    3    3    0  502 -0.58313612483E+03  0.13456462953E+04  0.30185472395E+03  0.14973074432E+04  0.12699999809E+01 0. -1.
</event>
<event>
 5   0  0.1709858E-06  0.2973951E+04  0.7818609E-02  0.8251209E-01
        1   -1    0    0  501    0  0.00000000000E+00  0.00000000000E+00  0.13205384558E+04  0.13205384558E+04  0.50400001928E-02 0. -1.
       -1   -1    0    0    0  501  0.00000000000E+00  0.00000000000E+00 -0.16743893687E+04  0.16743893687E+04  0.50400001928E-02 0.  1.
    10030    2    1    2    0    0  0.00000000000E+00  0.00000000000E+00 -0.35385091286E+03  0.29949278245E+04  0.29739506058E+04 0.  0.
        3    1    3    3  502    0 -0.36285248271E+03  0.39256136720E+03  0.12204242475E+04  0.13323669559E+04  0.10100000352E+00 0. -1.
       -3    1    3    3    0  502  0.36285248271E+03 -0.39256136720E+03 -0.15742751603E+04  0.16625608686E+04  0.10100000352E+00 0.  1.
</event>
<event>
 5   0  0.1734885E-06  0.2968350E+04  0.7818609E-02  0.8252827E-01
       -1   -1    0    0    0  501  0.00000000000E+00  0.00000000000E+00  0.12040598519E+04  0.12040598519E+04  0.50400001928E-02 0. -1.
        1   -1    0    0  501    0  0.00000000000E+00  0.00000000000E+00 -0.18294562238E+04  0.18294562238E+04  0.50400001928E-02 0.  1.
    10030    2    1    2    0    0  0.00000000000E+00  0.00000000000E+00 -0.62539637190E+03  0.30335160758E+04  0.29683495684E+04 0.  0.
        2    1    3    3  502    0 -0.42813509166E+03 -0.12412461488E+04  0.39443411678E+03  0.13709740811E+04  0.25500000920E-02 0. -1.
       -2    1    3    3    0  502  0.42813509166E+03  0.12412461488E+04 -0.10198304887E+04  0.16625419947E+04  0.25500000920E-02 0.  1.
</event>
<event>
 5   0  0.4532420E-06  0.3022360E+04  0.7818609E-02  0.8237374E-01
       -2   -1    0    0    0  501  0.00000000000E+00  0.00000000000E+00  0.17530663371E+04  0.17530663371E+04  0.25500000920E-02 0.  1.
        2   -1    0    0  501    0  0.00000000000E+00  0.00000000000E+00 -0.13026692447E+04  0.13026692447E+04  0.25500000920E-02 0. -1.
    10030    2    1    2    0    0  0.00000000000E+00  0.00000000000E+00  0.45039709235E+03  0.30557355818E+04  0.30223604029E+04 0.  0.
        4    1    3    3  502    0  0.45883647440E+03 -0.68776016165E+03  0.15041252831E+04  0.17163739192E+04  0.12699999809E+01 0.  1.
       -4    1    3    3    0  502 -0.45883647440E+03  0.68776016165E+03 -0.10537281908E+04  0.13393616626E+04  0.12699999809E+01 0. -1.
</event>
<event>
 5   0  0.1700885E-06  0.3020880E+04  0.7818609E-02  0.8237793E-01
       -1   -1    0    0    0  501  0.00000000000E+00  0.00000000000E+00  0.10749340931E+04  0.10749340931E+04  0.50400001928E-02 0. -1.
        1   -1    0    0  501    0  0.00000000000E+00  0.00000000000E+00 -0.21223903152E+04  0.21223903152E+04  0.50400001928E-02 0.  1.
    10030    2    1    2    0    0  0.00000000000E+00  0.00000000000E+00 -0.10474562221E+04  0.31973244083E+04  0.30208804734E+04 0.  0.
        1    1    3    3  502    0  0.14672991322E+04  0.34226097015E+03 -0.63633991815E+03  0.16355542811E+04  0.50400001928E-02 0. -1.
       -1    1    3    3    0  502 -0.14672991322E+04 -0.34226097015E+03 -0.41111630395E+03  0.15617701272E+04  0.50400001928E-02 0.  1.
</event>
<event>
 5   0  0.4532420E-06  0.3032446E+04  0.7818609E-02  0.8234526E-01
        2   -1    0    0  501    0  0.00000000000E+00  0.00000000000E+00  0.19036912840E+04  0.19036912840E+04  0.25500000920E-02 0. -1.
       -2   -1    0    0    0  501  0.00000000000E+00  0.00000000000E+00 -0.12076183309E+04  0.12076183309E+04  0.25500000920E-02 0.  1.
    10030    2    1    2    0    0  0.00000000000E+00  0.00000000000E+00  0.69607295313E+03  0.31113096148E+04  0.30324462012E+04 0.  0.
        4    1    3    3  502    0 -0.11343536804E+04 -0.94408060323E+03 -0.86899572720E+01  0.14758467353E+04  0.12699999809E+01 0. -1.
       -4    1    3    3    0  502  0.11343536804E+04  0.94408060323E+03  0.70476291040E+03  0.16354628796E+04  0.12699999809E+01 0.  1.
</event>
<event>
 5   0  0.1700885E-06  0.2956776E+04  0.7818609E-02  0.8256183E-01
        1   -1    0    0  501    0  0.00000000000E+00  0.00000000000E+00  0.12354016924E+04  0.12354016925E+04  0.50400001928E-02 0.  1.
       -1   -1    0    0    0  501  0.00000000000E+00  0.00000000000E+00 -0.17691662130E+04  0.17691662130E+04  0.50400001928E-02 0. -1.
    10030    2    1    2    0    0  0.00000000000E+00  0.00000000000E+00 -0.53376452054E+03  0.30045679054E+04  0.29567759021E+04 0.  0.
        1    1    3    3  502    0  0.13172104556E+04 -0.20629094172E+03 -0.91598061946E+03  0.16175969313E+04  0.50400001928E-02 0. -1.
       -1    1    3    3    0  502 -0.13172104556E+04  0.20629094172E+03  0.38221609892E+03  0.13869709742E+04  0.50400001928E-02 0.  1.
</event>
<event>
 5   0  0.1700885E-06  0.2991507E+04  0.7818609E-02  0.8246160E-01
        1   -1    0    0  501    0  0.00000000000E+00  0.00000000000E+00  0.17387781415E+04  0.17387781415E+04  0.50400001928E-02 0. -1.
       -1   -1    0    0    0  501  0.00000000000E+00  0.00000000000E+00 -0.12866957435E+04  0.12866957435E+04  0.50400001928E-02 0.  1.
    10030    2    1    2    0    0  0.00000000000E+00  0.00000000000E+00  0.45208239807E+03  0.30254738850E+04  0.29915069337E+04 0.  0.
        1    1    3    3  502    0  0.97471276842E+03  0.71206456916E+03 -0.66726450269E+03  0.13792544537E+04  0.50400001928E-02 0.  1.
       -1    1    3    3    0  502 -0.97471276842E+03 -0.71206456916E+03  0.11193469008E+04  0.16462194313E+04  0.50400001928E-02 0. -1.
</event>
<event>
 5   0  0.5003556E-06  0.2951042E+04  0.7818609E-02  0.8257851E-01
        2   -1    0    0  501    0  0.00000000000E+00  0.00000000000E+00  0.92359873768E+03  0.92359873768E+03  0.25500000920E-02 0.  1.
       -2   -1    0    0    0  501  0.00000000000E+00  0.00000000000E+00 -0.23572603904E+04  0.23572603904E+04  0.25500000920E-02 0. -1.
    10030    2    1    2    0    0  0.00000000000E+00  0.00000000000E+00 -0.14336616527E+04  0.32808591281E+04  0.29510423385E+04 0.  0.
        3    1    3    3  502    0  0.62071847128E+02 -0.42883872612E+03 -0.22849316374E+04  0.23256543520E+04  0.10100000352E+00 0. -1.
       -3    1    3    3    0  502 -0.62071847128E+02  0.42883872612E+03  0.85126998467E+03  0.95520477607E+03  0.10100000352E+00 0.  1.
</event>
<event>
 5   0  0.1545375E-06  0.3003001E+04  0.7818609E-02  0.8242875E-01
        3   -1    0    0  501    0  0.00000000000E+00  0.00000000000E+00  0.17364095236E+04  0.17364095265E+04  0.10100000352E+00 0. -1.
       -3   -1    0    0    0  501  0.00000000000E+00  0.00000000000E+00 -0.12983706789E+04  0.12983706828E+04  0.10100000352E+00 0.  1.
    10030    2    1    2    0    0  0.00000000000E+00  0.00000000000E+00  0.43803884468E+03  0.30347802093E+04  0.30030006476E+04 0.  0.
        2    1    3    3  502    0 -0.89061088821E+03 -0.51864856035E+02 -0.10014972575E+04  0.13412212623E+04  0.25500000920E-02 0.  1.
       -2    1    3    3    0  502  0.89061088821E+03  0.51864856035E+02  0.14395361022E+04  0.16935589470E+04  0.25500000920E-02 0. -1.
</event>
<event>
 5   0  0.5003556E-06  0.2994565E+04  0.7818609E-02  0.8245284E-01
        2   -1    0    0  501    0  0.00000000000E+00  0.00000000000E+00  0.14142199943E+04  0.14142199943E+04  0.25500000920E-02 0.  1.
       -2   -1    0    0    0  501  0.00000000000E+00  0.00000000000E+00 -0.15852240407E+04  0.15852240407E+04  0.25500000920E-02 0. -1.
    10030    2    1    2    0    0  0.00000000000E+00  0.00000000000E+00 -0.17100404642E+03  0.29994440350E+04  0.29945654334E+04 0.  0.
        3    1    3    3  502    0 -0.44642397565E+03 -0.14084245528E+04 -0.32859359360E+03  0.15135811333E+04  0.10100000352E+00 0. -1.
       -3    1    3    3    0  502  0.44642397565E+03  0.14084245528E+04  0.15758954718E+03  0.14858629017E+04  0.10100000352E+00 0.  1.
</event>
<event>
 5   0  0.4532420E-06  0.2870819E+04  0.7818609E-02  0.8281613E-01
       -2   -1    0    0    0  501  0.00000000000E+00  0.00000000000E+00  0.12441401428E+04  0.12441401428E+04  0.25500000920E-02 0. -1.
        2   -1    0    0  501    0  0.00000000000E+00  0.00000000000E+00 -0.16560835049E+04  0.16560835049E+04  0.25500000920E-02 0.  1.
    10030    2    1    2    0    0  0.00000000000E+00  0.00000000000E+00 -0.41194336214E+03  0.29002236477E+04  0.28708186765E+04 0.  0.
        4    1    3    3  502    0 -0.89062993659E+03  0.18547406909E+03  0.91570533015E+03  0.12907905248E+04  0.12699999809E+01 0. -1.
       -4    1    3    3    0  502  0.89062993659E+03 -0.18547406909E+03 -0.13276486923E+04  0.16094331230E+04  0.12699999809E+01 0.  1.
</event>
<event>
 5   0  0.5003556E-06  0.2978880E+04  0.7818609E-02  0.8249788E-01
       -2   -1    0    0    0  501  0.00000000000E+00  0.00000000000E+00  0.22717624563E+04  0.22717624563E+04  0.25500000920E-02 0.  1.
        2   -1    0    0  501    0  0.00000000000E+00  0.00000000000E+00 -0.97652443501E+03  0.97652443501E+03  0.25500000920E-02 0. -1.
    10030    2    1    2    0    0  0.00000000000E+00  0.00000000000E+00  0.12952380213E+04  0.32482868913E+04  0.29788800239E+04 0.  0.
        3    1    3    3  502    0 -0.88154852412E+03 -0.11340480822E+04  0.10772556851E+04  0.17954589035E+04  0.10100000352E+00 0.  1.
       -3    1    3    3    0  502  0.88154852412E+03  0.11340480822E+04  0.21798233621E+03  0.14528279878E+04  0.10100000352E+00 0. -1.
</event>
<event>
 5   0  0.4768570E-06  0.3012290E+04  0.7818609E-02  0.8240230E-01
        2   -1    0    0  501    0  0.00000000000E+00  0.00000000000E+00  0.12834442300E+04  0.12834442300E+04  0.25500000920E-02 0.  1.
       -2   -1    0    0    0  501  0.00000000000E+00  0.00000000000E+00 -0.17674880655E+04  0.17674880655E+04  0.25500000920E-02 0. -1.
    10030    2    1    2    0    0  0.00000000000E+00  0.00000000000E+00 -0.48404383555E+03  0.30509322955E+04  0.30122897332E+04 0.  0.
        1    1    3    3  502    0  0.63231596079E+03  0.10083011648E+04 -0.11768891302E+04  0.16737869453E+04  0.50400001928E-02 0. -1.
       -1    1    3    3    0  502 -0.63231596079E+03 -0.10083011648E+04  0.69284529469E+03  0.13771453502E+04  0.50400001928E-02 0.  1.
</event>
<event>
 5   0  0.1734885E-06  0.2961026E+04  0.7818609E-02  0.8254949E-01
        1   -1    0    0  501    0  0.00000000000E+00  0.00000000000E+00  0.11503599623E+04  0.11503599623E+04  0.50400001928E-02 0.  1.
       -1   -1    0    0    0  501  0.00000000000E+00  0.00000000000E+00 -0.19054193067E+04  0.19054193068E+04  0.50400001928E-02 0. -1.
    10030    2    1    2    0    0  0.00000000000E+00  0.00000000000E+00 -0.75505934443E+03  0.30557792691E+04  0.29610255534E+04 0.  0.
        2    1    3    3  502    0 -0.74603057940E+03  0.11387036004E+04 -0.97814193894E+03  0.16762962649E+04  0.25500000920E-02 0. -1.
       -2    1    3    3    0  502  0.74603057940E+03 -0.11387036004E+04  0.22308259451E+03  0.13794830042E+04  0.25500000920E-02 0.  1.
</event>
<event>
 5   0  0.1686012E-06  0.2990609E+04  0.7818609E-02  0.8246418E-01
       -1   -1    0    0    0  501  0.00000000000E+00  0.00000000000E+00  0.97121092653E+03  0.97121092654E+03  0.50400001928E-02 0. -1.
        1   -1    0    0  501    0  0.00000000000E+00  0.00000000000E+00 -0.23022143169E+04  0.23022143170E+04  0.50400001928E-02 0.  1.
    10030    2    1    2    0    0  0.00000000000E+00  0.00000000000E+00 -0.13310033904E+04  0.32734252435E+04  0.29906091017E+04 0.  0.
        4    1    3    3  502    0  0.20315253624E+03  0.64287539657E+03  0.79539792047E+03  0.10426980355E+04  0.12699999809E+01 0. -1.
       -4    1    3    3    0  502 -0.20315253624E+03 -0.64287539657E+03 -0.21264013109E+04  0.22307272080E+04  0.12699999809E+01 0.  1.
</event>
<event>
 5   0  0.4935331E-06  0.3036039E+04  0.7818609E-02  0.8233514E-01
        2   -1    0    0  501    0  0.00000000000E+00  0.00000000000E+00  0.16889249987E+04  0.16889249987E+04  0.25500000920E-02 0.  1.
       -2   -1    0    0    0  501  0.00000000000E+00  0.00000000000E+00 -0.13644080110E+04  0.13644080110E+04  0.25500000920E-02 0. -1.
    10030    2    1    2    0    0  0.00000000000E+00  0.00000000000E+00  0.32451698775E+03  0.30533330097E+04  0.30360387338E+04 0.  0.
        5    1    3    3  502    0 -0.27680614335E+03  0.11955168742E+04 -0.73640783587E+03  0.14311536704E+04  0.46999998093E+01 0. -1.
       -5    1    3    3    0  502  0.27680614335E+03 -0.11955168742E+04  0.10609248236E+04  0.16221793393E+04  0.46999998093E+01 0.  1.
</event>
<event>
 5   0  0.1700885E-06  0.2984617E+04  0.7818609E-02  0.8248137E-01
        1   -1    0    0  501    0  0.00000000000E+00  0.00000000000E+00  0.22638993206E+04  0.22638993206E+04  0.50400001928E-02 0.  1.
       -1   -1    0    0    0  501  0.00000000000E+00  0.00000000000E+00 -0.98369412570E+03  0.98369412572E+03  0.50400001928E-02 0. -1.
    10030    2    1    2    0    0  0.00000000000E+00  0.00000000000E+00  0.12802051949E+04  0.32475934463E+04  0.29846168685E+04 0.  0.
        1    1    3    3  502    0 -0.67813099414E+03  0.14654822939E+03  0.20777461134E+04  0.21905175052E+04  0.50400001928E-02 0.  1.
       -1    1    3    3    0  502  0.67813099414E+03 -0.14654822939E+03 -0.79754091847E+03  0.10570759412E+04  0.50400001928E-02 0. -1.
</event>
<event>
 5   0  0.1686012E-06  0.3033639E+04  0.7818609E-02  0.8234190E-01
       -1   -1    0    0    0  501  0.00000000000E+00  0.00000000000E+00  0.26345295949E+04  0.26345295949E+04  0.50400001928E-02 0.  1.
        1   -1    0    0  501    0  0.00000000000E+00  0.00000000000E+00 -0.87330230177E+03  0.87330230179E+03  0.50400001928E-02 0. -1.
    10030    2    1    2    0    0  0.00000000000E+00  0.00000000000E+00  0.17612272931E+04  0.35078318967E+04  0.30336385805E+04 0.  0.
        4    1    3    3  502    0 -0.11733730839E+03  0.56226763385E+03  0.25039148052E+04  0.25689499607E+04  0.12699999809E+01 0.  1.
       -4    1    3    3    0  502  0.11733730839E+03 -0.56226763385E+03 -0.74268751214E+03  0.93888193592E+03  0.12699999809E+01 0. -1.
</event>
<event>
 5   0  0.1672907E-06  0.3019147E+04  0.7818609E-02  0.8238284E-01
       -1   -1    0    0    0  501  0.00000000000E+00  0.00000000000E+00  0.17104405053E+04  0.17104405054E+04  0.50400001928E-02 0. -1.
        1   -1    0    0  501    0  0.00000000000E+00  0.00000000000E+00 -0.13322957060E+04  0.13322957060E+04  0.50400001928E-02 0.  1.
    10030    2    1    2    0    0  0.00000000000E+00  0.00000000000E+00  0.37814479935E+03  0.30427362114E+04  0.30191472575E+04 0.  0.
        5    1    3    3  502    0 -0.11270284091E+04  0.34143645883E+03 -0.76277417732E+03  0.14030746330E+04  0.46999998093E+01 0.  1.
       -5    1    3    3    0  502  0.11270284091E+04 -0.34143645883E+03  0.11409189767E+04  0.16396615784E+04  0.46999998093E+01 0. -1.
</event>
<event>
 5   0  0.4532420E-06  0.3041814E+04  0.7818609E-02  0.8231890E-01
       -2   -1    0    0    0  501  0.00000000000E+00  0.00000000000E+00  0.14059207929E+04  0.14059207929E+04  0.25500000920E-02 0.  1.
        2   -1    0    0  501    0  0.00000000000E+00  0.00000000000E+00 -0.16452980014E+04  0.16452980014E+04  0.25500000920E-02 0. -1.
    10030    2    1    2    0    0  0.00000000000E+00  0.00000000000E+00 -0.23937720856E+03  0.30512187943E+04  0.30418143735E+04 0.  0.
        4    1    3    3  502    0  0.14565524140E+04  0.11616733561E+03  0.30365564237E+03  0.14923967792E+04  0.12699999809E+01 0.  1.
       -4    1    3    3    0  502 -0.14565524140E+04 -0.11616733561E+03 -0.54303285093E+03  0.15588220151E+04  0.12699999809E+01 0. -1.
</event>
<event>
 5   0  0.1700885E-06  0.2973110E+04  0.7818609E-02  0.8251452E-01
        1   -1    0    0  501    0  0.00000000000E+00  0.00000000000E+00  0.27822112980E+04  0.27822112980E+04  0.50400001928E-02 0. -1.
       -1   -1    0    0    0  501  0.00000000000E+00  0.00000000000E+00 -0.79427655232E+03  0.79427655234E+03  0.50400001928E-02 0.  1.
    10030    2    1    2    0    0  0.00000000000E+00  0.00000000000E+00  0.19879347456E+04  0.35764878503E+04  0.29731096163E+04 0.  0.
        1    1    3    3  502    0 -0.15718527874E+03 -0.52992557222E+03 -0.66606072964E+03  0.86554330887E+03  0.50400001928E-02 0.  1.
       -1    1    3    3    0  502  0.15718527874E+03  0.52992557222E+03  0.26539954753E+04  0.27109445414E+04  0.50400001928E-02 0. -1.
</event>
<event>
 5   0  0.4702748E-06  0.2992696E+04  0.7818609E-02  0.8245820E-01
        2   -1    0    0  501    0  0.00000000000E+00  0.00000000000E+00  0.15461896442E+04  0.15461896442E+04  0.25500000920E-02 0. -1.
       -2   -1    0    0    0  501  0.00000000000E+00  0.00000000000E+00 -0.14481133114E+04  0.14481133114E+04  0.25500000920E-02 0.  1.
    10030    2    1    2    0    0  0.00000000000E+00  0.00000000000E+00  0.98076332863E+02  0.29943029556E+04  0.29926963132E+04 0.  0.
        2    1    3    3  502    0  0.30279392771E+03 -0.42850594090E+03  0.14511313767E+04  0.15430760761E+04  0.25500000920E-02 0. -1.
       -2    1    3    3    0  502 -0.30279392771E+03  0.42850594090E+03 -0.13530550439E+04  0.14512268795E+04  0.25500000920E-02 0.  1.
</event>
<event>
 5   0  0.4935331E-06  0.3002045E+04  0.7818609E-02  0.8243147E-01
        2   -1    0    0  501    0  0.00000000000E+00  0.00000000000E+00  0.29087998652E+04  0.29087998652E+04  0.25500000920E-02 0. -1.
       -2   -1    0    0    0  501  0.00000000000E+00  0.00000000000E+00 -0.77456995462E+03  0.77456995463E+03  0.25500000920E-02 0.  1.
    10030    2    1    2    0    0  0.00000000000E+00  0.00000000000E+00  0.21342299106E+04  0.36833698199E+04  0.30020452892E+04 0.  0.
        5    1    3    3  502    0 -0.84158640843E+03  0.80027195411E+03 -0.99681007667E+02  0.11656162648E+04  0.46999998093E+01 0.  1.
       -5    1    3    3    0  502  0.84158640843E+03 -0.80027195411E+03  0.22339109183E+04  0.25177535551E+04  0.46999998093E+01 0. -1.
</event>
<event>
 5   0  0.1709858E-06  0.3000924E+04  0.7818609E-02  0.8243467E-01
       -1   -1    0    0    0  501  0.00000000000E+00  0.00000000000E+00  0.10045773601E+04  0.10045773601E+04  0.50400001928E-02 0.  1.
        1   -1    0    0  501    0  0.00000000000E+00  0.00000000000E+00 -0.22411278208E+04  0.22411278208E+04  0.50400001928E-02 0. -1.
    10030    2    1    2    0    0  0.00000000000E+00  0.00000000000E+00 -0.12365504607E+04  0.32457051809E+04  0.30009240376E+04 0.  0.
        3    1    3    3  502    0 -0.78516037297E+03  0.12630628324E+04 -0.40309545426E+03  0.15408732866E+04  0.10100000352E+00 0. -1.
       -3    1    3    3    0  502  0.78516037297E+03 -0.12630628324E+04 -0.83345500645E+03  0.17048318943E+04  0.10100000352E+00 0.  1.
</event>
<event>
 5   0  0.1672907E-06  0.3070746E+04  0.7818609E-02  0.8223812E-01
       -1   -1    0    0    0  501  0.00000000000E+00  0.00000000000E+00  0.11135135848E+04  0.11135135849E+04  0.50400001928E-02 0.  1.
        1   -1    0    0  501    0  0.00000000000E+00  0.00000000000E+00 -0.21170560443E+04  0.21170560443E+04  0.50400001928E-02 0. -1.
    10030    2    1    2    0    0  0.00000000000E+00  0.00000000000E+00 -0.10035424594E+04  0.32305696291E+04  0.30707462710E+04 0.  0.
        5    1    3    3  502    0  0.54740764383E+03 -0.24768337780E+03 -0.19882308713E+04  0.20770378599E+04  0.46999998093E+01 0. -1.
       -5    1    3    3    0  502 -0.54740764383E+03  0.24768337780E+03  0.98468841183E+03  0.11535317692E+04  0.46999998093E+01 0.  1.
</event>
<event>
 5   0  0.4702748E-06  0.3028287E+04  0.7818609E-02  0.8235699E-01
       -2   -1    0    0    0  501  0.00000000000E+00  0.00000000000E+00  0.30409327384E+04  0.30409327384E+04  0.25500000920E-02 0.  1.
        2   -1    0    0  501    0  0.00000000000E+00  0.00000000000E+00 -0.75392328364E+03  0.75392328365E+03  0.25500000920E-02 0. -1.
    10030    2    1    2    0    0  0.00000000000E+00  0.00000000000E+00  0.22870094547E+04  0.37948560220E+04  0.30282866413E+04 0.  0.
        2    1    3    3  502    0 -0.82250625070E+03 -0.79425599458E+03 -0.10036857277E+03  0.11477948283E+04  0.25500000920E-02 0. -1.
       -2    1    3    3    0  502  0.82250625070E+03  0.79425599458E+03  0.23873780275E+04  0.26470611938E+04  0.25500000920E-02 0.  1.
</event>
<event>
 5   0  0.1686012E-06  0.2931644E+04  0.7818609E-02  0.8263524E-01
        1   -1    0    0  501    0  0.00000000000E+00  0.00000000000E+00  0.18035957880E+04  0.18035957880E+04  0.50400001928E-02 0. -1.
       -1   -1    0    0    0  501  0.00000000000E+00  0.00000000000E+00 -0.11913055696E+04  0.11913055697E+04  0.50400001928E-02 0.  1.
    10030    2    1    2    0    0  0.00000000000E+00  0.00000000000E+00  0.61229021832E+03  0.29949013576E+04  0.29316437080E+04 0.  0.
        4    1    3    3  502    0 -0.47693099915E+03 -0.59077875391E+03 -0.97476377898E+03  0.12355762833E+04  0.12699999809E+01 0.  1.
       -4    1    3    3    0  502  0.47693099915E+03  0.59077875391E+03  0.15870539973E+04  0.17593250744E+04  0.12699999809E+01 0. -1.
</event>
<event>
 5   0  0.5003556E-06  0.2965849E+04  0.7818609E-02  0.8253551E-01
        2   -1    0    0  501    0  0.00000000000E+00  0.00000000000E+00  0.14467624268E+04  0.14467624268E+04  0.25500000920E-02 0. -1.
       -2   -1    0    0    0  501  0.00000000000E+00  0.00000000000E+00 -0.15199900245E+04  0.15199900245E+04  0.25500000920E-02 0.  1.
    10030    2    1    2    0    0  0.00000000000E+00  0.00000000000E+00 -0.73227597647E+02  0.29667524513E+04  0.29658485845E+04 0.  0.
        3    1    3    3  502    0  0.33621731412E+03  0.30273887101E+03 -0.14492663844E+04  0.15182443708E+04  0.10100000352E+00 0.  1.
       -3    1    3    3    0  502 -0.33621731412E+03 -0.30273887101E+03  0.13760387868E+04  0.14485080805E+04  0.10100000352E+00 0. -1.
</event>
<event>
 5   0  0.4935331E-06  0.2865540E+04  0.7818609E-02  0.8283205E-01
       -2   -1    0    0    0  501  0.00000000000E+00  0.00000000000E+00  0.94948677956E+03  0.94948677957E+03  0.25500000920E-02 0. -1.
        2   -1    0    0  501    0  0.00000000000E+00  0.00000000000E+00 -0.21620416441E+04  0.21620416441E+04  0.25500000920E-02 0.  1.
    10030    2    1    2    0    0  0.00000000000E+00  0.00000000000E+00 -0.12125548645E+04  0.31115284236E+04  0.28655400593E+04 0.  0.
        5    1    3    3  502    0  0.87141104233E+03 -0.58484257869E+03 -0.16654119048E+04  0.19685062736E+04  0.46999998093E+01 0.  1.
       -5    1    3    3    0  502 -0.87141104233E+03  0.58484257869E+03  0.45285704030E+03  0.11430221500E+04  0.46999998093E+01 0. -1.
</event>
<event>
 5   0  0.4532420E-06  0.2996832E+04  0.7818609E-02  0.8244636E-01
       -2   -1    0    0    0  501  0.00000000000E+00  0.00000000000E+00  0.72719114310E+03  0.72719114310E+03  0.25500000920E-02 0.  1.
        2   -1    0    0  501    0  0.00000000000E+00  0.00000000000E+00 -0.30875667528E+04  0.30875667528E+04  0.25500000920E-02 0. -1.
    10030    2    1    2    0    0  0.00000000000E+00  0.00000000000E+00 -0.23603756097E+04  0.38147578960E+04  0.29968324587E+04 0.  0.
        4    1    3    3  502    0 -0.90481435599E+03 -0.11144921777E+04 -0.17269075293E+04  0.22456609407E+04  0.12699999809E+01 0. -1.
       -4    1    3    3    0  502  0.90481435599E+03  0.11144921777E+04 -0.63346808045E+03  0.15690969552E+04  0.12699999809E+01 0.  1.
</event>
<event>
 5   0  0.1700885E-06  0.2959352E+04  0.7818609E-02  0.8255434E-01
        1   -1    0    0  501    0  0.00000000000E+00  0.00000000000E+00  0.21184551179E+04  0.21184551179E+04  0.50400001928E-02 0. -1.
       -1   -1    0    0    0  501  0.00000000000E+00  0.00000000000E+00 -0.10335081417E+04  0.10335081418E+04  0.50400001928E-02 0.  1.
    10030    2    1    2    0    0  0.00000000000E+00  0.00000000000E+00  0.10849469762E+04  0.31519632597E+04  0.29593516941E+04 0.  0.
        1    1    3    3  502    0  0.10444978690E+03 -0.30987000134E+03 -0.99454207027E+03  0.10469207732E+04  0.50400001928E-02 0.  1.
       -1    1    3    3    0  502 -0.10444978690E+03  0.30987000134E+03  0.20794890465E+04  0.21050424865E+04  0.50400001928E-02 0. -1.
</event>
<event>
 5   0  0.4768570E-06  0.3105733E+04  0.7818609E-02  0.8214166E-01
       -2   -1    0    0    0  501  0.00000000000E+00  0.00000000000E+00  0.16541654755E+04  0.16541654755E+04  0.25500000920E-02 0.  1.
        2   -1    0    0  501    0  0.00000000000E+00  0.00000000000E+00 -0.14577710442E+04  0.14577710442E+04  0.25500000920E-02 0. -1.
    10030    2    1    2    0    0  0.00000000000E+00  0.00000000000E+00  0.19639443132E+03  0.31119365197E+04  0.31057331067E+04 0.  0.
        1    1    3    3  502    0 -0.25759195508E+03  0.10527836565E+04 -0.10160885467E+04  0.14856456433E+04  0.50400001928E-02 0. -1.
       -1    1    3    3    0  502  0.25759195508E+03 -0.10527836565E+04  0.12124829780E+04  0.16262908764E+04  0.50400001928E-02 0.  1.
</event>
<event>
 5   0  0.1700885E-06  0.2962565E+04  0.7818609E-02  0.8254502E-01
       -1   -1    0    0    0  501  0.00000000000E+00  0.00000000000E+00  0.13744688498E+04  0.13744688498E+04  0.50400001928E-02 0. -1.
        1   -1    0    0  501    0  0.00000000000E+00  0.00000000000E+00 -0.15963972409E+04  0.15963972409E+04  0.50400001928E-02 0.  1.
    10030    2    1    2    0    0  0.00000000000E+00  0.00000000000E+00 -0.22192839106E+03  0.29708660907E+04  0.29625652934E+04 0.  0.
        1    1    3    3  502    0  0.11606160064E+04  0.38417692989E+03  0.72778643835E+03  0.14227770477E+04  0.50400001928E-02 0. -1.
       -1    1    3    3    0  502 -0.11606160064E+04 -0.38417692989E+03 -0.94971482941E+03  0.15480890429E+04  0.50400001928E-02 0.  1.
</event>
<event>
 5   0  0.4532420E-06  0.2992937E+04  0.7818609E-02  0.8245751E-01
        2   -1    0    0  501    0  0.00000000000E+00  0.00000000000E+00  0.22592867566E+04  0.22592867566E+04  0.25500000920E-02 0.  1.
       -2   -1    0    0    0  501  0.00000000000E+00  0.00000000000E+00 -0.99120583794E+03  0.99120583794E+03  0.25500000920E-02 0. -1.
    10030    2    1    2    0    0  0.00000000000E+00  0.00000000000E+00  0.12680809186E+04  0.32504925945E+04  0.29929371679E+04 0.  0.
        4    1    3    3  502    0  0.70050723694E+03  0.82691213951E+03 -0.48671429505E+03  0.11880178843E+04  0.12699999809E+01 0. -1.
       -4    1    3    3    0  502 -0.70050723694E+03 -0.82691213951E+03  0.17547952137E+04  0.20624747102E+04  0.12699999809E+01 0.  1.
</event>
<event>
 5   0  0.1700885E-06  0.3067125E+04  0.7818609E-02  0.8224818E-01
       -1   -1    0    0    0  501  0.00000000000E+00  0.00000000000E+00  0.15423490904E+04  0.15423490904E+04  0.50400001928E-02 0.  1.
        1   -1    0    0  501    0  0.00000000000E+00  0.00000000000E+00 -0.15248262423E+04  0.15248262423E+04  0.50400001928E-02 0. -1.
    10030    2    1    2    0    0  0.00000000000E+00  0.00000000000E+00  0.17522848111E+02  0.30671753328E+04  0.30671252781E+04 0.  0.
        1    1    3    3  502    0  0.26925793353E+03 -0.11361074932E+03 -0.14967222542E+04  0.15249868011E+04  0.50400001928E-02 0. -1.
       -1    1    3    3    0  502 -0.26925793353E+03  0.11361074932E+03  0.15142451024E+04  0.15421885317E+04  0.50400001928E-02 0.  1.
</event>
<event>
 5   0  0.4935331E-06  0.2991935E+04  0.7818609E-02  0.8246038E-01
       -2   -1    0    0    0  501  0.00000000000E+00  0.00000000000E+00  0.16413272879E+04  0.16413272879E+04  0.25500000920E-02 0.  1.
        2   -1    0    0  501    0  0.00000000000E+00  0.00000000000E+00 -0.13634809174E+04  0.13634809174E+04  0.25500000920E-02 0. -1.
    10030    2    1    2    0    0  0.00000000000E+00  0.00000000000E+00  0.27784637045E+03  0.30048082053E+04  0.29919347829E+04 0.  0.
        5    1    3    3  502    0 -0.14328214047E+04 -0.16156667153E+03  0.53915435825E+03  0.15394123811E+04  0.46999998093E+01 0. -1.
       -5    1    3    3    0  502  0.14328214047E+04  0.16156667153E+03 -0.26130798780E+03  0.14653958242E+04  0.46999998093E+01 0.  1.
</event>
<event>
 5   0  0.4935331E-06  0.2994377E+04  0.7818609E-02  0.8245338E-01
       -2   -1    0    0    0  501  0.00000000000E+00  0.00000000000E+00  0.14159116132E+04  0.14159116132E+04  0.25500000920E-02 0. -1.
        2   -1    0    0  501    0  0.00000000000E+00  0.00000000000E+00 -0.15831310835E+04  0.15831310835E+04  0.25500000920E-02 0.  1.
    10030    2    1    2    0    0  0.00000000000E+00  0.00000000000E+00 -0.16721947028E+03  0.29990426967E+04  0.29943771882E+04 0.  0.
        5    1    3    3  502    0 -0.15055057486E+03 -0.17952085670E+03 -0.15646491375E+04  0.15821005742E+04  0.46999998093E+01 0.  1.
       -5    1    3    3    0  502  0.15055057486E+03  0.17952085670E+03  0.13974296672E+04  0.14169421224E+04  0.46999998093E+01 0. -1.
</event>
<event>
 5   0  0.4702748E-06  0.3077423E+04  0.7818609E-02  0.8221961E-01
       -2   -1    0    0    0  501  0.00000000000E+00  0.00000000000E+00  0.16750710905E+04  0.16750710905E+04  0.25500000920E-02 0.  1.
        2   -1    0    0  501    0  0.00000000000E+00  0.00000000000E+00 -0.14134523402E+04  0.14134523402E+04  0.25500000920E-02 0. -1.
    10030    2    1    2    0    0  0.00000000000E+00  0.00000000000E+00  0.26161875032E+03  0.30885234307E+04  0.30774230472E+04 0.  0.
        2    1    3    3  502    0  0.56146571812E+03 -0.10023008127E+04  0.11581140510E+04  0.16312813451E+04  0.25500000920E-02 0.  1.
       -2    1    3    3    0  502 -0.56146571812E+03  0.10023008127E+04 -0.89649530072E+03  0.14572420855E+04  0.25500000920E-02 0. -1.
</event>
<event>
 5   0  0.4702748E-06  0.3059618E+04  0.7818609E-02  0.8226909E-01
        2   -1    0    0  501    0  0.00000000000E+00  0.00000000000E+00  0.22182793776E+04  0.22182793776E+04  0.25500000920E-02 0. -1.
       -2   -1    0    0    0  501  0.00000000000E+00  0.00000000000E+00 -0.10550140692E+04  0.10550140692E+04  0.25500000920E-02 0.  1.
    10030    2    1    2    0    0  0.00000000000E+00  0.00000000000E+00  0.11632653084E+04  0.32732934468E+04  0.30596182460E+04 0.  0.
        2    1    3    3  502    0  0.10177657069E+03 -0.10324359577E+04 -0.62117722546E+03  0.12091913093E+04  0.25500000920E-02 0.  1.
       -2    1    3    3    0  502 -0.10177657069E+03  0.10324359577E+04  0.17844425339E+04  0.20641021375E+04  0.25500000920E-02 0. -1.
</event>
<event>
 5   0  0.4768570E-06  0.3002250E+04  0.7818609E-02  0.8243089E-01
       -2   -1    0    0    0  501  0.00000000000E+00  0.00000000000E+00  0.10658499191E+04  0.10658499191E+04  0.25500000920E-02 0.  1.
        2   -1    0    0  501    0  0.00000000000E+00  0.00000000000E+00 -0.21141593046E+04  0.21141593046E+04  0.25500000920E-02 0. -1.
    10030    2    1    2    0    0  0.00000000000E+00  0.00000000000E+00 -0.10483093854E+04  0.31800092237E+04  0.30022501720E+04 0.  0.
        1    1    3    3  502    0  0.10737153627E+04 -0.62169677461E+03 -0.14191734084E+04  0.18850529761E+04  0.50400001928E-02 0. -1.
       -1    1    3    3    0  502 -0.10737153627E+04  0.62169677461E+03  0.37086402297E+03  0.12949562476E+04  0.50400001928E-02 0.  1.
</event>
<event>
 5   0  0.1672907E-06  0.3018212E+04  0.7818609E-02  0.8238549E-01
       -1   -1    0    0    0  501  0.00000000000E+00  0.00000000000E+00  0.19052731140E+04  0.19052731140E+04  0.50400001928E-02 0.  1.
        1   -1    0    0  501    0  0.00000000000E+00  0.00000000000E+00 -0.11953147069E+04  0.11953147069E+04  0.50400001928E-02 0. -1.
    10030    2    1    2    0    0  0.00000000000E+00  0.00000000000E+00  0.70995840711E+03  0.31005878208E+04  0.30182120361E+04 0.  0.
        5    1    3    3  502    0 -0.10453596554E+04 -0.16930778246E+03  0.14594681228E+04  0.18031947276E+04  0.46999998093E+01 0.  1.
       -5    1    3    3    0  502  0.10453596554E+04  0.16930778246E+03 -0.74950971571E+03  0.12973930932E+04  0.46999998093E+01 0. -1.
</event>
<event>
 5   0  0.1709858E-06  0.2999144E+04  0.7818609E-02  0.8243975E-01
       -1   -1    0    0    0  501  0.00000000000E+00  0.00000000000E+00  0.13809015599E+04  0.13809015599E+04  0.50400001928E-02 0. -1.
        1   -1    0    0  501    0  0.00000000000E+00  0.00000000000E+00 -0.16284402368E+04  0.16284402369E+04  0.50400001928E-02 0.  1.
    10030    2    1    2    0    0  0.00000000000E+00  0.00000000000E+00 -0.24753867694E+03  0.30093417968E+04  0.29991436533E+04 0.  0.
        3    1    3    3  502    0  0.12753152550E+03  0.12370023704E+04  0.71709961271E+03  0.14355037510E+04  0.10100000352E+00 0. -1.
       -3    1    3    3    0  502 -0.12753152550E+03 -0.12370023704E+04 -0.96463828965E+03  0.15738380458E+04  0.10100000352E+00 0.  1.
</event>
<event>
 5   0  0.5003556E-06  0.2978863E+04  0.7818609E-02  0.8249792E-01
        2   -1    0    0  501    0  0.00000000000E+00  0.00000000000E+00  0.29446802539E+04  0.29446802539E+04  0.25500000920E-02 0. -1.
       -2   -1    0    0    0  501  0.00000000000E+00  0.00000000000E+00 -0.75336081599E+03  0.75336081600E+03  0.25500000920E-02 0.  1.
    10030    2    1    2    0    0  0.00000000000E+00  0.00000000000E+00  0.21913194379E+04  0.36980410699E+04  0.29788633530E+04 0.  0.
        3    1    3    3  502    0  0.13583597714E+03  0.47915603294E+03 -0.64692727280E+03  0.81642931298E+03  0.10100000352E+00 0.  1.
       -3    1    3    3    0  502 -0.13583597714E+03 -0.47915603294E+03  0.28382467107E+04  0.28816117569E+04  0.10100000352E+00 0. -1.
</event>
<event>
 5   0  0.1700885E-06  0.2985551E+04  0.7818609E-02  0.8247869E-01
        1   -1    0    0  501    0  0.00000000000E+00  0.00000000000E+00  0.16549690000E+04  0.16549690000E+04  0.50400001928E-02 0.  1.
       -1   -1    0    0    0  501  0.00000000000E+00  0.00000000000E+00 -0.13464778179E+04  0.13464778179E+04  0.50400001928E-02 0. -1.
    10030    2    1    2    0    0  0.00000000000E+00  0.00000000000E+00  0.30849118209E+03  0.30014468179E+04  0.29855512374E+04 0.  0.
        1    1    3    3  502    0 -0.17518670600E+03  0.14788055132E+04  0.25883274486E+03  0.15114729630E+04  0.50400001928E-02 0. -1.
       -1    1    3    3    0  502  0.17518670600E+03 -0.14788055132E+04  0.49658437234E+02  0.14899738549E+04  0.50400001928E-02 0.  1.
</event>
<event>
 5   0  0.4702748E-06  0.2966510E+04  0.7818609E-02  0.8253359E-01
       -2   -1    0    0    0  501  0.00000000000E+00  0.00000000000E+00  0.19250669744E+04  0.19250669744E+04  0.25500000920E-02 0. -1.
        2   -1    0    0  501    0  0.00000000000E+00  0.00000000000E+00 -0.11428410127E+04  0.11428410127E+04  0.25500000920E-02 0.  1.
    10030    2    1    2    0    0  0.00000000000E+00  0.00000000000E+00  0.78222596178E+03  0.30679079871E+04  0.29665100644E+04 0.  0.
        2    1    3    3  502    0 -0.97389547168E+03 -0.43545954191E+03 -0.67461936621E+03  0.12622237090E+04  0.25500000920E-02 0.  1.
       -2    1    3    3    0  502  0.97389547168E+03  0.43545954191E+03  0.14568453280E+04  0.18056842781E+04  0.25500000920E-02 0. -1.
</event>
<event>
 5   0  0.1686012E-06  0.2961588E+04  0.7818609E-02  0.8254785E-01
       -1   -1    0    0    0  501  0.00000000000E+00  0.00000000000E+00  0.97596469156E+03  0.97596469158E+03  0.50400001928E-02 0. -1.
        1   -1    0    0  501    0  0.00000000000E+00  0.00000000000E+00 -0.22467527269E+04  0.22467527269E+04  0.50400001928E-02 0.  1.
    10030    2    1    2    0    0  0.00000000000E+00  0.00000000000E+00 -0.12707880353E+04  0.32227174185E+04  0.29615883118E+04 0.  0.
        4    1    3    3  502    0  0.13225954191E+04 -0.28974214346E+03  0.17092419148E+02  0.13540690219E+04  0.12699999809E+01 0. -1.
       -4    1    3    3    0  502 -0.13225954191E+04  0.28974214346E+03 -0.12878804545E+04  0.18686483966E+04  0.12699999809E+01 0.  1.
</event>
<event>
 5   0  0.1700885E-06  0.2644667E+04  0.7818609E-02  0.8353185E-01
        1   -1    0    0  501    0  0.00000000000E+00  0.00000000000E+00  0.69281151339E+03  0.69281151341E+03  0.50400001928E-02 0.  1.
       -1   -1    0    0    0  501  0.00000000000E+00  0.00000000000E+00 -0.25238700098E+04  0.25238700098E+04  0.50400001928E-02 0. -1.
    10030    2    1    2    0    0  0.00000000000E+00  0.00000000000E+00 -0.18310584964E+04  0.32166815232E+04  0.26446672389E+04 0.  0.
        1    1    3    3  502    0  0.36628499177E+03  0.59929776763E+03  0.44717325219E+03  0.83263823295E+03  0.50400001928E-02 0.  1.
       -1    1    3    3    0  502 -0.36628499177E+03 -0.59929776763E+03 -0.22782317486E+04  0.23840432903E+04  0.50400001928E-02 0. -1.
</event>
<event>
 5   0  0.1734885E-06  0.2991827E+04  0.7818609E-02  0.8246069E-01
        1   -1    0    0  501    0  0.00000000000E+00  0.00000000000E+00  0.15223383266E+04  0.15223383267E+04  0.50400001928E-02 0. -1.
       -1   -1    0    0    0  501  0.00000000000E+00  0.00000000000E+00 -0.14699471680E+04  0.14699471680E+04  0.50400001928E-02 0.  1.
    10030    2    1    2    0    0  0.00000000000E+00  0.00000000000E+00  0.52391158685E+02  0.29922854946E+04  0.29918268078E+04 0.  0.
        2    1    3    3  502    0  0.45337366133E+02  0.53848218653E+03 -0.13689155384E+04  0.14717161048E+04  0.25500000920E-02 0.  1.
       -2    1    3    3    0  502 -0.45337366133E+02 -0.53848218653E+03  0.14213066971E+04  0.15205693898E+04  0.25500000920E-02 0. -1.
</event>
<event>
 5   0  0.1672907E-06  0.3038896E+04  0.7818609E-02  0.8232710E-01
       -1   -1    0    0    0  501  0.00000000000E+00  0.00000000000E+00  0.16480760887E+04  0.16480760887E+04  0.50400001928E-02 0. -1.
        1   -1    0    0  501    0  0.00000000000E+00  0.00000000000E+00 -0.14008585425E+04  0.14008585425E+04  0.50400001928E-02 0.  1.
    10030    2    1    2    0    0  0.00000000000E+00  0.00000000000E+00  0.24721754617E+03  0.30489346312E+04  0.30388955017E+04 0.  0.
        5    1    3    3  502    0 -0.82113669665E+03  0.47802085904E+03 -0.10660274789E+04  0.14280077353E+04  0.46999998093E+01 0.  1.
       -5    1    3    3    0  502  0.82113669665E+03 -0.47802085904E+03  0.13132450250E+04  0.16209268960E+04  0.46999998093E+01 0. -1.
</event>
<event>
 5   0  0.4532420E-06  0.2988847E+04  0.7818609E-02  0.8246923E-01
        2   -1    0    0  501    0  0.00000000000E+00  0.00000000000E+00  0.21599551815E+04  0.21599551815E+04  0.25500000920E-02 0. -1.
       -2   -1    0    0    0  501  0.00000000000E+00  0.00000000000E+00 -0.10339573837E+04  0.10339573837E+04  0.25500000920E-02 0.  1.
    10030    2    1    2    0    0  0.00000000000E+00  0.00000000000E+00  0.11259977979E+04  0.31939125652E+04  0.29888470073E+04 0.  0.
        4    1    3    3  502    0 -0.85324460714E+03 -0.38289716008E+03  0.18085893674E+04  0.20360829324E+04  0.12699999809E+01 0. -1.
       -4    1    3    3    0  502  0.85324460714E+03  0.38289716008E+03 -0.68259156955E+03  0.11578296328E+04  0.12699999809E+01 0.  1.
</event>
<event>
 5   0  0.4532420E-06  0.2991583E+04  0.7818609E-02  0.8246138E-01
        2   -1    0    0  501    0  0.00000000000E+00  0.00000000000E+00  0.86112068810E+03  0.86112068810E+03  0.25500000920E-02 0. -1.
       -2   -1    0    0    0  501  0.00000000000E+00  0.00000000000E+00 -0.25982334932E+04  0.25982334932E+04  0.25500000920E-02 0.  1.
    10030    2    1    2    0    0  0.00000000000E+00  0.00000000000E+00 -0.17371128051E+04  0.34593541813E+04  0.29915832688E+04 0.  0.
        4    1    3    3  502    0 -0.74096352591E+03  0.12428969894E+04 -0.13067111168E+04  0.19496962402E+04  0.12699999809E+01 0. -1.
       -4    1    3    3    0  502  0.74096352591E+03 -0.12428969894E+04 -0.43040168823E+03  0.15096579411E+04  0.12699999809E+01 0.  1.
</event>
<event>
 5   0  0.1734885E-06  0.3001118E+04  0.7818609E-02  0.8243412E-01
        1   -1    0    0  501    0  0.00000000000E+00  0.00000000000E+00  0.11901129836E+04  0.11901129836E+04  0.50400001928E-02 0.  1.
       -1   -1    0    0    0  501  0.00000000000E+00  0.00000000000E+00 -0.18919865224E+04  0.18919865224E+04  0.50400001928E-02 0. -1.
    10030    2    1    2    0    0  0.00000000000E+00  0.00000000000E+00 -0.70187353879E+03  0.30820995060E+04  0.30011182750E+04 0.  0.
        2    1    3    3  502    0  0.11930170063E+04  0.88521458005E+03 -0.13360582527E+03  0.14915578925E+04  0.25500000920E-02 0.  1.
       -2    1    3    3    0  502 -0.11930170063E+04 -0.88521458005E+03 -0.56826771352E+03  0.15905416135E+04  0.25500000920E-02 0. -1.
</event>
<event>
 5   0  0.4532420E-06  0.2982128E+04  0.7818609E-02  0.8248853E-01
        2   -1    0    0  501    0  0.00000000000E+00  0.00000000000E+00  0.21061296710E+04  0.21061296710E+04  0.25500000920E-02 0.  1.
       -2   -1    0    0    0  501  0.00000000000E+00  0.00000000000E+00 -0.10556193817E+04  0.10556193817E+04  0.25500000920E-02 0. -1.
    10030    2    1    2    0    0  0.00000000000E+00  0.00000000000E+00  0.10505102893E+04  0.31617490527E+04  0.29821276305E+04 0.  0.
        4    1    3    3  502    0 -0.18614695208E+03  0.11223829711E+04 -0.49657783801E+03  0.12413643235E+04  0.12699999809E+01 0. -1.
       -4    1    3    3    0  502  0.18614695208E+03 -0.11223829711E+04  0.15470881273E+04  0.19203847292E+04  0.12699999809E+01 0.  1.
</event>
<event>
 5   0  0.4768570E-06  0.2988233E+04  0.7818609E-02  0.8247099E-01
       -2   -1    0    0    0  501  0.00000000000E+00  0.00000000000E+00  0.29957142210E+04  0.29957142210E+04  0.25500000920E-02 0. -1.
        2   -1    0    0  501    0  0.00000000000E+00  0.00000000000E+00 -0.74519264036E+03  0.74519264036E+03  0.25500000920E-02 0.  1.
    10030    2    1    2    0    0  0.00000000000E+00  0.00000000000E+00  0.22505215807E+04  0.37409068614E+04  0.29882330499E+04 0.  0.
        1    1    3    3  502    0 -0.36780504868E+03 -0.69205565338E+03 -0.46721746761E+03  0.91242191078E+03  0.50400001928E-02 0.  1.
       -1    1    3    3    0  502  0.36780504868E+03  0.69205565338E+03  0.27177390483E+04  0.28284849506E+04  0.50400001928E-02 0. -1.
</event>
<event>
 5   0  0.4532420E-06  0.2990296E+04  0.7818609E-02  0.8246507E-01
       -2   -1    0    0    0  501  0.00000000000E+00  0.00000000000E+00  0.89006399201E+03  0.89006399202E+03  0.25500000920E-02 0.  1.
        2   -1    0    0  501    0  0.00000000000E+00  0.00000000000E+00 -0.25115804090E+04  0.25115804090E+04  0.25500000920E-02 0. -1.
    10030    2    1    2    0    0  0.00000000000E+00  0.00000000000E+00 -0.16215164170E+04  0.34016444011E+04  0.29902958283E+04 0.  0.
        4    1    3    3  502    0 -0.13631103256E+04 -0.41330406945E+03 -0.29372989122E+03  0.14543620167E+04  0.12699999809E+01 0.  1.
       -4    1    3    3    0  502  0.13631103256E+04  0.41330406945E+03 -0.13277865258E+04  0.19472823844E+04  0.12699999809E+01 0. -1.
</event>
<event>
 5   0  0.1672907E-06  0.2985226E+04  0.7818609E-02  0.8247962E-01
       -1   -1    0    0    0  501  0.00000000000E+00  0.00000000000E+00  0.22300050726E+04  0.22300050726E+04  0.50400001928E-02 0. -1.
        1   -1    0    0  501    0  0.00000000000E+00  0.00000000000E+00 -0.99905330193E+03  0.99905330194E+03  0.50400001928E-02 0.  1.
    10030    2    1    2    0    0  0.00000000000E+00  0.00000000000E+00  0.12309517707E+04  0.32290583746E+04  0.29852262435E+04 0.  0.
        5    1    3    3  502    0 -0.14008355270E+04 -0.17194102116E+03  0.11409183371E+04  0.18148334994E+04  0.46999998093E+01 0. -1.
       -5    1    3    3    0  502  0.14008355270E+04  0.17194102116E+03  0.90033433552E+02  0.14142248752E+04  0.46999998093E+01 0.  1.
</event>
<event>
 5   0  0.4935331E-06  0.2891521E+04  0.7818609E-02  0.8275405E-01
        2   -1    0    0  501    0  0.00000000000E+00  0.00000000000E+00  0.16266785756E+04  0.16266785756E+04  0.25500000920E-02 0. -1.
       -2   -1    0    0    0  501  0.00000000000E+00  0.00000000000E+00 -0.12849643987E+04  0.12849643987E+04  0.25500000920E-02 0.  1.
    10030    2    1    2    0    0  0.00000000000E+00  0.00000000000E+00  0.34171417696E+03  0.29116429743E+04  0.28915214388E+04 0.  0.
        5    1    3    3  502    0 -0.45327957146E+03  0.92232929238E+03 -0.85310083535E+03  0.13356484638E+04  0.46999998093E+01 0.  1.
       -5    1    3    3    0  502  0.45327957146E+03 -0.92232929238E+03  0.11948150123E+04  0.15759945105E+04  0.46999998093E+01 0. -1.
</event>
<event>
 5   0  0.1672907E-06  0.2985866E+04  0.7818609E-02  0.8247778E-01
       -1   -1    0    0    0  501  0.00000000000E+00  0.00000000000E+00  0.17405109724E+04  0.17405109724E+04  0.50400001928E-02 0.  1.
        1   -1    0    0  501    0  0.00000000000E+00  0.00000000000E+00 -0.12805717902E+04  0.12805717902E+04  0.50400001928E-02 0. -1.
    10030    2    1    2    0    0  0.00000000000E+00  0.00000000000E+00  0.45993918220E+03  0.30210827625E+04  0.29858662071E+04 0.  0.
        5    1    3    3  502    0  0.12894522235E+04  0.62364320574E+03 -0.19595773725E+03  0.14456968595E+04  0.46999998093E+01 0.  1.
       -5    1    3    3    0  502 -0.12894522235E+04 -0.62364320574E+03  0.65589691945E+03  0.15753859031E+04  0.46999998093E+01 0. -1.
</event>
<event>
 5   0  0.1709858E-06  0.2959131E+04  0.7818609E-02  0.8255499E-01
        1   -1    0    0  501    0  0.00000000000E+00  0.00000000000E+00  0.15204296245E+04  0.15204296245E+04  0.50400001928E-02 0. -1.
       -1   -1    0    0    0  501  0.00000000000E+00  0.00000000000E+00 -0.14397992265E+04  0.14397992265E+04  0.50400001928E-02 0.  1.
    10030    2    1    2    0    0  0.00000000000E+00  0.00000000000E+00  0.80630398036E+02  0.29602288510E+04  0.29591305462E+04 0.  0.
        3    1    3    3  502    0 -0.26514559610E+03 -0.14218295321E+04  0.35221928229E+03  0.14886100357E+04  0.10100000352E+00 0.  1.
       -3    1    3    3    0  502  0.26514559610E+03  0.14218295321E+04 -0.27158888426E+03  0.14716188153E+04  0.10100000352E+00 0. -1.
</event>
<event>
 5   0  0.5003556E-06  0.2994844E+04  0.7818609E-02  0.8245205E-01
        2   -1    0    0  501    0  0.00000000000E+00  0.00000000000E+00  0.13409780150E+04  0.13409780150E+04  0.25500000920E-02 0. -1.
       -2   -1    0    0    0  501  0.00000000000E+00  0.00000000000E+00 -0.16721169616E+04  0.16721169616E+04  0.25500000920E-02 0.  1.
    10030    2    1    2    0    0  0.00000000000E+00  0.00000000000E+00 -0.33113894660E+03  0.30130949765E+04  0.29948436246E+04 0.  0.
        3    1    3    3  502    0  0.26866841215E+03 -0.13917272311E+04  0.32026538362E+03  0.14531542683E+04  0.10100000352E+00 0.  1.
       -3    1    3    3    0  502 -0.26866841215E+03  0.13917272311E+04 -0.65140433021E+03  0.15599407082E+04  0.10100000352E+00 0. -1.
</event>
<event>
 5   0  0.1700885E-06  0.3011176E+04  0.7818609E-02  0.8240547E-01
       -1   -1    0    0    0  501  0.00000000000E+00  0.00000000000E+00  0.15961317506E+04  0.15961317506E+04  0.50400001928E-02 0.  1.
        1   -1    0    0  501    0  0.00000000000E+00  0.00000000000E+00 -0.14201802328E+04  0.14201802328E+04  0.50400001928E-02 0. -1.
    10030    2    1    2    0    0  0.00000000000E+00  0.00000000000E+00  0.17595151789E+03  0.30163119834E+04  0.30111756914E+04 0.  0.
        1    1    3    3  502    0 -0.69847812615E+03 -0.62672913859E+03 -0.10913742586E+04  0.14393605797E+04  0.50400001928E-02 0. -1.
       -1    1    3    3    0  502  0.69847812615E+03  0.62672913859E+03  0.12673257765E+04  0.15769514037E+04  0.50400001928E-02 0.  1.
</event>
<event>
 5   0  0.1686012E-06  0.2991773E+04  0.7818609E-02  0.8246084E-01
       -1   -1    0    0    0  501  0.00000000000E+00  0.00000000000E+00  0.16723191455E+04  0.16723191455E+04  0.50400001928E-02 0.  1.
        1   -1    0    0  501    0  0.00000000000E+00  0.00000000000E+00 -0.13380680047E+04  0.13380680047E+04  0.50400001928E-02 0. -1.
    10030    2    1    2    0    0  0.00000000000E+00  0.00000000000E+00  0.33425114086E+03  0.30103871502E+04  0.29917732149E+04 0.  0.
        4    1    3    3  502    0  0.48521698575E+03  0.14127718482E+04  0.24708893425E+03  0.15140721161E+04  0.12699999809E+01 0.  1.
       -4    1    3    3    0  502 -0.48521698575E+03 -0.14127718482E+04  0.87162206613E+02  0.14963150342E+04  0.12699999809E+01 0. -1.
</event>
<event>
 5   0  0.1672907E-06  0.3038055E+04  0.7818609E-02  0.8232947E-01
       -1   -1    0    0    0  501  0.00000000000E+00  0.00000000000E+00  0.10798273538E+04  0.10798273538E+04  0.50400001928E-02 0. -1.
        1   -1    0    0  501    0  0.00000000000E+00  0.00000000000E+00 -0.21368647925E+04  0.21368647925E+04  0.50400001928E-02 0.  1.
    10030    2    1    2    0    0  0.00000000000E+00  0.00000000000E+00 -0.10570374388E+04  0.32166921463E+04  0.30380553348E+04 0.  0.
        5    1    3    3  502    0 -0.30697111064E+03 -0.74521566154E+03 -0.18918011026E+04  0.20563343957E+04  0.46999998093E+01 0.  1.
       -5    1    3    3    0  502  0.30697111064E+03  0.74521566154E+03  0.83476366384E+03  0.11603577506E+04  0.46999998093E+01 0. -1.
</event>
<event>
 5   0  0.1700885E-06  0.2999320E+04  0.7818609E-02  0.8243925E-01
       -1   -1    0    0    0  501  0.00000000000E+00  0.00000000000E+00  0.12992864743E+04  0.12992864743E+04  0.50400001928E-02 0.  1.
        1   -1    0    0  501    0  0.00000000000E+00  0.00000000000E+00 -0.17309342335E+04  0.17309342335E+04  0.50400001928E-02 0. -1.
    10030    2    1    2    0    0  0.00000000000E+00  0.00000000000E+00 -0.43164775919E+03  0.30302207079E+04  0.29993195479E+04 0.  0.
        1    1    3    3  502    0  0.10943563478E+04 -0.86087403474E+03 -0.77857203539E+03  0.15952724952E+04  0.50400001928E-02 0. -1.
       -1    1    3    3    0  502 -0.10943563478E+04  0.86087403474E+03  0.34692427619E+03  0.14349482127E+04  0.50400001928E-02 0.  1.
</event>
<event>
 5   0  0.1700885E-06  0.2983880E+04  0.7818609E-02  0.8248349E-01
        1   -1    0    0  501    0  0.00000000000E+00  0.00000000000E+00  0.11998836359E+04  0.11998836359E+04  0.50400001928E-02 0. -1.
       -1   -1    0    0    0  501  0.00000000000E+00  0.00000000000E+00 -0.18550838351E+04  0.18550838351E+04  0.50400001928E-02 0.  1.
    10030    2    1    2    0    0  0.00000000000E+00  0.00000000000E+00 -0.65520019921E+03  0.30549674709E+04  0.29838798480E+04 0.  0.
        1    1    3    3  502    0 -0.25973128216E+03  0.11955680024E+04 -0.12017811721E+04  0.17149697294E+04  0.50400001928E-02 0.  1.
       -1    1    3    3    0  502  0.25973128216E+03 -0.11955680024E+04  0.54658097286E+03  0.13399977415E+04  0.50400001928E-02 0. -1.
</event>
<event>
 5   0  0.4532420E-06  0.2980746E+04  0.7818609E-02  0.8249250E-01
        2   -1    0    0  501    0  0.00000000000E+00  0.00000000000E+00  0.19505777793E+04  0.19505777793E+04  0.25500000920E-02 0. -1.
       -2   -1    0    0    0  501  0.00000000000E+00  0.00000000000E+00 -0.11387455277E+04  0.11387455277E+04  0.25500000920E-02 0.  1.
    10030    2    1    2    0    0  0.00000000000E+00  0.00000000000E+00  0.81183225157E+03  0.30893233070E+04  0.29807460292E+04 0.  0.
        4    1    3    3  502    0 -0.85525546805E+02 -0.56328940670E+03  0.18332524595E+04  0.19197462770E+04  0.12699999809E+01 0. -1.
       -4    1    3    3    0  502  0.85525546805E+02  0.56328940670E+03 -0.10214202080E+04  0.11695770300E+04  0.12699999809E+01 0.  1.
</event>
<event>
 5   0  0.1686012E-06  0.2982320E+04  0.7818609E-02  0.8248797E-01
        1   -1    0    0  501    0  0.00000000000E+00  0.00000000000E+00  0.24401666028E+04  0.24401666028E+04  0.50400001928E-02 0.  1.
       -1   -1    0    0    0  501  0.00000000000E+00  0.00000000000E+00 -0.91123232926E+03  0.91123232927E+03  0.50400001928E-02 0. -1.
    10030    2    1    2    0    0  0.00000000000E+00  0.00000000000E+00  0.15289342735E+04  0.33513989321E+04  0.29823203700E+04 0.  0.
        4    1    3    3  502    0  0.59534342109E+03  0.15578429704E+03 -0.76187852863E+03  0.97936869540E+03  0.12699999809E+01 0. -1.
       -4    1    3    3    0  502 -0.59534342109E+03 -0.15578429704E+03  0.22908128022E+04  0.23720302367E+04  0.12699999809E+01 0.  1.
</event>
<event>
 5   0  0.1700885E-06  0.3020218E+04  0.7818609E-02  0.8237981E-01
        1   -1    0    0  501    0  0.00000000000E+00  0.00000000000E+00  0.20289665720E+04  0.20289665720E+04  0.50400001928E-02 0. -1.
       -1   -1    0    0    0  501  0.00000000000E+00  0.00000000000E+00 -0.11239365898E+04  0.11239365898E+04  0.50400001928E-02 0.  1.
    10030    2    1    2    0    0  0.00000000000E+00  0.00000000000E+00  0.90502998220E+03  0.31529031618E+04  0.30202183826E+04 0.  0.
        1    1    3    3  502    0 -0.60518114438E+03 -0.12793331170E+04 -0.97402806742E+02  0.14185995730E+04  0.50400001928E-02 0. -1.
       -1    1    3    3    0  502  0.60518114438E+03  0.12793331170E+04  0.10024327889E+04  0.17343035888E+04  0.50400001928E-02 0.  1.
</event>
<event>
 5   0  0.1709858E-06  0.3047530E+04  0.7818609E-02  0.8230287E-01
        1   -1    0    0  501    0  0.00000000000E+00  0.00000000000E+00  0.30577764368E+04  0.30577764368E+04  0.50400001928E-02 0.  1.
       -1   -1    0    0    0  501  0.00000000000E+00  0.00000000000E+00 -0.75932936899E+03  0.75932936901E+03  0.50400001928E-02 0. -1.
    10030    2    1    2    0    0  0.00000000000E+00  0.00000000000E+00  0.22984470678E+04  0.38171058058E+04  0.30475297881E+04 0.  0.
        3    1    3    3  502    0  0.13513548449E+04 -0.41522064569E+03  0.43705419015E+03  0.14797244598E+04  0.10100000352E+00 0. -1.
       -3    1    3    3    0  502 -0.13513548449E+04  0.41522064569E+03  0.18613928777E+04  0.23373813460E+04  0.10100000352E+00 0.  1.
</event>
<event>
 5   0  0.1672907E-06  0.2991177E+04  0.7818609E-02  0.8246255E-01
       -1   -1    0    0    0  501  0.00000000000E+00  0.00000000000E+00  0.15545285561E+04  0.15545285561E+04  0.50400001928E-02 0. -1.
        1   -1    0    0  501    0  0.00000000000E+00  0.00000000000E+00 -0.14388826911E+04  0.14388826911E+04  0.50400001928E-02 0.  1.
    10030    2    1    2    0    0  0.00000000000E+00  0.00000000000E+00  0.11564586506E+03  0.29934112472E+04  0.29911765125E+04 0.  0.
        5    1    3    3  502    0 -0.71623591438E+03  0.12677313090E+04 -0.28393709227E+03  0.14835022478E+04  0.46999998093E+01 0.  1.
       -5    1    3    3    0  502  0.71623591438E+03 -0.12677313090E+04  0.39958295733E+03  0.15099089994E+04  0.46999998093E+01 0. -1.
</event>
<event>
 5   0  0.4532420E-06  0.3025629E+04  0.7818609E-02  0.8236450E-01
       -2   -1    0    0    0  501  0.00000000000E+00  0.00000000000E+00  0.10942698141E+04  0.10942698141E+04  0.25500000920E-02 0. -1.
        2   -1    0    0  501    0  0.00000000000E+00  0.00000000000E+00 -0.20914472649E+04  0.20914472649E+04  0.25500000920E-02 0.  1.
    10030    2    1    2    0    0  0.00000000000E+00  0.00000000000E+00 -0.99717745077E+03  0.31857170790E+04  0.30256289328E+04 0.  0.
        4    1    3    3  502    0  0.52459429456E+03  0.12077117934E+04 -0.12828757824E+04  0.18383522066E+04  0.12699999809E+01 0.  1.
       -4    1    3    3    0  502 -0.52459429456E+03 -0.12077117934E+04  0.28569833160E+03  0.13473648724E+04  0.12699999809E+01 0. -1.
</event>
<event>
 5   0  0.1734885E-06  0.3064620E+04  0.7818609E-02  0.8225515E-01
       -1   -1    0    0    0  501  0.00000000000E+00  0.00000000000E+00  0.14087297315E+04  0.14087297315E+04  0.50400001928E-02 0. -1.
        1   -1    0    0  501    0  0.00000000000E+00  0.00000000000E+00 -0.16667309508E+04  0.16667309508E+04  0.50400001928E-02 0.  1.
    10030    2    1    2    0    0  0.00000000000E+00  0.00000000000E+00 -0.25800121936E+03  0.30754606823E+04  0.30646196794E+04 0.  0.
        2    1    3    3  502    0 -0.13988916131E+04 -0.57452766554E+03  0.11884198341E+03  0.15169387597E+04  0.25500000920E-02 0.  1.
       -2    1    3    3    0  502  0.13988916131E+04  0.57452766554E+03 -0.37684320277E+03  0.15585219226E+04  0.25500000920E-02 0. -1.
</event>
<event>
 5   0  0.1686012E-06  0.3003016E+04  0.7818609E-02  0.8242870E-01
       -1   -1    0    0    0  501  0.00000000000E+00  0.00000000000E+00  0.11365128767E+04  0.11365128767E+04  0.50400001928E-02 0. -1.
        1   -1    0    0  501    0  0.00000000000E+00  0.00000000000E+00 -0.19837223346E+04  0.19837223346E+04  0.50400001928E-02 0.  1.
    10030    2    1    2    0    0  0.00000000000E+00  0.00000000000E+00 -0.84720945790E+03  0.31202352114E+04  0.30030158023E+04 0.  0.
        4    1    3    3  502    0 -0.51895592100E+03  0.66304903029E+03  0.86813427168E+03  0.12093833102E+04  0.12699999809E+01 0. -1.
       -4    1    3    3    0  502  0.51895592100E+03 -0.66304903029E+03 -0.17153437296E+04  0.19108519011E+04  0.12699999809E+01 0.  1.
</event>
<event>
 5   0  0.4532420E-06  0.2977472E+04  0.7818609E-02  0.8250193E-01
       -2   -1    0    0    0  501  0.00000000000E+00  0.00000000000E+00  0.13041786069E+04  0.13041786069E+04  0.25500000920E-02 0.  1.
        2   -1    0    0  501    0  0.00000000000E+00  0.00000000000E+00 -0.16994103183E+04  0.16994103183E+04  0.25500000920E-02 0. -1.
    10030    2    1    2    0    0  0.00000000000E+00  0.00000000000E+00 -0.39523171135E+03  0.30035889252E+04  0.29774718011E+04 0.  0.
        4    1    3    3  502    0 -0.51379423800E+03  0.60412837054E+03 -0.14685789164E+04  0.16690360253E+04  0.12699999809E+01 0. -1.
       -4    1    3    3    0  502  0.51379423800E+03 -0.60412837054E+03  0.10733472051E+04  0.13345528999E+04  0.12699999809E+01 0.  1.
</event>
<event>
 5   0  0.4935331E-06  0.2996478E+04  0.7818609E-02  0.8244737E-01
       -2   -1    0    0    0  501  0.00000000000E+00  0.00000000000E+00  0.10215062719E+04  0.10215062719E+04  0.25500000920E-02 0. -1.
        2   -1    0    0  501    0  0.00000000000E+00  0.00000000000E+00 -0.21974602942E+04  0.21974602942E+04  0.25500000920E-02 0.  1.
    10030    2    1    2    0    0  0.00000000000E+00  0.00000000000E+00 -0.11759540224E+04  0.32189665661E+04  0.29964775806E+04 0.  0.
        5    1    3    3  502    0 -0.99559967579E+03 -0.10578697026E+04 -0.19416451505E+03  0.14656155605E+04  0.46999998093E+01 0. -1.
       -5    1    3    3    0  502  0.99559967579E+03  0.10578697026E+04 -0.98178950730E+03  0.17533510056E+04  0.46999998093E+01 0.  1.
</event>
<event>
 5   0  0.1686012E-06  0.3002021E+04  0.7818609E-02  0.8243154E-01
       -1   -1    0    0    0  501  0.00000000000E+00  0.00000000000E+00  0.21260110783E+04  0.21260110783E+04  0.50400001928E-02 0.  1.
        1   -1    0    0  501    0  0.00000000000E+00  0.00000000000E+00 -0.10597464990E+04  0.10597464990E+04  0.50400001928E-02 0. -1.
    10030    2    1    2    0    0  0.00000000000E+00  0.00000000000E+00  0.10662645793E+04  0.31857575773E+04  0.30020211838E+04 0.  0.
        4    1    3    3  502    0  0.33786810558E+03  0.89254941684E+03  0.17625875934E+04  0.20043742055E+04  0.12699999809E+01 0.  1.
       -4    1    3    3    0  502 -0.33786810558E+03 -0.89254941684E+03 -0.69632301409E+03  0.11813833718E+04  0.12699999809E+01 0. -1.
</event>
<event>
 5   0  0.4532420E-06  0.2992424E+04  0.7818609E-02  0.8245898E-01
       -2   -1    0    0    0  501  0.00000000000E+00  0.00000000000E+00  0.93388962965E+03  0.93388962966E+03  0.25500000920E-02 0.  1.
        2   -1    0    0  501    0  0.00000000000E+00  0.00000000000E+00 -0.23971251144E+04  0.23971251144E+04  0.25500000920E-02 0. -1.
    10030    2    1    2    0    0  0.00000000000E+00  0.00000000000E+00 -0.14632354847E+04  0.33310147440E+04  0.29924239575E+04 0.  0.
        4    1    3    3  502    0 -0.14524863281E+03 -0.98792896988E+03 -0.19719417911E+04  0.22103522016E+04  0.12699999809E+01 0. -1.
       -4    1    3    3    0  502  0.14524863281E+03  0.98792896988E+03  0.50870630639E+03  0.11206625424E+04  0.12699999809E+01 0.  1.
</event>
<event>
 5   0  0.5003556E-06  0.3013481E+04  0.7818609E-02  0.8239892E-01
        2   -1    0    0  501    0  0.00000000000E+00  0.00000000000E+00  0.24166422876E+04  0.24166422876E+04  0.25500000920E-02 0.  1.
       -2   -1    0    0    0  501  0.00000000000E+00  0.00000000000E+00 -0.93943025721E+03  0.93943025721E+03  0.25500000920E-02 0. -1.
    10030    2    1    2    0    0  0.00000000000E+00  0.00000000000E+00  0.14772120304E+04  0.33560725448E+04  0.30134809678E+04 0.  0.
        3    1    3    3  502    0  0.65650025233E+02 -0.91724912726E+03 -0.59065733860E+03  0.10929464713E+04  0.10100000352E+00 0. -1.
       -3    1    3    3    0  502 -0.65650025233E+02  0.91724912726E+03  0.20678693690E+04  0.22631260735E+04  0.10100000352E+00 0.  1.
</event>
<event>
 5   0  0.1672907E-06  0.2829788E+04  0.7818609E-02  0.8294080E-01
        1   -1    0    0  501    0  0.00000000000E+00  0.00000000000E+00  0.13672351935E+04  0.13672351935E+04  0.50400001928E-02 0.  1.
       -1   -1    0    0    0  501  0.00000000000E+00  0.00000000000E+00 -0.14642141739E+04  0.14642141739E+04  0.50400001928E-02 0. -1.
    10030    2    1    2    0    0  0.00000000000E+00  0.00000000000E+00 -0.96978980416E+02  0.28314493673E+04  0.28297880834E+04 0.  0.
        5    1    3    3  502    0  0.41945530229E+03  0.89125911935E+03 -0.10647714933E+04  0.14505330026E+04  0.46999998093E+01 0. -1.
       -5    1    3    3    0  502 -0.41945530229E+03 -0.89125911935E+03  0.96779251293E+03  0.13809163648E+04  0.46999998093E+01 0.  1.
</event>
<event>
 5   0  0.4702748E-06  0.3124392E+04  0.7818609E-02  0.8209075E-01
        2   -1    0    0  501    0  0.00000000000E+00  0.00000000000E+00  0.26267215562E+04  0.26267215562E+04  0.25500000920E-02 0.  1.
       -2   -1    0    0    0  501  0.00000000000E+00  0.00000000000E+00 -0.92908828142E+03  0.92908828143E+03  0.25500000920E-02 0. -1.
    10030    2    1    2    0    0  0.00000000000E+00  0.00000000000E+00  0.16976332747E+04  0.35558098376E+04  0.31243919193E+04 0.  0.
        2    1    3    3  502    0 -0.15207307391E+04  0.34674043095E+03  0.74956642172E+03  0.17305203633E+04  0.25500000920E-02 0. -1.
       -2    1    3    3    0  502  0.15207307391E+04 -0.34674043095E+03  0.94806685302E+03  0.18252894743E+04  0.25500000920E-02 0.  1.
</event>
<event>
 5   0  0.1545375E-06  0.2991473E+04  0.7818609E-02  0.8246170E-01
       -3   -1    0    0    0  501  0.00000000000E+00  0.00000000000E+00  0.23635979977E+04  0.23635979998E+04  0.10100000352E+00 0. -1.
        3   -1    0    0  501    0  0.00000000000E+00  0.00000000000E+00 -0.94653478084E+03  0.94653478623E+03  0.10100000352E+00 0.  1.
    10030    2    1    2    0    0  0.00000000000E+00  0.00000000000E+00  0.14170632168E+04  0.33101327861E+04  0.29914730319E+04 0.  0.
        1    1    3    3  502    0  0.10047399932E+04  0.45844968445E+03 -0.40765812462E+03  0.11772271292E+04  0.50400001928E-02 0.  1.
       -1    1    3    3    0  502 -0.10047399932E+04 -0.45844968445E+03  0.18247213414E+04  0.21329056569E+04  0.50400001928E-02 0. -1.
</event>
<event>
 5   0  0.4702748E-06  0.2995601E+04  0.7818609E-02  0.8244988E-01
        2   -1    0    0  501    0  0.00000000000E+00  0.00000000000E+00  0.17627928240E+04  0.17627928240E+04  0.25500000920E-02 0.  1.
       -2   -1    0    0    0  501  0.00000000000E+00  0.00000000000E+00 -0.12726434721E+04  0.12726434721E+04  0.25500000920E-02 0. -1.
    10030    2    1    2    0    0  0.00000000000E+00  0.00000000000E+00  0.49014935192E+03  0.30354362961E+04  0.29956012953E+04 0.  0.
        2    1    3    3  502    0  0.70634487759E+03 -0.68043873480E+03 -0.90200658606E+03  0.13324923411E+04  0.25500000920E-02 0. -1.
       -2    1    3    3    0  502 -0.70634487759E+03  0.68043873480E+03  0.13921559380E+04  0.17029439549E+04  0.25500000920E-02 0.  1.
</event>
<event>
 5   0  0.1709858E-06  0.2988135E+04  0.7818609E-02  0.8247127E-01
       -1   -1    0    0    0  501  0.00000000000E+00  0.00000000000E+00  0.81540334952E+03  0.81540334953E+03  0.50400001928E-02 0. -1.
        1   -1    0    0  501    0  0.00000000000E+00  0.00000000000E+00 -0.27375875037E+04  0.27375875037E+04  0.50400001928E-02 0.  1.
    10030    2    1    2    0    0  0.00000000000E+00  0.00000000000E+00 -0.19221841542E+04  0.35529908532E+04  0.29881352179E+04 0.  0.
        3    1    3    3  502    0 -0.83285229952E+03 -0.67980525618E+03 -0.21947443566E+04  0.24439069009E+04  0.10100000352E+00 0.  1.
       -3    1    3    3    0  502  0.83285229952E+03  0.67980525618E+03  0.27256020245E+03  0.11090839523E+04  0.10100000352E+00 0. -1.
</event>
<event>
 5   0  0.5003556E-06  0.2990957E+04  0.7818609E-02  0.8246318E-01
        2   -1    0    0  501    0  0.00000000000E+00  0.00000000000E+00  0.19906527966E+04  0.19906527966E+04  0.25500000920E-02 0. -1.
       -2   -1    0    0    0  501  0.00000000000E+00  0.00000000000E+00 -0.11234788276E+04  0.11234788276E+04  0.25500000920E-02 0.  1.
    10030    2    1    2    0    0  0.00000000000E+00  0.00000000000E+00  0.86717396897E+03  0.31141316243E+04  0.29909572181E+04 0.  0.
        3    1    3    3  502    0  0.34456288140E+03  0.47659510959E+03  0.18651992711E+04  0.19557184892E+04  0.10100000352E+00 0. -1.
       -3    1    3    3    0  502 -0.34456288140E+03 -0.47659510959E+03 -0.99802530212E+03  0.11584131351E+04  0.10100000352E+00 0.  1.
</event>
<event>
 5   0  0.1686012E-06  0.2991048E+04  0.7818609E-02  0.8246292E-01
       -1   -1    0    0    0  501  0.00000000000E+00  0.00000000000E+00  0.13235349970E+04  0.13235349970E+04  0.50400001928E-02 0. -1.
        1   -1    0    0  501    0  0.00000000000E+00  0.00000000000E+00 -0.16898624095E+04  0.16898624095E+04  0.50400001928E-02 0.  1.
    10030    2    1    2    0    0  0.00000000000E+00  0.00000000000E+00 -0.36632741253E+03  0.30133974065E+04  0.29910480030E+04 0.  0.
        4    1    3    3  502    0 -0.13155212602E+04 -0.70458484405E+03 -0.28164088395E+03  0.15186702041E+04  0.12699999809E+01 0.  1.
       -4    1    3    3    0  502  0.13155212602E+04  0.70458484405E+03 -0.84686528574E+02  0.14947272024E+04  0.12699999809E+01 0. -1.
</event>
<event>
 5   0  0.1709858E-06  0.2979959E+04  0.7818609E-02  0.8249477E-01
        1   -1    0    0  501    0  0.00000000000E+00  0.00000000000E+00  0.20506796862E+04  0.20506796862E+04  0.50400001928E-02 0. -1.
       -1   -1    0    0    0  501  0.00000000000E+00  0.00000000000E+00 -0.10825871906E+04  0.10825871907E+04  0.50400001928E-02 0.  1.
    10030    2    1    2    0    0  0.00000000000E+00  0.00000000000E+00  0.96809249555E+03  0.31332668768E+04  0.29799594362E+04 0.  0.
        3    1    3    3  502    0  0.14845365438E+04 -0.11226116098E+03  0.54702982132E+03  0.15860936144E+04  0.10100000352E+00 0. -1.
       -3    1    3    3    0  502 -0.14845365438E+04  0.11226116098E+03  0.42106267423E+03  0.15471732624E+04  0.10100000352E+00 0.  1.
</event>
<event>
 5   0  0.4702748E-06  0.2878764E+04  0.7818609E-02  0.8279224E-01
       -2   -1    0    0    0  501  0.00000000000E+00  0.00000000000E+00  0.85227425505E+03  0.85227425506E+03  0.25500000920E-02 0. -1.
        2   -1    0    0  501    0  0.00000000000E+00  0.00000000000E+00 -0.24309316027E+04  0.24309316027E+04  0.25500000920E-02 0.  1.
    10030    2    1    2    0    0  0.00000000000E+00  0.00000000000E+00 -0.15786573477E+04  0.32832058578E+04  0.28787639159E+04 0.  0.
        2    1    3    3  502    0  0.90272971131E+03 -0.13273256872E+03 -0.20589583249E+04  0.22520764308E+04  0.25500000920E-02 0.  1.
       -2    1    3    3    0  502 -0.90272971131E+03  0.13273256872E+03  0.48030097722E+03  0.10311294270E+04  0.25500000920E-02 0. -1.
</event>
<event>
 5   0  0.1672907E-06  0.2999062E+04  0.7818609E-02  0.8243999E-01
        1   -1    0    0  501    0  0.00000000000E+00  0.00000000000E+00  0.13960692075E+04  0.13960692075E+04  0.50400001928E-02 0.  1.
       -1   -1    0    0    0  501  0.00000000000E+00  0.00000000000E+00 -0.16106607729E+04  0.16106607729E+04  0.50400001928E-02 0. -1.
    10030    2    1    2    0    0  0.00000000000E+00  0.00000000000E+00 -0.21459156538E+03  0.30067299804E+04  0.29990624593E+04 0.  0.
        5    1    3    3  502    0 -0.13393078889E+03  0.46002197659E+03  0.13172571727E+04  0.14016940551E+04  0.46999998093E+01 0.  1.
       -5    1    3    3    0  502  0.13393078889E+03 -0.46002197659E+03 -0.15318487381E+04  0.16050359253E+04  0.46999998093E+01 0. -1.
</event>
<event>
 5   0  0.4532420E-06  0.2973006E+04  0.7818609E-02  0.8251482E-01
        2   -1    0    0  501    0  0.00000000000E+00  0.00000000000E+00  0.11286932585E+04  0.11286932585E+04  0.25500000920E-02 0.  1.
       -2   -1    0    0    0  501  0.00000000000E+00  0.00000000000E+00 -0.19577425671E+04  0.19577425671E+04  0.25500000920E-02 0. -1.
    10030    2    1    2    0    0  0.00000000000E+00  0.00000000000E+00 -0.82904930854E+03  0.30864358256E+04  0.29730057769E+04 0.  0.
        4    1    3    3  502    0  0.19368496915E+03  0.14715797576E+04 -0.49904572816E+03  0.15659211672E+04  0.12699999809E+01 0.  1.
       -4    1    3    3    0  502 -0.19368496915E+03 -0.14715797576E+04 -0.33000358038E+03  0.15205146583E+04  0.12699999809E+01 0. -1.
</event>
<event>
 5   0  0.5003556E-06  0.3020851E+04  0.7818609E-02  0.8237802E-01
       -2   -1    0    0    0  501  0.00000000000E+00  0.00000000000E+00  0.15225025557E+04  0.15225025557E+04  0.25500000920E-02 0. -1.
        2   -1    0    0  501    0  0.00000000000E+00  0.00000000000E+00 -0.14984443638E+04  0.14984443638E+04  0.25500000920E-02 0.  1.
    10030    2    1    2    0    0  0.00000000000E+00  0.00000000000E+00  0.24058191872E+02  0.30209469195E+04  0.30208511208E+04 0.  0.
        3    1    3    3  502    0 -0.13681766045E+04  0.98348577810E+02  0.64435105302E+03  0.15155091401E+04  0.10100000352E+00 0. -1.
       -3    1    3    3    0  502  0.13681766045E+04 -0.98348577810E+02 -0.62029286115E+03  0.15054377794E+04  0.10100000352E+00 0.  1.
</event>
<event>
 5   0  0.1545375E-06  0.2927039E+04  0.7818609E-02  0.8264878E-01
       -4   -1    0    0    0  501  0.00000000000E+00  0.00000000000E+00  0.13506745021E+04  0.13506750992E+04  0.12699999809E+01 0. -1.
        4   -1    0    0  501    0  0.00000000000E+00  0.00000000000E+00 -0.15857916153E+04  0.15857921239E+04  0.12699999809E+01 0.  1.
    10030    2    1    2    0    0  0.00000000000E+00  0.00000000000E+00 -0.23511711315E+03  0.29364672231E+04  0.29270394079E+04 0.  0.
        4    1    3    3  502    0  0.14342444584E+04 -0.26935440086E+03 -0.63894032308E+01  0.14593325177E+04  0.12699999809E+01 0. -1.
       -4    1    3    3    0  502 -0.14342444584E+04  0.26935440086E+03 -0.22872770992E+03  0.14771347054E+04  0.12699999809E+01 0.  1.
</event>
<event>
 5   0  0.1686012E-06  0.2989709E+04  0.7818609E-02  0.8246676E-01
       -1   -1    0    0    0  501  0.00000000000E+00  0.00000000000E+00  0.11617463406E+04  0.11617463406E+04  0.50400001928E-02 0.  1.
        1   -1    0    0  501    0  0.00000000000E+00  0.00000000000E+00 -0.19234755264E+04  0.19234755264E+04  0.50400001928E-02 0. -1.
    10030    2    1    2    0    0  0.00000000000E+00  0.00000000000E+00 -0.76172918586E+03  0.30852218670E+04  0.29897094534E+04 0.  0.
        4    1    3    3  502    0  0.90522662458E+03 -0.48130466470E+03  0.74177790202E+03  0.12654349019E+04  0.12699999809E+01 0.  1.
       -4    1    3    3    0  502 -0.90522662458E+03  0.48130466470E+03 -0.15035070879E+04  0.18197869651E+04  0.12699999809E+01 0. -1.
</event>
<event>
 5   0  0.1709858E-06  0.3029441E+04  0.7818609E-02  0.8235373E-01
       -1   -1    0    0    0  501  0.00000000000E+00  0.00000000000E+00  0.91343309314E+03  0.91343309316E+03  0.50400001928E-02 0.  1.
        1   -1    0    0  501    0  0.00000000000E+00  0.00000000000E+00 -0.25118192418E+04  0.25118192418E+04  0.50400001928E-02 0. -1.
    10030    2    1    2    0    0  0.00000000000E+00  0.00000000000E+00 -0.15983861487E+04  0.34252523350E+04  0.30294414135E+04 0.  0.
        3    1    3    3  502    0 -0.91615106922E+03 -0.19007671102E+03 -0.21460097635E+04  0.23411150875E+04  0.10100000352E+00 0. -1.
       -3    1    3    3    0  502  0.91615106922E+03  0.19007671102E+03  0.54762361481E+03  0.10841372475E+04  0.10100000352E+00 0.  1.
</event>
<event>
 5   0  0.1672907E-06  0.2992419E+04  0.7818609E-02  0.8245899E-01
       -1   -1    0    0    0  501  0.00000000000E+00  0.00000000000E+00  0.25161339897E+04  0.25161339897E+04  0.50400001928E-02 0.  1.
        1   -1    0    0  501    0  0.00000000000E+00  0.00000000000E+00 -0.88971505632E+03  0.88971505634E+03  0.50400001928E-02 0. -1.
    10030    2    1    2    0    0  0.00000000000E+00  0.00000000000E+00  0.16264189333E+04  0.34058490460E+04  0.29924186167E+04 0.  0.
        5    1    3    3  502    0  0.56445007381E+03 -0.60920461752E+03  0.22296970823E+04  0.23793497685E+04  0.46999998093E+01 0.  1.
       -5    1    3    3    0  502 -0.56445007381E+03  0.60920461752E+03 -0.60327814895E+03  0.10264992776E+04  0.46999998093E+01 0. -1.
</event>
<event>
 5   0  0.4532420E-06  0.2990538E+04  0.7818609E-02  0.8246438E-01
        2   -1    0    0  501    0  0.00000000000E+00  0.00000000000E+00  0.18335222349E+04  0.18335222349E+04  0.25500000920E-02 0. -1.
       -2   -1    0    0    0  501  0.00000000000E+00  0.00000000000E+00 -0.12194176735E+04  0.12194176735E+04  0.25500000920E-02 0.  1.
    10030    2    1    2    0    0  0.00000000000E+00  0.00000000000E+00  0.61410456142E+03  0.30529399084E+04  0.29905380238E+04 0.  0.
        4    1    3    3  502    0 -0.13801073671E+04 -0.16180148218E+03 -0.25669503340E+03  0.14130711296E+04  0.12699999809E+01 0. -1.
       -4    1    3    3    0  502  0.13801073671E+04  0.16180148218E+03  0.87079959482E+03  0.16398687788E+04  0.12699999809E+01 0.  1.
</event>
<event>
 5   0  0.4532420E-06  0.2913425E+04  0.7818609E-02  0.8268894E-01
       -2   -1    0    0    0  501  0.00000000000E+00  0.00000000000E+00  0.84216323554E+03  0.84216323554E+03  0.25500000920E-02 0. -1.
        2   -1    0    0  501    0  0.00000000000E+00  0.00000000000E+00 -0.25197152895E+04  0.25197152895E+04  0.25500000920E-02 0.  1.
    10030    2    1    2    0    0  0.00000000000E+00  0.00000000000E+00 -0.16775520539E+04  0.33618785250E+04  0.29134251875E+04 0.  0.
        4    1    3    3  502    0 -0.53486497749E+03 -0.10182120813E+04 -0.18703460324E+04  0.21956849229E+04  0.12699999809E+01 0.  1.
       -4    1    3    3    0  502  0.53486497749E+03  0.10182120813E+04  0.19279397848E+03  0.11661936021E+04  0.12699999809E+01 0. -1.
</event>
<event>
 5   0  0.4935331E-06  0.3004212E+04  0.7818609E-02  0.8242529E-01
       -2   -1    0    0    0  501  0.00000000000E+00  0.00000000000E+00  0.15753075151E+04  0.15753075151E+04  0.25500000920E-02 0. -1.
        2   -1    0    0  501    0  0.00000000000E+00  0.00000000000E+00 -0.14323058961E+04  0.14323058961E+04  0.25500000920E-02 0.  1.
    10030    2    1    2    0    0  0.00000000000E+00  0.00000000000E+00  0.14300161900E+03  0.30076134112E+04  0.30042118714E+04 0.  0.
        5    1    3    3  502    0 -0.11995215735E+04  0.32565203177E+03  0.91590046951E+03  0.15439549900E+04  0.46999998093E+01 0. -1.
       -5    1    3    3    0  502  0.11995215735E+04 -0.32565203177E+03 -0.77289885052E+03  0.14636584213E+04  0.46999998093E+01 0.  1.
</event>
<event>
 5   0  0.4532420E-06  0.2738313E+04  0.7818609E-02  0.8322680E-01
       -2   -1    0    0    0  501  0.00000000000E+00  0.00000000000E+00  0.81414433383E+03  0.81414433383E+03  0.25500000920E-02 0.  1.
        2   -1    0    0  501    0  0.00000000000E+00  0.00000000000E+00 -0.23025275238E+04  0.23025275238E+04  0.25500000920E-02 0. -1.
    10030    2    1    2    0    0  0.00000000000E+00  0.00000000000E+00 -0.14883831900E+04  0.31166718577E+04  0.27383131574E+04 0.  0.
        4    1    3    3  502    0  0.25008348781E+03 -0.13031293426E+04 -0.36006853411E+03  0.13748959220E+04  0.12699999809E+01 0. -1.
       -4    1    3    3    0  502 -0.25008348781E+03  0.13031293426E+04 -0.11283146559E+04  0.17417759356E+04  0.12699999809E+01 0.  1.
</event>
<event>
 5   0  0.4702748E-06  0.2988368E+04  0.7818609E-02  0.8247060E-01
       -2   -1    0    0    0  501  0.00000000000E+00  0.00000000000E+00  0.14952302130E+04  0.14952302130E+04  0.25500000920E-02 0.  1.
        2   -1    0    0  501    0  0.00000000000E+00  0.00000000000E+00 -0.14931385404E+04  0.14931385404E+04  0.25500000920E-02 0. -1.
    10030    2    1    2    0    0  0.00000000000E+00  0.00000000000E+00  0.20916725872E+01  0.29883687535E+04  0.29883680215E+04 0.  0.
        2    1    3    3  502    0 -0.12189402984E+04 -0.22298737142E+03 -0.83384779792E+03  0.14936000030E+04  0.25500000920E-02 0.  1.
       -2    1    3    3    0  502  0.12189402984E+04  0.22298737142E+03  0.83593947051E+03  0.14947687504E+04  0.25500000920E-02 0. -1.
</event>
<event>
 5   0  0.4935331E-06  0.2901755E+04  0.7818609E-02  0.8272356E-01
       -2   -1    0    0    0  501  0.00000000000E+00  0.00000000000E+00  0.11714289299E+04  0.11714289299E+04  0.25500000920E-02 0.  1.
        2   -1    0    0  501    0  0.00000000000E+00  0.00000000000E+00 -0.17969889651E+04  0.17969889651E+04  0.25500000920E-02 0. -1.
    10030    2    1    2    0    0  0.00000000000E+00  0.00000000000E+00 -0.62556003512E+03  0.29684178950E+04  0.29017545454E+04 0.  0.
        5    1    3    3  502    0  0.10945939437E+04  0.69018661910E+03 -0.98400130896E+03  0.16256611384E+04  0.46999998093E+01 0. -1.
       -5    1    3    3    0  502 -0.10945939437E+04 -0.69018661910E+03  0.35844127384E+03  0.13427567566E+04  0.46999998093E+01 0.  1.
</event>
<event>
 5   0  0.4935331E-06  0.3053054E+04  0.7818609E-02  0.8228741E-01
        2   -1    0    0  501    0  0.00000000000E+00  0.00000000000E+00  0.16721705599E+04  0.16721705599E+04  0.25500000920E-02 0. -1.
       -2   -1    0    0    0  501  0.00000000000E+00  0.00000000000E+00 -0.13935684888E+04  0.13935684888E+04  0.25500000920E-02 0.  1.
    10030    2    1    2    0    0  0.00000000000E+00  0.00000000000E+00  0.27860207109E+03  0.30657390488E+04  0.30530536846E+04 0.  0.
        5    1    3    3  502    0  0.25416477038E+03 -0.14131505354E+04 -0.38118450687E+03  0.14855698854E+04  0.46999998093E+01 0.  1.
       -5    1    3    3    0  502 -0.25416477038E+03  0.14131505354E+04  0.65978657796E+03  0.15801691633E+04  0.46999998093E+01 0. -1.
</event>
<event>
 5   0  0.1734885E-06  0.2998056E+04  0.7818609E-02  0.8244286E-01
        1   -1    0    0  501    0  0.00000000000E+00  0.00000000000E+00  0.17211244652E+04  0.17211244652E+04  0.50400001928E-02 0.  1.
       -1   -1    0    0    0  501  0.00000000000E+00  0.00000000000E+00 -0.13055913883E+04  0.13055913883E+04  0.50400001928E-02 0. -1.
    10030    2    1    2    0    0  0.00000000000E+00  0.00000000000E+00  0.41553307685E+03  0.30267158535E+04  0.29980562236E+04 0.  0.
        2    1    3    3  502    0 -0.86466607441E+03  0.11883884220E+04  0.50583597013E+03  0.15542794120E+04  0.25500000920E-02 0.  1.
       -2    1    3    3    0  502  0.86466607441E+03 -0.11883884220E+04 -0.90302893280E+02  0.14724364415E+04  0.25500000920E-02 0. -1.
</event>
<event>
 5   0  0.1734885E-06  0.2908991E+04  0.7818609E-02  0.8270207E-01
       -1   -1    0    0    0  501  0.00000000000E+00  0.00000000000E+00  0.14491142640E+04  0.14491142640E+04  0.50400001928E-02 0.  1.
        1   -1    0    0  501    0  0.00000000000E+00  0.00000000000E+00 -0.14598966165E+04  0.14598966165E+04  0.50400001928E-02 0. -1.
    10030    2    1    2    0    0  0.00000000000E+00  0.00000000000E+00 -0.10782352506E+02  0.29090108805E+04  0.29089908978E+04 0.  0.
        2    1    3    3  502    0  0.66195183168E+03 -0.50495340203E+03 -0.11980430060E+04  0.14589260468E+04  0.25500000920E-02 0. -1.
       -2    1    3    3    0  502 -0.66195183168E+03  0.50495340203E+03  0.11872606535E+04  0.14500848337E+04  0.25500000920E-02 0.  1.
</event>
<event>
 5   0  0.1734885E-06  0.2878572E+04  0.7818609E-02  0.8279282E-01
       -1   -1    0    0    0  501  0.00000000000E+00  0.00000000000E+00  0.82360700960E+03  0.82360700962E+03  0.50400001928E-02 0.  1.
        1   -1    0    0  501    0  0.00000000000E+00  0.00000000000E+00 -0.25152087728E+04  0.25152087728E+04  0.50400001928E-02 0. -1.
    10030    2    1    2    0    0  0.00000000000E+00  0.00000000000E+00 -0.16916017632E+04  0.33388157824E+04  0.28785715735E+04 0.  0.
        2    1    3    3  502    0  0.77040283568E+03 -0.99033331935E+03 -0.16637164641E+04  0.20838025543E+04  0.25500000920E-02 0. -1.
       -2    1    3    3    0  502 -0.77040283568E+03  0.99033331935E+03 -0.27885299066E+02  0.12550132280E+04  0.25500000920E-02 0.  1.
</event>
<event>
 5   0  0.1672907E-06  0.2518702E+04  0.7818609E-02  0.8396353E-01
       -1   -1    0    0    0  501  0.00000000000E+00  0.00000000000E+00  0.11869055115E+04  0.11869055115E+04  0.50400001928E-02 0. -1.
        1   -1    0    0  501    0  0.00000000000E+00  0.00000000000E+00 -0.13362186340E+04  0.13362186340E+04  0.50400001928E-02 0.  1.
    10030    2    1    2    0    0  0.00000000000E+00  0.00000000000E+00 -0.14931312249E+03  0.25231241455E+04  0.25187022542E+04 0.  0.
        5    1    3    3  502    0 -0.28272961886E+03 -0.53349942750E+03 -0.11817599187E+04  0.13270780956E+04  0.46999998093E+01 0.  1.
       -5    1    3    3    0  502  0.28272961886E+03  0.53349942750E+03  0.10324467962E+04  0.11960460499E+04  0.46999998093E+01 0. -1.
</event>
<event>
 5   0  0.5003556E-06  0.2973676E+04  0.7818609E-02  0.8251288E-01
        2   -1    0    0  501    0  0.00000000000E+00  0.00000000000E+00  0.12641668560E+04  0.12641668560E+04  0.25500000920E-02 0.  1.
       -2   -1    0    0    0  501  0.00000000000E+00  0.00000000000E+00 -0.17487303329E+04  0.17487303329E+04  0.25500000920E-02 0. -1.
    10030    2    1    2    0    0  0.00000000000E+00  0.00000000000E+00 -0.48456347688E+03  0.30128971889E+04  0.29736757906E+04 0.  0.
        3    1    3    3  502    0 -0.12625188892E+04 -0.77605509662E+03 -0.12039769869E+03  0.14868460158E+04  0.10100000352E+00 0. -1.
       -3    1    3    3    0  502  0.12625188892E+04  0.77605509662E+03 -0.36416577820E+03  0.15260511731E+04  0.10100000352E+00 0.  1.
</event>
<event>
 5   0  0.1709858E-06  0.2688415E+04  0.7818609E-02  0.8338774E-01
        1   -1    0    0  501    0  0.00000000000E+00  0.00000000000E+00  0.12326031966E+04  0.12326031966E+04  0.50400001928E-02 0.  1.
       -1   -1    0    0    0  501  0.00000000000E+00  0.00000000000E+00 -0.14659170159E+04  0.14659170159E+04  0.50400001928E-02 0. -1.
    10030    2    1    2    0    0  0.00000000000E+00  0.00000000000E+00 -0.23331381934E+03  0.26985202125E+04  0.26884151463E+04 0.  0.
        3    1    3    3  502    0  0.13280948871E+04 -0.20663001949E+03 -0.97559218996E+02  0.13476089216E+04  0.10100000352E+00 0.  1.
       -3    1    3    3    0  502 -0.13280948871E+04  0.20663001949E+03 -0.13575460034E+03  0.13509112909E+04  0.10100000352E+00 0. -1.
</event>
<event>
 5   0  0.1734885E-06  0.2859360E+04  0.7818609E-02  0.8285073E-01
       -1   -1    0    0    0  501  0.00000000000E+00  0.00000000000E+00  0.11867157363E+04  0.11867157363E+04  0.50400001928E-02 0. -1.
        1   -1    0    0  501    0  0.00000000000E+00  0.00000000000E+00 -0.17223879513E+04  0.17223879513E+04  0.50400001928E-02 0.  1.
    10030    2    1    2    0    0  0.00000000000E+00  0.00000000000E+00 -0.53567221499E+03  0.29091036877E+04  0.28593599885E+04 0.  0.
        2    1    3    3  502    0 -0.13644460123E+04 -0.28737292930E+03 -0.58906416599E+03  0.15137016591E+04  0.25500000920E-02 0.  1.
       -2    1    3    3    0  502  0.13644460123E+04  0.28737292930E+03  0.53391950999E+02  0.13954020286E+04  0.25500000920E-02 0. -1.
</event>
<event>
 5   0  0.1672907E-06  0.2917819E+04  0.7818609E-02  0.8267595E-01
        1   -1    0    0  501    0  0.00000000000E+00  0.00000000000E+00  0.21541324672E+04  0.21541324672E+04  0.50400001928E-02 0.  1.
       -1   -1    0    0    0  501  0.00000000000E+00  0.00000000000E+00 -0.98806220817E+03  0.98806220818E+03  0.50400001928E-02 0. -1.
    10030    2    1    2    0    0  0.00000000000E+00  0.00000000000E+00  0.11660702591E+04  0.31421946754E+04  0.29178189678E+04 0.  0.
        5    1    3    3  502    0 -0.41807708717E+03  0.52936746206E+02  0.20871519521E+04  0.21292759594E+04  0.46999998093E+01 0.  1.
       -5    1    3    3    0  502  0.41807708717E+03 -0.52936746206E+02 -0.92108169309E+03  0.10129187160E+04  0.46999998093E+01 0. -1.
</event>
<event>
 5   0  0.4702748E-06  0.3009599E+04  0.7818609E-02  0.8240995E-01
       -2   -1    0    0    0  501  0.00000000000E+00  0.00000000000E+00  0.82037802180E+03  0.82037802180E+03  0.25500000920E-02 0.  1.
        2   -1    0    0  501    0  0.00000000000E+00  0.00000000000E+00 -0.27602173120E+04  0.27602173120E+04  0.25500000920E-02 0. -1.
    10030    2    1    2    0    0  0.00000000000E+00  0.00000000000E+00 -0.19398392902E+04  0.35805953338E+04  0.30095990551E+04 0.  0.
        2    1    3    3  502    0  0.30052595010E+03 -0.16179630503E+03 -0.27135580722E+04  0.27349389942E+04  0.25500000920E-02 0. -1.
       -2    1    3    3    0  502 -0.30052595010E+03  0.16179630503E+03  0.77371878200E+03  0.84565633956E+03  0.25500000920E-02 0.  1.
</event>
<event>
 5   0  0.4532420E-06  0.2992750E+04  0.7818609E-02  0.8245804E-01
       -2   -1    0    0    0  501  0.00000000000E+00  0.00000000000E+00  0.86657064101E+03  0.86657064101E+03  0.25500000920E-02 0.  1.
        2   -1    0    0  501    0  0.00000000000E+00  0.00000000000E+00 -0.25839064712E+04  0.25839064712E+04  0.25500000920E-02 0. -1.
    10030    2    1    2    0    0  0.00000000000E+00  0.00000000000E+00 -0.17173358302E+04  0.34504771122E+04  0.29927495632E+04 0.  0.
        4    1    3    3  502    0  0.13896451952E+04  0.12875689031E+03 -0.14810916740E+04  0.20350248807E+04  0.12699999809E+01 0. -1.
       -4    1    3    3    0  502 -0.13896451952E+04 -0.12875689031E+03 -0.23624415619E+03  0.14154522315E+04  0.12699999809E+01 0.  1.
</event>
<event>
 5   0  0.1709858E-06  0.2851851E+04  0.7818609E-02  0.8287349E-01
       -1   -1    0    0    0  501  0.00000000000E+00  0.00000000000E+00  0.13748635299E+04  0.13748635299E+04  0.50400001928E-02 0. -1.
        1   -1    0    0  501    0  0.00000000000E+00  0.00000000000E+00 -0.14788844006E+04  0.14788844006E+04  0.50400001928E-02 0.  1.
    10030    2    1    2    0    0  0.00000000000E+00  0.00000000000E+00 -0.10402087065E+03  0.28537479305E+04  0.28518514879E+04 0.  0.
        3    1    3    3  502    0  0.82054663287E+03  0.10001097614E+04 -0.65219917198E+03  0.14487512145E+04  0.10100000352E+00 0.  1.
       -3    1    3    3    0  502 -0.82054663287E+03 -0.10001097614E+04  0.54817830133E+03  0.14049967159E+04  0.10100000352E+00 0. -1.
</event>
<event>
 5   0  0.4702748E-06  0.2983666E+04  0.7818609E-02  0.8248411E-01
        2   -1    0    0  501    0  0.00000000000E+00  0.00000000000E+00  0.12431532306E+04  0.12431532306E+04  0.25500000920E-02 0.  1.
       -2   -1    0    0    0  501  0.00000000000E+00  0.00000000000E+00 -0.17902587296E+04  0.17902587296E+04  0.25500000920E-02 0. -1.
    10030    2    1    2    0    0  0.00000000000E+00  0.00000000000E+00 -0.54710549903E+03  0.30334119602E+04  0.29836661497E+04 0.  0.
        2    1    3    3  502    0  0.95036245807E+03  0.41083099498E+03 -0.13655155734E+04  0.17136521495E+04  0.25500000920E-02 0. -1.
       -2    1    3    3    0  502 -0.95036245807E+03 -0.41083099498E+03  0.81841007438E+03  0.13197598107E+04  0.25500000920E-02 0.  1.
</event>
<event>
 5   0  0.1672907E-06  0.2993066E+04  0.7818609E-02  0.8245714E-01
        1   -1    0    0  501    0  0.00000000000E+00  0.00000000000E+00  0.18776327947E+04  0.18776327947E+04  0.50400001928E-02 0.  1.
       -1   -1    0    0    0  501  0.00000000000E+00  0.00000000000E+00 -0.11927847191E+04  0.11927847192E+04  0.50400001928E-02 0. -1.
    10030    2    1    2    0    0  0.00000000000E+00  0.00000000000E+00  0.68484807553E+03  0.30704175138E+04  0.29930664581E+04 0.  0.
        5    1    3    3  502    0 -0.42425809191E+03  0.25234000065E+03 -0.11068568125E+04  0.12119506994E+04  0.46999998093E+01 0. -1.
       -5    1    3    3    0  502  0.42425809191E+03 -0.25234000065E+03  0.17917048880E+04  0.18584668144E+04  0.46999998093E+01 0.  1.
</event>
<event>
 5   0  0.1700885E-06  0.3021038E+04  0.7818609E-02  0.8237749E-01
       -1   -1    0    0    0  501  0.00000000000E+00  0.00000000000E+00  0.14226146001E+04  0.14226146001E+04  0.50400001928E-02 0.  1.
        1   -1    0    0  501    0  0.00000000000E+00  0.00000000000E+00 -0.16038554107E+04  0.16038554107E+04  0.50400001928E-02 0. -1.
    10030    2    1    2    0    0  0.00000000000E+00  0.00000000000E+00 -0.18124081062E+03  0.30264700108E+04  0.30210383141E+04 0.  0.
        1    1    3    3  502    0  0.56860040096E+02 -0.70811400028E+02  0.14198772543E+04  0.14227785267E+04  0.50400001928E-02 0.  1.
       -1    1    3    3    0  502 -0.56860040096E+02  0.70811400028E+02 -0.16011180649E+04  0.16036914842E+04  0.50400001928E-02 0. -1.
</event>
<event>
 5   0  0.1686012E-06  0.2991486E+04  0.7818609E-02  0.8246166E-01
        1   -1    0    0  501    0  0.00000000000E+00  0.00000000000E+00  0.12633008697E+04  0.12633008697E+04  0.50400001928E-02 0.  1.
       -1   -1    0    0    0  501  0.00000000000E+00  0.00000000000E+00 -0.17709540845E+04  0.17709540845E+04  0.50400001928E-02 0. -1.
    10030    2    1    2    0    0  0.00000000000E+00  0.00000000000E+00 -0.50765321477E+03  0.30342549542E+04  0.29914864767E+04 0.  0.
        4    1    3    3  502    0 -0.13334445803E+04  0.62863042198E+03 -0.51041674976E+03  0.15600568988E+04  0.12699999809E+01 0. -1.
       -4    1    3    3    0  502  0.13334445803E+04 -0.62863042198E+03  0.27635349894E+01  0.14741980553E+04  0.12699999809E+01 0.  1.
</event>
<event>
 5   0  0.1672907E-06  0.2980594E+04  0.7818609E-02  0.8249294E-01
       -1   -1    0    0    0  501  0.00000000000E+00  0.00000000000E+00  0.11578777633E+04  0.11578777633E+04  0.50400001928E-02 0.  1.
        1   -1    0    0  501    0  0.00000000000E+00  0.00000000000E+00 -0.19181512690E+04  0.19181512690E+04  0.50400001928E-02 0. -1.
    10030    2    1    2    0    0  0.00000000000E+00  0.00000000000E+00 -0.76027350566E+03  0.30760290323E+04  0.29805937000E+04 0.  0.
        5    1    3    3  502    0 -0.44022083323E+02 -0.22790629250E+02  0.11570190249E+04  0.11580900097E+04  0.46999998093E+01 0.  1.
       -5    1    3    3    0  502  0.44022083323E+02  0.22790629250E+02 -0.19172925306E+04  0.19179390226E+04  0.46999998093E+01 0. -1.
</event>
<event>
 5   0  0.1700885E-06  0.2992833E+04  0.7818609E-02  0.8245781E-01
       -1   -1    0    0    0  501  0.00000000000E+00  0.00000000000E+00  0.29814952161E+04  0.29814952161E+04  0.50400001928E-02 0.  1.
        1   -1    0    0  501    0  0.00000000000E+00  0.00000000000E+00 -0.75105325948E+03  0.75105325949E+03  0.50400001928E-02 0. -1.
    10030    2    1    2    0    0  0.00000000000E+00  0.00000000000E+00  0.22304419567E+04  0.37325484756E+04  0.29928325715E+04 0.  0.
        1    1    3    3  502    0  0.95464326458E+02 -0.66686233084E+03  0.27816852890E+04  0.28620957099E+04  0.50400001928E-02 0.  1.
       -1    1    3    3    0  502 -0.95464326458E+02  0.66686233084E+03 -0.55124333229E+03  0.87045276572E+03  0.50400001928E-02 0. -1.
</event>
<event>
 5   0  0.5003556E-06  0.2927218E+04  0.7818609E-02  0.8264825E-01
        2   -1    0    0  501    0  0.00000000000E+00  0.00000000000E+00  0.21349440279E+04  0.21349440279E+04  0.25500000920E-02 0.  1.
       -2   -1    0    0    0  501  0.00000000000E+00  0.00000000000E+00 -0.10033759594E+04  0.10033759594E+04  0.25500000920E-02 0. -1.
    10030    2    1    2    0    0  0.00000000000E+00  0.00000000000E+00  0.11315680685E+04  0.31383199874E+04  0.29272181418E+04 0.  0.
        3    1    3    3  502    0 -0.65449119632E+03 -0.66326181921E+03  0.17758409656E+04  0.20054640641E+04  0.10100000352E+00 0.  1.
       -3    1    3    3    0  502  0.65449119632E+03  0.66326181921E+03 -0.64427289709E+03  0.11328559233E+04  0.10100000352E+00 0. -1.
</event>
<event>
 5   0  0.5003556E-06  0.3010425E+04  0.7818609E-02  0.8240760E-01
        2   -1    0    0  501    0  0.00000000000E+00  0.00000000000E+00  0.16888312688E+04  0.16888312688E+04  0.25500000920E-02 0. -1.
       -2   -1    0    0    0  501  0.00000000000E+00  0.00000000000E+00 -0.13415574728E+04  0.13415574728E+04  0.25500000920E-02 0.  1.
    10030    2    1    2    0    0  0.00000000000E+00  0.00000000000E+00  0.34727379600E+03  0.30303887417E+04  0.30104246937E+04 0.  0.
        3    1    3    3  502    0 -0.32107416541E+03  0.87811155870E+03 -0.10138026407E+04  0.13791172298E+04  0.10100000352E+00 0.  1.
       -3    1    3    3    0  502  0.32107416541E+03 -0.87811155870E+03  0.13610764367E+04  0.16512715119E+04  0.10100000352E+00 0. -1.
</event>
<event>
 5   0  0.1672907E-06  0.2998748E+04  0.7818609E-02  0.8244089E-01
       -1   -1    0    0    0  501  0.00000000000E+00  0.00000000000E+00  0.14592139661E+04  0.14592139661E+04  0.50400001928E-02 0. -1.
        1   -1    0    0  501    0  0.00000000000E+00  0.00000000000E+00 -0.15406388340E+04  0.15406388340E+04  0.50400001928E-02 0.  1.
    10030    2    1    2    0    0  0.00000000000E+00  0.00000000000E+00 -0.81424867936E+02  0.29998528001E+04  0.29987475408E+04 0.  0.
        5    1    3    3  502    0  0.21667523608E+03  0.11631702686E+04  0.88059735937E+03  0.14749193303E+04  0.46999998093E+01 0. -1.
       -5    1    3    3    0  502 -0.21667523608E+03 -0.11631702686E+04 -0.96202222731E+03  0.15249334698E+04  0.46999998093E+01 0.  1.
</event>
<event>
 5   0  0.1709858E-06  0.2988328E+04  0.7818609E-02  0.8247072E-01
       -1   -1    0    0    0  501  0.00000000000E+00  0.00000000000E+00  0.14072307513E+04  0.14072307513E+04  0.50400001928E-02 0. -1.
        1   -1    0    0  501    0  0.00000000000E+00  0.00000000000E+00 -0.15864677112E+04  0.15864677112E+04  0.50400001928E-02 0.  1.
    10030    2    1    2    0    0  0.00000000000E+00  0.00000000000E+00 -0.17923695985E+03  0.29936984625E+04  0.29883280604E+04 0.  0.
        3    1    3    3  502    0 -0.12559545082E+04  0.13289817028E+03  0.71021630061E+03  0.14489619920E+04  0.10100000352E+00 0. -1.
       -3    1    3    3    0  502  0.12559545082E+04 -0.13289817028E+03 -0.88945326046E+03  0.15447364705E+04  0.10100000352E+00 0.  1.
</event>
<event>
 5   0  0.1709858E-06  0.3003598E+04  0.7818609E-02  0.8242704E-01
        1   -1    0    0  501    0  0.00000000000E+00  0.00000000000E+00  0.20530368807E+04  0.20530368807E+04  0.50400001928E-02 0.  1.
       -1   -1    0    0    0  501  0.00000000000E+00  0.00000000000E+00 -0.10985679844E+04  0.10985679844E+04  0.50400001928E-02 0. -1.
    10030    2    1    2    0    0  0.00000000000E+00  0.00000000000E+00  0.95446889634E+03  0.31516048651E+04  0.30035982341E+04 0.  0.
        3    1    3    3  502    0 -0.17636654335E+03  0.88113008649E+03 -0.78534868836E+03  0.11934269812E+04  0.10100000352E+00 0. -1.
       -3    1    3    3    0  502  0.17636654335E+03 -0.88113008649E+03  0.17398175847E+04  0.19581778839E+04  0.10100000352E+00 0.  1.
</event>
<event>
 5   0  0.4702748E-06  0.3026152E+04  0.7818609E-02  0.8236302E-01
        2   -1    0    0  501    0  0.00000000000E+00  0.00000000000E+00  0.27830096874E+04  0.27830096874E+04  0.25500000920E-02 0.  1.
       -2   -1    0    0    0  501  0.00000000000E+00  0.00000000000E+00 -0.82263432311E+03  0.82263432311E+03  0.25500000920E-02 0. -1.
    10030    2    1    2    0    0  0.00000000000E+00  0.00000000000E+00  0.19603753643E+04  0.36056440105E+04  0.30261522040E+04 0.  0.
        2    1    3    3  502    0  0.10978856423E+03 -0.14501212875E+04  0.48247083202E+03  0.15322151876E+04  0.25500000920E-02 0. -1.
       -2    1    3    3    0  502 -0.10978856423E+03  0.14501212875E+04  0.14779045322E+04  0.20734288229E+04  0.25500000920E-02 0.  1.
</event>
<event>
 5   0  0.4702748E-06  0.3139704E+04  0.7818609E-02  0.8204925E-01
       -2   -1    0    0    0  501  0.00000000000E+00  0.00000000000E+00  0.12266521205E+04  0.12266521205E+04  0.25500000920E-02 0. -1.
        2   -1    0    0  501    0  0.00000000000E+00  0.00000000000E+00 -0.20090749147E+04  0.20090749147E+04  0.25500000920E-02 0.  1.
    10030    2    1    2    0    0  0.00000000000E+00  0.00000000000E+00 -0.78242279413E+03  0.32357270352E+04  0.31397044475E+04 0.  0.
        2    1    3    3  502    0  0.12307700917E+04 -0.32045350190E+02 -0.13949667928E+04  0.18605790164E+04  0.25500000920E-02 0.  1.
       -2    1    3    3    0  502 -0.12307700917E+04  0.32045350190E+02  0.61254399872E+03  0.13751480188E+04  0.25500000920E-02 0. -1.
</event>
<event>
 5   0  0.1686012E-06  0.2937338E+04  0.7818609E-02  0.8261854E-01
        1   -1    0    0  501    0  0.00000000000E+00  0.00000000000E+00  0.25990265268E+04  0.25990265268E+04  0.50400001928E-02 0. -1.
       -1   -1    0    0    0  501  0.00000000000E+00  0.00000000000E+00 -0.82992152285E+03  0.82992152286E+03  0.50400001928E-02 0.  1.
    10030    2    1    2    0    0  0.00000000000E+00  0.00000000000E+00  0.17691050040E+04  0.34289480497E+04  0.29373376061E+04 0.  0.
        4    1    3    3  502    0 -0.13529606818E+04  0.55267489654E+03  0.71524702998E+03  0.16271238657E+04  0.12699999809E+01 0.  1.
       -4    1    3    3    0  502  0.13529606818E+04 -0.55267489654E+03  0.10538579740E+04  0.18018241840E+04  0.12699999809E+01 0. -1.
</event>
<event>
 5   0  0.4768570E-06  0.2948437E+04  0.7818609E-02  0.8258610E-01
        2   -1    0    0  501    0  0.00000000000E+00  0.00000000000E+00  0.19094826106E+04  0.19094826106E+04  0.25500000920E-02 0.  1.
       -2   -1    0    0    0  501  0.00000000000E+00  0.00000000000E+00 -0.11381724964E+04  0.11381724964E+04  0.25500000920E-02 0. -1.
    10030    2    1    2    0    0  0.00000000000E+00  0.00000000000E+00  0.77131011427E+03  0.30476551070E+04  0.29484372740E+04 0.  0.
        1    1    3    3  502    0  0.12962910652E+04 -0.69357795615E+03  0.49841156492E+03  0.15523643242E+04  0.50400001928E-02 0.  1.
       -1    1    3    3    0  502 -0.12962910652E+04  0.69357795615E+03  0.27289854935E+03  0.14952907828E+04  0.50400001928E-02 0. -1.
</event>
<event>
 5   0  0.1545375E-06  0.2998691E+04  0.7818609E-02  0.8244105E-01
       -4   -1    0    0    0  501  0.00000000000E+00  0.00000000000E+00  0.12669137191E+04  0.12669143557E+04  0.12699999809E+01 0.  1.
        4   -1    0    0  501    0  0.00000000000E+00  0.00000000000E+00 -0.17744183864E+04  0.17744188409E+04  0.12699999809E+01 0. -1.
    10030    2    1    2    0    0  0.00000000000E+00  0.00000000000E+00 -0.50750466725E+03  0.30413331965E+04  0.29986908185E+04 0.  0.
        4    1    3    3  502    0  0.36577175263E+03  0.48111254291E+03 -0.16454078015E+04  0.17528909550E+04  0.12699999809E+01 0. -1.
       -4    1    3    3    0  502 -0.36577175263E+03 -0.48111254291E+03  0.11379031342E+04  0.12884422415E+04  0.12699999809E+01 0.  1.
</event>
<event>
 5   0  0.1545375E-06  0.3040380E+04  0.7818609E-02  0.8232293E-01
        4   -1    0    0  501    0  0.00000000000E+00  0.00000000000E+00  0.14842834743E+04  0.14842840177E+04  0.12699999809E+01 0.  1.
       -4   -1    0    0    0  501  0.00000000000E+00  0.00000000000E+00 -0.15569642423E+04  0.15569647603E+04  0.12699999809E+01 0. -1.
    10030    2    1    2    0    0  0.00000000000E+00  0.00000000000E+00 -0.72680767960E+02  0.30412487779E+04  0.30403801794E+04 0.  0.
        2    1    3    3  502    0  0.36812714998E+03 -0.43877029887E+03 -0.14449120363E+04  0.15542868996E+04  0.25500000920E-02 0. -1.
       -2    1    3    3    0  502 -0.36812714998E+03  0.43877029887E+03  0.13722312683E+04  0.14869618783E+04  0.25500000920E-02 0.  1.
</event>
<event>
 5   0  0.4702748E-06  0.2986535E+04  0.7818609E-02  0.8247586E-01
       -2   -1    0    0    0  501  0.00000000000E+00  0.00000000000E+00  0.14602568237E+04  0.14602568237E+04  0.25500000920E-02 0. -1.
        2   -1    0    0  501    0  0.00000000000E+00  0.00000000000E+00 -0.15270243909E+04  0.15270243909E+04  0.25500000920E-02 0.  1.
    10030    2    1    2    0    0  0.00000000000E+00  0.00000000000E+00 -0.66767567275E+02  0.29872812146E+04  0.29865349734E+04 0.  0.
        2    1    3    3  502    0 -0.13464839353E+04  0.64037187955E+03  0.48811287151E+02  0.14918034971E+04  0.25500000920E-02 0.  1.
       -2    1    3    3    0  502  0.13464839353E+04 -0.64037187955E+03 -0.11557885443E+03  0.14954777175E+04  0.25500000920E-02 0. -1.
</event>
<event>
 5   0  0.1545375E-06  0.3002782E+04  0.7818609E-02  0.8242937E-01
       -3   -1    0    0    0  501  0.00000000000E+00  0.00000000000E+00  0.19982272809E+04  0.19982272835E+04  0.10100000352E+00 0. -1.
        3   -1    0    0  501    0  0.00000000000E+00  0.00000000000E+00 -0.11280871508E+04  0.11280871553E+04  0.10100000352E+00 0.  1.
    10030    2    1    2    0    0  0.00000000000E+00  0.00000000000E+00  0.87014013014E+03  0.31263144388E+04  0.30027817311E+04 0.  0.
        2    1    3    3  502    0 -0.54353384280E+02  0.19535305220E+03  0.19839053470E+04  0.19942410915E+04  0.25500000920E-02 0. -1.
       -2    1    3    3    0  502  0.54353384280E+02 -0.19535305220E+03 -0.11137652168E+04  0.11320733473E+04  0.25500000920E-02 0.  1.
</event>
<event>
 5   0  0.5003556E-06  0.3034427E+04  0.7818609E-02  0.8233968E-01
        2   -1    0    0  501    0  0.00000000000E+00  0.00000000000E+00  0.22271262296E+04  0.22271262296E+04  0.25500000920E-02 0. -1.
       -2   -1    0    0    0  501  0.00000000000E+00  0.00000000000E+00 -0.10335909547E+04  0.10335909547E+04  0.25500000920E-02 0.  1.
    10030    2    1    2    0    0  0.00000000000E+00  0.00000000000E+00  0.11935352749E+04  0.32607171843E+04  0.30344274754E+04 0.  0.
        3    1    3    3  502    0  0.11281327805E+04 -0.54631691059E+03  0.15153819266E+04  0.19666031961E+04  0.10100000352E+00 0. -1.
       -3    1    3    3    0  502 -0.11281327805E+04  0.54631691059E+03 -0.32184665170E+03  0.12941139882E+04  0.10100000352E+00 0.  1.
</event>
<event>
 5   0  0.1709858E-06  0.2968393E+04  0.7818609E-02  0.8252814E-01
       -1   -1    0    0    0  501  0.00000000000E+00  0.00000000000E+00  0.27524099448E+04  0.27524099448E+04  0.50400001928E-02 0. -1.
        1   -1    0    0  501    0  0.00000000000E+00  0.00000000000E+00 -0.80033132297E+03  0.80033132298E+03  0.50400001928E-02 0.  1.
    10030    2    1    2    0    0  0.00000000000E+00  0.00000000000E+00  0.19520786218E+04  0.35527412677E+04  0.29683934325E+04 0.  0.
        3    1    3    3  502    0  0.10319525416E+04 -0.46790992931E+03  0.21233836098E+04  0.24067870107E+04  0.10100000352E+00 0. -1.
       -3    1    3    3    0  502 -0.10319525416E+04  0.46790992931E+03 -0.17130498806E+03  0.11459542570E+04  0.10100000352E+00 0.  1.
</event>
<event>
 5   0  0.4532420E-06  0.3000646E+04  0.7818609E-02  0.8243547E-01
        2   -1    0    0  501    0  0.00000000000E+00  0.00000000000E+00  0.12617352254E+04  0.12617352254E+04  0.25500000920E-02 0. -1.
       -2   -1    0    0    0  501  0.00000000000E+00  0.00000000000E+00 -0.17840259969E+04  0.17840259969E+04  0.25500000920E-02 0.  1.
    10030    2    1    2    0    0  0.00000000000E+00  0.00000000000E+00 -0.52229077145E+03  0.30457612223E+04  0.30006455594E+04 0.  0.
        4    1    3    3  502    0  0.10691510241E+04  0.41246948922E+03  0.72179033105E+03  0.13543256207E+04  0.12699999809E+01 0. -1.
       -4    1    3    3    0  502 -0.10691510241E+04 -0.41246948922E+03 -0.12440811025E+04  0.16914356016E+04  0.12699999809E+01 0.  1.
</event>
<event>
 5   0  0.1686012E-06  0.2969370E+04  0.7818609E-02  0.8252532E-01
       -1   -1    0    0    0  501  0.00000000000E+00  0.00000000000E+00  0.11912203768E+04  0.11912203769E+04  0.50400001928E-02 0.  1.
        1   -1    0    0  501    0  0.00000000000E+00  0.00000000000E+00 -0.18504463903E+04  0.18504463903E+04  0.50400001928E-02 0. -1.
    10030    2    1    2    0    0  0.00000000000E+00  0.00000000000E+00 -0.65922601344E+03  0.30416667672E+04  0.29693699307E+04 0.  0.
        4    1    3    3  502    0  0.14030558096E+03  0.84455768100E+03 -0.15721277766E+04  0.17901258870E+04  0.12699999809E+01 0. -1.
       -4    1    3    3    0  502 -0.14030558096E+03 -0.84455768100E+03  0.91290176315E+03  0.12515408801E+04  0.12699999809E+01 0.  1.
</event>
<event>
 5   0  0.1700885E-06  0.2985218E+04  0.7818609E-02  0.8247965E-01
        1   -1    0    0  501    0  0.00000000000E+00  0.00000000000E+00  0.14733734628E+04  0.14733734628E+04  0.50400001928E-02 0.  1.
       -1   -1    0    0    0  501  0.00000000000E+00  0.00000000000E+00 -0.15120959647E+04  0.15120959647E+04  0.50400001928E-02 0. -1.
    10030    2    1    2    0    0  0.00000000000E+00  0.00000000000E+00 -0.38722501928E+02  0.29854694275E+04  0.29852182953E+04 0.  0.
        1    1    3    3  502    0  0.10933795471E+04 -0.67001608140E+03 -0.78328523892E+03  0.15026430544E+04  0.50400001928E-02 0.  1.
       -1    1    3    3    0  502 -0.10933795471E+04  0.67001608140E+03  0.74456273699E+03  0.14828263731E+04  0.50400001928E-02 0. -1.
</event>
<event>
 5   0  0.4935331E-06  0.3021525E+04  0.7818609E-02  0.8237611E-01
        2   -1    0    0  501    0  0.00000000000E+00  0.00000000000E+00  0.15509517067E+04  0.15509517067E+04  0.25500000920E-02 0. -1.
       -2   -1    0    0    0  501  0.00000000000E+00  0.00000000000E+00 -0.14716144130E+04  0.14716144130E+04  0.25500000920E-02 0.  1.
    10030    2    1    2    0    0  0.00000000000E+00  0.00000000000E+00  0.79337293698E+02  0.30225661196E+04  0.30215247047E+04 0.  0.
        5    1    3    3  502    0 -0.12945019134E+04  0.68636193564E+03 -0.32863332400E+03  0.15016157505E+04  0.46999998093E+01 0. -1.
       -5    1    3    3    0  502  0.12945019134E+04 -0.68636193564E+03  0.40797061770E+03  0.15209503691E+04  0.46999998093E+01 0.  1.
</event>
<event>
 5   0  0.1672907E-06  0.3001774E+04  0.7818609E-02  0.8243225E-01
       -1   -1    0    0    0  501  0.00000000000E+00  0.00000000000E+00  0.14920570500E+04  0.14920570500E+04  0.50400001928E-02 0. -1.
        1   -1    0    0  501    0  0.00000000000E+00  0.00000000000E+00 -0.15097690831E+04  0.15097690831E+04  0.50400001928E-02 0.  1.
    10030    2    1    2    0    0  0.00000000000E+00  0.00000000000E+00 -0.17712033064E+02  0.30018261331E+04  0.30017738784E+04 0.  0.
        5    1    3    3  502    0 -0.12885633830E+03 -0.88498319269E+03 -0.12142152532E+04  0.15080251915E+04  0.46999998093E+01 0.  1.
       -5    1    3    3    0  502  0.12885633830E+03  0.88498319269E+03  0.11965032201E+04  0.14938009416E+04  0.46999998093E+01 0. -1.
</event>
<event>
 5   0  0.5003556E-06  0.2957874E+04  0.7818609E-02  0.8255863E-01
        2   -1    0    0  501    0  0.00000000000E+00  0.00000000000E+00  0.23091840731E+04  0.23091840731E+04  0.25500000920E-02 0. -1.
       -2   -1    0    0    0  501  0.00000000000E+00  0.00000000000E+00 -0.94719828638E+03  0.94719828638E+03  0.25500000920E-02 0.  1.
    10030    2    1    2    0    0  0.00000000000E+00  0.00000000000E+00  0.13619857868E+04  0.32563823595E+04  0.29578743699E+04 0.  0.
        3    1    3    3  502    0  0.11512946448E+04  0.81418186236E+03  0.11719632704E+04  0.18335401227E+04  0.10100000352E+00 0.  1.
       -3    1    3    3    0  502 -0.11512946448E+04 -0.81418186236E+03  0.19002251633E+03  0.14228422368E+04  0.10100000352E+00 0. -1.
</event>
<event>
 5   0  0.4768570E-06  0.3027533E+04  0.7818609E-02  0.8235912E-01
        2   -1    0    0  501    0  0.00000000000E+00  0.00000000000E+00  0.21102112968E+04  0.21102112968E+04  0.25500000920E-02 0.  1.
       -2   -1    0    0    0  501  0.00000000000E+00  0.00000000000E+00 -0.10859050089E+04  0.10859050089E+04  0.25500000920E-02 0. -1.
    10030    2    1    2    0    0  0.00000000000E+00  0.00000000000E+00  0.10243062879E+04  0.31961163056E+04  0.30275330003E+04 0.  0.
        1    1    3    3  502    0  0.66402269493E+03 -0.91380856038E+03  0.15759954174E+04  0.19390032956E+04  0.50400001928E-02 0.  1.
       -1    1    3    3    0  502 -0.66402269493E+03  0.91380856038E+03 -0.55168912956E+03  0.12571130101E+04  0.50400001928E-02 0. -1.
</event>
<event>
 5   0  0.1734885E-06  0.3056320E+04  0.7818609E-02  0.8227829E-01
        1   -1    0    0  501    0  0.00000000000E+00  0.00000000000E+00  0.19658572539E+04  0.19658572539E+04  0.50400001928E-02 0.  1.
       -1   -1    0    0    0  501  0.00000000000E+00  0.00000000000E+00 -0.11879160610E+04  0.11879160610E+04  0.50400001928E-02 0. -1.
    10030    2    1    2    0    0  0.00000000000E+00  0.00000000000E+00  0.77794119286E+03  0.31537733149E+04  0.30563202748E+04 0.  0.
        2    1    3    3  502    0 -0.30517742674E+03 -0.67166215475E+02  0.19325381376E+04  0.19576384282E+04  0.25500000920E-02 0.  1.
       -2    1    3    3    0  502  0.30517742674E+03  0.67166215475E+02 -0.11545969448E+04  0.11961348867E+04  0.25500000920E-02 0. -1.
</event>
<event>
 5   0  0.1734885E-06  0.2979511E+04  0.7818609E-02  0.8249606E-01
        1   -1    0    0  501    0  0.00000000000E+00  0.00000000000E+00  0.17747782483E+04  0.17747782483E+04  0.50400001928E-02 0.  1.
       -1   -1    0    0    0  501  0.00000000000E+00  0.00000000000E+00 -0.12505062657E+04  0.12505062657E+04  0.50400001928E-02 0. -1.
    10030    2    1    2    0    0  0.00000000000E+00  0.00000000000E+00  0.52427198262E+03  0.30252845140E+04  0.29795109127E+04 0.  0.
        2    1    3    3  502    0 -0.41650062991E+03 -0.13411356227E+04 -0.24274930097E+03  0.14251472753E+04  0.25500000920E-02 0. -1.
       -2    1    3    3    0  502  0.41650062991E+03  0.13411356227E+04  0.76702128359E+03  0.16001372387E+04  0.25500000920E-02 0.  1.
</event>
<event>
 5   0  0.5003556E-06  0.3014597E+04  0.7818609E-02  0.8239575E-01
       -2   -1    0    0    0  501  0.00000000000E+00  0.00000000000E+00  0.17226730835E+04  0.17226730835E+04  0.25500000920E-02 0.  1.
        2   -1    0    0  501    0  0.00000000000E+00  0.00000000000E+00 -0.13188505247E+04  0.13188505247E+04  0.25500000920E-02 0. -1.
    10030    2    1    2    0    0  0.00000000000E+00  0.00000000000E+00  0.40382255875E+03  0.30415236082E+04  0.30145966895E+04 0.  0.
        3    1    3    3  502    0 -0.71245635624E+03 -0.70128131854E+03 -0.93624236511E+03  0.13696493433E+04  0.10100000352E+00 0. -1.
       -3    1    3    3    0  502  0.71245635624E+03  0.70128131854E+03  0.13400649239E+04  0.16718742649E+04  0.10100000352E+00 0.  1.
</event>
<event>
 5   0  0.4935331E-06  0.3033882E+04  0.7818609E-02  0.8234121E-01
       -2   -1    0    0    0  501  0.00000000000E+00  0.00000000000E+00  0.10053225672E+04  0.10053225672E+04  0.25500000920E-02 0. -1.
        2   -1    0    0  501    0  0.00000000000E+00  0.00000000000E+00 -0.22889264089E+04  0.22889264089E+04  0.25500000920E-02 0.  1.
    10030    2    1    2    0    0  0.00000000000E+00  0.00000000000E+00 -0.12836038416E+04  0.32942489761E+04  0.30338815887E+04 0.  0.
        5    1    3    3  502    0 -0.40837171139E+02 -0.43346032855E+03  0.93601497197E+03  0.10323282660E+04  0.46999998093E+01 0. -1.
       -5    1    3    3    0  502  0.40837171139E+02  0.43346032855E+03 -0.22196188136E+04  0.22619207101E+04  0.46999998093E+01 0.  1.
</event>
<event>
 5   0  0.1686012E-06  0.2842278E+04  0.7818609E-02  0.8290262E-01
        1   -1    0    0  501    0  0.00000000000E+00  0.00000000000E+00  0.16465755609E+04  0.16465755609E+04  0.50400001928E-02 0. -1.
       -1   -1    0    0    0  501  0.00000000000E+00  0.00000000000E+00 -0.12265674670E+04  0.12265674670E+04  0.50400001928E-02 0.  1.
    10030    2    1    2    0    0  0.00000000000E+00  0.00000000000E+00  0.42000809393E+03  0.28731430279E+04  0.28422779702E+04 0.  0.
        4    1    3    3  502    0 -0.11896531499E+04 -0.55480904322E+03  0.76047860645E+03  0.15170421930E+04  0.12699999809E+01 0. -1.
       -4    1    3    3    0  502  0.11896531499E+04  0.55480904322E+03 -0.34047051252E+03  0.13561008349E+04  0.12699999809E+01 0.  1.
</event>
<event>
 5   0  0.1686012E-06  0.2995938E+04  0.7818609E-02  0.8244892E-01
        1   -1    0    0  501    0  0.00000000000E+00  0.00000000000E+00  0.16415307181E+04  0.16415307182E+04  0.50400001928E-02 0. -1.
       -1   -1    0    0    0  501  0.00000000000E+00  0.00000000000E+00 -0.13669623867E+04  0.13669623867E+04  0.50400001928E-02 0.  1.
    10030    2    1    2    0    0  0.00000000000E+00  0.00000000000E+00  0.27456833149E+03  0.30084931048E+04  0.29959377485E+04 0.  0.
        4    1    3    3  502    0 -0.12414191868E+04  0.14966816624E+02 -0.70441914823E+03  0.14274290007E+04  0.12699999809E+01 0.  1.
       -4    1    3    3    0  502  0.12414191868E+04 -0.14966816624E+02  0.97898747972E+03  0.15810641041E+04  0.12699999809E+01 0. -1.
</event>
<event>
 5   0  0.1700885E-06  0.2946725E+04  0.7818609E-02  0.8259110E-01
       -1   -1    0    0    0  501  0.00000000000E+00  0.00000000000E+00  0.11561576317E+04  0.11561576317E+04  0.50400001928E-02 0. -1.
        1   -1    0    0  501    0  0.00000000000E+00  0.00000000000E+00 -0.18775964812E+04  0.18775964812E+04  0.50400001928E-02 0.  1.
    10030    2    1    2    0    0  0.00000000000E+00  0.00000000000E+00 -0.72143884945E+03  0.30337541129E+04  0.29467253018E+04 0.  0.
        1    1    3    3  502    0 -0.59501354210E+03  0.13137443608E+04 -0.67100422370E+03  0.15906640214E+04  0.50400001928E-02 0. -1.
       -1    1    3    3    0  502  0.59501354210E+03 -0.13137443608E+04 -0.50434625743E+02  0.14430900915E+04  0.50400001928E-02 0.  1.
</event>
<event>
 5   0  0.1700885E-06  0.3028638E+04  0.7818609E-02  0.8235600E-01
        1   -1    0    0  501    0  0.00000000000E+00  0.00000000000E+00  0.15910459175E+04  0.15910459175E+04  0.50400001928E-02 0. -1.
       -1   -1    0    0    0  501  0.00000000000E+00  0.00000000000E+00 -0.14412919800E+04  0.14412919800E+04  0.50400001928E-02 0.  1.
    10030    2    1    2    0    0  0.00000000000E+00  0.00000000000E+00  0.14975393750E+03  0.30323378976E+04  0.30286377933E+04 0.  0.
        1    1    3    3  502    0 -0.32316423925E+03  0.13051600061E+04 -0.62259735073E+03  0.14817237355E+04  0.50400001928E-02 0.  1.
       -1    1    3    3    0  502  0.32316423925E+03 -0.13051600061E+04  0.77235128823E+03  0.15506141621E+04  0.50400001928E-02 0. -1.
</event>
<event>
 5   0  0.1734885E-06  0.2998028E+04  0.7818609E-02  0.8244294E-01
        1   -1    0    0  501    0  0.00000000000E+00  0.00000000000E+00  0.35193657183E+04  0.35193657183E+04  0.50400001928E-02 0. -1.
       -1   -1    0    0    0  501  0.00000000000E+00  0.00000000000E+00 -0.63847939278E+03  0.63847939280E+03  0.50400001928E-02 0.  1.
    10030    2    1    2    0    0  0.00000000000E+00  0.00000000000E+00  0.28808863255E+04  0.41578451111E+04  0.29980276762E+04 0.  0.
        2    1    3    3  502    0  0.11334090543E+04  0.35580264079E+03  0.17252309346E+03  0.12004065233E+04  0.25500000920E-02 0.  1.
       -2    1    3    3    0  502 -0.11334090543E+04 -0.35580264079E+03  0.27083632321E+04  0.29574385877E+04  0.25500000920E-02 0. -1.
</event>
<event>
 5   0  0.1672907E-06  0.2910645E+04  0.7818609E-02  0.8269717E-01
       -1   -1    0    0    0  501  0.00000000000E+00  0.00000000000E+00  0.17923110771E+04  0.17923110771E+04  0.50400001928E-02 0. -1.
        1   -1    0    0  501    0  0.00000000000E+00  0.00000000000E+00 -0.11816945530E+04  0.11816945531E+04  0.50400001928E-02 0.  1.
    10030    2    1    2    0    0  0.00000000000E+00  0.00000000000E+00  0.61061652403E+03  0.29740056301E+04  0.29106454523E+04 0.  0.
        5    1    3    3  502    0 -0.19417449015E+03  0.72748962563E+03  0.15778088585E+04  0.17482699368E+04  0.46999998093E+01 0. -1.
       -5    1    3    3    0  502  0.19417449015E+03 -0.72748962563E+03 -0.96719233447E+03  0.12257356933E+04  0.46999998093E+01 0.  1.
</event>
<event>
 5   0  0.1734885E-06  0.2983981E+04  0.7818609E-02  0.8248320E-01
       -1   -1    0    0    0  501  0.00000000000E+00  0.00000000000E+00  0.12028448511E+04  0.12028448511E+04  0.50400001928E-02 0. -1.
        1   -1    0    0  501    0  0.00000000000E+00  0.00000000000E+00 -0.18506420048E+04  0.18506420048E+04  0.50400001928E-02 0.  1.
    10030    2    1    2    0    0  0.00000000000E+00  0.00000000000E+00 -0.64779715377E+03  0.30534868559E+04  0.29839807015E+04 0.  0.
        2    1    3    3  502    0  0.57253501437E+02 -0.11500625329E+04  0.64694365875E+03  0.13207792740E+04  0.25500000920E-02 0. -1.
       -2    1    3    3    0  502 -0.57253501437E+02  0.11500625329E+04 -0.12947408125E+04  0.17327075819E+04  0.25500000920E-02 0.  1.
</event>
<event>
 5   0  0.4768570E-06  0.2970957E+04  0.7818609E-02  0.8252073E-01
       -2   -1    0    0    0  501  0.00000000000E+00  0.00000000000E+00  0.21094830339E+04  0.21094830339E+04  0.25500000920E-02 0. -1.
        2   -1    0    0  501    0  0.00000000000E+00  0.00000000000E+00 -0.10460600737E+04  0.10460600737E+04  0.25500000920E-02 0.  1.
    10030    2    1    2    0    0  0.00000000000E+00  0.00000000000E+00  0.10634229602E+04  0.31555431075E+04  0.29709567333E+04 0.  0.
        1    1    3    3  502    0  0.84908047315E+03 -0.82490520791E+03 -0.42139272669E+03  0.12565739461E+04  0.50400001928E-02 0.  1.
       -1    1    3    3    0  502 -0.84908047315E+03  0.82490520791E+03  0.14848156869E+04  0.18989691614E+04  0.50400001928E-02 0. -1.
</event>
<event>
 5   0  0.4768570E-06  0.3029669E+04  0.7818609E-02  0.8235309E-01
        2   -1    0    0  501    0  0.00000000000E+00  0.00000000000E+00  0.20916180338E+04  0.20916180338E+04  0.25500000920E-02 0. -1.
       -2   -1    0    0    0  501  0.00000000000E+00  0.00000000000E+00 -0.10971045970E+04  0.10971045970E+04  0.25500000920E-02 0.  1.
    10030    2    1    2    0    0  0.00000000000E+00  0.00000000000E+00  0.99451343676E+03  0.31887226308E+04  0.30296691305E+04 0.  0.
        1    1    3    3  502    0  0.13420953888E+04  0.60304902536E+03  0.11801296391E+03  0.14760810341E+04  0.50400001928E-02 0. -1.
       -1    1    3    3    0  502 -0.13420953888E+04 -0.60304902536E+03  0.87650047285E+03  0.17126415967E+04  0.50400001928E-02 0.  1.
</event>
<event>
 5   0  0.4702748E-06  0.3019309E+04  0.7818609E-02  0.8238238E-01
        2   -1    0    0  501    0  0.00000000000E+00  0.00000000000E+00  0.10676335199E+04  0.10676335199E+04  0.25500000920E-02 0.  1.
       -2   -1    0    0    0  501  0.00000000000E+00  0.00000000000E+00 -0.21346808084E+04  0.21346808084E+04  0.25500000920E-02 0. -1.
    10030    2    1    2    0    0  0.00000000000E+00  0.00000000000E+00 -0.10670472886E+04  0.32023143283E+04  0.30193090503E+04 0.  0.
        2    1    3    3  502    0  0.14886439504E+04 -0.22794213940E+03 -0.64495529720E+03  0.16382874490E+04  0.25500000920E-02 0. -1.
       -2    1    3    3    0  502 -0.14886439504E+04  0.22794213940E+03 -0.42209199137E+03  0.15640268793E+04  0.25500000920E-02 0.  1.
</event>
<event>
 5   0  0.1686012E-06  0.2995288E+04  0.7818609E-02  0.8245078E-01
       -1   -1    0    0    0  501  0.00000000000E+00  0.00000000000E+00  0.11793865899E+04  0.11793865899E+04  0.50400001928E-02 0.  1.
        1   -1    0    0  501    0  0.00000000000E+00  0.00000000000E+00 -0.19017826028E+04  0.19017826028E+04  0.50400001928E-02 0. -1.
    10030    2    1    2    0    0  0.00000000000E+00  0.00000000000E+00 -0.72239601293E+03  0.30811691927E+04  0.29952875646E+04 0.  0.
        4    1    3    3  502    0  0.76432852212E+02  0.14579350191E+04 -0.70471722392E+03  0.16211244491E+04  0.12699999809E+01 0. -1.
       -4    1    3    3    0  502 -0.76432852212E+02 -0.14579350191E+04 -0.17678789004E+02  0.14600447436E+04  0.12699999809E+01 0.  1.
</event>
<event>
 5   0  0.1686012E-06  0.3004142E+04  0.7818609E-02  0.8242549E-01
       -1   -1    0    0    0  501  0.00000000000E+00  0.00000000000E+00  0.13940768110E+04  0.13940768110E+04  0.50400001928E-02 0. -1.
        1   -1    0    0  501    0  0.00000000000E+00  0.00000000000E+00 -0.16184307852E+04  0.16184307852E+04  0.50400001928E-02 0.  1.
    10030    2    1    2    0    0  0.00000000000E+00  0.00000000000E+00 -0.22435397419E+03  0.30125075963E+04  0.30041416930E+04 0.  0.
        4    1    3    3  502    0 -0.14953414001E+04  0.13547515034E+03 -0.69446165373E+02  0.15030714561E+04  0.12699999809E+01 0.  1.
       -4    1    3    3    0  502  0.14953414001E+04 -0.13547515034E+03 -0.15490780882E+03  0.15094361402E+04  0.12699999809E+01 0. -1.
</event>
<event>
 5   0  0.1700885E-06  0.2952427E+04  0.7818609E-02  0.8257448E-01
        1   -1    0    0  501    0  0.00000000000E+00  0.00000000000E+00  0.13356439045E+04  0.13356439045E+04  0.50400001928E-02 0. -1.
       -1   -1    0    0    0  501  0.00000000000E+00  0.00000000000E+00 -0.16315770599E+04  0.16315770599E+04  0.50400001928E-02 0.  1.
    10030    2    1    2    0    0  0.00000000000E+00  0.00000000000E+00 -0.29593315539E+03  0.29672209645E+04  0.29524267678E+04 0.  0.
        1    1    3    3  502    0  0.55162588987E+03 -0.43157855206E+03 -0.14539606093E+04  0.16138626405E+04  0.50400001928E-02 0.  1.
       -1    1    3    3    0  502 -0.55162588987E+03  0.43157855206E+03  0.11580274539E+04  0.13533583240E+04  0.50400001928E-02 0. -1.
</event>
<event>
 5   0  0.1734885E-06  0.3129022E+04  0.7818609E-02  0.8207818E-01
        1   -1    0    0  501    0  0.00000000000E+00  0.00000000000E+00  0.17709874575E+04  0.17709874575E+04  0.50400001928E-02 0.  1.
       -1   -1    0    0    0  501  0.00000000000E+00  0.00000000000E+00 -0.13821069011E+04  0.13821069011E+04  0.50400001928E-02 0. -1.
    10030    2    1    2    0    0  0.00000000000E+00  0.00000000000E+00  0.38888055635E+03  0.31530943586E+04  0.31290215639E+04 0.  0.
        2    1    3    3  502    0  0.12718615165E+04 -0.61933728623E+03  0.86777523963E+03  0.16595915937E+04  0.25500000920E-02 0. -1.
       -2    1    3    3    0  502 -0.12718615165E+04  0.61933728623E+03 -0.47889468329E+03  0.14935027649E+04  0.25500000920E-02 0.  1.
</event>
<event>
 5   0  0.1734885E-06  0.2994879E+04  0.7818609E-02  0.8245195E-01
       -1   -1    0    0    0  501  0.00000000000E+00  0.00000000000E+00  0.95052642538E+03  0.95052642539E+03  0.50400001928E-02 0. -1.
        1   -1    0    0  501    0  0.00000000000E+00  0.00000000000E+00 -0.23590357121E+04  0.23590357121E+04  0.50400001928E-02 0.  1.
    10030    2    1    2    0    0  0.00000000000E+00  0.00000000000E+00 -0.14085092867E+04  0.33095621375E+04  0.29948794852E+04 0.  0.
        2    1    3    3  502    0  0.42796280563E+03 -0.11926875556E+04 -0.15860105682E+04  0.20300456376E+04  0.25500000920E-02 0. -1.
       -2    1    3    3    0  502 -0.42796280563E+03  0.11926875556E+04  0.17750128153E+03  0.12795164998E+04  0.25500000920E-02 0.  1.
</event>
<event>
 5   0  0.5003556E-06  0.3041168E+04  0.7818609E-02  0.8232072E-01
       -2   -1    0    0    0  501  0.00000000000E+00  0.00000000000E+00  0.17362779190E+04  0.17362779190E+04  0.25500000920E-02 0.  1.
        2   -1    0    0  501    0  0.00000000000E+00  0.00000000000E+00 -0.13316855829E+04  0.13316855829E+04  0.25500000920E-02 0. -1.
    10030    2    1    2    0    0  0.00000000000E+00  0.00000000000E+00  0.40459233612E+03  0.30679635018E+04  0.30411683758E+04 0.  0.
        3    1    3    3  502    0 -0.63387649881E+03  0.10536876962E+04 -0.70007879677E+03  0.14149796849E+04  0.10100000352E+00 0.  1.
       -3    1    3    3    0  502  0.63387649881E+03 -0.10536876962E+04  0.11046711329E+04  0.16529838169E+04  0.10100000352E+00 0. -1.
</event>
<event>
 5   0  0.4768570E-06  0.2987481E+04  0.7818609E-02  0.8247315E-01
       -2   -1    0    0    0  501  0.00000000000E+00  0.00000000000E+00  0.11134011274E+04  0.11134011274E+04  0.25500000920E-02 0.  1.
        2   -1    0    0  501    0  0.00000000000E+00  0.00000000000E+00 -0.20040038395E+04  0.20040038395E+04  0.25500000920E-02 0. -1.
    10030    2    1    2    0    0  0.00000000000E+00  0.00000000000E+00 -0.89060271205E+03  0.31174049669E+04  0.29874806338E+04 0.  0.
        1    1    3    3  502    0 -0.10701174745E+04  0.31613856715E+03  0.59094483146E+03  0.12626602064E+04  0.50400001928E-02 0.  1.
       -1    1    3    3    0  502  0.10701174745E+04 -0.31613856715E+03 -0.14815475435E+04  0.18547447605E+04  0.50400001928E-02 0. -1.
</event>
<event>
 5   0  0.5003556E-06  0.2915585E+04  0.7818609E-02  0.8268256E-01
        2   -1    0    0  501    0  0.00000000000E+00  0.00000000000E+00  0.15321562758E+04  0.15321562758E+04  0.25500000920E-02 0.  1.
       -2   -1    0    0    0  501  0.00000000000E+00  0.00000000000E+00 -0.13870378358E+04  0.13870378358E+04  0.25500000920E-02 0. -1.
    10030    2    1    2    0    0  0.00000000000E+00  0.00000000000E+00  0.14511843996E+03  0.29191941117E+04  0.29155848298E+04 0.  0.
        3    1    3    3  502    0 -0.68727456605E+03  0.10968885960E+04 -0.59882870459E+03  0.14262211430E+04  0.10100000352E+00 0. -1.
       -3    1    3    3    0  502  0.68727456605E+03 -0.10968885960E+04  0.74394714455E+03  0.14929729687E+04  0.10100000352E+00 0.  1.
</event>
<event>
 5   0  0.1700885E-06  0.2564236E+04  0.7818609E-02  0.8380452E-01
        1   -1    0    0  501    0  0.00000000000E+00  0.00000000000E+00  0.17996112375E+04  0.17996112375E+04  0.50400001928E-02 0. -1.
       -1   -1    0    0    0  501  0.00000000000E+00  0.00000000000E+00 -0.91343430762E+03  0.91343430763E+03  0.50400001928E-02 0.  1.
    10030    2    1    2    0    0  0.00000000000E+00  0.00000000000E+00  0.88617692993E+03  0.27130455452E+04  0.25642360615E+04 0.  0.
        1    1    3    3  502    0  0.84248737064E+02 -0.43786010001E+03  0.17149332272E+04  0.17719523951E+04  0.50400001928E-02 0. -1.
       -1    1    3    3    0  502 -0.84248737064E+02  0.43786010001E+03 -0.82875629724E+03  0.94109315007E+03  0.50400001928E-02 0.  1.
</event>
<event>
 5   0  0.4702748E-06  0.2992081E+04  0.7818609E-02  0.8245996E-01
       -2   -1    0    0    0  501  0.00000000000E+00  0.00000000000E+00  0.15531338935E+04  0.15531338935E+04  0.25500000920E-02 0.  1.
        2   -1    0    0  501    0  0.00000000000E+00  0.00000000000E+00 -0.14410458189E+04  0.14410458189E+04  0.25500000920E-02 0. -1.
    10030    2    1    2    0    0  0.00000000000E+00  0.00000000000E+00  0.11208807462E+03  0.29941797124E+04  0.29920809504E+04 0.  0.
        2    1    3    3  502    0 -0.80283815950E+03  0.19213250465E+03 -0.11924981854E+04  0.14503502790E+04  0.25500000920E-02 0. -1.
       -2    1    3    3    0  502  0.80283815950E+03 -0.19213250465E+03  0.13045862600E+04  0.15438294334E+04  0.25500000920E-02 0.  1.
</event>
<event>
 5   0  0.4702748E-06  0.3043884E+04  0.7818609E-02  0.8231309E-01
        2   -1    0    0  501    0  0.00000000000E+00  0.00000000000E+00  0.16576668583E+04  0.16576668583E+04  0.25500000920E-02 0.  1.
       -2   -1    0    0    0  501  0.00000000000E+00  0.00000000000E+00 -0.13973298178E+04  0.13973298178E+04  0.25500000920E-02 0. -1.
    10030    2    1    2    0    0  0.00000000000E+00  0.00000000000E+00  0.26033704052E+03  0.30549966761E+04  0.30438839197E+04 0.  0.
        2    1    3    3  502    0 -0.17499401206E+03  0.70199308541E+01  0.16475197062E+04  0.16568021505E+04  0.25500000920E-02 0.  1.
       -2    1    3    3    0  502  0.17499401206E+03 -0.70199308541E+01 -0.13871826656E+04  0.13981945256E+04  0.25500000920E-02 0. -1.
</event>
<event>
 5   0  0.1700885E-06  0.3034905E+04  0.7818609E-02  0.8233833E-01
        1   -1    0    0  501    0  0.00000000000E+00  0.00000000000E+00  0.17480923130E+04  0.17480923130E+04  0.50400001928E-02 0.  1.
       -1   -1    0    0    0  501  0.00000000000E+00  0.00000000000E+00 -0.13172427964E+04  0.13172427964E+04  0.50400001928E-02 0. -1.
    10030    2    1    2    0    0  0.00000000000E+00  0.00000000000E+00  0.43084951655E+03  0.30653351094E+04  0.30349049453E+04 0.  0.
        1    1    3    3  502    0  0.11503814890E+04 -0.52564883987E+03 -0.63141970186E+03  0.14136389614E+04  0.50400001928E-02 0. -1.
       -1    1    3    3    0  502 -0.11503814890E+04  0.52564883987E+03  0.10622692184E+04  0.16516961481E+04  0.50400001928E-02 0.  1.
</event>
<event>
 5   0  0.1686012E-06  0.2980921E+04  0.7818609E-02  0.8249200E-01
       -1   -1    0    0    0  501  0.00000000000E+00  0.00000000000E+00  0.85016773057E+03  0.85016773058E+03  0.50400001928E-02 0.  1.
        1   -1    0    0  501    0  0.00000000000E+00  0.00000000000E+00 -0.26129813044E+04  0.26129813044E+04  0.50400001928E-02 0. -1.
    10030    2    1    2    0    0  0.00000000000E+00  0.00000000000E+00 -0.17628135739E+04  0.34631490350E+04  0.29809209219E+04 0.  0.
        4    1    3    3  502    0  0.58716844473E+03  0.51825071555E+03 -0.23546687563E+04  0.24814949429E+04  0.12699999809E+01 0. -1.
       -4    1    3    3    0  502 -0.58716844473E+03 -0.51825071555E+03  0.59185518247E+03  0.98165409212E+03  0.12699999809E+01 0.  1.
</event>
<event>
 5   0  0.1672907E-06  0.3014049E+04  0.7818609E-02  0.8239730E-01
       -1   -1    0    0    0  501  0.00000000000E+00  0.00000000000E+00  0.16536445910E+04  0.16536445911E+04  0.50400001928E-02 0. -1.
        1   -1    0    0  501    0  0.00000000000E+00  0.00000000000E+00 -0.13734044260E+04  0.13734044260E+04  0.50400001928E-02 0.  1.
    10030    2    1    2    0    0  0.00000000000E+00  0.00000000000E+00  0.28024016506E+03  0.30270490170E+04  0.30140489713E+04 0.  0.
        5    1    3    3  502    0 -0.56758637255E+03  0.80319478419E+03 -0.10066562672E+04  0.14073574819E+04  0.46999998093E+01 0.  1.
       -5    1    3    3    0  502  0.56758637255E+03 -0.80319478419E+03  0.12868964322E+04  0.16196915351E+04  0.46999998093E+01 0. -1.
</event>
<event>
 5   0  0.4532420E-06  0.2849305E+04  0.7818609E-02  0.8288123E-01
        2   -1    0    0  501    0  0.00000000000E+00  0.00000000000E+00  0.11420390253E+04  0.11420390253E+04  0.25500000920E-02 0. -1.
       -2   -1    0    0    0  501  0.00000000000E+00  0.00000000000E+00 -0.17772024020E+04  0.17772024020E+04  0.25500000920E-02 0.  1.
    10030    2    1    2    0    0  0.00000000000E+00  0.00000000000E+00 -0.63516337672E+03  0.29192414274E+04  0.28493048268E+04 0.  0.
        4    1    3    3  502    0 -0.58693526297E+03 -0.85705334489E+03  0.68133640245E+03  0.12422778856E+04  0.12699999809E+01 0. -1.
       -4    1    3    3    0  502  0.58693526297E+03  0.85705334489E+03 -0.13164997792E+04  0.16769635418E+04  0.12699999809E+01 0.  1.
</event>
<event>
 5   0  0.1672907E-06  0.2997381E+04  0.7818609E-02  0.8244479E-01
       -1   -1    0    0    0  501  0.00000000000E+00  0.00000000000E+00  0.12194318051E+04  0.12194318051E+04  0.50400001928E-02 0.  1.
        1   -1    0    0  501    0  0.00000000000E+00  0.00000000000E+00 -0.18419015904E+04  0.18419015904E+04  0.50400001928E-02 0. -1.
    10030    2    1    2    0    0  0.00000000000E+00  0.00000000000E+00 -0.62246978536E+03  0.30613333955E+04  0.29973811111E+04 0.  0.
        5    1    3    3  502    0 -0.25380437627E+03  0.55593805727E+03 -0.17088494146E+04  0.18148477062E+04  0.46999998093E+01 0. -1.
       -5    1    3    3    0  502  0.25380437627E+03 -0.55593805727E+03  0.10863796292E+04  0.12464856893E+04  0.46999998093E+01 0.  1.
</event>
<event>
 5   0  0.4768570E-06  0.2976586E+04  0.7818609E-02  0.8250449E-01
       -2   -1    0    0    0  501  0.00000000000E+00  0.00000000000E+00  0.15017000969E+04  0.15017000969E+04  0.25500000920E-02 0. -1.
        2   -1    0    0  501    0  0.00000000000E+00  0.00000000000E+00 -0.14750058766E+04  0.14750058766E+04  0.25500000920E-02 0.  1.
    10030    2    1    2    0    0  0.00000000000E+00  0.00000000000E+00  0.26694220330E+02  0.29767059736E+04  0.29765862782E+04 0.  0.
        1    1    3    3  502    0  0.12946790727E+04  0.72682970908E+03 -0.89327075819E+02  0.14874322350E+04  0.50400001928E-02 0.  1.
       -1    1    3    3    0  502 -0.12946790727E+04 -0.72682970908E+03  0.11602129615E+03  0.14892737386E+04  0.50400001928E-02 0. -1.
</event>
<event>
 5   0  0.1672907E-06  0.2968558E+04  0.7818609E-02  0.8252767E-01
       -1   -1    0    0    0  501  0.00000000000E+00  0.00000000000E+00  0.13556543335E+04  0.13556543336E+04  0.50400001928E-02 0.  1.
        1   -1    0    0  501    0  0.00000000000E+00  0.00000000000E+00 -0.16251073029E+04  0.16251073029E+04  0.50400001928E-02 0. -1.
    10030    2    1    2    0    0  0.00000000000E+00  0.00000000000E+00 -0.26945296931E+03  0.29807616364E+04  0.29685577357E+04 0.  0.
        5    1    3    3  502    0  0.11971897778E+04  0.59673228215E+03  0.51111981129E+03  0.14319980210E+04  0.46999998093E+01 0.  1.
       -5    1    3    3    0  502 -0.11971897778E+04 -0.59673228215E+03 -0.78057278060E+03  0.15487636154E+04  0.46999998093E+01 0. -1.
</event>
<event>
 5   0  0.1709858E-06  0.3053988E+04  0.7818609E-02  0.8228480E-01
        1   -1    0    0  501    0  0.00000000000E+00  0.00000000000E+00  0.96155422757E+03  0.96155422759E+03  0.50400001928E-02 0. -1.
       -1   -1    0    0    0  501  0.00000000000E+00  0.00000000000E+00 -0.24249391134E+04  0.24249391134E+04  0.50400001928E-02 0.  1.
    10030    2    1    2    0    0  0.00000000000E+00  0.00000000000E+00 -0.14633848858E+04  0.33864933410E+04  0.30539878560E+04 0.  0.
        3    1    3    3  502    0 -0.20104116358E+03 -0.13152134673E+04 -0.15626145004E+04  0.20523079938E+04  0.10100000352E+00 0.  1.
       -3    1    3    3    0  502  0.20104116358E+03  0.13152134673E+04  0.99229614606E+02  0.13341853472E+04  0.10100000352E+00 0. -1.
</event>
<event>
 5   0  0.1709858E-06  0.3018141E+04  0.7818609E-02  0.8238570E-01
        1   -1    0    0  501    0  0.00000000000E+00  0.00000000000E+00  0.15183256901E+04  0.15183256901E+04  0.50400001928E-02 0.  1.
       -1   -1    0    0    0  501  0.00000000000E+00  0.00000000000E+00 -0.14998713767E+04  0.14998713767E+04  0.50400001928E-02 0. -1.
    10030    2    1    2    0    0  0.00000000000E+00  0.00000000000E+00  0.18454313401E+02  0.30181970669E+04  0.30181406483E+04 0.  0.
        3    1    3    3  502    0 -0.97763757067E+03  0.45568650672E+02  0.11579180816E+04  0.15161220318E+04  0.10100000352E+00 0.  1.
       -3    1    3    3    0  502  0.97763757067E+03 -0.45568650672E+02 -0.11394637682E+04  0.15020750350E+04  0.10100000352E+00 0. -1.
</event>
<event>
 5   0  0.1672907E-06  0.2949477E+04  0.7818609E-02  0.8258307E-01
        1   -1    0    0  501    0  0.00000000000E+00  0.00000000000E+00  0.19043472103E+04  0.19043472103E+04  0.50400001928E-02 0.  1.
       -1   -1    0    0    0  501  0.00000000000E+00  0.00000000000E+00 -0.11420466216E+04  0.11420466216E+04  0.50400001928E-02 0. -1.
    10030    2    1    2    0    0  0.00000000000E+00  0.00000000000E+00  0.76230058868E+03  0.30463938318E+04  0.29494767657E+04 0.  0.
        5    1    3    3  502    0  0.29326300504E+03 -0.13461995913E+04  0.92433467825E+03  0.16591182047E+04  0.46999998093E+01 0.  1.
       -5    1    3    3    0  502 -0.29326300504E+03  0.13461995913E+04 -0.16203408958E+03  0.13872756272E+04  0.46999998093E+01 0. -1.
</event>
<event>
 5   0  0.4532420E-06  0.3030909E+04  0.7818609E-02  0.8234959E-01
        2   -1    0    0  501    0  0.00000000000E+00  0.00000000000E+00  0.22405304037E+04  0.22405304037E+04  0.25500000920E-02 0.  1.
       -2   -1    0    0    0  501  0.00000000000E+00  0.00000000000E+00 -0.10250263362E+04  0.10250263362E+04  0.25500000920E-02 0. -1.
    10030    2    1    2    0    0  0.00000000000E+00  0.00000000000E+00  0.12155040676E+04  0.32655567399E+04  0.30309092173E+04 0.  0.
        4    1    3    3  502    0  0.47466862101E+03 -0.93764615967E+02  0.21550757221E+04  0.22087225004E+04  0.12699999809E+01 0.  1.
       -4    1    3    3    0  502 -0.47466862101E+03  0.93764615967E+02 -0.93957165449E+03  0.10568342395E+04  0.12699999809E+01 0. -1.
</event>
<event>
 5   0  0.5003556E-06  0.3004086E+04  0.7818609E-02  0.8242565E-01
       -2   -1    0    0    0  501  0.00000000000E+00  0.00000000000E+00  0.12475853475E+04  0.12475853475E+04  0.25500000920E-02 0. -1.
        2   -1    0    0  501    0  0.00000000000E+00  0.00000000000E+00 -0.18084001700E+04  0.18084001700E+04  0.25500000920E-02 0.  1.
    10030    2    1    2    0    0  0.00000000000E+00  0.00000000000E+00 -0.56081482245E+03  0.30559855175E+04  0.30040862534E+04 0.  0.
        3    1    3    3  502    0 -0.13089248433E+03 -0.13054705062E+04 -0.10243051844E+04  0.16645080973E+04  0.10100000352E+00 0. -1.
       -3    1    3    3    0  502  0.13089248433E+03  0.13054705062E+04  0.46349036198E+03  0.13914774202E+04  0.10100000352E+00 0.  1.
</event>
<event>
 5   0  0.4702748E-06  0.2922881E+04  0.7818609E-02  0.8266102E-01
        2   -1    0    0  501    0  0.00000000000E+00  0.00000000000E+00  0.19386849955E+04  0.19386849955E+04  0.25500000920E-02 0. -1.
       -2   -1    0    0    0  501  0.00000000000E+00  0.00000000000E+00 -0.11016790633E+04  0.11016790633E+04  0.25500000920E-02 0.  1.
    10030    2    1    2    0    0  0.00000000000E+00  0.00000000000E+00  0.83700593226E+03  0.30403640588E+04  0.29228812291E+04 0.  0.
        2    1    3    3  502    0  0.10278241493E+04  0.44395838465E+03  0.13955588320E+04  0.17891634869E+04  0.25500000920E-02 0. -1.
       -2    1    3    3    0  502 -0.10278241493E+04 -0.44395838465E+03 -0.55855289979E+03  0.12512005719E+04  0.25500000920E-02 0.  1.
</event>
<event>
 5   0  0.4768570E-06  0.2991469E+04  0.7818609E-02  0.8246171E-01
        2   -1    0    0  501    0  0.00000000000E+00  0.00000000000E+00  0.15364026579E+04  0.15364026579E+04  0.25500000920E-02 0. -1.
       -2   -1    0    0    0  501  0.00000000000E+00  0.00000000000E+00 -0.14561427907E+04  0.14561427907E+04  0.25500000920E-02 0.  1.
    10030    2    1    2    0    0  0.00000000000E+00  0.00000000000E+00  0.80259867192E+02  0.29925454486E+04  0.29914689729E+04 0.  0.
        1    1    3    3  502    0 -0.18841112036E+02 -0.36806391966E+03 -0.14100108381E+04  0.14573800466E+04  0.50400001928E-02 0.  1.
       -1    1    3    3    0  502  0.18841112036E+02  0.36806391966E+03  0.14902707053E+04  0.15351654020E+04  0.50400001928E-02 0. -1.
</event>
<event>
 5   0  0.4935331E-06  0.2959467E+04  0.7818609E-02  0.8255401E-01
       -2   -1    0    0    0  501  0.00000000000E+00  0.00000000000E+00  0.24816165761E+04  0.24816165761E+04  0.25500000920E-02 0.  1.
        2   -1    0    0  501    0  0.00000000000E+00  0.00000000000E+00 -0.88233267825E+03  0.88233267825E+03  0.25500000920E-02 0. -1.
    10030    2    1    2    0    0  0.00000000000E+00  0.00000000000E+00  0.15992838978E+04  0.33639492543E+04  0.29594671142E+04 0.  0.
        5    1    3    3  502    0  0.10594213588E+04  0.54711314452E+03 -0.19641327145E+03  0.12084314923E+04  0.46999998093E+01 0. -1.
       -5    1    3    3    0  502 -0.10594213588E+04 -0.54711314452E+03  0.17956971693E+04  0.21555177620E+04  0.46999998093E+01 0.  1.
</event>
<event>
 5   0  0.5003556E-06  0.2998333E+04  0.7818609E-02  0.8244207E-01
       -2   -1    0    0    0  501  0.00000000000E+00  0.00000000000E+00  0.12544227283E+04  0.12544227283E+04  0.25500000920E-02 0. -1.
        2   -1    0    0  501    0  0.00000000000E+00  0.00000000000E+00 -0.17916604795E+04  0.17916604795E+04  0.25500000920E-02 0.  1.
    10030    2    1    2    0    0  0.00000000000E+00  0.00000000000E+00 -0.53723775119E+03  0.30460832078E+04  0.29983326212E+04 0.  0.
        3    1    3    3  502    0 -0.13195622385E+04 -0.13575002565E+02  0.45409702074E+03  0.13955761880E+04  0.10100000352E+00 0. -1.
       -3    1    3    3    0  502  0.13195622385E+04  0.13575002565E+02 -0.99133477192E+03  0.16505070198E+04  0.10100000352E+00 0.  1.
</event>
<event>
 5   0  0.1709858E-06  0.3001231E+04  0.7818609E-02  0.8243379E-01
       -1   -1    0    0    0  501  0.00000000000E+00  0.00000000000E+00  0.93710997050E+03  0.93710997051E+03  0.50400001928E-02 0. -1.
        1   -1    0    0  501    0  0.00000000000E+00  0.00000000000E+00 -0.24029694675E+04  0.24029694675E+04  0.50400001928E-02 0.  1.
    10030    2    1    2    0    0  0.00000000000E+00  0.00000000000E+00 -0.14658594970E+04  0.33400794380E+04  0.30012308454E+04 0.  0.
        3    1    3    3  502    0 -0.87129770213E+03  0.87888897663E+03 -0.16774175433E+04  0.20845467478E+04  0.10100000352E+00 0.  1.
       -3    1    3    3    0  502  0.87129770213E+03 -0.87888897663E+03  0.21155804632E+03  0.12555326902E+04  0.10100000352E+00 0. -1.
</event>
<event>
 5   0  0.1709858E-06  0.2974853E+04  0.7818609E-02  0.8250948E-01
        1   -1    0    0  501    0  0.00000000000E+00  0.00000000000E+00  0.26913527485E+04  0.26913527485E+04  0.50400001928E-02 0. -1.
       -1   -1    0    0    0  501  0.00000000000E+00  0.00000000000E+00 -0.82205400489E+03  0.82205400490E+03  0.50400001928E-02 0.  1.
    10030    2    1    2    0    0  0.00000000000E+00  0.00000000000E+00  0.18692987437E+04  0.35134067534E+04  0.29748528068E+04 0.  0.
        3    1    3    3  502    0  0.51284196789E+03 -0.13950561811E+04  0.86733384248E+03  0.17208883279E+04  0.10100000352E+00 0.  1.
       -3    1    3    3    0  502 -0.51284196789E+03  0.13950561811E+04  0.10019649012E+04  0.17925184256E+04  0.10100000352E+00 0. -1.
</event>
<event>
 5   0  0.1672907E-06  0.3002927E+04  0.7818609E-02  0.8242895E-01
       -1   -1    0    0    0  501  0.00000000000E+00  0.00000000000E+00  0.14109841353E+04  0.14109841353E+04  0.50400001928E-02 0.  1.
        1   -1    0    0  501    0  0.00000000000E+00  0.00000000000E+00 -0.15977452072E+04  0.15977452072E+04  0.50400001928E-02 0. -1.
    10030    2    1    2    0    0  0.00000000000E+00  0.00000000000E+00 -0.18676107188E+03  0.30087293425E+04  0.30029273315E+04 0.  0.
        5    1    3    3  502    0 -0.12371815565E+04 -0.83045074862E+03  0.91650041969E+02  0.14928792549E+04  0.46999998093E+01 0.  1.
       -5    1    3    3    0  502  0.12371815565E+04  0.83045074862E+03 -0.27841111385E+03  0.15158500875E+04  0.46999998093E+01 0. -1.
</event>
<event>
 5   0  0.1709858E-06  0.2938084E+04  0.7818609E-02  0.8261636E-01
       -1   -1    0    0    0  501  0.00000000000E+00  0.00000000000E+00  0.12611270676E+04  0.12611270676E+04  0.50400001928E-02 0.  1.
        1   -1    0    0  501    0  0.00000000000E+00  0.00000000000E+00 -0.17112348936E+04  0.17112348936E+04  0.50400001928E-02 0. -1.
    10030    2    1    2    0    0  0.00000000000E+00  0.00000000000E+00 -0.45010782595E+03  0.29723619612E+04  0.29380841672E+04 0.  0.
        3    1    3    3  502    0  0.43670600367E+03  0.13878225127E+04 -0.19406248157E+02  0.14550395434E+04  0.10100000352E+00 0. -1.
       -3    1    3    3    0  502 -0.43670600367E+03 -0.13878225127E+04 -0.43070157779E+03  0.15173224178E+04  0.10100000352E+00 0.  1.
</event>
<event>
 5   0  0.4702748E-06  0.3011702E+04  0.7818609E-02  0.8240397E-01
        2   -1    0    0  501    0  0.00000000000E+00  0.00000000000E+00  0.24396802857E+04  0.24396802857E+04  0.25500000920E-02 0. -1.
       -2   -1    0    0    0  501  0.00000000000E+00  0.00000000000E+00 -0.92946091879E+03  0.92946091879E+03  0.25500000920E-02 0.  1.
    10030    2    1    2    0    0  0.00000000000E+00  0.00000000000E+00  0.15102193669E+04  0.33691412045E+04  0.30117021632E+04 0.  0.
        2    1    3    3  502    0 -0.77968945384E+03 -0.39077443420E+03 -0.61817029641E+03  0.10689971086E+04  0.25500000920E-02 0.  1.
       -2    1    3    3    0  502  0.77968945384E+03  0.39077443420E+03  0.21283896633E+04  0.23001440959E+04  0.25500000920E-02 0. -1.
</event>
<event>
 5   0  0.5003556E-06  0.3025106E+04  0.7818609E-02  0.8236598E-01
       -2   -1    0    0    0  501  0.00000000000E+00  0.00000000000E+00  0.93159759288E+03  0.93159759289E+03  0.25500000920E-02 0.  1.
        2   -1    0    0  501    0  0.00000000000E+00  0.00000000000E+00 -0.24557997210E+04  0.24557997210E+04  0.25500000920E-02 0. -1.
    10030    2    1    2    0    0  0.00000000000E+00  0.00000000000E+00 -0.15242021281E+04  0.33873973139E+04  0.30251063510E+04 0.  0.
        3    1    3    3  502    0  0.49613896396E+03 -0.29874310947E+03  0.80252891096E+03  0.98967367356E+03  0.10100000352E+00 0.  1.
       -3    1    3    3    0  502 -0.49613896396E+03  0.29874310947E+03 -0.23267310390E+04  0.23977236403E+04  0.10100000352E+00 0. -1.
</event>
<event>
 5   0  0.1709858E-06  0.2993896E+04  0.7818609E-02  0.8245476E-01
       -1   -1    0    0    0  501  0.00000000000E+00  0.00000000000E+00  0.12290644631E+04  0.12290644632E+04  0.50400001928E-02 0. -1.
        1   -1    0    0  501    0  0.00000000000E+00  0.00000000000E+00 -0.18232188805E+04  0.18232188805E+04  0.50400001928E-02 0.  1.
    10030    2    1    2    0    0  0.00000000000E+00  0.00000000000E+00 -0.59415441736E+03  0.30522833437E+04  0.29938961469E+04 0.  0.
        3    1    3    3  502    0 -0.14168784232E+03 -0.86886628264E+03 -0.15314115201E+04  0.17664159521E+04  0.10100000352E+00 0.  1.
       -3    1    3    3    0  502  0.14168784232E+03  0.86886628264E+03  0.93725710275E+03  0.12858673915E+04  0.10100000352E+00 0. -1.
</event>
<event>
 5   0  0.1734885E-06  0.3006019E+04  0.7818609E-02  0.8242014E-01
       -1   -1    0    0    0  501  0.00000000000E+00  0.00000000000E+00  0.13408236178E+04  0.13408236178E+04  0.50400001928E-02 0. -1.
        1   -1    0    0  501    0  0.00000000000E+00  0.00000000000E+00 -0.16848131304E+04  0.16848131304E+04  0.50400001928E-02 0.  1.
    10030    2    1    2    0    0  0.00000000000E+00  0.00000000000E+00 -0.34398951262E+03  0.30256367482E+04  0.30060187869E+04 0.  0.
        2    1    3    3  502    0 -0.50029661394E+03 -0.14170856903E+04 -0.19682723682E+03  0.15156416188E+04  0.25500000920E-02 0. -1.
       -2    1    3    3    0  502  0.50029661394E+03  0.14170856903E+04 -0.14716227580E+03  0.15099951294E+04  0.25500000920E-02 0.  1.
</event>
<event>
 5   0  0.4702748E-06  0.3017434E+04  0.7818609E-02  0.8238770E-01
        2   -1    0    0  501    0  0.00000000000E+00  0.00000000000E+00  0.26178923559E+04  0.26178923559E+04  0.25500000920E-02 0.  1.
       -2   -1    0    0    0  501  0.00000000000E+00  0.00000000000E+00 -0.86948840741E+03  0.86948840741E+03  0.25500000920E-02 0. -1.
    10030    2    1    2    0    0  0.00000000000E+00  0.00000000000E+00  0.17484039485E+04  0.34873807633E+04  0.30174340459E+04 0.  0.
        2    1    3    3  502    0  0.45465592330E+02  0.63596607212E+03  0.24545341006E+04  0.25359924322E+04  0.25500000920E-02 0.  1.
       -2    1    3    3    0  502 -0.45465592330E+02 -0.63596607212E+03 -0.70613015209E+03  0.95138833116E+03  0.25500000920E-02 0. -1.
</event>
<event>
 5   0  0.1686012E-06  0.2997516E+04  0.7818609E-02  0.8244441E-01
       -1   -1    0    0    0  501  0.00000000000E+00  0.00000000000E+00  0.18590252525E+04  0.18590252525E+04  0.50400001928E-02 0.  1.
        1   -1    0    0  501    0  0.00000000000E+00  0.00000000000E+00 -0.12083080650E+04  0.12083080650E+04  0.50400001928E-02 0. -1.
    10030    2    1    2    0    0  0.00000000000E+00  0.00000000000E+00  0.65071718746E+03  0.30673333175E+04  0.29975157752E+04 0.  0.
        4    1    3    3  502    0 -0.10123407013E+04 -0.93669868221E+03 -0.27484847878E+03  0.14063361675E+04  0.12699999809E+01 0. -1.
       -4    1    3    3    0  502  0.10123407013E+04  0.93669868221E+03  0.92556566624E+03  0.16609971500E+04  0.12699999809E+01 0.  1.
</event>
<event>
 5   0  0.4768570E-06  0.3016666E+04  0.7818609E-02  0.8238988E-01
        2   -1    0    0  501    0  0.00000000000E+00  0.00000000000E+00  0.18311811020E+04  0.18311811020E+04  0.25500000920E-02 0.  1.
       -2   -1    0    0    0  501  0.00000000000E+00  0.00000000000E+00 -0.12424046400E+04  0.12424046401E+04  0.25500000920E-02 0. -1.
    10030    2    1    2    0    0  0.00000000000E+00  0.00000000000E+00  0.58877646200E+03  0.30735857421E+04  0.30166656414E+04 0.  0.
        1    1    3    3  502    0 -0.26994125594E+03 -0.21543857238E+03  0.17903516138E+04  0.18233598003E+04  0.50400001928E-02 0.  1.
       -1    1    3    3    0  502  0.26994125594E+03  0.21543857238E+03 -0.12015751518E+04  0.12502259418E+04  0.50400001928E-02 0. -1.
</event>
<event>
 5   0  0.1686012E-06  0.3008021E+04  0.7818609E-02  0.8241444E-01
       -1   -1    0    0    0  501  0.00000000000E+00  0.00000000000E+00  0.20428734151E+04  0.20428734151E+04  0.50400001928E-02 0.  1.
        1   -1    0    0  501    0  0.00000000000E+00  0.00000000000E+00 -0.11072872210E+04  0.11072872210E+04  0.50400001928E-02 0. -1.
    10030    2    1    2    0    0  0.00000000000E+00  0.00000000000E+00  0.93558619408E+03  0.31501606361E+04  0.30080210283E+04 0.  0.
        4    1    3    3  502    0  0.85736835853E+03 -0.49687645606E+03 -0.71707571873E+03  0.12231786109E+04  0.12699999809E+01 0. -1.
       -4    1    3    3    0  502 -0.85736835853E+03  0.49687645606E+03  0.16526619128E+04  0.19269820253E+04  0.12699999809E+01 0.  1.
</event>
<event>
 5   0  0.1709858E-06  0.2973460E+04  0.7818609E-02  0.8251350E-01
        1   -1    0    0  501    0  0.00000000000E+00  0.00000000000E+00  0.12059348765E+04  0.12059348765E+04  0.50400001928E-02 0.  1.
       -1   -1    0    0    0  501  0.00000000000E+00  0.00000000000E+00 -0.18329066180E+04  0.18329066180E+04  0.50400001928E-02 0. -1.
    10030    2    1    2    0    0  0.00000000000E+00  0.00000000000E+00 -0.62697174150E+03  0.30388414945E+04  0.29734599483E+04 0.  0.
        3    1    3    3  502    0  0.84996855349E+02 -0.45828409695E+02 -0.18296982930E+04  0.18322446785E+04  0.10100000352E+00 0. -1.
       -3    1    3    3    0  502 -0.84996855349E+02  0.45828409695E+02  0.12027265515E+04  0.12065968160E+04  0.10100000352E+00 0.  1.
</event>
<event>
 5   0  0.1734885E-06  0.3011275E+04  0.7818609E-02  0.8240518E-01
        1   -1    0    0  501    0  0.00000000000E+00  0.00000000000E+00  0.18283384715E+04  0.18283384715E+04  0.50400001928E-02 0. -1.
       -1   -1    0    0    0  501  0.00000000000E+00  0.00000000000E+00 -0.12398933103E+04  0.12398933103E+04  0.50400001928E-02 0.  1.
    10030    2    1    2    0    0  0.00000000000E+00  0.00000000000E+00  0.58844516118E+03  0.30682317818E+04  0.30112752381E+04 0.  0.
        2    1    3    3  502    0 -0.12034069285E+04 -0.82245692794E+03  0.67861269814E+03  0.16078366919E+04  0.25500000920E-02 0. -1.
       -2    1    3    3    0  502  0.12034069285E+04  0.82245692794E+03 -0.90167536957E+02  0.14603950899E+04  0.25500000920E-02 0.  1.
</event>
<event>
 5   0  0.4768570E-06  0.2656128E+04  0.7818609E-02  0.8349382E-01
        2   -1    0    0  501    0  0.00000000000E+00  0.00000000000E+00  0.13509544834E+04  0.13509544834E+04  0.25500000920E-02 0.  1.
       -2   -1    0    0    0  501  0.00000000000E+00  0.00000000000E+00 -0.13055610175E+04  0.13055610175E+04  0.25500000920E-02 0. -1.
    10030    2    1    2    0    0  0.00000000000E+00  0.00000000000E+00  0.45393465872E+02  0.26565155009E+04  0.26561276400E+04 0.  0.
        1    1    3    3  502    0 -0.88331664831E+02  0.40641834255E+03  0.12841402622E+04  0.13498127889E+04  0.50400001928E-02 0.  1.
       -1    1    3    3    0  502  0.88331664831E+02 -0.40641834255E+03 -0.12387467963E+04  0.13067027120E+04  0.50400001928E-02 0. -1.
</event>
<event>
 5   0  0.4935331E-06  0.3018591E+04  0.7818609E-02  0.8238442E-01
       -2   -1    0    0    0  501  0.00000000000E+00  0.00000000000E+00  0.12580824717E+04  0.12580824717E+04  0.25500000920E-02 0.  1.
        2   -1    0    0  501    0  0.00000000000E+00  0.00000000000E+00 -0.18106701419E+04  0.18106701419E+04  0.25500000920E-02 0. -1.
    10030    2    1    2    0    0  0.00000000000E+00  0.00000000000E+00 -0.55258767013E+03  0.30687526136E+04  0.30185906431E+04 0.  0.
        5    1    3    3  502    0  0.87671966439E+03  0.63949962904E+03  0.79011491492E+03  0.13423489912E+04  0.46999998093E+01 0.  1.
       -5    1    3    3    0  502 -0.87671966439E+03 -0.63949962904E+03 -0.13427025851E+04  0.17264036224E+04  0.46999998093E+01 0. -1.
</event>
<event>
 5   0  0.1672907E-06  0.2980004E+04  0.7818609E-02  0.8249464E-01
       -1   -1    0    0    0  501  0.00000000000E+00  0.00000000000E+00  0.17689290509E+04  0.17689290509E+04  0.50400001928E-02 0. -1.
        1   -1    0    0  501    0  0.00000000000E+00  0.00000000000E+00 -0.12550564190E+04  0.12550564190E+04  0.50400001928E-02 0.  1.
    10030    2    1    2    0    0  0.00000000000E+00  0.00000000000E+00  0.51387263194E+03  0.30239854699E+04  0.29800038658E+04 0.  0.
        5    1    3    3  502    0  0.34006592146E+03 -0.13423149224E+04 -0.30130052477E+03  0.14171302968E+04  0.46999998093E+01 0. -1.
       -5    1    3    3    0  502 -0.34006592146E+03  0.13423149224E+04  0.81517315671E+03  0.16068551731E+04  0.46999998093E+01 0.  1.
</event>
<event>
 5   0  0.4532420E-06  0.3003834E+04  0.7818609E-02  0.8242637E-01
       -2   -1    0    0    0  501  0.00000000000E+00  0.00000000000E+00  0.11178623372E+04  0.11178623372E+04  0.25500000920E-02 0.  1.
        2   -1    0    0  501    0  0.00000000000E+00  0.00000000000E+00 -0.20179182694E+04  0.20179182694E+04  0.25500000920E-02 0. -1.
    10030    2    1    2    0    0  0.00000000000E+00  0.00000000000E+00 -0.90005593221E+03  0.31357806065E+04  0.30038341051E+04 0.  0.
        4    1    3    3  502    0  0.50142428584E+03 -0.49863351209E+03 -0.18332561600E+04  0.19649151267E+04  0.12699999809E+01 0. -1.
       -4    1    3    3    0  502 -0.50142428584E+03  0.49863351209E+03  0.93320022783E+03  0.11708654799E+04  0.12699999809E+01 0.  1.
</event>
<event>
 5   0  0.1700885E-06  0.2948001E+04  0.7818609E-02  0.8258737E-01
        1   -1    0    0  501    0  0.00000000000E+00  0.00000000000E+00  0.12351253920E+04  0.12351253920E+04  0.50400001928E-02 0.  1.
       -1   -1    0    0    0  501  0.00000000000E+00  0.00000000000E+00 -0.17590742264E+04  0.17590742264E+04  0.50400001928E-02 0. -1.
    10030    2    1    2    0    0  0.00000000000E+00  0.00000000000E+00 -0.52394883437E+03  0.29941996184E+04  0.29480008436E+04 0.  0.
        1    1    3    3  502    0  0.50541827486E+03  0.84650544964E+03  0.85094272279E+03  0.13023527273E+04  0.50400001928E-02 0.  1.
       -1    1    3    3    0  502 -0.50541827486E+03 -0.84650544964E+03 -0.13748915572E+04  0.16918468911E+04  0.50400001928E-02 0. -1.
</event>
<event>
 5   0  0.1672907E-06  0.2990633E+04  0.7818609E-02  0.8246411E-01
       -1   -1    0    0    0  501  0.00000000000E+00  0.00000000000E+00  0.10020287563E+04  0.10020287564E+04  0.50400001928E-02 0.  1.
        1   -1    0    0  501    0  0.00000000000E+00  0.00000000000E+00 -0.22314443516E+04  0.22314443516E+04  0.50400001928E-02 0. -1.
    10030    2    1    2    0    0  0.00000000000E+00  0.00000000000E+00 -0.12294155952E+04  0.32334731079E+04  0.29906329822E+04 0.  0.
        5    1    3    3  502    0 -0.43551470768E+03 -0.83551986595E+03  0.64068758705E+03  0.11394161580E+04  0.46999998093E+01 0.  1.
       -5    1    3    3    0  502  0.43551470768E+03  0.83551986595E+03 -0.18701031823E+04  0.20940569499E+04  0.46999998093E+01 0. -1.
</event>
<event>
 5   0  0.1734885E-06  0.3093984E+04  0.7818609E-02  0.8217391E-01
        1   -1    0    0  501    0  0.00000000000E+00  0.00000000000E+00  0.23167115578E+04  0.23167115578E+04  0.50400001928E-02 0.  1.
       -1   -1    0    0    0  501  0.00000000000E+00  0.00000000000E+00 -0.10330093806E+04  0.10330093806E+04  0.50400001928E-02 0. -1.
    10030    2    1    2    0    0  0.00000000000E+00  0.00000000000E+00  0.12837021772E+04  0.33497209384E+04  0.30939843382E+04 0.  0.
        2    1    3    3  502    0 -0.83862335900E+01 -0.35457481412E+03 -0.98839715111E+03  0.10501059737E+04  0.25500000920E-02 0. -1.
       -2    1    3    3    0  502  0.83862335900E+01  0.35457481412E+03  0.22720993283E+04  0.22996149646E+04  0.25500000920E-02 0.  1.
</event>
<event>
 5   0  0.1734885E-06  0.3003142E+04  0.7818609E-02  0.8242834E-01
       -1   -1    0    0    0  501  0.00000000000E+00  0.00000000000E+00  0.10821141513E+04  0.10821141513E+04  0.50400001928E-02 0.  1.
        1   -1    0    0  501    0  0.00000000000E+00  0.00000000000E+00 -0.20836208109E+04  0.20836208109E+04  0.50400001928E-02 0. -1.
    10030    2    1    2    0    0  0.00000000000E+00  0.00000000000E+00 -0.10015066596E+04  0.31657349622E+04  0.30031420649E+04 0.  0.
        2    1    3    3  502    0  0.54196791256E+03  0.71858243898E+03  0.76624584668E+03  0.11820417241E+04  0.25500000920E-02 0.  1.
       -2    1    3    3    0  502 -0.54196791256E+03 -0.71858243898E+03 -0.17677525063E+04  0.19836932382E+04  0.25500000920E-02 0. -1.
</event>
<event>
 5   0  0.1545375E-06  0.3001254E+04  0.7818609E-02  0.8243373E-01
        3   -1    0    0  501    0  0.00000000000E+00  0.00000000000E+00  0.18283718311E+04  0.18283718339E+04  0.10100000352E+00 0.  1.
       -3   -1    0    0    0  501  0.00000000000E+00  0.00000000000E+00 -0.12316317261E+04  0.12316317302E+04  0.10100000352E+00 0. -1.
    10030    2    1    2    0    0  0.00000000000E+00  0.00000000000E+00  0.59674010500E+03  0.30600035641E+04  0.30012535813E+04 0.  0.
        2    1    3    3  502    0 -0.69823775318E+03  0.13278933751E+04  0.26542674165E+03  0.15235774121E+04  0.25500000920E-02 0.  1.
       -2    1    3    3    0  502  0.69823775318E+03 -0.13278933751E+04  0.33131336334E+03  0.15364261519E+04  0.25500000920E-02 0. -1.
</event>
<event>
 5   0  0.1672907E-06  0.3066802E+04  0.7818609E-02  0.8224908E-01
       -1   -1    0    0    0  501  0.00000000000E+00  0.00000000000E+00  0.11782474860E+04  0.11782474860E+04  0.50400001928E-02 0. -1.
        1   -1    0    0  501    0  0.00000000000E+00  0.00000000000E+00 -0.19956070138E+04  0.19956070138E+04  0.50400001928E-02 0.  1.
    10030    2    1    2    0    0  0.00000000000E+00  0.00000000000E+00 -0.81735952788E+03  0.31738544998E+04  0.30668022089E+04 0.  0.
        5    1    3    3  502    0 -0.12222316115E+04  0.61535899605E+03  0.30741297370E+03  0.14025126140E+04  0.46999998093E+01 0. -1.
       -5    1    3    3    0  502  0.12222316115E+04 -0.61535899605E+03 -0.11247725016E+04  0.17713418858E+04  0.46999998093E+01 0.  1.
</event>
<event>
 5   0  0.1734885E-06  0.2904960E+04  0.7818609E-02  0.8271403E-01
       -1   -1    0    0    0  501  0.00000000000E+00  0.00000000000E+00  0.92588277416E+03  0.92588277417E+03  0.50400001928E-02 0. -1.
        1   -1    0    0  501    0  0.00000000000E+00  0.00000000000E+00 -0.22785805860E+04  0.22785805860E+04  0.50400001928E-02 0.  1.
    10030    2    1    2    0    0  0.00000000000E+00  0.00000000000E+00 -0.13526978118E+04  0.32044633602E+04  0.29049602504E+04 0.  0.
        2    1    3    3  502    0  0.13559654329E+03 -0.14234460952E+04 -0.95783049102E+03  0.17210532990E+04  0.25500000920E-02 0.  1.
       -2    1    3    3    0  502 -0.13559654329E+03  0.14234460952E+04 -0.39486732081E+03  0.14834100612E+04  0.25500000920E-02 0. -1.
</event>
<event>
 5   0  0.1734885E-06  0.2660210E+04  0.7818609E-02  0.8348032E-01
        1   -1    0    0  501    0  0.00000000000E+00  0.00000000000E+00  0.10469744179E+04  0.10469744179E+04  0.50400001928E-02 0.  1.
       -1   -1    0    0    0  501  0.00000000000E+00  0.00000000000E+00 -0.16898022860E+04  0.16898022860E+04  0.50400001928E-02 0. -1.
    10030    2    1    2    0    0  0.00000000000E+00  0.00000000000E+00 -0.64282786809E+03  0.27367767039E+04  0.26602103412E+04 0.  0.
        2    1    3    3  502    0  0.96269124383E+03 -0.62651944876E+02  0.62062696556E+03  0.11471170505E+04  0.25500000920E-02 0.  1.
       -2    1    3    3    0  502 -0.96269124383E+03  0.62651944876E+02 -0.12634548336E+04  0.15896596535E+04  0.25500000920E-02 0. -1.
</event>
<event>
 5   0  0.1734885E-06  0.2999355E+04  0.7818609E-02  0.8243915E-01
       -1   -1    0    0    0  501  0.00000000000E+00  0.00000000000E+00  0.14996622151E+04  0.14996622151E+04  0.50400001928E-02 0. -1.
        1   -1    0    0  501    0  0.00000000000E+00  0.00000000000E+00 -0.14996931544E+04  0.14996931544E+04  0.50400001928E-02 0.  1.
    10030    2    1    2    0    0  0.00000000000E+00  0.00000000000E+00 -0.30939263728E-01  0.29993553695E+04  0.29993553694E+04 0.  0.
        2    1    3    3  502    0  0.93981919070E+03 -0.81324575541E+03 -0.83930349417E+03  0.14996863423E+04  0.25500000920E-02 0.  1.
       -2    1    3    3    0  502 -0.93981919070E+03  0.81324575541E+03  0.83927255490E+03  0.14996690273E+04  0.25500000920E-02 0. -1.
</event>
<event>
 5   0  0.4768570E-06  0.2801623E+04  0.7818609E-02  0.8302765E-01
        2   -1    0    0  501    0  0.00000000000E+00  0.00000000000E+00  0.18946969942E+04  0.18946969942E+04  0.25500000920E-02 0. -1.
       -2   -1    0    0    0  501  0.00000000000E+00  0.00000000000E+00 -0.10356656947E+04  0.10356656947E+04  0.25500000920E-02 0.  1.
    10030    2    1    2    0    0  0.00000000000E+00  0.00000000000E+00  0.85903129951E+03  0.29303626888E+04  0.28016228716E+04 0.  0.
        1    1    3    3  502    0 -0.11868071138E+04  0.18443444296E+03 -0.32454636880E+03  0.12441292275E+04  0.50400001928E-02 0. -1.
       -1    1    3    3    0  502  0.11868071138E+04 -0.18443444296E+03  0.11835776683E+04  0.16862334613E+04  0.50400001928E-02 0.  1.
</event>
<event>
 5   0  0.1672907E-06  0.2955033E+04  0.7818609E-02  0.8256689E-01
        1   -1    0    0  501    0  0.00000000000E+00  0.00000000000E+00  0.22518339169E+04  0.22518339169E+04  0.50400001928E-02 0.  1.
       -1   -1    0    0    0  501  0.00000000000E+00  0.00000000000E+00 -0.96945644517E+03  0.96945644518E+03  0.50400001928E-02 0. -1.
    10030    2    1    2    0    0  0.00000000000E+00  0.00000000000E+00  0.12823774717E+04  0.32212903621E+04  0.29550329299E+04 0.  0.
        5    1    3    3  502    0  0.14597818731E+04  0.22625365447E+03  0.60886978035E+03  0.15977791877E+04  0.46999998093E+01 0. -1.
       -5    1    3    3    0  502 -0.14597818731E+04 -0.22625365447E+03  0.67350769139E+03  0.16235111744E+04  0.46999998093E+01 0.  1.
</event>
<event>
 5   0  0.1734885E-06  0.2986159E+04  0.7818609E-02  0.8247694E-01
       -1   -1    0    0    0  501  0.00000000000E+00  0.00000000000E+00  0.11179982215E+04  0.11179982215E+04  0.50400001928E-02 0. -1.
        1   -1    0    0  501    0  0.00000000000E+00  0.00000000000E+00 -0.19939975707E+04  0.19939975708E+04  0.50400001928E-02 0.  1.
    10030    2    1    2    0    0  0.00000000000E+00  0.00000000000E+00 -0.87599934927E+03  0.31119957922E+04  0.29861585609E+04 0.  0.
        2    1    3    3  502    0 -0.10551049405E+04  0.27279735515E+03 -0.15016061690E+04  0.18553937370E+04  0.25500000920E-02 0.  1.
       -2    1    3    3    0  502  0.10551049405E+04 -0.27279735515E+03  0.62560681970E+03  0.12566020553E+04  0.25500000920E-02 0. -1.
</event>
<event>
 5   0  0.1700885E-06  0.2971158E+04  0.7818609E-02  0.8252015E-01
       -1   -1    0    0    0  501  0.00000000000E+00  0.00000000000E+00  0.15187029118E+04  0.15187029118E+04  0.50400001928E-02 0. -1.
        1   -1    0    0  501    0  0.00000000000E+00  0.00000000000E+00 -0.14531772491E+04  0.14531772492E+04  0.50400001928E-02 0.  1.
    10030    2    1    2    0    0  0.00000000000E+00  0.00000000000E+00  0.65525662603E+02  0.29718801609E+04  0.29711577000E+04 0.  0.
        1    1    3    3  502    0 -0.32181960519E+03  0.32796509808E+03  0.14458397121E+04  0.15170963835E+04  0.50400001928E-02 0. -1.
       -1    1    3    3    0  502  0.32181960519E+03 -0.32796509808E+03 -0.13803140495E+04  0.14547837774E+04  0.50400001928E-02 0.  1.
</event>
<event>
 5   0  0.4935331E-06  0.2998630E+04  0.7818609E-02  0.8244122E-01
        2   -1    0    0  501    0  0.00000000000E+00  0.00000000000E+00  0.16321922392E+04  0.16321922392E+04  0.25500000920E-02 0.  1.
       -2   -1    0    0    0  501  0.00000000000E+00  0.00000000000E+00 -0.13772549329E+04  0.13772549329E+04  0.25500000920E-02 0. -1.
    10030    2    1    2    0    0  0.00000000000E+00  0.00000000000E+00  0.25493730630E+03  0.30094471721E+04  0.29986295623E+04 0.  0.
        5    1    3    3  502    0  0.42229940228E+03 -0.39249589841E+03 -0.12615520361E+04  0.13870563958E+04  0.46999998093E+01 0. -1.
       -5    1    3    3    0  502 -0.42229940228E+03  0.39249589841E+03  0.15164893424E+04  0.16223907763E+04  0.46999998093E+01 0.  1.
</event>
<event>
 5   0  0.4935331E-06  0.2987202E+04  0.7818609E-02  0.8247395E-01
       -2   -1    0    0    0  501  0.00000000000E+00  0.00000000000E+00  0.84314881502E+03  0.84314881502E+03  0.25500000920E-02 0. -1.
        2   -1    0    0  501    0  0.00000000000E+00  0.00000000000E+00 -0.26458479679E+04  0.26458479679E+04  0.25500000920E-02 0.  1.
    10030    2    1    2    0    0  0.00000000000E+00  0.00000000000E+00 -0.18026991529E+04  0.34889967829E+04  0.29872017534E+04 0.  0.
        5    1    3    3  502    0  0.92498160776E+03  0.97271117339E+03 -0.13628729251E+03  0.13492050688E+04  0.46999998093E+01 0. -1.
       -5    1    3    3    0  502 -0.92498160776E+03 -0.97271117339E+03 -0.16664118603E+04  0.21397917141E+04  0.46999998093E+01 0.  1.
</event>
<event>
 5   0  0.4532420E-06  0.3037183E+04  0.7818609E-02  0.8233192E-01
        2   -1    0    0  501    0  0.00000000000E+00  0.00000000000E+00  0.22030972184E+04  0.22030972184E+04  0.25500000920E-02 0. -1.
       -2   -1    0    0    0  501  0.00000000000E+00  0.00000000000E+00 -0.10467630881E+04  0.10467630881E+04  0.25500000920E-02 0.  1.
    10030    2    1    2    0    0  0.00000000000E+00  0.00000000000E+00  0.11563341303E+04  0.32498603065E+04  0.30371834635E+04 0.  0.
        4    1    3    3  502    0 -0.12366564100E+04 -0.72106930170E+03  0.35865014118E+02  0.14319734378E+04  0.12699999809E+01 0. -1.
       -4    1    3    3    0  502  0.12366564100E+04  0.72106930170E+03  0.11204691162E+04  0.18178868688E+04  0.12699999809E+01 0.  1.
</event>
<event>
 5   0  0.1672907E-06  0.2965181E+04  0.7818609E-02  0.8253744E-01
       -1   -1    0    0    0  501  0.00000000000E+00  0.00000000000E+00  0.11421640648E+04  0.11421640648E+04  0.50400001928E-02 0.  1.
        1   -1    0    0  501    0  0.00000000000E+00  0.00000000000E+00 -0.19244824318E+04  0.19244824319E+04  0.50400001928E-02 0. -1.
    10030    2    1    2    0    0  0.00000000000E+00  0.00000000000E+00 -0.78231836704E+03  0.30666464967E+04  0.29651810582E+04 0.  0.
        5    1    3    3  502    0 -0.16764389907E+03 -0.13101903901E+04 -0.10875113814E+04  0.17109665192E+04  0.46999998093E+01 0. -1.
       -5    1    3    3    0  502  0.16764389907E+03  0.13101903901E+04  0.30519301435E+03  0.13556799775E+04  0.46999998093E+01 0.  1.
</event>
<event>
 5   0  0.4702748E-06  0.2959399E+04  0.7818609E-02  0.8255421E-01
        2   -1    0    0  501    0  0.00000000000E+00  0.00000000000E+00  0.12417454817E+04  0.12417454817E+04  0.25500000920E-02 0.  1.
       -2   -1    0    0    0  501  0.00000000000E+00  0.00000000000E+00 -0.17632521710E+04  0.17632521710E+04  0.25500000920E-02 0. -1.
    10030    2    1    2    0    0  0.00000000000E+00  0.00000000000E+00 -0.52150668925E+03  0.30049976527E+04  0.29593988690E+04 0.  0.
        2    1    3    3  502    0 -0.31693218410E+03  0.13141955078E+04 -0.87164988899E+03  0.16085177559E+04  0.25500000920E-02 0. -1.
       -2    1    3    3    0  502  0.31693218410E+03 -0.13141955078E+04  0.35014319974E+03  0.13964798968E+04  0.25500000920E-02 0.  1.
</event>
<event>
 5   0  0.1734885E-06  0.2990755E+04  0.7818609E-02  0.8246376E-01
        1   -1    0    0  501    0  0.00000000000E+00  0.00000000000E+00  0.19983672131E+04  0.19983672131E+04  0.50400001928E-02 0.  1.
       -1   -1    0    0    0  501  0.00000000000E+00  0.00000000000E+00 -0.11189905530E+04  0.11189905530E+04  0.50400001928E-02 0. -1.
    10030    2    1    2    0    0  0.00000000000E+00  0.00000000000E+00  0.87937666003E+03  0.31173577661E+04  0.29907551106E+04 0.  0.
        2    1    3    3  502    0  0.54521946473E+03 -0.11094918825E+04 -0.43730669028E+03  0.13112870180E+04  0.25500000920E-02 0. -1.
       -2    1    3    3    0  502 -0.54521946473E+03  0.11094918825E+04  0.13166833503E+04  0.18060707481E+04  0.25500000920E-02 0.  1.
</event>
<event>
 5   0  0.4702748E-06  0.3006272E+04  0.7818609E-02  0.8241942E-01
       -2   -1    0    0    0  501  0.00000000000E+00  0.00000000000E+00  0.10927125886E+04  0.10927125886E+04  0.25500000920E-02 0. -1.
        2   -1    0    0  501    0  0.00000000000E+00  0.00000000000E+00 -0.20677152630E+04  0.20677152630E+04  0.25500000920E-02 0.  1.
    10030    2    1    2    0    0  0.00000000000E+00  0.00000000000E+00 -0.97500267440E+03  0.31604278515E+04  0.30062724410E+04 0.  0.
        2    1    3    3  502    0  0.23618849935E+03 -0.11927948931E+04  0.44148211871E+03  0.12936193897E+04  0.25500000920E-02 0. -1.
       -2    1    3    3    0  502 -0.23618849935E+03  0.11927948931E+04 -0.14164847931E+04  0.18668084619E+04  0.25500000920E-02 0.  1.
</event>
<event>
 5   0  0.1672907E-06  0.3027342E+04  0.7818609E-02  0.8235966E-01
        1   -1    0    0  501    0  0.00000000000E+00  0.00000000000E+00  0.17767140936E+04  0.17767140936E+04  0.50400001928E-02 0.  1.
       -1   -1    0    0    0  501  0.00000000000E+00  0.00000000000E+00 -0.12895713768E+04  0.12895713768E+04  0.50400001928E-02 0. -1.
    10030    2    1    2    0    0  0.00000000000E+00  0.00000000000E+00  0.48714271678E+03  0.30662854705E+04  0.30273418307E+04 0.  0.
        5    1    3    3  502    0  0.22969402224E+03  0.45913616876E+03 -0.11986886768E+04  0.13040099690E+04  0.46999998093E+01 0. -1.
       -5    1    3    3    0  502 -0.22969402224E+03 -0.45913616876E+03  0.16858313936E+04  0.17622755015E+04  0.46999998093E+01 0.  1.
</event>
<event>
 5   0  0.4532420E-06  0.3001608E+04  0.7818609E-02  0.8243272E-01
       -2   -1    0    0    0  501  0.00000000000E+00  0.00000000000E+00  0.14632145888E+04  0.14632145888E+04  0.25500000920E-02 0. -1.
        2   -1    0    0  501    0  0.00000000000E+00  0.00000000000E+00 -0.15393594657E+04  0.15393594657E+04  0.25500000920E-02 0.  1.
    10030    2    1    2    0    0  0.00000000000E+00  0.00000000000E+00 -0.76144876866E+02  0.30025740545E+04  0.30016083873E+04 0.  0.
        4    1    3    3  502    0  0.53292674763E+03 -0.63334309785E+03  0.12142397500E+04  0.14695285575E+04  0.12699999809E+01 0. -1.
       -4    1    3    3    0  502 -0.53292674763E+03  0.63334309785E+03 -0.12903846268E+04  0.15330454970E+04  0.12699999809E+01 0.  1.
</event>
<event>
 5   0  0.1700885E-06  0.3003340E+04  0.7818609E-02  0.8242778E-01
        1   -1    0    0  501    0  0.00000000000E+00  0.00000000000E+00  0.21324080983E+04  0.21324080983E+04  0.50400001928E-02 0. -1.
       -1   -1    0    0    0  501  0.00000000000E+00  0.00000000000E+00 -0.10574959315E+04  0.10574959315E+04  0.50400001928E-02 0.  1.
    10030    2    1    2    0    0  0.00000000000E+00  0.00000000000E+00  0.10749121667E+04  0.31899040298E+04  0.30033400662E+04 0.  0.
        1    1    3    3  502    0 -0.13723413677E+04  0.59187635249E+03  0.69273786365E+03  0.16472778132E+04  0.50400001928E-02 0. -1.
       -1    1    3    3    0  502  0.13723413677E+04 -0.59187635249E+03  0.38217430310E+03  0.15426262166E+04  0.50400001928E-02 0.  1.
</event>
<event>
 5   0  0.1672907E-06  0.3001873E+04  0.7818609E-02  0.8243196E-01
        1   -1    0    0  501    0  0.00000000000E+00  0.00000000000E+00  0.18443455107E+04  0.18443455107E+04  0.50400001928E-02 0. -1.
       -1   -1    0    0    0  501  0.00000000000E+00  0.00000000000E+00 -0.12214688098E+04  0.12214688098E+04  0.50400001928E-02 0.  1.
    10030    2    1    2    0    0  0.00000000000E+00  0.00000000000E+00  0.62287670089E+03  0.30658143205E+04  0.30018730924E+04 0.  0.
        5    1    3    3  502    0  0.13640135648E+04 -0.62167673715E+03  0.23383661705E+03  0.15171409374E+04  0.46999998093E+01 0. -1.
       -5    1    3    3    0  502 -0.13640135648E+04  0.62167673715E+03  0.38904008384E+03  0.15486733830E+04  0.46999998093E+01 0.  1.
</event>
<event>
 5   0  0.1700885E-06  0.3015436E+04  0.7818609E-02  0.8239337E-01
        1   -1    0    0  501    0  0.00000000000E+00  0.00000000000E+00  0.23589917113E+04  0.23589917113E+04  0.50400001928E-02 0.  1.
       -1   -1    0    0    0  501  0.00000000000E+00  0.00000000000E+00 -0.96363797833E+03  0.96363797835E+03  0.50400001928E-02 0. -1.
    10030    2    1    2    0    0  0.00000000000E+00  0.00000000000E+00  0.13953537330E+04  0.33226296896E+04  0.30154362892E+04 0.  0.
        1    1    3    3  502    0 -0.12136182281E+04  0.83089291794E+03  0.33229026054E+03  0.15078690467E+04  0.50400001928E-02 0. -1.
       -1    1    3    3    0  502  0.12136182281E+04 -0.83089291794E+03  0.10630634724E+04  0.18147606429E+04  0.50400001928E-02 0.  1.
</event>
<event>
 5   0  0.4702748E-06  0.2987827E+04  0.7818609E-02  0.8247215E-01
        2   -1    0    0  501    0  0.00000000000E+00  0.00000000000E+00  0.20381520190E+04  0.20381520190E+04  0.25500000920E-02 0. -1.
       -2   -1    0    0    0  501  0.00000000000E+00  0.00000000000E+00 -0.10950005908E+04  0.10950005908E+04  0.25500000920E-02 0.  1.
    10030    2    1    2    0    0  0.00000000000E+00  0.00000000000E+00  0.94315142821E+03  0.31331526098E+04  0.29878270800E+04 0.  0.
        2    1    3    3  502    0 -0.10570032711E+04  0.10266951092E+04  0.72933392361E+03  0.16441674898E+04  0.25500000920E-02 0. -1.
       -2    1    3    3    0  502  0.10570032711E+04 -0.10266951092E+04  0.21381750459E+03  0.14889851200E+04  0.25500000920E-02 0.  1.
</event>
<event>
 5   0  0.5003556E-06  0.2945007E+04  0.7818609E-02  0.8259611E-01
       -2   -1    0    0    0  501  0.00000000000E+00  0.00000000000E+00  0.99875891974E+03  0.99875891974E+03  0.25500000920E-02 0. -1.
        2   -1    0    0  501    0  0.00000000000E+00  0.00000000000E+00 -0.21709607696E+04  0.21709607696E+04  0.25500000920E-02 0.  1.
    10030    2    1    2    0    0  0.00000000000E+00  0.00000000000E+00 -0.11722018499E+04  0.31697196894E+04  0.29450069155E+04 0.  0.
        3    1    3    3  502    0  0.79376408737E+03 -0.18012401533E+03 -0.19068261268E+04  0.20732804864E+04  0.10100000352E+00 0.  1.
       -3    1    3    3    0  502 -0.79376408737E+03  0.18012401533E+03  0.73462427693E+03  0.10964392029E+04  0.10100000352E+00 0. -1.
</event>
<event>
 5   0  0.1672907E-06  0.2969899E+04  0.7818609E-02  0.8252379E-01
       -1   -1    0    0    0  501  0.00000000000E+00  0.00000000000E+00  0.15549338810E+04  0.15549338810E+04  0.50400001928E-02 0.  1.
        1   -1    0    0  501    0  0.00000000000E+00  0.00000000000E+00 -0.14181151310E+04  0.14181151311E+04  0.50400001928E-02 0. -1.
    10030    2    1    2    0    0  0.00000000000E+00  0.00000000000E+00  0.13681874996E+03  0.29730490121E+04  0.29698991663E+04 0.  0.
        5    1    3    3  502    0  0.94550296081E+03  0.45045954873E+02 -0.10769405223E+04  0.14338158757E+04  0.46999998093E+01 0. -1.
       -5    1    3    3    0  502 -0.94550296081E+03 -0.45045954873E+02  0.12137592723E+04  0.15392331363E+04  0.46999998093E+01 0.  1.
</event>
<event>
 5   0  0.4935331E-06  0.3004061E+04  0.7818609E-02  0.8242572E-01
       -2   -1    0    0    0  501  0.00000000000E+00  0.00000000000E+00  0.16856444790E+04  0.16856444790E+04  0.25500000920E-02 0. -1.
        2   -1    0    0  501    0  0.00000000000E+00  0.00000000000E+00 -0.13384171711E+04  0.13384171711E+04  0.25500000920E-02 0.  1.
    10030    2    1    2    0    0  0.00000000000E+00  0.00000000000E+00  0.34722730794E+03  0.30240616500E+04  0.30040609281E+04 0.  0.
        5    1    3    3  502    0  0.15006538076E+04 -0.63777699782E+02  0.18028953891E+03  0.15127973602E+04  0.46999998093E+01 0.  1.
       -5    1    3    3    0  502 -0.15006538076E+04  0.63777699782E+02  0.16693776903E+03  0.15112642899E+04  0.46999998093E+01 0. -1.
</event>
<event>
 5   0  0.4935331E-06  0.3006318E+04  0.7818609E-02  0.8241929E-01
       -2   -1    0    0    0  501  0.00000000000E+00  0.00000000000E+00  0.12684069648E+04  0.12684069648E+04  0.25500000920E-02 0. -1.
        2   -1    0    0  501    0  0.00000000000E+00  0.00000000000E+00 -0.17813576096E+04  0.17813576096E+04  0.25500000920E-02 0.  1.
    10030    2    1    2    0    0  0.00000000000E+00  0.00000000000E+00 -0.51295064481E+03  0.30497645744E+04  0.30063176139E+04 0.  0.
        5    1    3    3  502    0 -0.93721819531E+03  0.10484268307E+04 -0.79507910222E+03  0.16154719539E+04  0.46999998093E+01 0.  1.
       -5    1    3    3    0  502  0.93721819531E+03 -0.10484268307E+04  0.28212845741E+03  0.14342926206E+04  0.46999998093E+01 0. -1.
</event>
<event>
 5   0  0.4935331E-06  0.2976656E+04  0.7818609E-02  0.8250428E-01
        2   -1    0    0  501    0  0.00000000000E+00  0.00000000000E+00  0.19647035147E+04  0.19647035147E+04  0.25500000920E-02 0.  1.
       -2   -1    0    0    0  501  0.00000000000E+00  0.00000000000E+00 -0.11274580273E+04  0.11274580273E+04  0.25500000920E-02 0. -1.
    10030    2    1    2    0    0  0.00000000000E+00  0.00000000000E+00  0.83724548744E+03  0.30921615420E+04  0.29766563449E+04 0.  0.
        5    1    3    3  502    0 -0.11535430987E+04 -0.17799898517E+03 -0.54065681597E+03  0.12863425679E+04  0.46999998093E+01 0. -1.
       -5    1    3    3    0  502  0.11535430987E+04  0.17799898517E+03  0.13779023034E+04  0.18058189741E+04  0.46999998093E+01 0.  1.
</event>
<event>
 5   0  0.1700885E-06  0.3010296E+04  0.7818609E-02  0.8240797E-01
       -1   -1    0    0    0  501  0.00000000000E+00  0.00000000000E+00  0.11347021617E+04  0.11347021617E+04  0.50400001928E-02 0. -1.
        1   -1    0    0  501    0  0.00000000000E+00  0.00000000000E+00 -0.19965337889E+04  0.19965337889E+04  0.50400001928E-02 0.  1.
    10030    2    1    2    0    0  0.00000000000E+00  0.00000000000E+00 -0.86183162727E+03  0.31312359506E+04  0.30102964679E+04 0.  0.
        1    1    3    3  502    0 -0.60419732918E+03 -0.47319133047E+03 -0.17777346441E+04  0.19363121940E+04  0.50400001928E-02 0.  1.
       -1    1    3    3    0  502  0.60419732918E+03  0.47319133047E+03  0.91590301684E+03  0.11949237566E+04  0.50400001928E-02 0. -1.
</event>
<event>
 5   0  0.4532420E-06  0.2893591E+04  0.7818609E-02  0.8274787E-01
        2   -1    0    0  501    0  0.00000000000E+00  0.00000000000E+00  0.17943601792E+04  0.17943601792E+04  0.25500000920E-02 0. -1.
       -2   -1    0    0    0  501  0.00000000000E+00  0.00000000000E+00 -0.11665531818E+04  0.11665531818E+04  0.25500000920E-02 0.  1.
    10030    2    1    2    0    0  0.00000000000E+00  0.00000000000E+00  0.62780699740E+03  0.29609133610E+04  0.28935905559E+04 0.  0.
        4    1    3    3  502    0  0.96013886490E+01 -0.50437856097E+03  0.17014483079E+04  0.17746599328E+04  0.12699999809E+01 0. -1.
       -4    1    3    3    0  502 -0.96013886490E+01  0.50437856097E+03 -0.10736413105E+04  0.11862534283E+04  0.12699999809E+01 0.  1.
</event>
<event>
 5   0  0.1700885E-06  0.2989532E+04  0.7818609E-02  0.8246726E-01
       -1   -1    0    0    0  501  0.00000000000E+00  0.00000000000E+00  0.12276976794E+04  0.12276976795E+04  0.50400001928E-02 0. -1.
        1   -1    0    0  501    0  0.00000000000E+00  0.00000000000E+00 -0.18199311118E+04  0.18199311118E+04  0.50400001928E-02 0.  1.
    10030    2    1    2    0    0  0.00000000000E+00  0.00000000000E+00 -0.59223343236E+03  0.30476287913E+04  0.29895318715E+04 0.  0.
        1    1    3    3  502    0 -0.80341030327E+03 -0.22048256381E+03  0.96906735943E+03  0.12779562682E+04  0.50400001928E-02 0. -1.
       -1    1    3    3    0  502  0.80341030327E+03  0.22048256381E+03 -0.15613007918E+04  0.17696725230E+04  0.50400001928E-02 0.  1.
</event>
<event>
 5   0  0.1709858E-06  0.2965778E+04  0.7818609E-02  0.8253571E-01
       -1   -1    0    0    0  501  0.00000000000E+00  0.00000000000E+00  0.15541192994E+04  0.15541192994E+04  0.50400001928E-02 0.  1.
        1   -1    0    0  501    0  0.00000000000E+00  0.00000000000E+00 -0.14149231066E+04  0.14149231066E+04  0.50400001928E-02 0. -1.
    10030    2    1    2    0    0  0.00000000000E+00  0.00000000000E+00  0.13919619281E+03  0.29690424061E+04  0.29657776769E+04 0.  0.
        3    1    3    3  502    0 -0.11956502553E+04 -0.73036011499E+03 -0.41668744598E+03  0.14617229109E+04  0.10100000352E+00 0. -1.
       -3    1    3    3    0  502  0.11956502553E+04  0.73036011499E+03  0.55588363879E+03  0.15073194952E+04  0.10100000352E+00 0.  1.
</event>
<event>
 5   0  0.1686012E-06  0.2909132E+04  0.7818609E-02  0.8270166E-01
        1   -1    0    0  501    0  0.00000000000E+00  0.00000000000E+00  0.26973522969E+04  0.26973522969E+04  0.50400001928E-02 0. -1.
       -1   -1    0    0    0  501  0.00000000000E+00  0.00000000000E+00 -0.78438479028E+03  0.78438479029E+03  0.50400001928E-02 0.  1.
    10030    2    1    2    0    0  0.00000000000E+00  0.00000000000E+00  0.19129675066E+04  0.34817370872E+04  0.29091319088E+04 0.  0.
        4    1    3    3  502    0 -0.13132009565E+04  0.38029317011E+03  0.36210254761E+03  0.14142982413E+04  0.12699999809E+01 0.  1.
       -4    1    3    3    0  502  0.13132009565E+04 -0.38029317011E+03  0.15508649590E+04  0.20674388458E+04  0.12699999809E+01 0. -1.
</event>
<event>
 5   0  0.4532420E-06  0.2769630E+04  0.7818609E-02  0.8312759E-01
        2   -1    0    0  501    0  0.00000000000E+00  0.00000000000E+00  0.17750409754E+04  0.17750409754E+04  0.25500000920E-02 0. -1.
       -2   -1    0    0    0  501  0.00000000000E+00  0.00000000000E+00 -0.10803767043E+04  0.10803767043E+04  0.25500000920E-02 0.  1.
    10030    2    1    2    0    0  0.00000000000E+00  0.00000000000E+00  0.69466427104E+03  0.28554176797E+04  0.27696302417E+04 0.  0.
        4    1    3    3  502    0  0.72106907920E+03 -0.40801185240E+03 -0.79667640134E+03  0.11493951409E+04  0.12699999809E+01 0.  1.
       -4    1    3    3    0  502 -0.72106907920E+03  0.40801185240E+03  0.14913406724E+04  0.17060225387E+04  0.12699999809E+01 0. -1.
</event>
<event>
 5   0  0.1686012E-06  0.3013426E+04  0.7818609E-02  0.8239907E-01
        1   -1    0    0  501    0  0.00000000000E+00  0.00000000000E+00  0.27310315519E+04  0.27310315519E+04  0.50400001928E-02 0.  1.
       -1   -1    0    0    0  501  0.00000000000E+00  0.00000000000E+00 -0.83125520744E+03  0.83125520745E+03  0.50400001928E-02 0. -1.
    10030    2    1    2    0    0  0.00000000000E+00  0.00000000000E+00  0.18997763444E+04  0.35622867593E+04  0.30134260895E+04 0.  0.
        4    1    3    3  502    0  0.12603710208E+04  0.50190418263E+03  0.17248334828E+04  0.21944236316E+04  0.12699999809E+01 0.  1.
       -4    1    3    3    0  502 -0.12603710208E+04 -0.50190418263E+03  0.17494286164E+03  0.13678631278E+04  0.12699999809E+01 0. -1.
</event>
<event>
 5   0  0.1709858E-06  0.2987023E+04  0.7818609E-02  0.8247446E-01
       -1   -1    0    0    0  501  0.00000000000E+00  0.00000000000E+00  0.17744213743E+04  0.17744213743E+04  0.50400001928E-02 0. -1.
        1   -1    0    0  501    0  0.00000000000E+00  0.00000000000E+00 -0.12570724297E+04  0.12570724297E+04  0.50400001928E-02 0.  1.
    10030    2    1    2    0    0  0.00000000000E+00  0.00000000000E+00  0.51734894461E+03  0.30314938040E+04  0.29870227239E+04 0.  0.
        3    1    3    3  502    0  0.79469550993E+03  0.12565367199E+04  0.11460791231E+03  0.14911607779E+04  0.10100000352E+00 0.  1.
       -3    1    3    3    0  502 -0.79469550993E+03 -0.12565367199E+04  0.40274103230E+03  0.15403330261E+04  0.10100000352E+00 0. -1.
</event>
<event>
 5   0  0.4768570E-06  0.3009876E+04  0.7818609E-02  0.8240916E-01
        2   -1    0    0  501    0  0.00000000000E+00  0.00000000000E+00  0.24786053085E+04  0.24786053085E+04  0.25500000920E-02 0.  1.
       -2   -1    0    0    0  501  0.00000000000E+00  0.00000000000E+00 -0.91375545053E+03  0.91375545054E+03  0.25500000920E-02 0. -1.
    10030    2    1    2    0    0  0.00000000000E+00  0.00000000000E+00  0.15648498580E+04  0.33923607590E+04  0.30098764828E+04 0.  0.
        1    1    3    3  502    0  0.10976150107E+03  0.54457913435E+03 -0.79396179817E+03  0.96901463233E+03  0.50400001928E-02 0. -1.
       -1    1    3    3    0  502 -0.10976150107E+03 -0.54457913435E+03  0.23588116561E+04  0.24233461267E+04  0.50400001928E-02 0.  1.
</event>
<event>
 5   0  0.4935331E-06  0.2949171E+04  0.7818609E-02  0.8258396E-01
        2   -1    0    0  501    0  0.00000000000E+00  0.00000000000E+00  0.13246138235E+04  0.13246138235E+04  0.25500000920E-02 0. -1.
       -2   -1    0    0    0  501  0.00000000000E+00  0.00000000000E+00 -0.16415372277E+04  0.16415372278E+04  0.25500000920E-02 0.  1.
    10030    2    1    2    0    0  0.00000000000E+00  0.00000000000E+00 -0.31692340429E+03  0.29661510512E+04  0.29491713437E+04 0.  0.
        5    1    3    3  502    0  0.12415101901E+04 -0.72857930849E+03 -0.47999821074E+03  0.15174306354E+04  0.46999998093E+01 0. -1.
       -5    1    3    3    0  502 -0.12415101901E+04  0.72857930849E+03  0.16307480645E+03  0.14487204159E+04  0.46999998093E+01 0.  1.
</event>
<event>
 5   0  0.1686012E-06  0.2945595E+04  0.7818609E-02  0.8259440E-01
       -1   -1    0    0    0  501  0.00000000000E+00  0.00000000000E+00  0.15484036702E+04  0.15484036702E+04  0.50400001928E-02 0.  1.
        1   -1    0    0  501    0  0.00000000000E+00  0.00000000000E+00 -0.14008826494E+04  0.14008826494E+04  0.50400001928E-02 0. -1.
    10030    2    1    2    0    0  0.00000000000E+00  0.00000000000E+00  0.14752102081E+03  0.29492863197E+04  0.29455945654E+04 0.  0.
        4    1    3    3  502    0  0.63049681726E+03  0.94408626524E+02  0.14030882264E+04  0.15411351041E+04  0.12699999809E+01 0.  1.
       -4    1    3    3    0  502 -0.63049681726E+03 -0.94408626524E+02 -0.12555672055E+04  0.14081512156E+04  0.12699999809E+01 0. -1.
</event>
<event>
 5   0  0.4532420E-06  0.3008250E+04  0.7818609E-02  0.8241379E-01
        2   -1    0    0  501    0  0.00000000000E+00  0.00000000000E+00  0.22171723985E+04  0.22171723985E+04  0.25500000920E-02 0. -1.
       -2   -1    0    0    0  501  0.00000000000E+00  0.00000000000E+00 -0.10203949126E+04  0.10203949126E+04  0.25500000920E-02 0.  1.
    10030    2    1    2    0    0  0.00000000000E+00  0.00000000000E+00  0.11967774858E+04  0.32375673111E+04  0.30082496146E+04 0.  0.
        4    1    3    3  502    0 -0.14031137938E+04  0.21336568701E+03  0.62283147539E+02  0.14206104456E+04  0.12699999809E+01 0. -1.
       -4    1    3    3    0  502  0.14031137938E+04 -0.21336568701E+03  0.11344943383E+04  0.18169568655E+04  0.12699999809E+01 0.  1.
</event>
<event>
 5   0  0.4702748E-06  0.2913889E+04  0.7818609E-02  0.8268757E-01
        2   -1    0    0  501    0  0.00000000000E+00  0.00000000000E+00  0.19983555965E+04  0.19983555965E+04  0.25500000920E-02 0. -1.
       -2   -1    0    0    0  501  0.00000000000E+00  0.00000000000E+00 -0.10622168025E+04  0.10622168025E+04  0.25500000920E-02 0.  1.
    10030    2    1    2    0    0  0.00000000000E+00  0.00000000000E+00  0.93613879400E+03  0.30605723990E+04  0.29138887363E+04 0.  0.
        2    1    3    3  502    0 -0.12619484529E+04 -0.46798902697E+03  0.10539661092E+04  0.17094947167E+04  0.25500000920E-02 0. -1.
       -2    1    3    3    0  502  0.12619484529E+04  0.46798902697E+03 -0.11782731516E+03  0.13510776822E+04  0.25500000920E-02 0.  1.
</event>
<event>
 5   0  0.1700885E-06  0.3026492E+04  0.7818609E-02  0.8236206E-01
        1   -1    0    0  501    0  0.00000000000E+00  0.00000000000E+00  0.17930643417E+04  0.17930643417E+04  0.50400001928E-02 0. -1.
       -1   -1    0    0    0  501  0.00000000000E+00  0.00000000000E+00 -0.12770947692E+04  0.12770947692E+04  0.50400001928E-02 0.  1.
    10030    2    1    2    0    0  0.00000000000E+00  0.00000000000E+00  0.51596957248E+03  0.30701591109E+04  0.30264917588E+04 0.  0.
        1    1    3    3  502    0  0.57488950805E+03 -0.10814632960E+02 -0.11619606499E+04  0.12964441580E+04  0.50400001928E-02 0.  1.
       -1    1    3    3    0  502 -0.57488950805E+03  0.10814632960E+02  0.16779302224E+04  0.17737149529E+04  0.50400001928E-02 0. -1.
</event>
<event>
 5   0  0.4702748E-06  0.2964373E+04  0.7818609E-02  0.8253978E-01
        2   -1    0    0  501    0  0.00000000000E+00  0.00000000000E+00  0.63170379940E+03  0.63170379941E+03  0.25500000920E-02 0.  1.
       -2   -1    0    0    0  501  0.00000000000E+00  0.00000000000E+00 -0.34776997450E+04  0.34776997450E+04  0.25500000920E-02 0. -1.
    10030    2    1    2    0    0  0.00000000000E+00  0.00000000000E+00 -0.28459959455E+04  0.41094035444E+04  0.29643725421E+04 0.  0.
        2    1    3    3  502    0  0.78906957763E+03 -0.10848615841E+04 -0.54918880242E+03  0.14495391667E+04  0.25500000920E-02 0.  1.
       -2    1    3    3    0  502 -0.78906957763E+03  0.10848615841E+04 -0.22968071431E+04  0.26598643777E+04  0.25500000920E-02 0. -1.
</event>
<event>
 5   0  0.1686012E-06  0.2998604E+04  0.7818609E-02  0.8244130E-01
       -1   -1    0    0    0  501  0.00000000000E+00  0.00000000000E+00  0.12525678648E+04  0.12525678648E+04  0.50400001928E-02 0.  1.
        1   -1    0    0  501    0  0.00000000000E+00  0.00000000000E+00 -0.17946379862E+04  0.17946379862E+04  0.50400001928E-02 0. -1.
    10030    2    1    2    0    0  0.00000000000E+00  0.00000000000E+00 -0.54207012142E+03  0.30472058510E+04  0.29986035887E+04 0.  0.
        4    1    3    3  502    0  0.84788160047E+03  0.67624988527E+03  0.78096737942E+03  0.13364612888E+04  0.12699999809E+01 0.  1.
       -4    1    3    3    0  502 -0.84788160047E+03 -0.67624988527E+03 -0.13230375008E+04  0.17107445623E+04  0.12699999809E+01 0. -1.
</event>
<event>
 5   0  0.1700885E-06  0.2992389E+04  0.7818609E-02  0.8245907E-01
       -1   -1    0    0    0  501  0.00000000000E+00  0.00000000000E+00  0.12379093760E+04  0.12379093760E+04  0.50400001928E-02 0. -1.
        1   -1    0    0  501    0  0.00000000000E+00  0.00000000000E+00 -0.18083704262E+04  0.18083704262E+04  0.50400001928E-02 0.  1.
    10030    2    1    2    0    0  0.00000000000E+00  0.00000000000E+00 -0.57046105014E+03  0.30462798022E+04  0.29923894839E+04 0.  0.
        1    1    3    3  502    0 -0.19871161890E+03  0.25569111485E+03  0.12018067532E+04  0.12446701273E+04  0.50400001928E-02 0. -1.
       -1    1    3    3    0  502  0.19871161890E+03 -0.25569111485E+03 -0.17722678034E+04  0.18016096749E+04  0.50400001928E-02 0.  1.
</event>
<event>
 5   0  0.4768570E-06  0.3005607E+04  0.7818609E-02  0.8242132E-01
        2   -1    0    0  501    0  0.00000000000E+00  0.00000000000E+00  0.93312731808E+03  0.93312731808E+03  0.25500000920E-02 0.  1.
       -2   -1    0    0    0  501  0.00000000000E+00  0.00000000000E+00 -0.24202678707E+04  0.24202678707E+04  0.25500000920E-02 0. -1.
    10030    2    1    2    0    0  0.00000000000E+00  0.00000000000E+00 -0.14871405527E+04  0.33533951888E+04  0.30056068055E+04 0.  0.
        1    1    3    3  502    0  0.21594280101E+03  0.67753694694E+03  0.73353054120E+03  0.10216431190E+04  0.50400001928E-02 0.  1.
       -1    1    3    3    0  502 -0.21594280101E+03 -0.67753694694E+03 -0.22206710939E+04  0.23317520698E+04  0.50400001928E-02 0. -1.
</event>
<event>
 5   0  0.4702748E-06  0.3016007E+04  0.7818609E-02  0.8239175E-01
       -2   -1    0    0    0  501  0.00000000000E+00  0.00000000000E+00  0.12008891476E+04  0.12008891476E+04  0.25500000920E-02 0.  1.
        2   -1    0    0  501    0  0.00000000000E+00  0.00000000000E+00 -0.18936587396E+04  0.18936587396E+04  0.25500000920E-02 0. -1.
    10030    2    1    2    0    0  0.00000000000E+00  0.00000000000E+00 -0.69276959200E+03  0.30945478871E+04  0.30160067835E+04 0.  0.
        2    1    3    3  502    0 -0.51287696879E+03 -0.20745966733E+03 -0.17857683967E+04  0.18695055671E+04  0.25500000920E-02 0. -1.
       -2    1    3    3    0  502  0.51287696879E+03  0.20745966733E+03  0.10929988047E+04  0.12250423200E+04  0.25500000920E-02 0.  1.
</event>
<event>
 5   0  0.1700885E-06  0.2966723E+04  0.7818609E-02  0.8253298E-01
       -1   -1    0    0    0  501  0.00000000000E+00  0.00000000000E+00  0.11264102183E+04  0.11264102183E+04  0.50400001928E-02 0. -1.
        1   -1    0    0  501    0  0.00000000000E+00  0.00000000000E+00 -0.19534277908E+04  0.19534277908E+04  0.50400001928E-02 0.  1.
    10030    2    1    2    0    0  0.00000000000E+00  0.00000000000E+00 -0.82701757258E+03  0.30798380091E+04  0.29667227874E+04 0.  0.
        1    1    3    3  502    0 -0.22901617356E+02 -0.56639710890E+03 -0.18365512603E+04  0.19220433660E+04  0.50400001928E-02 0.  1.
       -1    1    3    3    0  502  0.22901617356E+02  0.56639710890E+03  0.10095336877E+04  0.11577946431E+04  0.50400001928E-02 0. -1.
</event>
<event>
 5   0  0.1734885E-06  0.2807381E+04  0.7818609E-02  0.8300980E-01
       -1   -1    0    0    0  501  0.00000000000E+00  0.00000000000E+00  0.15865722951E+04  0.15865722951E+04  0.50400001928E-02 0. -1.
        1   -1    0    0  501    0  0.00000000000E+00  0.00000000000E+00 -0.12418893562E+04  0.12418893562E+04  0.50400001928E-02 0.  1.
    10030    2    1    2    0    0  0.00000000000E+00  0.00000000000E+00  0.34468293886E+03  0.28284616513E+04  0.28073811613E+04 0.  0.
        2    1    3    3  502    0 -0.12664207601E+03  0.19085769772E+03 -0.12229338014E+04  0.12441993244E+04  0.25500000920E-02 0.  1.
       -2    1    3    3    0  502  0.12664207601E+03 -0.19085769772E+03  0.15676167403E+04  0.15842623269E+04  0.25500000920E-02 0. -1.
</event>
<event>
 5   0  0.4768570E-06  0.2557890E+04  0.7818609E-02  0.8382647E-01
       -2   -1    0    0    0  501  0.00000000000E+00  0.00000000000E+00  0.73814057963E+03  0.73814057964E+03  0.25500000920E-02 0. -1.
        2   -1    0    0  501    0  0.00000000000E+00  0.00000000000E+00 -0.22159732061E+04  0.22159732061E+04  0.25500000920E-02 0.  1.
    10030    2    1    2    0    0  0.00000000000E+00  0.00000000000E+00 -0.14778326264E+04  0.29541137857E+04  0.25578895573E+04 0.  0.
        1    1    3    3  502    0  0.12318664795E+04  0.24199380722E+03 -0.45686521547E+03  0.13359572790E+04  0.50400001928E-02 0.  1.
       -1    1    3    3    0  502 -0.12318664795E+04 -0.24199380722E+03 -0.10209674110E+04  0.16181565067E+04  0.50400001928E-02 0. -1.
</event>
<event>
 5   0  0.1734885E-06  0.3014437E+04  0.7818609E-02  0.8239620E-01
       -1   -1    0    0    0  501  0.00000000000E+00  0.00000000000E+00  0.15940961474E+04  0.15940961474E+04  0.50400001928E-02 0.  1.
        1   -1    0    0  501    0  0.00000000000E+00  0.00000000000E+00 -0.14250755339E+04  0.14250755339E+04  0.50400001928E-02 0. -1.
    10030    2    1    2    0    0  0.00000000000E+00  0.00000000000E+00  0.16902061347E+03  0.30191716813E+04  0.30144368750E+04 0.  0.
        2    1    3    3  502    0  0.12889262699E+04 -0.57568939916E+03 -0.44448422806E+03  0.14799714330E+04  0.25500000920E-02 0. -1.
       -2    1    3    3    0  502 -0.12889262699E+04  0.57568939916E+03  0.61350484153E+03  0.15392002482E+04  0.25500000920E-02 0.  1.
</event>
<event>
 5   0  0.1709858E-06  0.3006499E+04  0.7818609E-02  0.8241878E-01
        1   -1    0    0  501    0  0.00000000000E+00  0.00000000000E+00  0.21013646677E+04  0.21013646677E+04  0.50400001928E-02 0. -1.
       -1   -1    0    0    0  501  0.00000000000E+00  0.00000000000E+00 -0.10753766204E+04  0.10753766204E+04  0.50400001928E-02 0.  1.
    10030    2    1    2    0    0  0.00000000000E+00  0.00000000000E+00  0.10259880473E+04  0.31767412881E+04  0.30064985845E+04 0.  0.
        3    1    3    3  502    0  0.12964836248E+04 -0.28287408547E+03  0.12592965709E+04  0.18294030177E+04  0.10100000352E+00 0. -1.
       -3    1    3    3    0  502 -0.12964836248E+04  0.28287408547E+03 -0.23330852355E+03  0.13473382704E+04  0.10100000352E+00 0.  1.
</event>
<event>
 5   0  0.4532420E-06  0.2973363E+04  0.7818609E-02  0.8251378E-01
        2   -1    0    0  501    0  0.00000000000E+00  0.00000000000E+00  0.14698593986E+04  0.14698593986E+04  0.25500000920E-02 0. -1.
       -2   -1    0    0    0  501  0.00000000000E+00  0.00000000000E+00 -0.15036962293E+04  0.15036962293E+04  0.25500000920E-02 0.  1.
    10030    2    1    2    0    0  0.00000000000E+00  0.00000000000E+00 -0.33836830708E+02  0.29735556278E+04  0.29733631027E+04 0.  0.
        4    1    3    3  502    0 -0.71999099918E+03  0.11013678602E+04  0.67509620103E+03  0.14789032071E+04  0.12699999809E+01 0. -1.
       -4    1    3    3    0  502  0.71999099918E+03 -0.11013678602E+04 -0.70893303174E+03  0.14946524207E+04  0.12699999809E+01 0.  1.
</event>
<event>
 5   0  0.4532420E-06  0.2968642E+04  0.7818609E-02  0.8252742E-01
        2   -1    0    0  501    0  0.00000000000E+00  0.00000000000E+00  0.29483651741E+04  0.29483651741E+04  0.25500000920E-02 0.  1.
       -2   -1    0    0    0  501  0.00000000000E+00  0.00000000000E+00 -0.74726474165E+03  0.74726474165E+03  0.25500000920E-02 0. -1.
    10030    2    1    2    0    0  0.00000000000E+00  0.00000000000E+00  0.22011004324E+04  0.36956299157E+04  0.29686423430E+04 0.  0.
        4    1    3    3  502    0 -0.23456394062E+03  0.11053802128E+04  0.22987013473E+04  0.25614283425E+04  0.12699999809E+01 0.  1.
       -4    1    3    3    0  502  0.23456394062E+03 -0.11053802128E+04 -0.97600914834E+02  0.11342015732E+04  0.12699999809E+01 0. -1.
</event>
<event>
 5   0  0.4532420E-06  0.3003387E+04  0.7818609E-02  0.8242764E-01
       -2   -1    0    0    0  501  0.00000000000E+00  0.00000000000E+00  0.12351512885E+04  0.12351512885E+04  0.25500000920E-02 0.  1.
        2   -1    0    0  501    0  0.00000000000E+00  0.00000000000E+00 -0.18257543591E+04  0.18257543591E+04  0.25500000920E-02 0. -1.
    10030    2    1    2    0    0  0.00000000000E+00  0.00000000000E+00 -0.59060307057E+03  0.30609056476E+04  0.30033866545E+04 0.  0.
        4    1    3    3  502    0 -0.26239214239E+03 -0.28339520720E+02 -0.18019328658E+04  0.18211579916E+04  0.12699999809E+01 0. -1.
       -4    1    3    3    0  502  0.26239214239E+03  0.28339520720E+02  0.12113297952E+04  0.12397476560E+04  0.12699999809E+01 0.  1.
</event>
<event>
 5   0  0.5003556E-06  0.3000129E+04  0.7818609E-02  0.8243694E-01
        2   -1    0    0  501    0  0.00000000000E+00  0.00000000000E+00  0.13568754155E+04  0.13568754155E+04  0.25500000920E-02 0. -1.
       -2   -1    0    0    0  501  0.00000000000E+00  0.00000000000E+00 -0.16583646312E+04  0.16583646312E+04  0.25500000920E-02 0.  1.
    10030    2    1    2    0    0  0.00000000000E+00  0.00000000000E+00 -0.30148921565E+03  0.30152400467E+04  0.30001294626E+04 0.  0.
        3    1    3    3  502    0  0.35526175422E+03  0.91486550172E+03 -0.12909206477E+04  0.16216244723E+04  0.10100000352E+00 0.  1.
       -3    1    3    3    0  502 -0.35526175422E+03 -0.91486550172E+03  0.98943143208E+03  0.13936155744E+04  0.10100000352E+00 0. -1.
</event>
<event>
 5   0  0.1700885E-06  0.3013537E+04  0.7818609E-02  0.8239876E-01
        1   -1    0    0  501    0  0.00000000000E+00  0.00000000000E+00  0.16902495890E+04  0.16902495890E+04  0.50400001928E-02 0.  1.
       -1   -1    0    0    0  501  0.00000000000E+00  0.00000000000E+00 -0.13432050077E+04  0.13432050077E+04  0.50400001928E-02 0. -1.
    10030    2    1    2    0    0  0.00000000000E+00  0.00000000000E+00  0.34704458129E+03  0.30334545968E+04  0.30135372653E+04 0.  0.
        1    1    3    3  502    0 -0.64627480783E+03 -0.22577265882E+03 -0.11776261078E+04  0.13621481823E+04  0.50400001928E-02 0. -1.
       -1    1    3    3    0  502  0.64627480783E+03  0.22577265882E+03  0.15246706891E+04  0.16713064144E+04  0.50400001928E-02 0.  1.
</event>
<event>
 5   0  0.4702748E-06  0.2918873E+04  0.7818609E-02  0.8267284E-01
       -2   -1    0    0    0  501  0.00000000000E+00  0.00000000000E+00  0.14178975530E+04  0.14178975530E+04  0.25500000920E-02 0.  1.
        2   -1    0    0  501    0  0.00000000000E+00  0.00000000000E+00 -0.15021922326E+04  0.15021922326E+04  0.25500000920E-02 0. -1.
    10030    2    1    2    0    0  0.00000000000E+00  0.00000000000E+00 -0.84294679575E+02  0.29200897856E+04  0.29188728583E+04 0.  0.
        2    1    3    3  502    0  0.83509313215E+03  0.76217194690E+03  0.88109605838E+03  0.14333934840E+04  0.25500000920E-02 0.  1.
       -2    1    3    3    0  502 -0.83509313215E+03 -0.76217194690E+03 -0.96539073795E+03  0.14866963015E+04  0.25500000920E-02 0. -1.
</event>
<event>
 5   0  0.4768570E-06  0.2917536E+04  0.7818609E-02  0.8267679E-01
       -2   -1    0    0    0  501  0.00000000000E+00  0.00000000000E+00  0.13116122469E+04  0.13116122469E+04  0.25500000920E-02 0. -1.
        2   -1    0    0  501    0  0.00000000000E+00  0.00000000000E+00 -0.16224336799E+04  0.16224336799E+04  0.25500000920E-02 0.  1.
    10030    2    1    2    0    0  0.00000000000E+00  0.00000000000E+00 -0.31082143299E+03  0.29340459269E+04  0.29175358674E+04 0.  0.
        1    1    3    3  502    0  0.83950219371E+03  0.43432960822E+03  0.96200157179E+03  0.13486486444E+04  0.50400001928E-02 0. -1.
       -1    1    3    3    0  502 -0.83950219371E+03 -0.43432960822E+03 -0.12728230048E+04  0.15853972825E+04  0.50400001928E-02 0.  1.
</event>
<event>
 5   0  0.1734885E-06  0.3012505E+04  0.7818609E-02  0.8240169E-01
       -1   -1    0    0    0  501  0.00000000000E+00  0.00000000000E+00  0.15481703983E+04  0.15481703983E+04  0.50400001928E-02 0.  1.
        1   -1    0    0  501    0  0.00000000000E+00  0.00000000000E+00 -0.14654692765E+04  0.14654692765E+04  0.50400001928E-02 0. -1.
    10030    2    1    2    0    0  0.00000000000E+00  0.00000000000E+00  0.82701121762E+02  0.30136396748E+04  0.30125047077E+04 0.  0.
        2    1    3    3  502    0  0.83476341666E+03 -0.63887577518E+03 -0.10378533270E+04  0.14772040300E+04  0.25500000920E-02 0. -1.
       -2    1    3    3    0  502 -0.83476341666E+03  0.63887577518E+03  0.11205544488E+04  0.15364356448E+04  0.25500000920E-02 0.  1.
</event>
<event>
 5   0  0.1734885E-06  0.2980238E+04  0.7818609E-02  0.8249397E-01
       -1   -1    0    0    0  501  0.00000000000E+00  0.00000000000E+00  0.10361891643E+04  0.10361891643E+04  0.50400001928E-02 0.  1.
        1   -1    0    0  501    0  0.00000000000E+00  0.00000000000E+00 -0.21429041531E+04  0.21429041531E+04  0.50400001928E-02 0. -1.
    10030    2    1    2    0    0  0.00000000000E+00  0.00000000000E+00 -0.11067149889E+04  0.31790933174E+04  0.29802376170E+04 0.  0.
        2    1    3    3  502    0 -0.43634753474E+03 -0.18497489723E+03  0.95364911118E+03  0.10649232418E+04  0.25500000920E-02 0.  1.
       -2    1    3    3    0  502  0.43634753474E+03  0.18497489723E+03 -0.20603641000E+04  0.21141700756E+04  0.25500000920E-02 0. -1.
</event>
<event>
 5   0  0.4532420E-06  0.2984772E+04  0.7818609E-02  0.8248093E-01
       -2   -1    0    0    0  501  0.00000000000E+00  0.00000000000E+00  0.12787008959E+04  0.12787008959E+04  0.25500000920E-02 0.  1.
        2   -1    0    0  501    0  0.00000000000E+00  0.00000000000E+00 -0.17417798707E+04  0.17417798707E+04  0.25500000920E-02 0. -1.
    10030    2    1    2    0    0  0.00000000000E+00  0.00000000000E+00 -0.46307897479E+03  0.30204807666E+04  0.29847716704E+04 0.  0.
        4    1    3    3  502    0 -0.31941387738E+03  0.71174725177E+03  0.10559252159E+04  0.13128553043E+04  0.12699999809E+01 0.  1.
       -4    1    3    3    0  502  0.31941387738E+03 -0.71174725177E+03 -0.15190041907E+04  0.17076254624E+04  0.12699999809E+01 0. -1.
</event>
<event>
 5   0  0.4532420E-06  0.3032287E+04  0.7818609E-02  0.8234571E-01
       -2   -1    0    0    0  501  0.00000000000E+00  0.00000000000E+00  0.24814241534E+04  0.24814241534E+04  0.25500000920E-02 0.  1.
        2   -1    0    0  501    0  0.00000000000E+00  0.00000000000E+00 -0.92635937869E+03  0.92635937869E+03  0.25500000920E-02 0. -1.
    10030    2    1    2    0    0  0.00000000000E+00  0.00000000000E+00  0.15550647747E+04  0.34077835321E+04  0.30322866204E+04 0.  0.
        4    1    3    3  502    0  0.89520417504E+03 -0.33560287515E+02  0.21521836286E+04  0.23311827024E+04  0.12699999809E+01 0.  1.
       -4    1    3    3    0  502 -0.89520417504E+03  0.33560287515E+02 -0.59711885388E+03  0.10766008297E+04  0.12699999809E+01 0. -1.
</event>
<event>
 5   0  0.4532420E-06  0.3022375E+04  0.7818609E-02  0.8237370E-01
        2   -1    0    0  501    0  0.00000000000E+00  0.00000000000E+00  0.16703589082E+04  0.16703589082E+04  0.25500000920E-02 0.  1.
       -2   -1    0    0    0  501  0.00000000000E+00  0.00000000000E+00 -0.13671834027E+04  0.13671834027E+04  0.25500000920E-02 0. -1.
    10030    2    1    2    0    0  0.00000000000E+00  0.00000000000E+00  0.30317550553E+03  0.30375423110E+04  0.30223745472E+04 0.  0.
        4    1    3    3  502    0  0.10436331738E+04  0.26327960166E+02 -0.94651717853E+03  0.14091698780E+04  0.12699999809E+01 0. -1.
       -4    1    3    3    0  502 -0.10436331738E+04 -0.26327960166E+02  0.12496926841E+04  0.16283724330E+04  0.12699999809E+01 0.  1.
</event>
<event>
 5   0  0.1709858E-06  0.2987498E+04  0.7818609E-02  0.8247310E-01
        1   -1    0    0  501    0  0.00000000000E+00  0.00000000000E+00  0.15689920003E+04  0.15689920003E+04  0.50400001928E-02 0. -1.
       -1   -1    0    0    0  501  0.00000000000E+00  0.00000000000E+00 -0.14221146580E+04  0.14221146581E+04  0.50400001928E-02 0.  1.
    10030    2    1    2    0    0  0.00000000000E+00  0.00000000000E+00  0.14687734227E+03  0.29911066584E+04  0.29874982993E+04 0.  0.
        3    1    3    3  502    0 -0.45644513344E+03  0.81056097911E+03 -0.10967052733E+04  0.14380937825E+04  0.10100000352E+00 0.  1.
       -3    1    3    3    0  502  0.45644513344E+03 -0.81056097911E+03  0.12435826155E+04  0.15530128759E+04  0.10100000352E+00 0. -1.
</event>
<event>
 5   0  0.1672907E-06  0.3023393E+04  0.7818609E-02  0.8237082E-01
       -1   -1    0    0    0  501  0.00000000000E+00  0.00000000000E+00  0.12277322352E+04  0.12277322352E+04  0.50400001928E-02 0.  1.
        1   -1    0    0  501    0  0.00000000000E+00  0.00000000000E+00 -0.18613392410E+04  0.18613392410E+04  0.50400001928E-02 0. -1.
    10030    2    1    2    0    0  0.00000000000E+00  0.00000000000E+00 -0.63360700580E+03  0.30890714763E+04  0.30233929198E+04 0.  0.
        5    1    3    3  502    0  0.73084394930E+03 -0.19332259281E+03 -0.16543240397E+04  0.18188778468E+04  0.46999998093E+01 0. -1.
       -5    1    3    3    0  502 -0.73084394930E+03  0.19332259281E+03  0.10207170339E+04  0.12701936295E+04  0.46999998093E+01 0.  1.
</event>
<event>
 5   0  0.4702748E-06  0.2997329E+04  0.7818609E-02  0.8244494E-01
        2   -1    0    0  501    0  0.00000000000E+00  0.00000000000E+00  0.12380140926E+04  0.12380140926E+04  0.25500000920E-02 0. -1.
       -2   -1    0    0    0  501  0.00000000000E+00  0.00000000000E+00 -0.18141926061E+04  0.18141926061E+04  0.25500000920E-02 0.  1.
    10030    2    1    2    0    0  0.00000000000E+00  0.00000000000E+00 -0.57617851355E+03  0.30522066987E+04  0.29973294868E+04 0.  0.
        2    1    3    3  502    0 -0.12155628759E+04  0.86995967902E+03 -0.39763705257E+03  0.15467831697E+04  0.25500000920E-02 0.  1.
       -2    1    3    3    0  502  0.12155628759E+04 -0.86995967902E+03 -0.17854146098E+03  0.15054235290E+04  0.25500000920E-02 0. -1.
</event>
<event>
 5   0  0.1734885E-06  0.2948095E+04  0.7818609E-02  0.8258710E-01
       -1   -1    0    0    0  501  0.00000000000E+00  0.00000000000E+00  0.10029122821E+04  0.10029122821E+04  0.50400001928E-02 0. -1.
        1   -1    0    0  501    0  0.00000000000E+00  0.00000000000E+00 -0.21665070820E+04  0.21665070820E+04  0.50400001928E-02 0.  1.
    10030    2    1    2    0    0  0.00000000000E+00  0.00000000000E+00 -0.11635947999E+04  0.31694193641E+04  0.29480953592E+04 0.  0.
        2    1    3    3  502    0 -0.61864086383E+03  0.71170189296E+03  0.63620944312E+03  0.11375405744E+04  0.25500000920E-02 0. -1.
       -2    1    3    3    0  502  0.61864086383E+03 -0.71170189296E+03 -0.17998042430E+04  0.20318787897E+04  0.25500000920E-02 0.  1.
</event>
<event>
 5   0  0.1734885E-06  0.2994317E+04  0.7818609E-02  0.8245356E-01
        1   -1    0    0  501    0  0.00000000000E+00  0.00000000000E+00  0.15038418048E+04  0.15038418048E+04  0.50400001928E-02 0.  1.
       -1   -1    0    0    0  501  0.00000000000E+00  0.00000000000E+00 -0.14905048187E+04  0.14905048187E+04  0.50400001928E-02 0. -1.
    10030    2    1    2    0    0  0.00000000000E+00  0.00000000000E+00  0.13336986055E+02  0.29943466235E+04  0.29943169215E+04 0.  0.
        2    1    3    3  502    0  0.51591186515E+03  0.11056640455E+03  0.14077867678E+04  0.15034139703E+04  0.25500000920E-02 0.  1.
       -2    1    3    3    0  502 -0.51591186515E+03 -0.11056640455E+03 -0.13944497818E+04  0.14909326532E+04  0.25500000920E-02 0. -1.
</event>
<event>
 5   0  0.1700885E-06  0.2990193E+04  0.7818609E-02  0.8246537E-01
       -1   -1    0    0    0  501  0.00000000000E+00  0.00000000000E+00  0.21624991888E+04  0.21624991888E+04  0.50400001928E-02 0. -1.
        1   -1    0    0  501    0  0.00000000000E+00  0.00000000000E+00 -0.10336713670E+04  0.10336713670E+04  0.50400001928E-02 0.  1.
    10030    2    1    2    0    0  0.00000000000E+00  0.00000000000E+00  0.11288278218E+04  0.31961705558E+04  0.29901929654E+04 0.  0.
        1    1    3    3  502    0 -0.60731287799E+03 -0.54561236249E+03 -0.77437890683E+03  0.11252486273E+04  0.50400001928E-02 0.  1.
       -1    1    3    3    0  502  0.60731287799E+03  0.54561236249E+03  0.19032067287E+04  0.20709219285E+04  0.50400001928E-02 0. -1.
</event>
<event>
 5   0  0.4702748E-06  0.3029436E+04  0.7818609E-02  0.8235375E-01
        2   -1    0    0  501    0  0.00000000000E+00  0.00000000000E+00  0.23139174777E+04  0.23139174777E+04  0.25500000920E-02 0.  1.
       -2   -1    0    0    0  501  0.00000000000E+00  0.00000000000E+00 -0.99155239841E+03  0.99155239841E+03  0.25500000920E-02 0. -1.
    10030    2    1    2    0    0  0.00000000000E+00  0.00000000000E+00  0.13223650793E+04  0.33054698761E+04  0.30294358714E+04 0.  0.
        2    1    3    3  502    0  0.96689584270E+03 -0.10882611054E+04  0.11178521106E+04  0.18354272378E+04  0.25500000920E-02 0.  1.
       -2    1    3    3    0  502 -0.96689584270E+03  0.10882611054E+04  0.20451296876E+03  0.14700426383E+04  0.25500000920E-02 0. -1.
</event>
<event>
 5   0  0.4532420E-06  0.3001386E+04  0.7818609E-02  0.8243335E-01
       -2   -1    0    0    0  501  0.00000000000E+00  0.00000000000E+00  0.98305051690E+03  0.98305051690E+03  0.25500000920E-02 0. -1.
        2   -1    0    0  501    0  0.00000000000E+00  0.00000000000E+00 -0.22909095202E+04  0.22909095202E+04  0.25500000920E-02 0.  1.
    10030    2    1    2    0    0  0.00000000000E+00  0.00000000000E+00 -0.13078590033E+04  0.32739600371E+04  0.30013862051E+04 0.  0.
        4    1    3    3  502    0  0.63934230744E+03 -0.13711232770E+03 -0.21273468604E+04  0.22255706355E+04  0.12699999809E+01 0.  1.
       -4    1    3    3    0  502 -0.63934230744E+03  0.13711232770E+03  0.81948785708E+03  0.10483894016E+04  0.12699999809E+01 0. -1.
</event>
<event>
 5   0  0.1709858E-06  0.3006196E+04  0.7818609E-02  0.8241964E-01
        1   -1    0    0  501    0  0.00000000000E+00  0.00000000000E+00  0.13811553937E+04  0.13811553937E+04  0.50400001928E-02 0.  1.
       -1   -1    0    0    0  501  0.00000000000E+00  0.00000000000E+00 -0.16358074437E+04  0.16358074437E+04  0.50400001928E-02 0. -1.
    10030    2    1    2    0    0  0.00000000000E+00  0.00000000000E+00 -0.25465204996E+03  0.30169628374E+04  0.30061964500E+04 0.  0.
        3    1    3    3  502    0 -0.36845375213E+03  0.13969136883E+04  0.28910371691E+03  0.14733319346E+04  0.10100000352E+00 0.  1.
       -3    1    3    3    0  502  0.36845375213E+03 -0.13969136883E+04 -0.54375576688E+03  0.15436309029E+04  0.10100000352E+00 0. -1.
</event>
<event>
 5   0  0.4768570E-06  0.3022092E+04  0.7818609E-02  0.8237450E-01
       -2   -1    0    0    0  501  0.00000000000E+00  0.00000000000E+00  0.16634337580E+04  0.16634337580E+04  0.25500000920E-02 0. -1.
        2   -1    0    0  501    0  0.00000000000E+00  0.00000000000E+00 -0.13726184895E+04  0.13726184895E+04  0.25500000920E-02 0.  1.
    10030    2    1    2    0    0  0.00000000000E+00  0.00000000000E+00  0.29081526851E+03  0.30360522474E+04  0.30220919458E+04 0.  0.
        1    1    3    3  502    0  0.67601217020E+03 -0.51497641583E+03  0.14006058322E+04  0.16382581788E+04  0.50400001928E-02 0. -1.
       -1    1    3    3    0  502 -0.67601217020E+03  0.51497641583E+03 -0.11097905637E+04  0.13977940687E+04  0.50400001928E-02 0.  1.
</event>
<event>
 5   0  0.1734885E-06  0.3034704E+04  0.7818609E-02  0.8233890E-01
       -1   -1    0    0    0  501  0.00000000000E+00  0.00000000000E+00  0.16476196991E+04  0.16476196991E+04  0.50400001928E-02 0. -1.
        1   -1    0    0  501    0  0.00000000000E+00  0.00000000000E+00 -0.13973839774E+04  0.13973839774E+04  0.50400001928E-02 0.  1.
    10030    2    1    2    0    0  0.00000000000E+00  0.00000000000E+00  0.25023572172E+03  0.30450036765E+04  0.30347041822E+04 0.  0.
        2    1    3    3  502    0 -0.14554069053E+04 -0.13320165597E+03  0.53443054335E+03  0.15561387942E+04  0.25500000920E-02 0.  1.
       -2    1    3    3    0  502  0.14554069053E+04  0.13320165597E+03 -0.28419482163E+03  0.14888648823E+04  0.25500000920E-02 0. -1.
</event>
<event>
 5   0  0.1700885E-06  0.2994641E+04  0.7818609E-02  0.8245263E-01
        1   -1    0    0  501    0  0.00000000000E+00  0.00000000000E+00  0.18426994738E+04  0.18426994738E+04  0.50400001928E-02 0.  1.
       -1   -1    0    0    0  501  0.00000000000E+00  0.00000000000E+00 -0.12166758532E+04  0.12166758532E+04  0.50400001928E-02 0. -1.
    10030    2    1    2    0    0  0.00000000000E+00  0.00000000000E+00  0.62602362058E+03  0.30593753271E+04  0.29946405157E+04 0.  0.
        1    1    3    3  502    0  0.10455802925E+04 -0.43476531288E+03 -0.68781246703E+03  0.13248943412E+04  0.50400001928E-02 0. -1.
       -1    1    3    3    0  502 -0.10455802925E+04  0.43476531288E+03  0.13138360876E+04  0.17344809859E+04  0.50400001928E-02 0.  1.
</event>
<event>
 5   0  0.1709858E-06  0.2983746E+04  0.7818609E-02  0.8248388E-01
        1   -1    0    0  501    0  0.00000000000E+00  0.00000000000E+00  0.78329859402E+03  0.78329859403E+03  0.50400001928E-02 0.  1.
       -1   -1    0    0    0  501  0.00000000000E+00  0.00000000000E+00 -0.28414262986E+04  0.28414262987E+04  0.50400001928E-02 0. -1.
    10030    2    1    2    0    0  0.00000000000E+00  0.00000000000E+00 -0.20581277046E+04  0.36247248927E+04  0.29837461184E+04 0.  0.
        3    1    3    3  502    0  0.42106096769E+03 -0.23886243654E+02 -0.27675023056E+04  0.27994520737E+04  0.10100000352E+00 0. -1.
       -3    1    3    3    0  502 -0.42106096769E+03  0.23886243654E+02  0.70937460095E+03  0.82527281902E+03  0.10100000352E+00 0.  1.
</event>
<event>
 5   0  0.1700885E-06  0.3002828E+04  0.7818609E-02  0.8242924E-01
        1   -1    0    0  501    0  0.00000000000E+00  0.00000000000E+00  0.24843815166E+04  0.24843815166E+04  0.50400001928E-02 0.  1.
       -1   -1    0    0    0  501  0.00000000000E+00  0.00000000000E+00 -0.90736641462E+03  0.90736641463E+03  0.50400001928E-02 0. -1.
    10030    2    1    2    0    0  0.00000000000E+00  0.00000000000E+00  0.15770151020E+04  0.33917479312E+04  0.30028282330E+04 0.  0.
        1    1    3    3  502    0  0.53637073997E+03 -0.52562466240E+03  0.22569977585E+04  0.23786579700E+04  0.50400001928E-02 0.  1.
       -1    1    3    3    0  502 -0.53637073997E+03  0.52562466240E+03 -0.67998265650E+03  0.10130899612E+04  0.50400001928E-02 0. -1.
</event>
<event>
 5   0  0.1700885E-06  0.3016805E+04  0.7818609E-02  0.8238948E-01
       -1   -1    0    0    0  501  0.00000000000E+00  0.00000000000E+00  0.12766327045E+04  0.12766327045E+04  0.50400001928E-02 0. -1.
        1   -1    0    0  501    0  0.00000000000E+00  0.00000000000E+00 -0.17822492981E+04  0.17822492981E+04  0.50400001928E-02 0.  1.
    10030    2    1    2    0    0  0.00000000000E+00  0.00000000000E+00 -0.50561659359E+03  0.30588820026E+04  0.30168047610E+04 0.  0.
        1    1    3    3  502    0 -0.11711169251E+04  0.10093091225E+03 -0.12112842655E+04  0.16878718770E+04  0.50400001928E-02 0.  1.
       -1    1    3    3    0  502  0.11711169251E+04 -0.10093091225E+03  0.70566767192E+03  0.13710101256E+04  0.50400001928E-02 0. -1.
</event>
<event>
 5   0  0.1734885E-06  0.3003480E+04  0.7818609E-02  0.8242738E-01
        1   -1    0    0  501    0  0.00000000000E+00  0.00000000000E+00  0.19147325092E+04  0.19147325092E+04  0.50400001928E-02 0. -1.
       -1   -1    0    0    0  501  0.00000000000E+00  0.00000000000E+00 -0.11778264622E+04  0.11778264622E+04  0.50400001928E-02 0.  1.
    10030    2    1    2    0    0  0.00000000000E+00  0.00000000000E+00  0.73690604692E+03  0.30925589714E+04  0.30034797268E+04 0.  0.
        2    1    3    3  502    0  0.12087087825E+04  0.85787469426E+03  0.11984491403E+03  0.14870402534E+04  0.25500000920E-02 0.  1.
       -2    1    3    3    0  502 -0.12087087825E+04 -0.85787469426E+03  0.61706113289E+03  0.16055187179E+04  0.25500000920E-02 0. -1.
</event>
<event>
 5   0  0.1700885E-06  0.3017241E+04  0.7818609E-02  0.8238825E-01
       -1   -1    0    0    0  501  0.00000000000E+00  0.00000000000E+00  0.14743788271E+04  0.14743788271E+04  0.50400001928E-02 0.  1.
        1   -1    0    0  501    0  0.00000000000E+00  0.00000000000E+00 -0.15436571579E+04  0.15436571579E+04  0.50400001928E-02 0. -1.
    10030    2    1    2    0    0  0.00000000000E+00  0.00000000000E+00 -0.69278330814E+02  0.30180359850E+04  0.30172407461E+04 0.  0.
        1    1    3    3  502    0 -0.12744261892E+04 -0.31510507955E+03  0.70884814129E+03  0.14919514102E+04  0.50400001928E-02 0.  1.
       -1    1    3    3    0  502  0.12744261892E+04  0.31510507955E+03 -0.77812647210E+03  0.15260845748E+04  0.50400001928E-02 0. -1.
</event>
<event>
 5   0  0.4702748E-06  0.2943726E+04  0.7818609E-02  0.8259985E-01
       -2   -1    0    0    0  501  0.00000000000E+00  0.00000000000E+00  0.11263666045E+04  0.11263666045E+04  0.25500000920E-02 0.  1.
        2   -1    0    0  501    0  0.00000000000E+00  0.00000000000E+00 -0.19233358825E+04  0.19233358825E+04  0.25500000920E-02 0. -1.
    10030    2    1    2    0    0  0.00000000000E+00  0.00000000000E+00 -0.79696927799E+03  0.30497024869E+04  0.29437264188E+04 0.  0.
        2    1    3    3  502    0 -0.10784529642E+04 -0.65408290870E+03  0.38744054540E+03  0.13194678562E+04  0.25500000920E-02 0.  1.
       -2    1    3    3    0  502  0.10784529642E+04  0.65408290870E+03 -0.11844098234E+04  0.17302346307E+04  0.25500000920E-02 0. -1.
</event>
<event>
 5   0  0.1734885E-06  0.2996058E+04  0.7818609E-02  0.8244858E-01
       -1   -1    0    0    0  501  0.00000000000E+00  0.00000000000E+00  0.13901350149E+04  0.13901350149E+04  0.50400001928E-02 0. -1.
        1   -1    0    0  501    0  0.00000000000E+00  0.00000000000E+00 -0.16142965714E+04  0.16142965714E+04  0.50400001928E-02 0.  1.
    10030    2    1    2    0    0  0.00000000000E+00  0.00000000000E+00 -0.22416155647E+03  0.30044315864E+04  0.29960575351E+04 0.  0.
        2    1    3    3  502    0 -0.83672762757E+03 -0.28417597972E+03 -0.13250984961E+04  0.15927194149E+04  0.25500000920E-02 0.  1.
       -2    1    3    3    0  502  0.83672762757E+03  0.28417597972E+03  0.11009369396E+04  0.14117121715E+04  0.25500000920E-02 0. -1.
</event>
<event>
 5   0  0.1672907E-06  0.2819803E+04  0.7818609E-02  0.8297147E-01
        1   -1    0    0  501    0  0.00000000000E+00  0.00000000000E+00  0.10959557160E+04  0.10959557160E+04  0.50400001928E-02 0. -1.
       -1   -1    0    0    0  501  0.00000000000E+00  0.00000000000E+00 -0.18137797019E+04  0.18137797019E+04  0.50400001928E-02 0.  1.
    10030    2    1    2    0    0  0.00000000000E+00  0.00000000000E+00 -0.71782398592E+03  0.29097354178E+04  0.28198029944E+04 0.  0.
        5    1    3    3  502    0 -0.98367086183E+03  0.19483525751E+03  0.66377221874E+03  0.12025742349E+04  0.46999998093E+01 0. -1.
       -5    1    3    3    0  502  0.98367086183E+03 -0.19483525751E+03 -0.13815962047E+04  0.17071611830E+04  0.46999998093E+01 0.  1.
</event>
<event>
 5   0  0.4768570E-06  0.2804942E+04  0.7818609E-02  0.8301736E-01
        2   -1    0    0  501    0  0.00000000000E+00  0.00000000000E+00  0.19992775573E+04  0.19992775573E+04  0.25500000920E-02 0.  1.
       -2   -1    0    0    0  501  0.00000000000E+00  0.00000000000E+00 -0.98381813049E+03  0.98381813049E+03  0.25500000920E-02 0. -1.
    10030    2    1    2    0    0  0.00000000000E+00  0.00000000000E+00  0.10154594269E+04  0.29830956878E+04  0.28049424299E+04 0.  0.
        1    1    3    3  502    0 -0.25001868765E+03  0.69451461130E+03 -0.76051497090E+03  0.10598315482E+04  0.50400001928E-02 0. -1.
       -1    1    3    3    0  502  0.25001868765E+03 -0.69451461130E+03  0.17759743978E+04  0.19232641397E+04  0.50400001928E-02 0.  1.
</event>
<event>
 5   0  0.4768570E-06  0.2993266E+04  0.7818609E-02  0.8245656E-01
       -2   -1    0    0    0  501  0.00000000000E+00  0.00000000000E+00  0.11753391296E+04  0.11753391296E+04  0.25500000920E-02 0.  1.
        2   -1    0    0  501    0  0.00000000000E+00  0.00000000000E+00 -0.19057567443E+04  0.19057567443E+04  0.25500000920E-02 0. -1.
    10030    2    1    2    0    0  0.00000000000E+00  0.00000000000E+00 -0.73041761467E+03  0.30810958738E+04  0.29932660911E+04 0.  0.
        1    1    3    3  502    0  0.11705032147E+04 -0.22651937297E+03  0.56605983070E+03  0.13197774562E+04  0.50400001928E-02 0.  1.
       -1    1    3    3    0  502 -0.11705032147E+04  0.22651937297E+03 -0.12964774454E+04  0.17613184176E+04  0.50400001928E-02 0. -1.
</event>
<event>
 5   0  0.4702748E-06  0.3007542E+04  0.7818609E-02  0.8241580E-01
        2   -1    0    0  501    0  0.00000000000E+00  0.00000000000E+00  0.23550131592E+04  0.23550131592E+04  0.25500000920E-02 0. -1.
       -2   -1    0    0    0  501  0.00000000000E+00  0.00000000000E+00 -0.96021865001E+03  0.96021865001E+03  0.25500000920E-02 0.  1.
    10030    2    1    2    0    0  0.00000000000E+00  0.00000000000E+00  0.13947945092E+04  0.33152318092E+04  0.30075422235E+04 0.  0.
        2    1    3    3  502    0  0.16710692268E+03 -0.14935341091E+04  0.75529400929E+03  0.16819744051E+04  0.25500000920E-02 0. -1.
       -2    1    3    3    0  502 -0.16710692268E+03  0.14935341091E+04  0.63950049988E+03  0.16332574041E+04  0.25500000920E-02 0.  1.
</event>
<event>
 5   0  0.4935331E-06  0.2990916E+04  0.7818609E-02  0.8246330E-01
        2   -1    0    0  501    0  0.00000000000E+00  0.00000000000E+00  0.13704459926E+04  0.13704459926E+04  0.25500000920E-02 0. -1.
       -2   -1    0    0    0  501  0.00000000000E+00  0.00000000000E+00 -0.16318732600E+04  0.16318732600E+04  0.25500000920E-02 0.  1.
    10030    2    1    2    0    0  0.00000000000E+00  0.00000000000E+00 -0.26142726738E+03  0.30023192526E+04  0.29909156923E+04 0.  0.
        5    1    3    3  502    0 -0.14478724344E+04  0.16174325985E+03  0.20802908362E+03  0.14716635683E+04  0.46999998093E+01 0. -1.
       -5    1    3    3    0  502  0.14478724344E+04 -0.16174325985E+03 -0.46945635099E+03  0.15306556843E+04  0.46999998093E+01 0.  1.
</event>
<event>
 5   0  0.1686012E-06  0.3051633E+04  0.7818609E-02  0.8229139E-01
       -1   -1    0    0    0  501  0.00000000000E+00  0.00000000000E+00  0.11199251856E+04  0.11199251856E+04  0.50400001928E-02 0. -1.
        1   -1    0    0  501    0  0.00000000000E+00  0.00000000000E+00 -0.20788135113E+04  0.20788135113E+04  0.50400001928E-02 0.  1.
    10030    2    1    2    0    0  0.00000000000E+00  0.00000000000E+00 -0.95888832570E+03  0.31987386969E+04  0.30516327482E+04 0.  0.
        4    1    3    3  502    0 -0.20926631238E+03  0.96108499121E+03 -0.17021378638E+04  0.19658971667E+04  0.12699999809E+01 0.  1.
       -4    1    3    3    0  502  0.20926631238E+03 -0.96108499121E+03  0.74324953811E+03  0.12328415302E+04  0.12699999809E+01 0. -1.
</event>
<event>
 5   0  0.4768570E-06  0.3028731E+04  0.7818609E-02  0.8235574E-01
        2   -1    0    0  501    0  0.00000000000E+00  0.00000000000E+00  0.23374411414E+04  0.23374411414E+04  0.25500000920E-02 0.  1.
       -2   -1    0    0    0  501  0.00000000000E+00  0.00000000000E+00 -0.98111655403E+03  0.98111655403E+03  0.25500000920E-02 0. -1.
    10030    2    1    2    0    0  0.00000000000E+00  0.00000000000E+00  0.13563245874E+04  0.33185576955E+04  0.30287305578E+04 0.  0.
        1    1    3    3  502    0 -0.73801853779E+02  0.74989449230E+03  0.21174510858E+04  0.22475292132E+04  0.50400001928E-02 0.  1.
       -1    1    3    3    0  502  0.73801853779E+02 -0.74989449230E+03 -0.76112649843E+03  0.10710284823E+04  0.50400001928E-02 0. -1.
</event>
<event>
 5   0  0.1700885E-06  0.2975779E+04  0.7818609E-02  0.8250681E-01
       -1   -1    0    0    0  501  0.00000000000E+00  0.00000000000E+00  0.15094056738E+04  0.15094056738E+04  0.50400001928E-02 0. -1.
        1   -1    0    0  501    0  0.00000000000E+00  0.00000000000E+00 -0.14666798246E+04  0.14666798247E+04  0.50400001928E-02 0.  1.
    10030    2    1    2    0    0  0.00000000000E+00  0.00000000000E+00  0.42725849166E+02  0.29760854985E+04  0.29757787882E+04 0.  0.
        1    1    3    3  502    0  0.66408872371E+03  0.20692614538E+03 -0.12940606649E+04  0.14691580129E+04  0.50400001928E-02 0.  1.
       -1    1    3    3    0  502 -0.66408872371E+03 -0.20692614538E+03  0.13367865140E+04  0.15069274856E+04  0.50400001928E-02 0. -1.
</event>
<event>
 5   0  0.1734885E-06  0.3017060E+04  0.7818609E-02  0.8238876E-01
       -1   -1    0    0    0  501  0.00000000000E+00  0.00000000000E+00  0.13042114713E+04  0.13042114714E+04  0.50400001928E-02 0.  1.
        1   -1    0    0  501    0  0.00000000000E+00  0.00000000000E+00 -0.17448566180E+04  0.17448566180E+04  0.50400001928E-02 0. -1.
    10030    2    1    2    0    0  0.00000000000E+00  0.00000000000E+00 -0.44064514668E+03  0.30490680894E+04  0.30170595070E+04 0.  0.
        2    1    3    3  502    0 -0.96630893556E+02  0.59834656256E+03 -0.16163927216E+04  0.17262912758E+04  0.25500000920E-02 0. -1.
       -2    1    3    3    0  502  0.96630893556E+02 -0.59834656256E+03  0.11757475749E+04  0.13227768136E+04  0.25500000920E-02 0.  1.
</event>
<event>
 5   0  0.1709858E-06  0.2973767E+04  0.7818609E-02  0.8251262E-01
       -1   -1    0    0    0  501  0.00000000000E+00  0.00000000000E+00  0.11644140871E+04  0.11644140871E+04  0.50400001928E-02 0. -1.
        1   -1    0    0  501    0  0.00000000000E+00  0.00000000000E+00 -0.18986560269E+04  0.18986560269E+04  0.50400001928E-02 0.  1.
    10030    2    1    2    0    0  0.00000000000E+00  0.00000000000E+00 -0.73424193980E+03  0.30630701139E+04  0.29737665169E+04 0.  0.
        3    1    3    3  502    0 -0.13678398835E+04  0.41852560456E+03  0.50863547409E+02  0.14313408886E+04  0.10100000352E+00 0. -1.
       -3    1    3    3    0  502  0.13678398835E+04 -0.41852560456E+03 -0.78510548721E+03  0.16317292254E+04  0.10100000352E+00 0.  1.
</event>
<event>
 5   0  0.1672907E-06  0.3012572E+04  0.7818609E-02  0.8240150E-01
        1   -1    0    0  501    0  0.00000000000E+00  0.00000000000E+00  0.23123133074E+04  0.23123133074E+04  0.50400001928E-02 0. -1.
       -1   -1    0    0    0  501  0.00000000000E+00  0.00000000000E+00 -0.98122388403E+03  0.98122388404E+03  0.50400001928E-02 0.  1.
    10030    2    1    2    0    0  0.00000000000E+00  0.00000000000E+00  0.13310894234E+04  0.32935371914E+04  0.30125716885E+04 0.  0.
        5    1    3    3  502    0  0.80840706938E+03  0.52653243185E+03 -0.59911054855E+03  0.11356557273E+04  0.46999998093E+01 0.  1.
       -5    1    3    3    0  502 -0.80840706938E+03 -0.52653243185E+03  0.19301999719E+04  0.21578814641E+04  0.46999998093E+01 0. -1.
</event>
<event>
 5   0  0.1734885E-06  0.3054108E+04  0.7818609E-02  0.8228447E-01
        1   -1    0    0  501    0  0.00000000000E+00  0.00000000000E+00  0.12704993707E+04  0.12704993708E+04  0.50400001928E-02 0.  1.
       -1   -1    0    0    0  501  0.00000000000E+00  0.00000000000E+00 -0.18354152378E+04  0.18354152378E+04  0.50400001928E-02 0. -1.
    10030    2    1    2    0    0  0.00000000000E+00  0.00000000000E+00 -0.56491586709E+03  0.31059146086E+04  0.30541079907E+04 0.  0.
        2    1    3    3  502    0  0.74095146612E+02 -0.17059937325E+03 -0.18238529377E+04  0.18333122416E+04  0.25500000920E-02 0. -1.
       -2    1    3    3    0  502 -0.74095146612E+02  0.17059937325E+03  0.12589370706E+04  0.12726023670E+04  0.25500000920E-02 0.  1.
</event>
<event>
 5   0  0.4768570E-06  0.3022903E+04  0.7818609E-02  0.8237221E-01
       -2   -1    0    0    0  501  0.00000000000E+00  0.00000000000E+00  0.13797695893E+04  0.13797695893E+04  0.25500000920E-02 0.  1.
        2   -1    0    0  501    0  0.00000000000E+00  0.00000000000E+00 -0.16557005642E+04  0.16557005642E+04  0.25500000920E-02 0. -1.
    10030    2    1    2    0    0  0.00000000000E+00  0.00000000000E+00 -0.27593097485E+03  0.30354701535E+04  0.30229027688E+04 0.  0.
        1    1    3    3  502    0  0.37887202138E+03  0.11707772598E+04 -0.10192369689E+04  0.15978446106E+04  0.50400001928E-02 0. -1.
       -1    1    3    3    0  502 -0.37887202138E+03 -0.11707772598E+04  0.74330599406E+03  0.14376255429E+04  0.50400001928E-02 0.  1.
</event>
<event>
 5   0  0.5003556E-06  0.3053533E+04  0.7818609E-02  0.8228607E-01
        2   -1    0    0  501    0  0.00000000000E+00  0.00000000000E+00  0.21811030353E+04  0.21811030353E+04  0.25500000920E-02 0. -1.
       -2   -1    0    0    0  501  0.00000000000E+00  0.00000000000E+00 -0.10687329269E+04  0.10687329269E+04  0.25500000920E-02 0.  1.
    10030    2    1    2    0    0  0.00000000000E+00  0.00000000000E+00  0.11123701085E+04  0.32498359622E+04  0.30535334488E+04 0.  0.
        3    1    3    3  502    0 -0.24211986447E+03  0.48335157336E+03  0.20758310622E+04  0.21450700178E+04  0.10100000352E+00 0. -1.
       -3    1    3    3    0  502  0.24211986447E+03 -0.48335157336E+03 -0.96346095376E+03  0.11047659444E+04  0.10100000352E+00 0.  1.
</event>
<event>
 5   0  0.1700885E-06  0.3014426E+04  0.7818609E-02  0.8239624E-01
       -1   -1    0    0    0  501  0.00000000000E+00  0.00000000000E+00  0.11092550416E+04  0.11092550416E+04  0.50400001928E-02 0. -1.
        1   -1    0    0  501    0  0.00000000000E+00  0.00000000000E+00 -0.20479423414E+04  0.20479423414E+04  0.50400001928E-02 0.  1.
    10030    2    1    2    0    0  0.00000000000E+00  0.00000000000E+00 -0.93868729981E+03  0.31571973829E+04  0.30144255619E+04 0.  0.
        1    1    3    3  502    0  0.11403995626E+04 -0.92642122977E+03 -0.82129950969E+03  0.16832410231E+04  0.50400001928E-02 0.  1.
       -1    1    3    3    0  502 -0.11403995626E+04  0.92642122977E+03 -0.11738779012E+03  0.14739563598E+04  0.50400001928E-02 0. -1.
</event>
<event>
 5   0  0.1734885E-06  0.3034619E+04  0.7818609E-02  0.8233914E-01
        1   -1    0    0  501    0  0.00000000000E+00  0.00000000000E+00  0.10832647810E+04  0.10832647810E+04  0.50400001928E-02 0.  1.
       -1   -1    0    0    0  501  0.00000000000E+00  0.00000000000E+00 -0.21252677490E+04  0.21252677490E+04  0.50400001928E-02 0. -1.
    10030    2    1    2    0    0  0.00000000000E+00  0.00000000000E+00 -0.10420029681E+04  0.32085325300E+04  0.30346187258E+04 0.  0.
        2    1    3    3  502    0 -0.28269600847E+03 -0.14447348859E+04 -0.90955645350E+03  0.17304533701E+04  0.25500000920E-02 0. -1.
       -2    1    3    3    0  502  0.28269600847E+03  0.14447348859E+04 -0.13244651456E+03  0.14780791600E+04  0.25500000920E-02 0.  1.
</event>
<event>
 5   0  0.1700885E-06  0.3001567E+04  0.7818609E-02  0.8243284E-01
       -1   -1    0    0    0  501  0.00000000000E+00  0.00000000000E+00  0.82727782412E+03  0.82727782414E+03  0.50400001928E-02 0.  1.
        1   -1    0    0  501    0  0.00000000000E+00  0.00000000000E+00 -0.27226049243E+04  0.27226049243E+04  0.50400001928E-02 0. -1.
    10030    2    1    2    0    0  0.00000000000E+00  0.00000000000E+00 -0.18953271002E+04  0.35498827484E+04  0.30015667094E+04 0.  0.
        1    1    3    3  502    0  0.12530585205E+04 -0.82176046068E+03 -0.84938912097E+03  0.17224714190E+04  0.50400001928E-02 0. -1.
       -1    1    3    3    0  502 -0.12530585205E+04  0.82176046068E+03 -0.10459379792E+04  0.18274113294E+04  0.50400001928E-02 0.  1.
</event>
<event>
 5   0  0.1686012E-06  0.3044107E+04  0.7818609E-02  0.8231247E-01
        1   -1    0    0  501    0  0.00000000000E+00  0.00000000000E+00  0.16946380033E+04  0.16946380033E+04  0.50400001928E-02 0. -1.
       -1   -1    0    0    0  501  0.00000000000E+00  0.00000000000E+00 -0.13670455684E+04  0.13670455684E+04  0.50400001928E-02 0.  1.
    10030    2    1    2    0    0  0.00000000000E+00  0.00000000000E+00  0.32759243494E+03  0.30616835717E+04  0.30441073387E+04 0.  0.
        4    1    3    3  502    0  0.45173969516E+03  0.13098413537E+04 -0.46983543228E+03  0.14630447944E+04  0.12699999809E+01 0.  1.
       -4    1    3    3    0  502 -0.45173969516E+03 -0.13098413537E+04  0.79742786722E+03  0.15986387773E+04  0.12699999809E+01 0. -1.
</event>
<event>
 5   0  0.1709858E-06  0.2994598E+04  0.7818609E-02  0.8245275E-01
       -1   -1    0    0    0  501  0.00000000000E+00  0.00000000000E+00  0.18511944398E+04  0.18511944398E+04  0.50400001928E-02 0. -1.
        1   -1    0    0  501    0  0.00000000000E+00  0.00000000000E+00 -0.12110585012E+04  0.12110585012E+04  0.50400001928E-02 0.  1.
    10030    2    1    2    0    0  0.00000000000E+00  0.00000000000E+00  0.64013593856E+03  0.30622529410E+04  0.29945983128E+04 0.  0.
        3    1    3    3  502    0  0.10878101580E+04  0.66605817001E+03  0.11219656777E+04  0.16987558441E+04  0.10100000352E+00 0. -1.
       -3    1    3    3    0  502 -0.10878101580E+04 -0.66605817001E+03 -0.48182973909E+03  0.13634970969E+04  0.10100000352E+00 0.  1.
</event>
<event>
 5   0  0.4768570E-06  0.2998029E+04  0.7818609E-02  0.8244294E-01
        2   -1    0    0  501    0  0.00000000000E+00  0.00000000000E+00  0.23081321296E+04  0.23081321296E+04  0.25500000920E-02 0.  1.
       -2   -1    0    0    0  501  0.00000000000E+00  0.00000000000E+00 -0.97353384187E+03  0.97353384188E+03  0.25500000920E-02 0. -1.
    10030    2    1    2    0    0  0.00000000000E+00  0.00000000000E+00  0.13345982877E+04  0.32816659715E+04  0.29980291791E+04 0.  0.
        1    1    3    3  502    0  0.81745946447E+03 -0.68231367622E+03 -0.48763020716E+03  0.11711426676E+04  0.50400001928E-02 0. -1.
       -1    1    3    3    0  502 -0.81745946447E+03  0.68231367622E+03  0.18222284949E+04  0.21105233039E+04  0.50400001928E-02 0.  1.
</event>
<event>
 5   0  0.1672907E-06  0.3034028E+04  0.7818609E-02  0.8234080E-01
        1   -1    0    0  501    0  0.00000000000E+00  0.00000000000E+00  0.16350515170E+04  0.16350515170E+04  0.50400001928E-02 0. -1.
       -1   -1    0    0    0  501  0.00000000000E+00  0.00000000000E+00 -0.14074982069E+04  0.14074982069E+04  0.50400001928E-02 0.  1.
    10030    2    1    2    0    0  0.00000000000E+00  0.00000000000E+00  0.22755331014E+03  0.30425497239E+04  0.30340283970E+04 0.  0.
        5    1    3    3  502    0  0.11552239250E+04  0.74749007856E+03 -0.52678671071E+03  0.14733669139E+04  0.46999998093E+01 0.  1.
       -5    1    3    3    0  502 -0.11552239250E+04 -0.74749007856E+03  0.75434002084E+03  0.15691828101E+04  0.46999998093E+01 0. -1.
</event>
<event>
 5   0  0.4702748E-06  0.2972534E+04  0.7818609E-02  0.8251618E-01
        2   -1    0    0  501    0  0.00000000000E+00  0.00000000000E+00  0.21894195627E+04  0.21894195627E+04  0.25500000920E-02 0.  1.
       -2   -1    0    0    0  501  0.00000000000E+00  0.00000000000E+00 -0.10089383020E+04  0.10089383020E+04  0.25500000920E-02 0. -1.
    10030    2    1    2    0    0  0.00000000000E+00  0.00000000000E+00  0.11804812607E+04  0.31983578647E+04  0.29725337717E+04 0.  0.
        2    1    3    3  502    0 -0.79623576975E+03 -0.70255444240E+03  0.17091540299E+04  0.20121584538E+04  0.25500000920E-02 0.  1.
       -2    1    3    3    0  502  0.79623576975E+03  0.70255444240E+03 -0.52867276916E+03  0.11861994109E+04  0.25500000920E-02 0. -1.
</event>
<event>
 5   0  0.1686012E-06  0.3050192E+04  0.7818609E-02  0.8229542E-01
       -1   -1    0    0    0  501  0.00000000000E+00  0.00000000000E+00  0.12358999104E+04  0.12358999104E+04  0.50400001928E-02 0. -1.
        1   -1    0    0  501    0  0.00000000000E+00  0.00000000000E+00 -0.18819632552E+04  0.18819632552E+04  0.50400001928E-02 0.  1.
    10030    2    1    2    0    0  0.00000000000E+00  0.00000000000E+00 -0.64606334484E+03  0.31178631656E+04  0.30501922683E+04 0.  0.
        4    1    3    3  502    0  0.46403762068E+03 -0.85554816555E+03  0.87716550131E+03  0.13102345235E+04  0.12699999809E+01 0. -1.
       -4    1    3    3    0  502 -0.46403762068E+03  0.85554816555E+03 -0.15232288462E+04  0.18076286421E+04  0.12699999809E+01 0.  1.
</event>
<event>
 5   0  0.5003556E-06  0.2914470E+04  0.7818609E-02  0.8268585E-01
        2   -1    0    0  501    0  0.00000000000E+00  0.00000000000E+00  0.22588119581E+04  0.22588119581E+04  0.25500000920E-02 0. -1.
       -2   -1    0    0    0  501  0.00000000000E+00  0.00000000000E+00 -0.94011091914E+03  0.94011091914E+03  0.25500000920E-02 0.  1.
    10030    2    1    2    0    0  0.00000000000E+00  0.00000000000E+00  0.13187010389E+04  0.31989228772E+04  0.29144699594E+04 0.  0.
        3    1    3    3  502    0 -0.49202875780E+03  0.13222341984E+04  0.10598440735E+04  0.17645580308E+04  0.10100000352E+00 0. -1.
       -3    1    3    3    0  502  0.49202875780E+03 -0.13222341984E+04  0.25885696541E+03  0.14343648464E+04  0.10100000352E+00 0.  1.
</event>
<event>
 5   0  0.1700885E-06  0.2996805E+04  0.7818609E-02  0.8244644E-01
        1   -1    0    0  501    0  0.00000000000E+00  0.00000000000E+00  0.16948309637E+04  0.16948309637E+04  0.50400001928E-02 0.  1.
       -1   -1    0    0    0  501  0.00000000000E+00  0.00000000000E+00 -0.13247398183E+04  0.13247398183E+04  0.50400001928E-02 0. -1.
    10030    2    1    2    0    0  0.00000000000E+00  0.00000000000E+00  0.37009114544E+03  0.30195707820E+04  0.29968050073E+04 0.  0.
        1    1    3    3  502    0 -0.14714745710E+04 -0.25227250221E+03  0.31381009922E+03  0.15255673066E+04  0.50400001928E-02 0. -1.
       -1    1    3    3    0  502  0.14714745710E+04  0.25227250221E+03  0.56281046217E+02  0.14940034754E+04  0.50400001928E-02 0.  1.
</event>
<event>
 5   0  0.5003556E-06  0.2944073E+04  0.7818609E-02  0.8259884E-01
       -2   -1    0    0    0  501  0.00000000000E+00  0.00000000000E+00  0.14885053972E+04  0.14885053972E+04  0.25500000920E-02 0.  1.
        2   -1    0    0  501    0  0.00000000000E+00  0.00000000000E+00 -0.14557496973E+04  0.14557496973E+04  0.25500000920E-02 0. -1.
    10030    2    1    2    0    0  0.00000000000E+00  0.00000000000E+00  0.32755699911E+02  0.29442550945E+04  0.29440728805E+04 0.  0.
        3    1    3    3  502    0  0.84087409382E+03  0.80770535216E+03 -0.88225113016E+03  0.14621300368E+04  0.10100000352E+00 0. -1.
       -3    1    3    3    0  502 -0.84087409382E+03 -0.80770535216E+03  0.91500683008E+03  0.14821250578E+04  0.10100000352E+00 0.  1.
</event>
<event>
 5   0  0.1672907E-06  0.3012823E+04  0.7818609E-02  0.8240079E-01
        1   -1    0    0  501    0  0.00000000000E+00  0.00000000000E+00  0.21464042423E+04  0.21464042423E+04  0.50400001928E-02 0.  1.
       -1   -1    0    0    0  501  0.00000000000E+00  0.00000000000E+00 -0.10572449086E+04  0.10572449086E+04  0.50400001928E-02 0. -1.
    10030    2    1    2    0    0  0.00000000000E+00  0.00000000000E+00  0.10891593337E+04  0.32036491509E+04  0.30128225683E+04 0.  0.
        5    1    3    3  502    0  0.82031203093E+02 -0.97054249817E+03  0.17665263909E+04  0.20172554223E+04  0.46999998093E+01 0.  1.
       -5    1    3    3    0  502 -0.82031203093E+02  0.97054249817E+03 -0.67736705721E+03  0.11863937286E+04  0.46999998093E+01 0. -1.
</event>
<event>
 5   0  0.1672907E-06  0.2969969E+04  0.7818609E-02  0.8252359E-01
       -1   -1    0    0    0  501  0.00000000000E+00  0.00000000000E+00  0.11363525794E+04  0.11363525794E+04  0.50400001928E-02 0.  1.
        1   -1    0    0  501    0  0.00000000000E+00  0.00000000000E+00 -0.19405767001E+04  0.19405767001E+04  0.50400001928E-02 0. -1.
    10030    2    1    2    0    0  0.00000000000E+00  0.00000000000E+00 -0.80422412067E+03  0.30769292796E+04  0.29699692515E+04 0.  0.
        5    1    3    3  502    0 -0.46204692954E+03 -0.30570754614E+03  0.10252626833E+04  0.11653884025E+04  0.46999998093E+01 0.  1.
       -5    1    3    3    0  502  0.46204692954E+03  0.30570754614E+03 -0.18294868040E+04  0.19115408771E+04  0.46999998093E+01 0. -1.
</event>
<event>
 5   0  0.1709858E-06  0.2977903E+04  0.7818609E-02  0.8250069E-01
       -1   -1    0    0    0  501  0.00000000000E+00  0.00000000000E+00  0.13724195711E+04  0.13724195711E+04  0.50400001928E-02 0. -1.
        1   -1    0    0  501    0  0.00000000000E+00  0.00000000000E+00 -0.16153783993E+04  0.16153783993E+04  0.50400001928E-02 0.  1.
    10030    2    1    2    0    0  0.00000000000E+00  0.00000000000E+00 -0.24295882822E+03  0.29877979704E+04  0.29779032422E+04 0.  0.
        3    1    3    3  502    0  0.10732960872E+04  0.36620578005E+03 -0.10895198600E+04  0.15726171498E+04  0.10100000352E+00 0.  1.
       -3    1    3    3    0  502 -0.10732960872E+04 -0.36620578005E+03  0.84656103182E+03  0.14151808206E+04  0.10100000352E+00 0. -1.
</event>
<event>
 5   0  0.4935331E-06  0.3000046E+04  0.7818609E-02  0.8243718E-01
       -2   -1    0    0    0  501  0.00000000000E+00  0.00000000000E+00  0.13939758283E+04  0.13939758283E+04  0.25500000920E-02 0. -1.
        2   -1    0    0  501    0  0.00000000000E+00  0.00000000000E+00 -0.16141372765E+04  0.16141372765E+04  0.25500000920E-02 0.  1.
    10030    2    1    2    0    0  0.00000000000E+00  0.00000000000E+00 -0.22016144821E+03  0.30081131048E+04  0.30000455643E+04 0.  0.
        5    1    3    3  502    0  0.69539462901E+02  0.17534231011E+03 -0.16021905127E+04  0.16132629022E+04  0.46999998093E+01 0.  1.
       -5    1    3    3    0  502 -0.69539462901E+02 -0.17534231011E+03  0.13820290645E+04  0.13948502026E+04  0.46999998093E+01 0. -1.
</event>
<event>
 5   0  0.4768570E-06  0.2998850E+04  0.7818609E-02  0.8244059E-01
       -2   -1    0    0    0  501  0.00000000000E+00  0.00000000000E+00  0.17577492344E+04  0.17577492344E+04  0.25500000920E-02 0. -1.
        2   -1    0    0  501    0  0.00000000000E+00  0.00000000000E+00 -0.12790650646E+04  0.12790650646E+04  0.25500000920E-02 0.  1.
    10030    2    1    2    0    0  0.00000000000E+00  0.00000000000E+00  0.47868416986E+03  0.30368142990E+04  0.29988502050E+04 0.  0.
        1    1    3    3  502    0  0.68221949828E+03 -0.67720696810E+03  0.14046676978E+04  0.17020940229E+04  0.50400001928E-02 0. -1.
       -1    1    3    3    0  502 -0.68221949828E+03  0.67720696810E+03 -0.92598352793E+03  0.13347202761E+04  0.50400001928E-02 0.  1.
</event>
<event>
 5   0  0.4768570E-06  0.3011863E+04  0.7818609E-02  0.8240352E-01
        2   -1    0    0  501    0  0.00000000000E+00  0.00000000000E+00  0.18028508008E+04  0.18028508008E+04  0.25500000920E-02 0. -1.
       -2   -1    0    0    0  501  0.00000000000E+00  0.00000000000E+00 -0.12579128915E+04  0.12579128915E+04  0.25500000920E-02 0.  1.
    10030    2    1    2    0    0  0.00000000000E+00  0.00000000000E+00  0.54493790931E+03  0.30607636923E+04  0.30118627218E+04 0.  0.
        1    1    3    3  502    0  0.29280662806E+03  0.96667260761E+03  0.14075813265E+04  0.17324770828E+04  0.50400001928E-02 0. -1.
       -1    1    3    3    0  502 -0.29280662806E+03 -0.96667260761E+03 -0.86264341716E+03  0.13282866095E+04  0.50400001928E-02 0.  1.
</event>
<event>
 5   0  0.1734885E-06  0.3000479E+04  0.7818609E-02  0.8243594E-01
        1   -1    0    0  501    0  0.00000000000E+00  0.00000000000E+00  0.22127138079E+04  0.22127138079E+04  0.50400001928E-02 0. -1.
       -1   -1    0    0    0  501  0.00000000000E+00  0.00000000000E+00 -0.10171755951E+04  0.10171755951E+04  0.50400001928E-02 0.  1.
    10030    2    1    2    0    0  0.00000000000E+00  0.00000000000E+00  0.11955382128E+04  0.32298894030E+04  0.30004789514E+04 0.  0.
        2    1    3    3  502    0 -0.10389152077E+03 -0.10308883209E+02  0.22087986559E+04  0.22112646209E+04  0.25500000920E-02 0. -1.
       -2    1    3    3    0  502  0.10389152077E+03  0.10308883209E+02 -0.10132604432E+04  0.10186247822E+04  0.25500000920E-02 0.  1.
</event>
<event>
 5   0  0.1734885E-06  0.2993980E+04  0.7818609E-02  0.8245452E-01
        1   -1    0    0  501    0  0.00000000000E+00  0.00000000000E+00  0.12907587206E+04  0.12907587206E+04  0.50400001928E-02 0.  1.
       -1   -1    0    0    0  501  0.00000000000E+00  0.00000000000E+00 -0.17361723719E+04  0.17361723719E+04  0.50400001928E-02 0. -1.
    10030    2    1    2    0    0  0.00000000000E+00  0.00000000000E+00 -0.44541365132E+03  0.30269310925E+04  0.29939803804E+04 0.  0.
        2    1    3    3  502    0 -0.37244659401E+03  0.70990177834E+03 -0.15008605544E+04  0.17015461804E+04  0.25500000920E-02 0. -1.
       -2    1    3    3    0  502  0.37244659401E+03 -0.70990177834E+03  0.10554469030E+04  0.13253849122E+04  0.25500000920E-02 0.  1.
</event>
<event>
 5   0  0.4702748E-06  0.3004646E+04  0.7818609E-02  0.8242405E-01
       -2   -1    0    0    0  501  0.00000000000E+00  0.00000000000E+00  0.10942294451E+04  0.10942294451E+04  0.25500000920E-02 0.  1.
        2   -1    0    0  501    0  0.00000000000E+00  0.00000000000E+00 -0.20626152681E+04  0.20626152681E+04  0.25500000920E-02 0. -1.
    10030    2    1    2    0    0  0.00000000000E+00  0.00000000000E+00 -0.96838582295E+03  0.31568447132E+04  0.30046459760E+04 0.  0.
        2    1    3    3  502    0  0.10918861001E+04 -0.28259439855E+03 -0.15268845040E+04  0.18982758330E+04  0.25500000920E-02 0. -1.
       -2    1    3    3    0  502 -0.10918861001E+04  0.28259439855E+03  0.55849868100E+03  0.12585688802E+04  0.25500000920E-02 0.  1.
</event>
<event>
 5   0  0.1672907E-06  0.3008180E+04  0.7818609E-02  0.8241399E-01
        1   -1    0    0  501    0  0.00000000000E+00  0.00000000000E+00  0.13024037413E+04  0.13024037413E+04  0.50400001928E-02 0.  1.
       -1   -1    0    0    0  501  0.00000000000E+00  0.00000000000E+00 -0.17370088024E+04  0.17370088024E+04  0.50400001928E-02 0. -1.
    10030    2    1    2    0    0  0.00000000000E+00  0.00000000000E+00 -0.43460506111E+03  0.30394125437E+04  0.30081800231E+04 0.  0.
        5    1    3    3  502    0 -0.11115522500E+04 -0.48985821531E+03 -0.11135039736E+04  0.16478539574E+04  0.46999998093E+01 0. -1.
       -5    1    3    3    0  502  0.11115522500E+04  0.48985821531E+03  0.67889891248E+03  0.13915585863E+04  0.46999998093E+01 0.  1.
</event>
<event>
 5   0  0.1686012E-06  0.2967084E+04  0.7818609E-02  0.8253193E-01
        1   -1    0    0  501    0  0.00000000000E+00  0.00000000000E+00  0.16380528712E+04  0.16380528712E+04  0.50400001928E-02 0.  1.
       -1   -1    0    0    0  501  0.00000000000E+00  0.00000000000E+00 -0.13436053207E+04  0.13436053207E+04  0.50400001928E-02 0. -1.
    10030    2    1    2    0    0  0.00000000000E+00  0.00000000000E+00  0.29444755048E+03  0.29816581918E+04  0.29670837894E+04 0.  0.
        4    1    3    3  502    0  0.12767387373E+03 -0.54372162344E+03 -0.12339221114E+04  0.13544368615E+04  0.12699999809E+01 0. -1.
       -4    1    3    3    0  502 -0.12767387373E+03  0.54372162344E+03  0.15283696619E+04  0.16272213304E+04  0.12699999809E+01 0.  1.
</event>
<event>
 5   0  0.1709858E-06  0.3010079E+04  0.7818609E-02  0.8240859E-01
       -1   -1    0    0    0  501  0.00000000000E+00  0.00000000000E+00  0.11374473148E+04  0.11374473148E+04  0.50400001928E-02 0. -1.
        1   -1    0    0  501    0  0.00000000000E+00  0.00000000000E+00 -0.19914280117E+04  0.19914280117E+04  0.50400001928E-02 0.  1.
    10030    2    1    2    0    0  0.00000000000E+00  0.00000000000E+00 -0.85398069695E+03  0.31288753265E+04  0.30100793641E+04 0.  0.
        3    1    3    3  502    0 -0.11058712317E+04  0.56751022832E+03 -0.13090833472E+04  0.18051920287E+04  0.10100000352E+00 0.  1.
       -3    1    3    3    0  502  0.11058712317E+04 -0.56751022832E+03  0.45510265027E+03  0.13236832978E+04  0.10100000352E+00 0. -1.
</event>
<event>
 5   0  0.1672907E-06  0.2965238E+04  0.7818609E-02  0.8253727E-01
       -1   -1    0    0    0  501  0.00000000000E+00  0.00000000000E+00  0.14838725831E+04  0.14838725831E+04  0.50400001928E-02 0. -1.
        1   -1    0    0  501    0  0.00000000000E+00  0.00000000000E+00 -0.14813669431E+04  0.14813669431E+04  0.50400001928E-02 0.  1.
    10030    2    1    2    0    0  0.00000000000E+00  0.00000000000E+00  0.25056400740E+01  0.29652395262E+04  0.29652384676E+04 0.  0.
        5    1    3    3  502    0  0.11586730275E+04  0.82200790278E+03 -0.42291419188E+03  0.14822613402E+04  0.46999998093E+01 0.  1.
       -5    1    3    3    0  502 -0.11586730275E+04 -0.82200790278E+03  0.42541983195E+03  0.14829781860E+04  0.46999998093E+01 0. -1.
</event>
<event>
 5   0  0.4702748E-06  0.2997830E+04  0.7818609E-02  0.8244351E-01
       -2   -1    0    0    0  501  0.00000000000E+00  0.00000000000E+00  0.12243731719E+04  0.12243731719E+04  0.25500000920E-02 0. -1.
        2   -1    0    0  501    0  0.00000000000E+00  0.00000000000E+00 -0.18350171968E+04  0.18350171968E+04  0.25500000920E-02 0.  1.
    10030    2    1    2    0    0  0.00000000000E+00  0.00000000000E+00 -0.61064402492E+03  0.30593903687E+04  0.29978297655E+04 0.  0.
        2    1    3    3  502    0  0.11721797591E+04 -0.89597638388E+03 -0.57526608905E+03  0.15835751139E+04  0.25500000920E-02 0.  1.
       -2    1    3    3    0  502 -0.11721797591E+04  0.89597638388E+03 -0.35377935865E+02  0.14758152548E+04  0.25500000920E-02 0. -1.
</event>
<event>
 5   0  0.4702748E-06  0.2886047E+04  0.7818609E-02  0.8277041E-01
       -2   -1    0    0    0  501  0.00000000000E+00  0.00000000000E+00  0.11178005203E+04  0.11178005203E+04  0.25500000920E-02 0.  1.
        2   -1    0    0  501    0  0.00000000000E+00  0.00000000000E+00 -0.18628698402E+04  0.18628698402E+04  0.25500000920E-02 0. -1.
    10030    2    1    2    0    0  0.00000000000E+00  0.00000000000E+00 -0.74506931994E+03  0.29806703605E+04  0.28860470381E+04 0.  0.
        2    1    3    3  502    0  0.12212221006E+04 -0.96376124333E+02 -0.11601960924E+04  0.16872245698E+04  0.25500000920E-02 0. -1.
       -2    1    3    3    0  502 -0.12212221006E+04  0.96376124333E+02  0.41512677241E+03  0.12934457907E+04  0.25500000920E-02 0.  1.
</event>
<event>
 5   0  0.1686012E-06  0.2996619E+04  0.7818609E-02  0.8244697E-01
       -1   -1    0    0    0  501  0.00000000000E+00  0.00000000000E+00  0.97652629553E+03  0.97652629555E+03  0.50400001928E-02 0. -1.
        1   -1    0    0  501    0  0.00000000000E+00  0.00000000000E+00 -0.22988954848E+04  0.22988954848E+04  0.50400001928E-02 0.  1.
    10030    2    1    2    0    0  0.00000000000E+00  0.00000000000E+00 -0.13223691892E+04  0.32754217803E+04  0.29966193563E+04 0.  0.
        4    1    3    3  502    0  0.95157474386E+03  0.10683975620E+04 -0.17485909043E+03  0.14413691956E+04  0.12699999809E+01 0.  1.
       -4    1    3    3    0  502 -0.95157474386E+03 -0.10683975620E+04 -0.11475100988E+04  0.18340525847E+04  0.12699999809E+01 0. -1.
</event>
<event>
 5   0  0.1700885E-06  0.3011577E+04  0.7818609E-02  0.8240433E-01
       -1   -1    0    0    0  501  0.00000000000E+00  0.00000000000E+00  0.14163709210E+04  0.14163709210E+04  0.50400001928E-02 0.  1.
        1   -1    0    0  501    0  0.00000000000E+00  0.00000000000E+00 -0.16008507269E+04  0.16008507269E+04  0.50400001928E-02 0. -1.
    10030    2    1    2    0    0  0.00000000000E+00  0.00000000000E+00 -0.18447980587E+03  0.30172216479E+04  0.30115766093E+04 0.  0.
        1    1    3    3  502    0  0.95139475636E+03  0.61997684274E+02 -0.12599299311E+04  0.15800060527E+04  0.50400001928E-02 0. -1.
       -1    1    3    3    0  502 -0.95139475636E+03 -0.61997684274E+02  0.10754501252E+04  0.14372155952E+04  0.50400001928E-02 0.  1.
</event>
<event>
 5   0  0.1700885E-06  0.3089541E+04  0.7818609E-02  0.8218614E-01
        1   -1    0    0  501    0  0.00000000000E+00  0.00000000000E+00  0.14595991703E+04  0.14595991703E+04  0.50400001928E-02 0. -1.
       -1   -1    0    0    0  501  0.00000000000E+00  0.00000000000E+00 -0.16349120779E+04  0.16349120779E+04  0.50400001928E-02 0.  1.
    10030    2    1    2    0    0  0.00000000000E+00  0.00000000000E+00 -0.17531290752E+03  0.30945112482E+04  0.30895412685E+04 0.  0.
        1    1    3    3  502    0 -0.14530706301E+04  0.51375068927E+03 -0.19252581533E+03  0.15531967732E+04  0.50400001928E-02 0. -1.
       -1    1    3    3    0  502  0.14530706301E+04 -0.51375068927E+03  0.17212907810E+02  0.15413144750E+04  0.50400001928E-02 0.  1.
</event>
<event>
 5   0  0.1672907E-06  0.3012371E+04  0.7818609E-02  0.8240207E-01
       -1   -1    0    0    0  501  0.00000000000E+00  0.00000000000E+00  0.11577519898E+04  0.11577519898E+04  0.50400001928E-02 0.  1.
        1   -1    0    0  501    0  0.00000000000E+00  0.00000000000E+00 -0.19594827286E+04  0.19594827286E+04  0.50400001928E-02 0. -1.
    10030    2    1    2    0    0  0.00000000000E+00  0.00000000000E+00 -0.80173073878E+03  0.31172347184E+04  0.30123711777E+04 0.  0.
        5    1    3    3  502    0  0.23039529165E+03  0.14805797538E+04 -0.24265586834E+03  0.15179269937E+04  0.46999998093E+01 0.  1.
       -5    1    3    3    0  502 -0.23039529165E+03 -0.14805797538E+04 -0.55907487044E+03  0.15993077248E+04  0.46999998093E+01 0. -1.
</event>
<event>
 5   0  0.4532420E-06  0.2936090E+04  0.7818609E-02  0.8262220E-01
        2   -1    0    0  501    0  0.00000000000E+00  0.00000000000E+00  0.19828903751E+04  0.19828903751E+04  0.25500000920E-02 0.  1.
       -2   -1    0    0    0  501  0.00000000000E+00  0.00000000000E+00 -0.10868761429E+04  0.10868761429E+04  0.25500000920E-02 0. -1.
    10030    2    1    2    0    0  0.00000000000E+00  0.00000000000E+00  0.89601423218E+03  0.30697665180E+04  0.29360900822E+04 0.  0.
        4    1    3    3  502    0  0.83833554313E+03 -0.12011156745E+04  0.34519764774E+03  0.15048748703E+04  0.12699999809E+01 0. -1.
       -4    1    3    3    0  502 -0.83833554313E+03  0.12011156745E+04  0.55081658444E+03  0.15648916477E+04  0.12699999809E+01 0.  1.
</event>
<event>
 5   0  0.5003556E-06  0.2996448E+04  0.7818609E-02  0.8244746E-01
        2   -1    0    0  501    0  0.00000000000E+00  0.00000000000E+00  0.15516625738E+04  0.15516625738E+04  0.25500000920E-02 0.  1.
       -2   -1    0    0    0  501  0.00000000000E+00  0.00000000000E+00 -0.14466262877E+04  0.14466262877E+04  0.25500000920E-02 0. -1.
    10030    2    1    2    0    0  0.00000000000E+00  0.00000000000E+00  0.10503628608E+03  0.29982888615E+04  0.29964484770E+04 0.  0.
        3    1    3    3  502    0 -0.14030434741E+04  0.48837568383E+01  0.57831306727E+03  0.15175641190E+04  0.10100000352E+00 0.  1.
       -3    1    3    3    0  502  0.14030434741E+04 -0.48837568383E+01 -0.47327678119E+03  0.14807247425E+04  0.10100000352E+00 0. -1.
</event>
<event>
 5   0  0.4768570E-06  0.2685599E+04  0.7818609E-02  0.8339693E-01
        2   -1    0    0  501    0  0.00000000000E+00  0.00000000000E+00  0.19865308649E+04  0.19865308649E+04  0.25500000920E-02 0.  1.
       -2   -1    0    0    0  501  0.00000000000E+00  0.00000000000E+00 -0.90766806688E+03  0.90766806688E+03  0.25500000920E-02 0. -1.
    10030    2    1    2    0    0  0.00000000000E+00  0.00000000000E+00  0.10788627980E+04  0.28941989317E+04  0.26855990988E+04 0.  0.
        1    1    3    3  502    0  0.10838542918E+04  0.50295475576E+03  0.11997269785E+04  0.16932360837E+04  0.50400001928E-02 0. -1.
       -1    1    3    3    0  502 -0.10838542918E+04 -0.50295475576E+03 -0.12086418053E+03  0.12009628480E+04  0.50400001928E-02 0.  1.
</event>
<event>
 5   0  0.5003556E-06  0.2993049E+04  0.7818609E-02  0.8245718E-01
        2   -1    0    0  501    0  0.00000000000E+00  0.00000000000E+00  0.11950055135E+04  0.11950055135E+04  0.25500000920E-02 0. -1.
       -2   -1    0    0    0  501  0.00000000000E+00  0.00000000000E+00 -0.18741221299E+04  0.18741221299E+04  0.25500000920E-02 0.  1.
    10030    2    1    2    0    0  0.00000000000E+00  0.00000000000E+00 -0.67911661637E+03  0.30691276434E+04  0.29930494671E+04 0.  0.
        3    1    3    3  502    0 -0.68667647384E+03  0.86905330094E+03 -0.13715225006E+04  0.17629101507E+04  0.10100000352E+00 0.  1.
       -3    1    3    3    0  502  0.68667647384E+03 -0.86905330094E+03  0.69240588419E+03  0.13062174927E+04  0.10100000352E+00 0. -1.
</event>
<event>
 5   0  0.4935331E-06  0.3017611E+04  0.7818609E-02  0.8238720E-01
        2   -1    0    0  501    0  0.00000000000E+00  0.00000000000E+00  0.28406573788E+04  0.28406573788E+04  0.25500000920E-02 0. -1.
       -2   -1    0    0    0  501  0.00000000000E+00  0.00000000000E+00 -0.80139698450E+03  0.80139698451E+03  0.25500000920E-02 0.  1.
    10030    2    1    2    0    0  0.00000000000E+00  0.00000000000E+00  0.20392603942E+04  0.36420543633E+04  0.30176111462E+04 0.  0.
        5    1    3    3  502    0  0.14490648817E+04 -0.41984324742E+03  0.10442108775E+04  0.18347904051E+04  0.46999998093E+01 0.  1.
       -5    1    3    3    0  502 -0.14490648817E+04  0.41984324742E+03  0.99504951671E+03  0.18072639582E+04  0.46999998093E+01 0. -1.
</event>
<event>
 5   0  0.1734885E-06  0.3024102E+04  0.7818609E-02  0.8236882E-01
        1   -1    0    0  501    0  0.00000000000E+00  0.00000000000E+00  0.19688487815E+04  0.19688487815E+04  0.50400001928E-02 0.  1.
       -1   -1    0    0    0  501  0.00000000000E+00  0.00000000000E+00 -0.11612362571E+04  0.11612362571E+04  0.50400001928E-02 0. -1.
    10030    2    1    2    0    0  0.00000000000E+00  0.00000000000E+00  0.80761252436E+03  0.31300850386E+04  0.30241022402E+04 0.  0.
        2    1    3    3  502    0  0.99889971262E+03  0.80871471321E+03  0.12282634533E+04  0.17777657984E+04  0.25500000920E-02 0.  1.
       -2    1    3    3    0  502 -0.99889971262E+03 -0.80871471321E+03 -0.42065092898E+03  0.13523192402E+04  0.25500000920E-02 0. -1.
</event>
<event>
 5   0  0.1709858E-06  0.2862375E+04  0.7818609E-02  0.8284161E-01
        1   -1    0    0  501    0  0.00000000000E+00  0.00000000000E+00  0.21287963364E+04  0.21287963364E+04  0.50400001928E-02 0. -1.
       -1   -1    0    0    0  501  0.00000000000E+00  0.00000000000E+00 -0.96218609690E+03  0.96218609691E+03  0.50400001928E-02 0.  1.
    10030    2    1    2    0    0  0.00000000000E+00  0.00000000000E+00  0.11666102395E+04  0.30909824333E+04  0.28623754038E+04 0.  0.
        3    1    3    3  502    0 -0.10053494953E+03 -0.70768636809E+03 -0.75562922466E+03  0.10401455701E+04  0.10100000352E+00 0.  1.
       -3    1    3    3    0  502  0.10053494953E+03  0.70768636809E+03  0.19222394641E+04  0.20508368632E+04  0.10100000352E+00 0. -1.
</event>
<event>
 5   0  0.4768570E-06  0.2995998E+04  0.7818609E-02  0.8244875E-01
        2   -1    0    0  501    0  0.00000000000E+00  0.00000000000E+00  0.25730439975E+04  0.25730439975E+04  0.25500000920E-02 0.  1.
       -2   -1    0    0    0  501  0.00000000000E+00  0.00000000000E+00 -0.87211893628E+03  0.87211893629E+03  0.25500000920E-02 0. -1.
    10030    2    1    2    0    0  0.00000000000E+00  0.00000000000E+00  0.17009250612E+04  0.34451629338E+04  0.29959975929E+04 0.  0.
        1    1    3    3  502    0  0.99207484230E+03  0.72878514959E+03  0.18320540613E+04  0.22072069161E+04  0.50400001928E-02 0.  1.
       -1    1    3    3    0  502 -0.99207484230E+03 -0.72878514959E+03 -0.13112900010E+03  0.12379560177E+04  0.50400001928E-02 0. -1.
</event>
<event>
 5   0  0.1709858E-06  0.3052158E+04  0.7818609E-02  0.8228992E-01
       -1   -1    0    0    0  501  0.00000000000E+00  0.00000000000E+00  0.12869406062E+04  0.12869406062E+04  0.50400001928E-02 0.  1.
        1   -1    0    0  501    0  0.00000000000E+00  0.00000000000E+00 -0.18096544952E+04  0.18096544952E+04  0.50400001928E-02 0. -1.
    10030    2    1    2    0    0  0.00000000000E+00  0.00000000000E+00 -0.52271388901E+03  0.30965951014E+04  0.30521584841E+04 0.  0.
        3    1    3    3  502    0  0.93138977253E+03 -0.48059497387E+03 -0.13867675070E+04  0.17382699922E+04  0.10100000352E+00 0. -1.
       -3    1    3    3    0  502 -0.93138977253E+03  0.48059497387E+03  0.86405361797E+03  0.13583251092E+04  0.10100000352E+00 0.  1.
</event>
<event>
 5   0  0.1734885E-06  0.2989080E+04  0.7818609E-02  0.8246856E-01
       -1   -1    0    0    0  501  0.00000000000E+00  0.00000000000E+00  0.10539485832E+04  0.10539485832E+04  0.50400001928E-02 0. -1.
        1   -1    0    0  501    0  0.00000000000E+00  0.00000000000E+00 -0.21193162578E+04  0.21193162578E+04  0.50400001928E-02 0.  1.
    10030    2    1    2    0    0  0.00000000000E+00  0.00000000000E+00 -0.10653676746E+04  0.31732648410E+04  0.29890803718E+04 0.  0.
        2    1    3    3  502    0 -0.11976664779E+04 -0.28999135991E+03  0.36509097309E+03  0.12852203701E+04  0.25500000920E-02 0. -1.
       -2    1    3    3    0  502  0.11976664779E+04  0.28999135991E+03 -0.14304586477E+04  0.18880444709E+04  0.25500000920E-02 0.  1.
</event>
<event>
 5   0  0.1686012E-06  0.3071093E+04  0.7818609E-02  0.8223716E-01
       -1   -1    0    0    0  501  0.00000000000E+00  0.00000000000E+00  0.13925830378E+04  0.13925830378E+04  0.50400001928E-02 0.  1.
        1   -1    0    0  501    0  0.00000000000E+00  0.00000000000E+00 -0.16931861894E+04  0.16931861894E+04  0.50400001928E-02 0. -1.
    10030    2    1    2    0    0  0.00000000000E+00  0.00000000000E+00 -0.30060315152E+03  0.30857692272E+04  0.30710925530E+04 0.  0.
        4    1    3    3  502    0 -0.41309949817E+03  0.10073354718E+04 -0.12383082477E+04  0.16488738210E+04  0.12699999809E+01 0. -1.
       -4    1    3    3    0  502  0.41309949817E+03 -0.10073354718E+04  0.93770509622E+03  0.14368954062E+04  0.12699999809E+01 0.  1.
</event>
<event>
 5   0  0.4532420E-06  0.2886313E+04  0.7818609E-02  0.8276962E-01
        2   -1    0    0  501    0  0.00000000000E+00  0.00000000000E+00  0.16770999006E+04  0.16770999006E+04  0.25500000920E-02 0. -1.
       -2   -1    0    0    0  501  0.00000000000E+00  0.00000000000E+00 -0.12418461618E+04  0.12418461618E+04  0.25500000920E-02 0.  1.
    10030    2    1    2    0    0  0.00000000000E+00  0.00000000000E+00  0.43525373883E+03  0.29189460623E+04  0.28863125780E+04 0.  0.
        4    1    3    3  502    0  0.13896300863E+04  0.38744648521E+03  0.17830401028E+03  0.14536094691E+04  0.12699999809E+01 0.  1.
       -4    1    3    3    0  502 -0.13896300863E+04 -0.38744648521E+03  0.25694972855E+03  0.14653365933E+04  0.12699999809E+01 0. -1.
</event>
<event>
 5   0  0.1545375E-06  0.2996689E+04  0.7818609E-02  0.8244677E-01
        3   -1    0    0  501    0  0.00000000000E+00  0.00000000000E+00  0.24008323828E+04  0.24008323849E+04  0.10100000352E+00 0. -1.
       -3   -1    0    0    0  501  0.00000000000E+00  0.00000000000E+00 -0.93510745016E+03  0.93510745562E+03  0.10100000352E+00 0.  1.
    10030    2    1    2    0    0  0.00000000000E+00  0.00000000000E+00  0.14657249326E+04  0.33359398405E+04  0.29966890131E+04 0.  0.
        2    1    3    3  502    0  0.52855870485E+03 -0.27423576891E+03 -0.79773116395E+03  0.99546701169E+03  0.25500000920E-02 0.  1.
       -2    1    3    3    0  502 -0.52855870485E+03  0.27423576891E+03  0.22634560966E+04  0.23404728288E+04  0.25500000920E-02 0. -1.
</event>
<event>
 5   0  0.1672907E-06  0.2842944E+04  0.7818609E-02  0.8290059E-01
       -1   -1    0    0    0  501  0.00000000000E+00  0.00000000000E+00  0.88921254325E+03  0.88921254327E+03  0.50400001928E-02 0. -1.
        1   -1    0    0  501    0  0.00000000000E+00  0.00000000000E+00 -0.22723276466E+04  0.22723276466E+04  0.50400001928E-02 0.  1.
    10030    2    1    2    0    0  0.00000000000E+00  0.00000000000E+00 -0.13831151033E+04  0.31615401898E+04  0.28429437179E+04 0.  0.
        5    1    3    3  502    0 -0.43910819626E+03 -0.67569281604E+03 -0.19937591170E+04  0.21504590897E+04  0.46999998093E+01 0.  1.
       -5    1    3    3    0  502  0.43910819626E+03  0.67569281604E+03  0.61064401369E+03  0.10110811002E+04  0.46999998093E+01 0. -1.
</event>
<event>
 5   0  0.1672907E-06  0.2619854E+04  0.7818609E-02  0.8361488E-01
       -1   -1    0    0    0  501  0.00000000000E+00  0.00000000000E+00  0.15419022165E+04  0.15419022165E+04  0.50400001928E-02 0.  1.
        1   -1    0    0  501    0  0.00000000000E+00  0.00000000000E+00 -0.11128521043E+04  0.11128521043E+04  0.50400001928E-02 0. -1.
    10030    2    1    2    0    0  0.00000000000E+00  0.00000000000E+00  0.42905011220E+03  0.26547543208E+04  0.26198542908E+04 0.  0.
        5    1    3    3  502    0 -0.60392727779E+03  0.40621727077E+03  0.13181368874E+04  0.15057382149E+04  0.46999998093E+01 0.  1.
       -5    1    3    3    0  502  0.60392727779E+03 -0.40621727077E+03 -0.88908677516E+03  0.11490161059E+04  0.46999998093E+01 0. -1.
</event>
<event>
 5   0  0.4935331E-06  0.3001353E+04  0.7818609E-02  0.8243345E-01
        2   -1    0    0  501    0  0.00000000000E+00  0.00000000000E+00  0.20925419884E+04  0.20925419884E+04  0.25500000920E-02 0.  1.
       -2   -1    0    0    0  501  0.00000000000E+00  0.00000000000E+00 -0.10762175244E+04  0.10762175244E+04  0.25500000920E-02 0. -1.
    10030    2    1    2    0    0  0.00000000000E+00  0.00000000000E+00  0.10163244640E+04  0.31687595129E+04  0.30013532671E+04 0.  0.
        5    1    3    3  502    0 -0.31762172913E+03 -0.14643486463E+04  0.59527341198E+03  0.16123191513E+04  0.46999998093E+01 0. -1.
       -5    1    3    3    0  502  0.31762172913E+03  0.14643486463E+04  0.42105105206E+03  0.15564403616E+04  0.46999998093E+01 0.  1.
</event>
<event>
 5   0  0.4768570E-06  0.3167415E+04  0.7818609E-02  0.8197476E-01
       -2   -1    0    0    0  501  0.00000000000E+00  0.00000000000E+00  0.16030591522E+04  0.16030591522E+04  0.25500000920E-02 0.  1.
        2   -1    0    0  501    0  0.00000000000E+00  0.00000000000E+00 -0.15645891263E+04  0.15645891263E+04  0.25500000920E-02 0. -1.
    10030    2    1    2    0    0  0.00000000000E+00  0.00000000000E+00  0.38470025861E+02  0.31676482785E+04  0.31674146671E+04 0.  0.
        1    1    3    3  502    0 -0.42096930177E+03  0.14715067168E+04  0.42618239707E+03  0.15887663788E+04  0.50400001928E-02 0. -1.
       -1    1    3    3    0  502  0.42096930177E+03 -0.14715067168E+04 -0.38771237121E+03  0.15788818998E+04  0.50400001928E-02 0.  1.
</event>
<event>
 5   0  0.1734885E-06  0.2509010E+04  0.7818609E-02  0.8399783E-01
       -1   -1    0    0    0  501  0.00000000000E+00  0.00000000000E+00  0.78136403998E+03  0.78136403999E+03  0.50400001928E-02 0.  1.
        1   -1    0    0  501    0  0.00000000000E+00  0.00000000000E+00 -0.20141475579E+04  0.20141475579E+04  0.50400001928E-02 0. -1.
    10030    2    1    2    0    0  0.00000000000E+00  0.00000000000E+00 -0.12327835180E+04  0.27955115979E+04  0.25090097433E+04 0.  0.
        2    1    3    3  502    0 -0.39946979378E+03 -0.25229502990E+03 -0.19112280377E+04  0.19687614153E+04  0.25500000920E-02 0. -1.
       -2    1    3    3    0  502  0.39946979378E+03  0.25229502990E+03  0.67844451970E+03  0.82675018269E+03  0.25500000920E-02 0.  1.
</event>
<event>
 5   0  0.1734885E-06  0.2919856E+04  0.7818609E-02  0.8266994E-01
       -1   -1    0    0    0  501  0.00000000000E+00  0.00000000000E+00  0.87102804536E+03  0.87102804538E+03  0.50400001928E-02 0.  1.
        1   -1    0    0  501    0  0.00000000000E+00  0.00000000000E+00 -0.24469814710E+04  0.24469814710E+04  0.50400001928E-02 0. -1.
    10030    2    1    2    0    0  0.00000000000E+00  0.00000000000E+00 -0.15759534256E+04  0.33180095163E+04  0.29198558100E+04 0.  0.
        2    1    3    3  502    0  0.28786768952E+03 -0.14292995639E+04 -0.70275391659E+03  0.16185265266E+04  0.25500000920E-02 0.  1.
       -2    1    3    3    0  502 -0.28786768952E+03  0.14292995639E+04 -0.87319950901E+03  0.16994829898E+04  0.25500000920E-02 0. -1.
</event>
<event>
 5   0  0.4768570E-06  0.3038475E+04  0.7818609E-02  0.8232829E-01
       -2   -1    0    0    0  501  0.00000000000E+00  0.00000000000E+00  0.13073677227E+04  0.13073677227E+04  0.25500000920E-02 0. -1.
        2   -1    0    0  501    0  0.00000000000E+00  0.00000000000E+00 -0.17654423040E+04  0.17654423041E+04  0.25500000920E-02 0.  1.
    10030    2    1    2    0    0  0.00000000000E+00  0.00000000000E+00 -0.45807458134E+03  0.30728100268E+04  0.30384748046E+04 0.  0.
        1    1    3    3  502    0 -0.61924243010E+03 -0.78383786737E+03 -0.13866200961E+04  0.17089699472E+04  0.50400001928E-02 0.  1.
       -1    1    3    3    0  502  0.61924243010E+03  0.78383786737E+03  0.92854551476E+03  0.13638400795E+04  0.50400001928E-02 0. -1.
</event>
<event>
 5   0  0.4768570E-06  0.2980148E+04  0.7818609E-02  0.8249423E-01
       -2   -1    0    0    0  501  0.00000000000E+00  0.00000000000E+00  0.13048044664E+04  0.13048044664E+04  0.25500000920E-02 0.  1.
        2   -1    0    0  501    0  0.00000000000E+00  0.00000000000E+00 -0.17016495422E+04  0.17016495422E+04  0.25500000920E-02 0. -1.
    10030    2    1    2    0    0  0.00000000000E+00  0.00000000000E+00 -0.39684507586E+03  0.30064540086E+04  0.29801475956E+04 0.  0.
        1    1    3    3  502    0 -0.14570799418E+03 -0.12835139127E+04  0.55088630735E+03  0.14043199448E+04  0.50400001928E-02 0. -1.
       -1    1    3    3    0  502  0.14570799418E+03  0.12835139127E+04 -0.94773138322E+03  0.16021340638E+04  0.50400001928E-02 0.  1.
</event>
<event>
 5   0  0.5003556E-06  0.3021408E+04  0.7818609E-02  0.8237644E-01
        2   -1    0    0  501    0  0.00000000000E+00  0.00000000000E+00  0.30819544744E+04  0.30819544744E+04  0.25500000920E-02 0. -1.
       -2   -1    0    0    0  501  0.00000000000E+00  0.00000000000E+00 -0.74051273010E+03  0.74051273010E+03  0.25500000920E-02 0.  1.
    10030    2    1    2    0    0  0.00000000000E+00  0.00000000000E+00  0.23414417443E+04  0.38224672045E+04  0.30214079644E+04 0.  0.
        3    1    3    3  502    0 -0.50609515626E+03 -0.13752536957E+04  0.70627683419E+03  0.16267396877E+04  0.10100000352E+00 0.  1.
       -3    1    3    3    0  502  0.50609515626E+03  0.13752536957E+04  0.16351649101E+04  0.21957275168E+04  0.10100000352E+00 0. -1.
</event>
<event>
 5   0  0.1686012E-06  0.3004284E+04  0.7818609E-02  0.8242509E-01
       -1   -1    0    0    0  501  0.00000000000E+00  0.00000000000E+00  0.13252929512E+04  0.13252929512E+04  0.50400001928E-02 0.  1.
        1   -1    0    0  501    0  0.00000000000E+00  0.00000000000E+00 -0.17025899712E+04  0.17025899712E+04  0.50400001928E-02 0. -1.
    10030    2    1    2    0    0  0.00000000000E+00  0.00000000000E+00 -0.37729701999E+03  0.30278829224E+04  0.30042839331E+04 0.  0.
        4    1    3    3  502    0  0.30580848952E+03 -0.68446645638E+03  0.11232737118E+04  0.13504660702E+04  0.12699999809E+01 0.  1.
       -4    1    3    3    0  502 -0.30580848952E+03  0.68446645638E+03 -0.15005707318E+04  0.16774168523E+04  0.12699999809E+01 0. -1.
</event>
<event>
 5   0  0.1686012E-06  0.3002714E+04  0.7818609E-02  0.8242956E-01
       -1   -1    0    0    0  501  0.00000000000E+00  0.00000000000E+00  0.10290883610E+04  0.10290883610E+04  0.50400001928E-02 0.  1.
        1   -1    0    0  501    0  0.00000000000E+00  0.00000000000E+00 -0.21903588707E+04  0.21903588707E+04  0.50400001928E-02 0. -1.
    10030    2    1    2    0    0  0.00000000000E+00  0.00000000000E+00 -0.11612705098E+04  0.32194472317E+04  0.30027139859E+04 0.  0.
        4    1    3    3  502    0 -0.13218498040E+04 -0.68605789622E+03 -0.37689620863E+03  0.15362339361E+04  0.12699999809E+01 0.  1.
       -4    1    3    3    0  502  0.13218498040E+04  0.68605789622E+03 -0.78437430113E+03  0.16832132956E+04  0.12699999809E+01 0. -1.
</event>
<event>
 5   0  0.1700885E-06  0.3029003E+04  0.7818609E-02  0.8235497E-01
       -1   -1    0    0    0  501  0.00000000000E+00  0.00000000000E+00  0.22013790118E+04  0.22013790118E+04  0.50400001928E-02 0.  1.
        1   -1    0    0  501    0  0.00000000000E+00  0.00000000000E+00 -0.10419447615E+04  0.10419447615E+04  0.50400001928E-02 0. -1.
    10030    2    1    2    0    0  0.00000000000E+00  0.00000000000E+00  0.11594342503E+04  0.32433237733E+04  0.30290033538E+04 0.  0.
        1    1    3    3  502    0  0.33439288844E+03 -0.13895054419E+04  0.43086315452E+02  0.14298253066E+04  0.50400001928E-02 0.  1.
       -1    1    3    3    0  502 -0.33439288844E+03  0.13895054419E+04  0.11163479349E+04  0.18134984667E+04  0.50400001928E-02 0. -1.
</event>
<event>
 5   0  0.4935331E-06  0.2929000E+04  0.7818609E-02  0.8264301E-01
        2   -1    0    0  501    0  0.00000000000E+00  0.00000000000E+00  0.11803753010E+04  0.11803753010E+04  0.25500000920E-02 0.  1.
       -2   -1    0    0    0  501  0.00000000000E+00  0.00000000000E+00 -0.18170155258E+04  0.18170155258E+04  0.25500000920E-02 0. -1.
    10030    2    1    2    0    0  0.00000000000E+00  0.00000000000E+00 -0.63664022478E+03  0.29973908268E+04  0.29289999988E+04 0.  0.
        5    1    3    3  502    0 -0.40717842224E+02 -0.14074974679E+04 -0.73024988657E+03  0.15861885297E+04  0.46999998093E+01 0.  1.
       -5    1    3    3    0  502  0.40717842224E+02  0.14074974679E+04  0.93609661794E+02  0.14112022972E+04  0.46999998093E+01 0. -1.
</event>
<event>
 5   0  0.1709858E-06  0.3034940E+04  0.7818609E-02  0.8233823E-01
       -1   -1    0    0    0  501  0.00000000000E+00  0.00000000000E+00  0.13704716057E+04  0.13704716057E+04  0.50400001928E-02 0. -1.
        1   -1    0    0  501    0  0.00000000000E+00  0.00000000000E+00 -0.16802353568E+04  0.16802353568E+04  0.50400001928E-02 0.  1.
    10030    2    1    2    0    0  0.00000000000E+00  0.00000000000E+00 -0.30976375114E+03  0.30507069625E+04  0.30349397671E+04 0.  0.
        3    1    3    3  502    0  0.15267385107E+03  0.13038569795E+04  0.61023117745E+03  0.14476651643E+04  0.10100000352E+00 0. -1.
       -3    1    3    3    0  502 -0.15267385107E+03 -0.13038569795E+04 -0.91999492859E+03  0.16030417982E+04  0.10100000352E+00 0.  1.
</event>
<event>
 5   0  0.4935331E-06  0.3003252E+04  0.7818609E-02  0.8242803E-01
       -2   -1    0    0    0  501  0.00000000000E+00  0.00000000000E+00  0.11055103282E+04  0.11055103282E+04  0.25500000920E-02 0.  1.
        2   -1    0    0  501    0  0.00000000000E+00  0.00000000000E+00 -0.20396733637E+04  0.20396733637E+04  0.25500000920E-02 0. -1.
    10030    2    1    2    0    0  0.00000000000E+00  0.00000000000E+00 -0.93416303557E+03  0.31451836919E+04  0.30032515510E+04 0.  0.
        5    1    3    3  502    0 -0.52953612359E+03  0.10777138199E+04  0.47718556232E+03  0.12921314696E+04  0.46999998093E+01 0.  1.
       -5    1    3    3    0  502  0.52953612359E+03 -0.10777138199E+04 -0.14113485979E+04  0.18530522223E+04  0.46999998093E+01 0. -1.
</event>
<event>
 5   0  0.4768570E-06  0.2871435E+04  0.7818609E-02  0.8281428E-01
        2   -1    0    0  501    0  0.00000000000E+00  0.00000000000E+00  0.19529332437E+04  0.19529332437E+04  0.25500000920E-02 0.  1.
       -2   -1    0    0    0  501  0.00000000000E+00  0.00000000000E+00 -0.10554812632E+04  0.10554812632E+04  0.25500000920E-02 0. -1.
    10030    2    1    2    0    0  0.00000000000E+00  0.00000000000E+00  0.89745198051E+03  0.30084145069E+04  0.28714347961E+04 0.  0.
        1    1    3    3  502    0  0.12092992958E+04  0.44410096403E+03 -0.21526893525E+03  0.13061283120E+04  0.50400001928E-02 0. -1.
       -1    1    3    3    0  502 -0.12092992958E+04 -0.44410096403E+03  0.11127209158E+04  0.17022861949E+04  0.50400001928E-02 0.  1.
</event>
<event>
 5   0  0.4532420E-06  0.2964356E+04  0.7818609E-02  0.8253983E-01
        2   -1    0    0  501    0  0.00000000000E+00  0.00000000000E+00  0.27701343717E+04  0.27701343717E+04  0.25500000920E-02 0. -1.
       -2   -1    0    0    0  501  0.00000000000E+00  0.00000000000E+00 -0.79304889828E+03  0.79304889829E+03  0.25500000920E-02 0.  1.
    10030    2    1    2    0    0  0.00000000000E+00  0.00000000000E+00  0.19770854735E+04  0.35631832700E+04  0.29643562617E+04 0.  0.
        4    1    3    3  502    0 -0.33598135393E+03  0.12378439403E+04  0.18813606996E+04  0.22769850209E+04  0.12699999809E+01 0. -1.
       -4    1    3    3    0  502  0.33598135393E+03 -0.12378439403E+04  0.95724773845E+02  0.12861982491E+04  0.12699999809E+01 0.  1.
</event>
<event>
 5   0  0.4935331E-06  0.3027663E+04  0.7818609E-02  0.8235875E-01
        2   -1    0    0  501    0  0.00000000000E+00  0.00000000000E+00  0.28967557442E+04  0.28967557442E+04  0.25500000920E-02 0.  1.
       -2   -1    0    0    0  501  0.00000000000E+00  0.00000000000E+00 -0.79112135229E+03  0.79112135229E+03  0.25500000920E-02 0. -1.
    10030    2    1    2    0    0  0.00000000000E+00  0.00000000000E+00  0.21056343919E+04  0.36878770965E+04  0.30276626771E+04 0.  0.
        5    1    3    3  502    0  0.57745098939E+02 -0.14893969689E+04  0.13751442535E+04  0.20279747620E+04  0.46999998093E+01 0.  1.
       -5    1    3    3    0  502 -0.57745098939E+02  0.14893969689E+04  0.73049013837E+03  0.16599023344E+04  0.46999998093E+01 0. -1.
</event>
<event>
 5   0  0.1686012E-06  0.2999575E+04  0.7818609E-02  0.8243852E-01
       -1   -1    0    0    0  501  0.00000000000E+00  0.00000000000E+00  0.20769981711E+04  0.20769981711E+04  0.50400001928E-02 0.  1.
        1   -1    0    0  501    0  0.00000000000E+00  0.00000000000E+00 -0.10829870483E+04  0.10829870483E+04  0.50400001928E-02 0. -1.
    10030    2    1    2    0    0  0.00000000000E+00  0.00000000000E+00  0.99401112276E+03  0.31599852194E+04  0.29995747157E+04 0.  0.
        4    1    3    3  502    0 -0.12094763209E+04 -0.77189716685E+03  0.95705375666E+03  0.17247062686E+04  0.12699999809E+01 0. -1.
       -4    1    3    3    0  502  0.12094763209E+04  0.77189716685E+03  0.36957366099E+02  0.14352789508E+04  0.12699999809E+01 0.  1.
</event>
<event>
 5   0  0.4768570E-06  0.2944175E+04  0.7818609E-02  0.8259854E-01
        2   -1    0    0  501    0  0.00000000000E+00  0.00000000000E+00  0.17933202635E+04  0.17933202635E+04  0.25500000920E-02 0. -1.
       -2   -1    0    0    0  501  0.00000000000E+00  0.00000000000E+00 -0.12083966575E+04  0.12083966575E+04  0.25500000920E-02 0.  1.
    10030    2    1    2    0    0  0.00000000000E+00  0.00000000000E+00  0.58492360601E+03  0.30017169211E+04  0.29441754108E+04 0.  0.
        1    1    3    3  502    0  0.13061280518E+04 -0.37290402177E+03 -0.28609185197E+03  0.13881197516E+04  0.50400001928E-02 0.  1.
       -1    1    3    3    0  502 -0.13061280518E+04  0.37290402177E+03  0.87101545798E+03  0.16135971694E+04  0.50400001928E-02 0. -1.
</event>
<event>
 5   0  0.1700885E-06  0.3044911E+04  0.7818609E-02  0.8231021E-01
       -1   -1    0    0    0  501  0.00000000000E+00  0.00000000000E+00  0.29699786328E+04  0.29699786328E+04  0.50400001928E-02 0.  1.
        1   -1    0    0  501    0  0.00000000000E+00  0.00000000000E+00 -0.78043346058E+03  0.78043346059E+03  0.50400001928E-02 0. -1.
    10030    2    1    2    0    0  0.00000000000E+00  0.00000000000E+00  0.21895451722E+04  0.37504120934E+04  0.30449109690E+04 0.  0.
        1    1    3    3  502    0  0.79191991254E+03 -0.11284405741E+04  0.18904873632E+04  0.23397559162E+04  0.50400001928E-02 0.  1.
       -1    1    3    3    0  502 -0.79191991254E+03  0.11284405741E+04  0.29905780905E+03  0.14106561772E+04  0.50400001928E-02 0. -1.
</event>
<event>
 5   0  0.1734885E-06  0.3037512E+04  0.7818609E-02  0.8233100E-01
        1   -1    0    0  501    0  0.00000000000E+00  0.00000000000E+00  0.14740400329E+04  0.14740400329E+04  0.50400001928E-02 0. -1.
       -1   -1    0    0    0  501  0.00000000000E+00  0.00000000000E+00 -0.15648282279E+04  0.15648282279E+04  0.50400001928E-02 0.  1.
    10030    2    1    2    0    0  0.00000000000E+00  0.00000000000E+00 -0.90788194993E+02  0.30388682609E+04  0.30375117795E+04 0.  0.
        2    1    3    3  502    0 -0.79353913775E+03 -0.14661600167E+03  0.12418112902E+04  0.14809780199E+04  0.25500000920E-02 0. -1.
       -2    1    3    3    0  502  0.79353913775E+03  0.14661600167E+03 -0.13325994851E+04  0.15578902410E+04  0.25500000920E-02 0.  1.
</event>
<event>
 5   0  0.1734885E-06  0.2983229E+04  0.7818609E-02  0.8248536E-01
        1   -1    0    0  501    0  0.00000000000E+00  0.00000000000E+00  0.22098895999E+04  0.22098895999E+04  0.50400001928E-02 0.  1.
       -1   -1    0    0    0  501  0.00000000000E+00  0.00000000000E+00 -0.10067986545E+04  0.10067986545E+04  0.50400001928E-02 0. -1.
    10030    2    1    2    0    0  0.00000000000E+00  0.00000000000E+00  0.12030909454E+04  0.32166882544E+04  0.29832290397E+04 0.  0.
        2    1    3    3  502    0  0.40935543214E+03  0.11410794438E+04  0.15386246422E+04  0.19588261680E+04  0.25500000920E-02 0.  1.
       -2    1    3    3    0  502 -0.40935543214E+03 -0.11410794438E+04 -0.33553369674E+03  0.12578620865E+04  0.25500000920E-02 0. -1.
</event>
<event>
 5   0  0.1700885E-06  0.3033029E+04  0.7818609E-02  0.8234362E-01
       -1   -1    0    0    0  501  0.00000000000E+00  0.00000000000E+00  0.13704677096E+04  0.13704677096E+04  0.50400001928E-02 0.  1.
        1   -1    0    0  501    0  0.00000000000E+00  0.00000000000E+00 -0.16781252943E+04  0.16781252943E+04  0.50400001928E-02 0. -1.
    10030    2    1    2    0    0  0.00000000000E+00  0.00000000000E+00 -0.30765758465E+03  0.30485930039E+04  0.30330291977E+04 0.  0.
        1    1    3    3  502    0  0.46220993053E+03  0.13603559104E+04  0.33405905311E+03  0.14750598882E+04  0.50400001928E-02 0. -1.
       -1    1    3    3    0  502 -0.46220993053E+03 -0.13603559104E+04 -0.64171663776E+03  0.15735331157E+04  0.50400001928E-02 0.  1.
</event>
<event>
 5   0  0.1686012E-06  0.2976983E+04  0.7818609E-02  0.8250334E-01
        1   -1    0    0  501    0  0.00000000000E+00  0.00000000000E+00  0.10140611851E+04  0.10140611851E+04  0.50400001928E-02 0. -1.
       -1   -1    0    0    0  501  0.00000000000E+00  0.00000000000E+00 -0.21848850782E+04  0.21848850782E+04  0.50400001928E-02 0.  1.
    10030    2    1    2    0    0  0.00000000000E+00  0.00000000000E+00 -0.11708238932E+04  0.31989462633E+04  0.29769831385E+04 0.  0.
        4    1    3    3  502    0  0.90234600340E+03 -0.17563634301E+03  0.67257084761E+03  0.11390476692E+04  0.12699999809E+01 0. -1.
       -4    1    3    3    0  502 -0.90234600340E+03  0.17563634301E+03 -0.18433947408E+04  0.20598985941E+04  0.12699999809E+01 0.  1.
</event>
<event>
 5   0  0.4532420E-06  0.2960154E+04  0.7818609E-02  0.8255202E-01
       -2   -1    0    0    0  501  0.00000000000E+00  0.00000000000E+00  0.23335052409E+04  0.23335052409E+04  0.25500000920E-02 0. -1.
        2   -1    0    0  501    0  0.00000000000E+00  0.00000000000E+00 -0.93877117815E+03  0.93877117815E+03  0.25500000920E-02 0.  1.
    10030    2    1    2    0    0  0.00000000000E+00  0.00000000000E+00  0.13947340628E+04  0.32722764191E+04  0.29601536881E+04 0.  0.
        4    1    3    3  502    0  0.10444012117E+04 -0.79854672298E+03  0.14488843459E+04  0.19564555248E+04  0.12699999809E+01 0. -1.
       -4    1    3    3    0  502 -0.10444012117E+04  0.79854672298E+03 -0.54150283082E+02  0.13158208943E+04  0.12699999809E+01 0.  1.
</event>
<event>
 5   0  0.4532420E-06  0.2989199E+04  0.7818609E-02  0.8246822E-01
        2   -1    0    0  501    0  0.00000000000E+00  0.00000000000E+00  0.20418126799E+04  0.20418126799E+04  0.25500000920E-02 0. -1.
       -2   -1    0    0    0  501  0.00000000000E+00  0.00000000000E+00 -0.10940415553E+04  0.10940415553E+04  0.25500000920E-02 0.  1.
    10030    2    1    2    0    0  0.00000000000E+00  0.00000000000E+00  0.94777112454E+03  0.31358542352E+04  0.29891991704E+04 0.  0.
        4    1    3    3  502    0  0.12236671805E+04  0.66294096873E+03 -0.97804156812E+02  0.13951413415E+04  0.12699999809E+01 0.  1.
       -4    1    3    3    0  502 -0.12236671805E+04 -0.66294096873E+03  0.10455752814E+04  0.17407128938E+04  0.12699999809E+01 0. -1.
</event>
<event>
 5   0  0.1672907E-06  0.2967780E+04  0.7818609E-02  0.8252992E-01
       -1   -1    0    0    0  501  0.00000000000E+00  0.00000000000E+00  0.13434425430E+04  0.13434425430E+04  0.50400001928E-02 0. -1.
        1   -1    0    0  501    0  0.00000000000E+00  0.00000000000E+00 -0.16390203558E+04  0.16390203558E+04  0.50400001928E-02 0.  1.
    10030    2    1    2    0    0  0.00000000000E+00  0.00000000000E+00 -0.29557781274E+03  0.29824628988E+04  0.29677800962E+04 0.  0.
        5    1    3    3  502    0  0.24494242994E+03  0.70119954925E+03  0.11431793656E+04  0.13632896808E+04  0.46999998093E+01 0. -1.
       -5    1    3    3    0  502 -0.24494242994E+03 -0.70119954925E+03 -0.14387571783E+04  0.16191732180E+04  0.46999998093E+01 0.  1.
</event>
<event>
 5   0  0.4702748E-06  0.2989447E+04  0.7818609E-02  0.8246751E-01
        2   -1    0    0  501    0  0.00000000000E+00  0.00000000000E+00  0.18313739773E+04  0.18313739773E+04  0.25500000920E-02 0.  1.
       -2   -1    0    0    0  501  0.00000000000E+00  0.00000000000E+00 -0.12199571662E+04  0.12199571662E+04  0.25500000920E-02 0. -1.
    10030    2    1    2    0    0  0.00000000000E+00  0.00000000000E+00  0.61141681114E+03  0.30513311435E+04  0.29894466428E+04 0.  0.
        2    1    3    3  502    0  0.62638603545E+03 -0.95241380209E+03  0.12925453749E+04  0.17234050777E+04  0.25500000920E-02 0.  1.
       -2    1    3    3    0  502 -0.62638603545E+03  0.95241380209E+03 -0.68112856373E+03  0.13279260658E+04  0.25500000920E-02 0. -1.
</event>
<event>
 5   0  0.1672907E-06  0.3006221E+04  0.7818609E-02  0.8241957E-01
       -1   -1    0    0    0  501  0.00000000000E+00  0.00000000000E+00  0.31463281090E+04  0.31463281091E+04  0.50400001928E-02 0. -1.
        1   -1    0    0  501    0  0.00000000000E+00  0.00000000000E+00 -0.71808822726E+03  0.71808822727E+03  0.50400001928E-02 0.  1.
    10030    2    1    2    0    0  0.00000000000E+00  0.00000000000E+00  0.24282398818E+04  0.38644163363E+04  0.30062209993E+04 0.  0.
        5    1    3    3  502    0  0.14521083360E+04  0.36531748914E+03  0.13829216871E+04  0.20382762251E+04  0.46999998093E+01 0.  1.
       -5    1    3    3    0  502 -0.14521083360E+04 -0.36531748914E+03  0.10453181947E+04  0.18261401112E+04  0.46999998093E+01 0. -1.
</event>
<event>
 5   0  0.4768570E-06  0.3110905E+04  0.7818609E-02  0.8212752E-01
       -2   -1    0    0    0  501  0.00000000000E+00  0.00000000000E+00  0.12802305477E+04  0.12802305477E+04  0.25500000920E-02 0. -1.
        2   -1    0    0  501    0  0.00000000000E+00  0.00000000000E+00 -0.18898406621E+04  0.18898406621E+04  0.25500000920E-02 0.  1.
    10030    2    1    2    0    0  0.00000000000E+00  0.00000000000E+00 -0.60961011440E+03  0.31700712098E+04  0.31109045282E+04 0.  0.
        1    1    3    3  502    0  0.10461140734E+04 -0.19199413030E+03 -0.14613874298E+04  0.18074483729E+04  0.50400001928E-02 0.  1.
       -1    1    3    3    0  502 -0.10461140734E+04  0.19199413030E+03  0.85177731536E+03  0.13626228369E+04  0.50400001928E-02 0. -1.
</event>
<event>
 5   0  0.4532420E-06  0.2982653E+04  0.7818609E-02  0.8248702E-01
       -2   -1    0    0    0  501  0.00000000000E+00  0.00000000000E+00  0.12327034113E+04  0.12327034113E+04  0.25500000920E-02 0.  1.
        2   -1    0    0  501    0  0.00000000000E+00  0.00000000000E+00 -0.18042095139E+04  0.18042095139E+04  0.25500000920E-02 0. -1.
    10030    2    1    2    0    0  0.00000000000E+00  0.00000000000E+00 -0.57150610259E+03  0.30369129252E+04  0.29826533305E+04 0.  0.
        4    1    3    3  502    0  0.83417286362E+03 -0.11681414595E+04  0.12614894798E+03  0.14409420550E+04  0.12699999809E+01 0.  1.
       -4    1    3    3    0  502 -0.83417286362E+03  0.11681414595E+04 -0.69765505057E+03  0.15959708702E+04  0.12699999809E+01 0. -1.
</event>
<event>
 5   0  0.1672907E-06  0.3019674E+04  0.7818609E-02  0.8238135E-01
       -1   -1    0    0    0  501  0.00000000000E+00  0.00000000000E+00  0.72757602621E+03  0.72757602623E+03  0.50400001928E-02 0. -1.
        1   -1    0    0  501    0  0.00000000000E+00  0.00000000000E+00 -0.31331531110E+04  0.31331531110E+04  0.50400001928E-02 0.  1.
    10030    2    1    2    0    0  0.00000000000E+00  0.00000000000E+00 -0.24055770847E+04  0.38607291372E+04  0.30196735519E+04 0.  0.
        5    1    3    3  502    0  0.28064561957E+03  0.14820882323E+04 -0.11195614745E+04  0.18785067148E+04  0.46999998093E+01 0.  1.
       -5    1    3    3    0  502 -0.28064561957E+03 -0.14820882323E+04 -0.12860156102E+04  0.19822224224E+04  0.46999998093E+01 0. -1.
</event>
<event>
 5   0  0.4532420E-06  0.3006548E+04  0.7818609E-02  0.8241863E-01
       -2   -1    0    0    0  501  0.00000000000E+00  0.00000000000E+00  0.14678181856E+04  0.14678181856E+04  0.25500000920E-02 0. -1.
        2   -1    0    0  501    0  0.00000000000E+00  0.00000000000E+00 -0.15395867475E+04  0.15395867475E+04  0.25500000920E-02 0.  1.
    10030    2    1    2    0    0  0.00000000000E+00  0.00000000000E+00 -0.71768561905E+02  0.30074049331E+04  0.30065484705E+04 0.  0.
        4    1    3    3  502    0 -0.11260448753E+04 -0.43934988861E+03  0.85814122713E+03  0.14823674863E+04  0.12699999809E+01 0. -1.
       -4    1    3    3    0  502  0.11260448753E+04  0.43934988861E+03 -0.92990978904E+03  0.15250374469E+04  0.12699999809E+01 0.  1.
</event>
<event>
 5   0  0.4935331E-06  0.2982134E+04  0.7818609E-02  0.8248851E-01
        2   -1    0    0  501    0  0.00000000000E+00  0.00000000000E+00  0.12220605891E+04  0.12220605891E+04  0.25500000920E-02 0.  1.
       -2   -1    0    0    0  501  0.00000000000E+00  0.00000000000E+00 -0.18192882321E+04  0.18192882321E+04  0.25500000920E-02 0. -1.
    10030    2    1    2    0    0  0.00000000000E+00  0.00000000000E+00 -0.59722764301E+03  0.30413488212E+04  0.29821337653E+04 0.  0.
        5    1    3    3  502    0  0.10652258476E+04  0.83416576991E+03  0.34050332395E+03  0.13951714023E+04  0.46999998093E+01 0. -1.
       -5    1    3    3    0  502 -0.10652258476E+04 -0.83416576991E+03 -0.93773096696E+03  0.16461774189E+04  0.46999998093E+01 0.  1.
</event>
<event>
 5   0  0.4768570E-06  0.3054203E+04  0.7818609E-02  0.8228420E-01
        2   -1    0    0  501    0  0.00000000000E+00  0.00000000000E+00  0.17055996695E+04  0.17055996695E+04  0.25500000920E-02 0.  1.
       -2   -1    0    0    0  501  0.00000000000E+00  0.00000000000E+00 -0.13672835889E+04  0.13672835889E+04  0.25500000920E-02 0. -1.
    10030    2    1    2    0    0  0.00000000000E+00  0.00000000000E+00  0.33831608055E+03  0.30728832584E+04  0.30542026373E+04 0.  0.
        1    1    3    3  502    0  0.94363506951E+03 -0.47307957635E+03 -0.94112544909E+03  0.14142024399E+04  0.50400001928E-02 0. -1.
       -1    1    3    3    0  502 -0.94363506951E+03  0.47307957635E+03  0.12794415296E+04  0.16586808185E+04  0.50400001928E-02 0.  1.
</event>
<event>
 5   0  0.1686012E-06  0.3001579E+04  0.7818609E-02  0.8243280E-01
        1   -1    0    0  501    0  0.00000000000E+00  0.00000000000E+00  0.17095742016E+04  0.17095742016E+04  0.50400001928E-02 0. -1.
       -1   -1    0    0    0  501  0.00000000000E+00  0.00000000000E+00 -0.13175030422E+04  0.13175030422E+04  0.50400001928E-02 0.  1.
    10030    2    1    2    0    0  0.00000000000E+00  0.00000000000E+00  0.39207115937E+03  0.30270772438E+04  0.30015790588E+04 0.  0.
        4    1    3    3  502    0 -0.18955710460E+03 -0.78120607286E+03  0.14741423714E+04  0.16790807509E+04  0.12699999809E+01 0. -1.
       -4    1    3    3    0  502  0.18955710460E+03  0.78120607286E+03 -0.10820712120E+04  0.13479964929E+04  0.12699999809E+01 0.  1.
</event>
<event>
 5   0  0.4768570E-06  0.2998805E+04  0.7818609E-02  0.8244072E-01
       -2   -1    0    0    0  501  0.00000000000E+00  0.00000000000E+00  0.14939009003E+04  0.14939009003E+04  0.25500000920E-02 0.  1.
        2   -1    0    0  501    0  0.00000000000E+00  0.00000000000E+00 -0.15049248588E+04  0.15049248588E+04  0.25500000920E-02 0. -1.
    10030    2    1    2    0    0  0.00000000000E+00  0.00000000000E+00 -0.11023958482E+02  0.29988257590E+04  0.29988054964E+04 0.  0.
        1    1    3    3  502    0  0.11522224283E+04  0.49507934668E+03  0.81637465894E+03  0.14963915489E+04  0.50400001928E-02 0.  1.
       -1    1    3    3    0  502 -0.11522224283E+04 -0.49507934668E+03 -0.82739861742E+03  0.15024342102E+04  0.50400001928E-02 0. -1.
</event>
<event>
 5   0  0.1686012E-06  0.3007080E+04  0.7818609E-02  0.8241712E-01
        1   -1    0    0  501    0  0.00000000000E+00  0.00000000000E+00  0.23756627376E+04  0.23756627376E+04  0.50400001928E-02 0.  1.
       -1   -1    0    0    0  501  0.00000000000E+00  0.00000000000E+00 -0.95157979762E+03  0.95157979763E+03  0.50400001928E-02 0. -1.
    10030    2    1    2    0    0  0.00000000000E+00  0.00000000000E+00  0.14240829400E+04  0.33272425353E+04  0.30070800901E+04 0.  0.
        4    1    3    3  502    0 -0.76030448920E+03  0.12621382748E+04  0.38088507452E+03  0.15218840278E+04  0.12699999809E+01 0. -1.
       -4    1    3    3    0  502  0.76030448920E+03 -0.12621382748E+04  0.10431978655E+04  0.18053585075E+04  0.12699999809E+01 0.  1.
</event>
<event>
 5   0  0.5003556E-06  0.2944484E+04  0.7818609E-02  0.8259764E-01
        2   -1    0    0  501    0  0.00000000000E+00  0.00000000000E+00  0.19456975658E+04  0.19456975658E+04  0.25500000920E-02 0. -1.
       -2   -1    0    0    0  501  0.00000000000E+00  0.00000000000E+00 -0.11139942278E+04  0.11139942278E+04  0.25500000920E-02 0.  1.
    10030    2    1    2    0    0  0.00000000000E+00  0.00000000000E+00  0.83170333808E+03  0.30596917936E+04  0.29444835590E+04 0.  0.
        3    1    3    3  502    0 -0.56977507624E+03  0.13129674514E+04  0.57437746141E+02  0.14324197257E+04  0.10100000352E+00 0.  1.
       -3    1    3    3    0  502  0.56977507624E+03 -0.13129674514E+04  0.77426559194E+03  0.16272720679E+04  0.10100000352E+00 0. -1.
</event>
<event>
 5   0  0.1686012E-06  0.2898487E+04  0.7818609E-02  0.8273328E-01
        1   -1    0    0  501    0  0.00000000000E+00  0.00000000000E+00  0.18859288246E+04  0.18859288246E+04  0.50400001928E-02 0. -1.
       -1   -1    0    0    0  501  0.00000000000E+00  0.00000000000E+00 -0.11136725416E+04  0.11136725416E+04  0.50400001928E-02 0.  1.
    10030    2    1    2    0    0  0.00000000000E+00  0.00000000000E+00  0.77225628299E+03  0.29996013662E+04  0.28984872933E+04 0.  0.
        4    1    3    3  502    0  0.62271592468E+03  0.74535483366E+03  0.14992800277E+04  0.17863849432E+04  0.12699999809E+01 0. -1.
       -4    1    3    3    0  502 -0.62271592468E+03 -0.74535483366E+03 -0.72702374466E+03  0.12132164230E+04  0.12699999809E+01 0.  1.
</event>
<event>
 5   0  0.1700885E-06  0.3006258E+04  0.7818609E-02  0.8241946E-01
        1   -1    0    0  501    0  0.00000000000E+00  0.00000000000E+00  0.15281283045E+04  0.15281283045E+04  0.50400001928E-02 0. -1.
       -1   -1    0    0    0  501  0.00000000000E+00  0.00000000000E+00 -0.14785385191E+04  0.14785385191E+04  0.50400001928E-02 0.  1.
    10030    2    1    2    0    0  0.00000000000E+00  0.00000000000E+00  0.49589785377E+02  0.30066668236E+04  0.30062578468E+04 0.  0.
        1    1    3    3  502    0 -0.60849217203E+03 -0.64663226029E+03  0.12378080086E+04  0.15233399718E+04  0.50400001928E-02 0. -1.
       -1    1    3    3    0  502  0.60849217203E+03  0.64663226029E+03 -0.11882182232E+04  0.14833268519E+04  0.50400001928E-02 0.  1.
</event>
<event>
 5   0  0.4768570E-06  0.3012697E+04  0.7818609E-02  0.8240114E-01
        2   -1    0    0  501    0  0.00000000000E+00  0.00000000000E+00  0.12667316407E+04  0.12667316407E+04  0.25500000920E-02 0. -1.
       -2   -1    0    0    0  501  0.00000000000E+00  0.00000000000E+00 -0.17912916370E+04  0.17912916370E+04  0.25500000920E-02 0.  1.
    10030    2    1    2    0    0  0.00000000000E+00  0.00000000000E+00 -0.52455999630E+03  0.30580232778E+04  0.30126969940E+04 0.  0.
        1    1    3    3  502    0 -0.92783647302E+03 -0.34915976919E+02 -0.14662904133E+04  0.17355423424E+04  0.50400001928E-02 0.  1.
       -1    1    3    3    0  502  0.92783647302E+03  0.34915976919E+02  0.94173041698E+03  0.13224809354E+04  0.50400001928E-02 0. -1.
</event>
<event>
 5   0  0.4532420E-06  0.3036611E+04  0.7818609E-02  0.8233353E-01
        2   -1    0    0  501    0  0.00000000000E+00  0.00000000000E+00  0.11930786435E+04  0.11930786436E+04  0.25500000920E-02 0. -1.
       -2   -1    0    0    0  501  0.00000000000E+00  0.00000000000E+00 -0.19321871344E+04  0.19321871344E+04  0.25500000920E-02 0.  1.
    10030    2    1    2    0    0  0.00000000000E+00  0.00000000000E+00 -0.73910849081E+03  0.31252657779E+04  0.30366107458E+04 0.  0.
        4    1    3    3  502    0 -0.17393493665E+03  0.14893607826E+04 -0.12426718674E+03  0.15046238233E+04  0.12699999809E+01 0. -1.
       -4    1    3    3    0  502  0.17393493665E+03 -0.14893607826E+04 -0.61484130407E+03  0.16206419546E+04  0.12699999809E+01 0.  1.
</event>
<event>
 5   0  0.1545375E-06  0.3019583E+04  0.7818609E-02  0.8238161E-01
        3   -1    0    0  501    0  0.00000000000E+00  0.00000000000E+00  0.12602286739E+04  0.12602286779E+04  0.10100000352E+00 0.  1.
       -3   -1    0    0    0  501  0.00000000000E+00  0.00000000000E+00 -0.18087746727E+04  0.18087746755E+04  0.10100000352E+00 0. -1.
    10030    2    1    2    0    0  0.00000000000E+00  0.00000000000E+00 -0.54854599878E+03  0.30690033534E+04  0.30195825656E+04 0.  0.
        2    1    3    3  502    0 -0.69819662263E+02 -0.43483959155E+03  0.11934920300E+04  0.12721570191E+04  0.25500000920E-02 0.  1.
       -2    1    3    3    0  502  0.69819662263E+02  0.43483959155E+03 -0.17420380287E+04  0.17968463343E+04  0.25500000920E-02 0. -1.
</event>
<event>
 5   0  0.4768570E-06  0.3014222E+04  0.7818609E-02  0.8239681E-01
       -2   -1    0    0    0  501  0.00000000000E+00  0.00000000000E+00  0.12844642361E+04  0.12844642361E+04  0.25500000920E-02 0. -1.
        2   -1    0    0  501    0  0.00000000000E+00  0.00000000000E+00 -0.17683508376E+04  0.17683508376E+04  0.25500000920E-02 0.  1.
    10030    2    1    2    0    0  0.00000000000E+00  0.00000000000E+00 -0.48388660155E+03  0.30528150737E+04  0.30142218948E+04 0.  0.
        1    1    3    3  502    0 -0.11658571200E+04  0.71542000475E+02 -0.12065250798E+04  0.16792986186E+04  0.50400001928E-02 0. -1.
       -1    1    3    3    0  502  0.11658571200E+04 -0.71542000475E+02  0.72263847827E+03  0.13735164551E+04  0.50400001928E-02 0.  1.
</event>
<event>
 5   0  0.5003556E-06  0.2982877E+04  0.7818609E-02  0.8248638E-01
       -2   -1    0    0    0  501  0.00000000000E+00  0.00000000000E+00  0.88158391194E+03  0.88158391194E+03  0.25500000920E-02 0.  1.
        2   -1    0    0  501    0  0.00000000000E+00  0.00000000000E+00 -0.25231724211E+04  0.25231724211E+04  0.25500000920E-02 0. -1.
    10030    2    1    2    0    0  0.00000000000E+00  0.00000000000E+00 -0.16415885092E+04  0.34047563330E+04  0.29828766072E+04 0.  0.
        3    1    3    3  502    0 -0.11790044882E+04 -0.51086270251E+03 -0.16850910412E+04  0.21190951162E+04  0.10100000352E+00 0. -1.
       -3    1    3    3    0  502  0.11790044882E+04  0.51086270251E+03  0.43502532091E+02  0.12856612168E+04  0.10100000352E+00 0.  1.
</event>
<event>
 5   0  0.1700885E-06  0.3144414E+04  0.7818609E-02  0.8203653E-01
       -1   -1    0    0    0  501  0.00000000000E+00  0.00000000000E+00  0.12408270024E+04  0.12408270024E+04  0.50400001928E-02 0. -1.
        1   -1    0    0  501    0  0.00000000000E+00  0.00000000000E+00 -0.19920869390E+04  0.19920869390E+04  0.50400001928E-02 0.  1.
    10030    2    1    2    0    0  0.00000000000E+00  0.00000000000E+00 -0.75125993660E+03  0.32329139415E+04  0.31444142635E+04 0.  0.
        1    1    3    3  502    0  0.55058555303E+03 -0.13563276458E+04 -0.96541803205E+03  0.17535110809E+04  0.50400001928E-02 0.  1.
       -1    1    3    3    0  502 -0.55058555303E+03  0.13563276458E+04  0.21415809544E+03  0.14794028606E+04  0.50400001928E-02 0. -1.
</event>
<event>
 5   0  0.1700885E-06  0.3005026E+04  0.7818609E-02  0.8242297E-01
        1   -1    0    0  501    0  0.00000000000E+00  0.00000000000E+00  0.13094698410E+04  0.13094698410E+04  0.50400001928E-02 0. -1.
       -1   -1    0    0    0  501  0.00000000000E+00  0.00000000000E+00 -0.17240149365E+04  0.17240149365E+04  0.50400001928E-02 0.  1.
    10030    2    1    2    0    0  0.00000000000E+00  0.00000000000E+00 -0.41454509554E+03  0.30334847775E+04  0.30050261661E+04 0.  0.
        1    1    3    3  502    0  0.44289255487E+03 -0.12536104409E+04 -0.91379550180E+03  0.16132932690E+04  0.50400001928E-02 0.  1.
       -1    1    3    3    0  502 -0.44289255487E+03  0.12536104409E+04  0.49925040626E+03  0.14201915085E+04  0.50400001928E-02 0. -1.
</event>
<event>
 5   0  0.1709858E-06  0.3066729E+04  0.7818609E-02  0.8224928E-01
       -1   -1    0    0    0  501  0.00000000000E+00  0.00000000000E+00  0.10673628628E+04  0.10673628628E+04  0.50400001928E-02 0. -1.
        1   -1    0    0  501    0  0.00000000000E+00  0.00000000000E+00 -0.22028191943E+04  0.22028191943E+04  0.50400001928E-02 0.  1.
    10030    2    1    2    0    0  0.00000000000E+00  0.00000000000E+00 -0.11354563315E+04  0.32701820571E+04  0.30667294641E+04 0.  0.
        3    1    3    3  502    0 -0.98271268501E+03  0.11645448367E+04 -0.38514224350E+03  0.15716944538E+04  0.10100000352E+00 0. -1.
       -3    1    3    3    0  502  0.98271268501E+03 -0.11645448367E+04 -0.75031408801E+03  0.16984876034E+04  0.10100000352E+00 0.  1.
</event>
<event>
 5   0  0.1672907E-06  0.3035037E+04  0.7818609E-02  0.8233796E-01
       -1   -1    0    0    0  501  0.00000000000E+00  0.00000000000E+00  0.12355441291E+04  0.12355441291E+04  0.50400001928E-02 0.  1.
        1   -1    0    0  501    0  0.00000000000E+00  0.00000000000E+00 -0.18638445156E+04  0.18638445156E+04  0.50400001928E-02 0. -1.
    10030    2    1    2    0    0  0.00000000000E+00  0.00000000000E+00 -0.62830038653E+03  0.30993886447E+04  0.30350368358E+04 0.  0.
        5    1    3    3  502    0  0.84283729429E+03 -0.65125772072E+03 -0.14179608950E+04  0.17734560928E+04  0.46999998093E+01 0. -1.
       -5    1    3    3    0  502 -0.84283729429E+03  0.65125772072E+03  0.78966050845E+03  0.13259325519E+04  0.46999998093E+01 0.  1.
</event>
<event>
 5   0  0.1672907E-06  0.2962970E+04  0.7818609E-02  0.8254385E-01
        1   -1    0    0  501    0  0.00000000000E+00  0.00000000000E+00  0.11135968761E+04  0.11135968761E+04  0.50400001928E-02 0. -1.
       -1   -1    0    0    0  501  0.00000000000E+00  0.00000000000E+00 -0.19709090497E+04  0.19709090497E+04  0.50400001928E-02 0.  1.
    10030    2    1    2    0    0  0.00000000000E+00  0.00000000000E+00 -0.85731217363E+03  0.30845059258E+04  0.29629702401E+04 0.  0.
        5    1    3    3  502    0  0.16544480005E+02 -0.82453156957E+03 -0.17098488298E+04  0.18983495832E+04  0.46999998093E+01 0.  1.
       -5    1    3    3    0  502 -0.16544480005E+02  0.82453156957E+03  0.85253665622E+03  0.11861563427E+04  0.46999998093E+01 0. -1.
</event>
<event>
 5   0  0.4532420E-06  0.2978249E+04  0.7818609E-02  0.8249969E-01
       -2   -1    0    0    0  501  0.00000000000E+00  0.00000000000E+00  0.13639209315E+04  0.13639209315E+04  0.25500000920E-02 0.  1.
        2   -1    0    0  501    0  0.00000000000E+00  0.00000000000E+00 -0.16258214705E+04  0.16258214705E+04  0.25500000920E-02 0. -1.
    10030    2    1    2    0    0  0.00000000000E+00  0.00000000000E+00 -0.26190053899E+03  0.29897424020E+04  0.29782491061E+04 0.  0.
        4    1    3    3  502    0  0.12669546080E+04 -0.23430844860E+03 -0.88043437078E+03  0.15605257838E+04  0.12699999809E+01 0. -1.
       -4    1    3    3    0  502 -0.12669546080E+04  0.23430844860E+03  0.61853383179E+03  0.14292166182E+04  0.12699999809E+01 0.  1.
</event>
<event>
 5   0  0.4768570E-06  0.2687848E+04  0.7818609E-02  0.8338959E-01
       -2   -1    0    0    0  501  0.00000000000E+00  0.00000000000E+00  0.13773003563E+04  0.13773003563E+04  0.25500000920E-02 0.  1.
        2   -1    0    0  501    0  0.00000000000E+00  0.00000000000E+00 -0.13113564965E+04  0.13113564965E+04  0.25500000920E-02 0. -1.
    10030    2    1    2    0    0  0.00000000000E+00  0.00000000000E+00  0.65943859830E+02  0.26886568528E+04  0.26878480388E+04 0.  0.
        1    1    3    3  502    0  0.35852068996E+03  0.19406690514E+03  0.13139558606E+04  0.13757467254E+04  0.50400001928E-02 0.  1.
       -1    1    3    3    0  502 -0.35852068996E+03 -0.19406690514E+03 -0.12480120007E+04  0.13129101275E+04  0.50400001928E-02 0. -1.
</event>
<event>
 5   0  0.1686012E-06  0.3021034E+04  0.7818609E-02  0.8237750E-01
       -1   -1    0    0    0  501  0.00000000000E+00  0.00000000000E+00  0.13729932278E+04  0.13729932278E+04  0.50400001928E-02 0.  1.
        1   -1    0    0  501    0  0.00000000000E+00  0.00000000000E+00 -0.16618151746E+04  0.16618151746E+04  0.50400001928E-02 0. -1.
    10030    2    1    2    0    0  0.00000000000E+00  0.00000000000E+00 -0.28882194683E+03  0.30348084024E+04  0.30210335851E+04 0.  0.
        4    1    3    3  502    0  0.33139930532E+03 -0.66059390750E+03  0.11789603573E+04  0.13914592869E+04  0.12699999809E+01 0.  1.
       -4    1    3    3    0  502 -0.33139930532E+03  0.66059390750E+03 -0.14677823041E+04  0.16433491155E+04  0.12699999809E+01 0. -1.
</event>
<event>
 5   0  0.4935331E-06  0.3032268E+04  0.7818609E-02  0.8234576E-01
       -2   -1    0    0    0  501  0.00000000000E+00  0.00000000000E+00  0.81889403359E+03  0.81889403360E+03  0.25500000920E-02 0.  1.
        2   -1    0    0  501    0  0.00000000000E+00  0.00000000000E+00 -0.28070319355E+04  0.28070319355E+04  0.25500000920E-02 0. -1.
    10030    2    1    2    0    0  0.00000000000E+00  0.00000000000E+00 -0.19881379019E+04  0.36259259691E+04  0.30322676030E+04 0.  0.
        5    1    3    3  502    0 -0.14792008907E+04  0.13728189998E+03 -0.63184812112E+03  0.16143530386E+04  0.46999998093E+01 0.  1.
       -5    1    3    3    0  502  0.14792008907E+04 -0.13728189998E+03 -0.13562897808E+04  0.20115729305E+04  0.46999998093E+01 0. -1.
</event>
<event>
 5   0  0.1734885E-06  0.3005756E+04  0.7818609E-02  0.8242089E-01
       -1   -1    0    0    0  501  0.00000000000E+00  0.00000000000E+00  0.18770276324E+04  0.18770276324E+04  0.50400001928E-02 0. -1.
        1   -1    0    0  501    0  0.00000000000E+00  0.00000000000E+00 -0.12033083445E+04  0.12033083445E+04  0.50400001928E-02 0.  1.
    10030    2    1    2    0    0  0.00000000000E+00  0.00000000000E+00  0.67371928786E+03  0.30803359769E+04  0.30057564858E+04 0.  0.
        2    1    3    3  502    0  0.55178361803E+02 -0.11142268693E+04 -0.69515060696E+03  0.13144506587E+04  0.25500000920E-02 0.  1.
       -2    1    3    3    0  502 -0.55178361803E+02  0.11142268693E+04  0.13688698948E+04  0.17658853182E+04  0.25500000920E-02 0. -1.
</event>
<event>
 5   0  0.4702748E-06  0.3005745E+04  0.7818609E-02  0.8242092E-01
       -2   -1    0    0    0  501  0.00000000000E+00  0.00000000000E+00  0.86683266581E+03  0.86683266581E+03  0.25500000920E-02 0.  1.
        2   -1    0    0  501    0  0.00000000000E+00  0.00000000000E+00 -0.26056080599E+04  0.26056080599E+04  0.25500000920E-02 0. -1.
    10030    2    1    2    0    0  0.00000000000E+00  0.00000000000E+00 -0.17387753941E+04  0.34724407257E+04  0.30057452857E+04 0.  0.
        2    1    3    3  502    0  0.13045220022E+04  0.72571102708E+03 -0.66865004771E+03  0.16357038349E+04  0.25500000920E-02 0. -1.
       -2    1    3    3    0  502 -0.13045220022E+04 -0.72571102708E+03 -0.10701253463E+04  0.18367368908E+04  0.25500000920E-02 0.  1.
</event>
<event>
 5   0  0.5003556E-06  0.2984125E+04  0.7818609E-02  0.8248279E-01
        2   -1    0    0  501    0  0.00000000000E+00  0.00000000000E+00  0.99993722147E+03  0.99993722148E+03  0.25500000920E-02 0.  1.
       -2   -1    0    0    0  501  0.00000000000E+00  0.00000000000E+00 -0.22263903509E+04  0.22263903509E+04  0.25500000920E-02 0. -1.
    10030    2    1    2    0    0  0.00000000000E+00  0.00000000000E+00 -0.12264531294E+04  0.32263275724E+04  0.29841250520E+04 0.  0.
        3    1    3    3  502    0 -0.11470010576E+04 -0.87872788294E+03 -0.10155537753E+04  0.17661040737E+04  0.10100000352E+00 0. -1.
       -3    1    3    3    0  502  0.11470010576E+04  0.87872788294E+03 -0.21089935410E+03  0.14602234987E+04  0.10100000352E+00 0.  1.
</event>
<event>
 5   0  0.4768570E-06  0.3117017E+04  0.7818609E-02  0.8211083E-01
        2   -1    0    0  501    0  0.00000000000E+00  0.00000000000E+00  0.21609139004E+04  0.21609139004E+04  0.25500000920E-02 0.  1.
       -2   -1    0    0    0  501  0.00000000000E+00  0.00000000000E+00 -0.11240380342E+04  0.11240380342E+04  0.25500000920E-02 0. -1.
    10030    2    1    2    0    0  0.00000000000E+00  0.00000000000E+00  0.10368758662E+04  0.32849519346E+04  0.31170174287E+04 0.  0.
        1    1    3    3  502    0  0.66958873667E+03  0.44710960000E+03  0.19247585905E+04  0.20863728580E+04  0.50400001928E-02 0.  1.
       -1    1    3    3    0  502 -0.66958873667E+03 -0.44710960000E+03 -0.88788272434E+03  0.11985790766E+04  0.50400001928E-02 0. -1.
</event>
<event>
 5   0  0.4532420E-06  0.2995308E+04  0.7818609E-02  0.8245072E-01
        2   -1    0    0  501    0  0.00000000000E+00  0.00000000000E+00  0.12245063971E+04  0.12245063971E+04  0.25500000920E-02 0.  1.
       -2   -1    0    0    0  501  0.00000000000E+00  0.00000000000E+00 -0.18317316201E+04  0.18317316201E+04  0.25500000920E-02 0. -1.
    10030    2    1    2    0    0  0.00000000000E+00  0.00000000000E+00 -0.60722522296E+03  0.30562380172E+04  0.29953077215E+04 0.  0.
        4    1    3    3  502    0  0.10101318171E+04  0.99725959088E+03  0.18367142466E+03  0.14313035264E+04  0.12699999809E+01 0.  1.
       -4    1    3    3    0  502 -0.10101318171E+04 -0.99725959088E+03 -0.79089664762E+03  0.16249344908E+04  0.12699999809E+01 0. -1.
</event>
<event>
 5   0  0.1672907E-06  0.3156682E+04  0.7818609E-02  0.8200352E-01
       -1   -1    0    0    0  501  0.00000000000E+00  0.00000000000E+00  0.14594913119E+04  0.14594913119E+04  0.50400001928E-02 0. -1.
        1   -1    0    0  501    0  0.00000000000E+00  0.00000000000E+00 -0.17068691726E+04  0.17068691726E+04  0.50400001928E-02 0.  1.
    10030    2    1    2    0    0  0.00000000000E+00  0.00000000000E+00 -0.24737786068E+03  0.31663604845E+04  0.31566822633E+04 0.  0.
        5    1    3    3  502    0  0.16707359297E+03  0.99983047775E+03  0.10897987070E+04  0.14883742411E+04  0.46999998093E+01 0. -1.
       -5    1    3    3    0  502 -0.16707359297E+03 -0.99983047775E+03 -0.13371765677E+04  0.16779862434E+04  0.46999998093E+01 0.  1.
</event>
<event>
 5   0  0.1686012E-06  0.2999617E+04  0.7818609E-02  0.8243840E-01
       -1   -1    0    0    0  501  0.00000000000E+00  0.00000000000E+00  0.13840873585E+04  0.13840873585E+04  0.50400001928E-02 0.  1.
        1   -1    0    0  501    0  0.00000000000E+00  0.00000000000E+00 -0.16252045674E+04  0.16252045674E+04  0.50400001928E-02 0. -1.
    10030    2    1    2    0    0  0.00000000000E+00  0.00000000000E+00 -0.24111720894E+03  0.30092919259E+04  0.29996167066E+04 0.  0.
        4    1    3    3  502    0 -0.64513198754E+03  0.60099304441E+02  0.12364373835E+04  0.13959176995E+04  0.12699999809E+01 0.  1.
       -4    1    3    3    0  502  0.64513198754E+03 -0.60099304441E+02 -0.14775545924E+04  0.16133742263E+04  0.12699999809E+01 0. -1.
</event>
<event>
 5   0  0.1545375E-06  0.3033586E+04  0.7818609E-02  0.8234205E-01
       -3   -1    0    0    0  501  0.00000000000E+00  0.00000000000E+00  0.16339388611E+04  0.16339388642E+04  0.10100000352E+00 0. -1.
        3   -1    0    0  501    0  0.00000000000E+00  0.00000000000E+00 -0.14080460250E+04  0.14080460286E+04  0.10100000352E+00 0.  1.
    10030    2    1    2    0    0  0.00000000000E+00  0.00000000000E+00  0.22589283611E+03  0.30419848928E+04  0.30335860817E+04 0.  0.
        4    1    3    3  502    0  0.11838160161E+04  0.80158927978E+03 -0.39510586174E+03  0.14832653129E+04  0.12699999809E+01 0. -1.
       -4    1    3    3    0  502 -0.11838160161E+04 -0.80158927978E+03  0.62099869785E+03  0.15587195800E+04  0.12699999809E+01 0.  1.
</event>
<event>
 5   0  0.5003556E-06  0.2996578E+04  0.7818609E-02  0.8244709E-01
        2   -1    0    0  501    0  0.00000000000E+00  0.00000000000E+00  0.29447416613E+04  0.29447416613E+04  0.25500000920E-02 0.  1.
       -2   -1    0    0    0  501  0.00000000000E+00  0.00000000000E+00 -0.76233186676E+03  0.76233186676E+03  0.25500000920E-02 0. -1.
    10030    2    1    2    0    0  0.00000000000E+00  0.00000000000E+00  0.21824097945E+04  0.37070735280E+04  0.29965783205E+04 0.  0.
        3    1    3    3  502    0  0.30339304214E+03  0.41175651748E+03  0.28334030247E+04  0.28791949358E+04  0.10100000352E+00 0.  1.
       -3    1    3    3    0  502 -0.30339304214E+03 -0.41175651748E+03 -0.65099323013E+03  0.82787859229E+03  0.10100000352E+00 0. -1.
</event>
<event>
 5   0  0.4702748E-06  0.3005633E+04  0.7818609E-02  0.8242124E-01
        2   -1    0    0  501    0  0.00000000000E+00  0.00000000000E+00  0.11767767276E+04  0.11767767276E+04  0.25500000920E-02 0.  1.
       -2   -1    0    0    0  501  0.00000000000E+00  0.00000000000E+00 -0.19191890948E+04  0.19191890948E+04  0.25500000920E-02 0. -1.
    10030    2    1    2    0    0  0.00000000000E+00  0.00000000000E+00 -0.74241236717E+03  0.30959658224E+04  0.30056327537E+04 0.  0.
        2    1    3    3  502    0  0.77725779734E+03 -0.59418063312E+03 -0.15462256965E+04  0.18297525004E+04  0.25500000920E-02 0. -1.
       -2    1    3    3    0  502 -0.77725779734E+03  0.59418063312E+03  0.80381332931E+03  0.12662133220E+04  0.25500000920E-02 0.  1.
</event>
<event>
 5   0  0.4935331E-06  0.2899767E+04  0.7818609E-02  0.8272947E-01
       -2   -1    0    0    0  501  0.00000000000E+00  0.00000000000E+00  0.99631880300E+03  0.99631880300E+03  0.25500000920E-02 0. -1.
        2   -1    0    0  501    0  0.00000000000E+00  0.00000000000E+00 -0.21099298675E+04  0.21099298675E+04  0.25500000920E-02 0.  1.
    10030    2    1    2    0    0  0.00000000000E+00  0.00000000000E+00 -0.11136110646E+04  0.31062486705E+04  0.28997674390E+04 0.  0.
        5    1    3    3  502    0  0.66357730957E+03  0.19464626751E+03  0.80826531548E+03  0.10637372445E+04  0.46999998093E+01 0. -1.
       -5    1    3    3    0  502 -0.66357730957E+03 -0.19464626751E+03 -0.19218763800E+04  0.20425114260E+04  0.46999998093E+01 0.  1.
</event>
<event>
 5   0  0.1686012E-06  0.2965085E+04  0.7818609E-02  0.8253772E-01
       -1   -1    0    0    0  501  0.00000000000E+00  0.00000000000E+00  0.16718077435E+04  0.16718077435E+04  0.50400001928E-02 0.  1.
        1   -1    0    0  501    0  0.00000000000E+00  0.00000000000E+00 -0.13147040679E+04  0.13147040679E+04  0.50400001928E-02 0. -1.
    10030    2    1    2    0    0  0.00000000000E+00  0.00000000000E+00  0.35710367560E+03  0.29865118113E+04  0.29650851192E+04 0.  0.
        4    1    3    3  502    0 -0.24591147114E+01 -0.45862328424E+03 -0.12414549305E+04  0.13234626256E+04  0.12699999809E+01 0. -1.
       -4    1    3    3    0  502  0.24591147114E+01  0.45862328424E+03  0.15985586061E+04  0.16630491857E+04  0.12699999809E+01 0.  1.
</event>
<event>
 5   0  0.1700885E-06  0.2984016E+04  0.7818609E-02  0.8248310E-01
       -1   -1    0    0    0  501  0.00000000000E+00  0.00000000000E+00  0.13617810423E+04  0.13617810423E+04  0.50400001928E-02 0. -1.
        1   -1    0    0  501    0  0.00000000000E+00  0.00000000000E+00 -0.16346888926E+04  0.16346888927E+04  0.50400001928E-02 0.  1.
    10030    2    1    2    0    0  0.00000000000E+00  0.00000000000E+00 -0.27290785033E+03  0.29964699350E+04  0.29840163164E+04 0.  0.
        1    1    3    3  502    0 -0.11891767595E+04 -0.80185398418E+03  0.27632996835E+03  0.14606400750E+04  0.50400001928E-02 0.  1.
       -1    1    3    3    0  502  0.11891767595E+04  0.80185398418E+03 -0.54923781868E+03  0.15358298600E+04  0.50400001928E-02 0. -1.
</event>
<event>
 5   0  0.4702748E-06  0.2997658E+04  0.7818609E-02  0.8244400E-01
        2   -1    0    0  501    0  0.00000000000E+00  0.00000000000E+00  0.14213404062E+04  0.14213404062E+04  0.25500000920E-02 0. -1.
       -2   -1    0    0    0  501  0.00000000000E+00  0.00000000000E+00 -0.15805416183E+04  0.15805416183E+04  0.25500000920E-02 0.  1.
    10030    2    1    2    0    0  0.00000000000E+00  0.00000000000E+00 -0.15920121206E+03  0.30018820245E+04  0.29976575293E+04 0.  0.
        2    1    3    3  502    0 -0.34892812508E+03 -0.47554248022E+03  0.13002367762E+04  0.14277629919E+04  0.25500000920E-02 0. -1.
       -2    1    3    3    0  502  0.34892812508E+03  0.47554248022E+03 -0.14594379883E+04  0.15741190325E+04  0.25500000920E-02 0.  1.
</event>
<event>
 5   0  0.1686012E-06  0.2880372E+04  0.7818609E-02  0.8278742E-01
       -1   -1    0    0    0  501  0.00000000000E+00  0.00000000000E+00  0.16322746756E+04  0.16322746756E+04  0.50400001928E-02 0. -1.
        1   -1    0    0  501    0  0.00000000000E+00  0.00000000000E+00 -0.12707022698E+04  0.12707022698E+04  0.50400001928E-02 0.  1.
    10030    2    1    2    0    0  0.00000000000E+00  0.00000000000E+00  0.36157240586E+03  0.29029769454E+04  0.28803715977E+04 0.  0.
        4    1    3    3  502    0 -0.11171973422E+04 -0.13234285319E+03  0.10870030298E+04  0.15643598473E+04  0.12699999809E+01 0. -1.
       -4    1    3    3    0  502  0.11171973422E+04  0.13234285319E+03 -0.72543062396E+03  0.13386170981E+04  0.12699999809E+01 0.  1.
</event>
<event>
 5   0  0.4532420E-06  0.2991706E+04  0.7818609E-02  0.8246103E-01
       -2   -1    0    0    0  501  0.00000000000E+00  0.00000000000E+00  0.13626871809E+04  0.13626871809E+04  0.25500000920E-02 0. -1.
        2   -1    0    0  501    0  0.00000000000E+00  0.00000000000E+00 -0.16420317965E+04  0.16420317965E+04  0.25500000920E-02 0.  1.
    10030    2    1    2    0    0  0.00000000000E+00  0.00000000000E+00 -0.27934461561E+03  0.30047189775E+04  0.29917056539E+04 0.  0.
        4    1    3    3  502    0 -0.63315228228E+03 -0.11094029175E+04 -0.92146519963E+03  0.15750417051E+04  0.12699999809E+01 0.  1.
       -4    1    3    3    0  502  0.63315228228E+03  0.11094029175E+04  0.64212058402E+03  0.14296772724E+04  0.12699999809E+01 0. -1.
</event>
<event>
 5   0  0.1672907E-06  0.3057495E+04  0.7818609E-02  0.8227501E-01
        1   -1    0    0  501    0  0.00000000000E+00  0.00000000000E+00  0.17116814943E+04  0.17116814943E+04  0.50400001928E-02 0. -1.
       -1   -1    0    0    0  501  0.00000000000E+00  0.00000000000E+00 -0.13653647082E+04  0.13653647082E+04  0.50400001928E-02 0.  1.
    10030    2    1    2    0    0  0.00000000000E+00  0.00000000000E+00  0.34631678609E+03  0.30770462025E+04  0.30574953829E+04 0.  0.
        5    1    3    3  502    0  0.48890384616E+02  0.15214588664E+04  0.31474424180E+02  0.15225767899E+04  0.46999998093E+01 0.  1.
       -5    1    3    3    0  502 -0.48890384616E+02 -0.15214588664E+04  0.31484236191E+03  0.15544694126E+04  0.46999998093E+01 0. -1.
</event>
<event>
 5   0  0.4935331E-06  0.3009263E+04  0.7818609E-02  0.8241091E-01
       -2   -1    0    0    0  501  0.00000000000E+00  0.00000000000E+00  0.16757557771E+04  0.16757557771E+04  0.25500000920E-02 0. -1.
        2   -1    0    0  501    0  0.00000000000E+00  0.00000000000E+00 -0.13509824710E+04  0.13509824710E+04  0.25500000920E-02 0.  1.
    10030    2    1    2    0    0  0.00000000000E+00  0.00000000000E+00  0.32477330608E+03  0.30267382481E+04  0.30092634850E+04 0.  0.
        5    1    3    3  502    0  0.65762408712E+03 -0.96358928060E+02 -0.11953187093E+04  0.13676854134E+04  0.46999998093E+01 0.  1.
       -5    1    3    3    0  502 -0.65762408712E+03  0.96358928060E+02  0.15200920154E+04  0.16590528347E+04  0.46999998093E+01 0. -1.
</event>
<event>
 5   0  0.4768570E-06  0.2998721E+04  0.7818609E-02  0.8244096E-01
       -2   -1    0    0    0  501  0.00000000000E+00  0.00000000000E+00  0.14168908521E+04  0.14168908521E+04  0.25500000920E-02 0.  1.
        2   -1    0    0  501    0  0.00000000000E+00  0.00000000000E+00 -0.15866300496E+04  0.15866300496E+04  0.25500000920E-02 0. -1.
    10030    2    1    2    0    0  0.00000000000E+00  0.00000000000E+00 -0.16973919755E+03  0.30035209017E+04  0.29987207959E+04 0.  0.
        1    1    3    3  502    0 -0.19361121362E+03 -0.12376950824E+04  0.74028599876E+03  0.14551280972E+04  0.50400001928E-02 0.  1.
       -1    1    3    3    0  502  0.19361121362E+03  0.12376950824E+04 -0.91002519631E+03  0.15483928045E+04  0.50400001928E-02 0. -1.
</event>
<event>
 5   0  0.1709858E-06  0.3092967E+04  0.7818609E-02  0.8217671E-01
       -1   -1    0    0    0  501  0.00000000000E+00  0.00000000000E+00  0.17117208690E+04  0.17117208690E+04  0.50400001928E-02 0.  1.
        1   -1    0    0  501    0  0.00000000000E+00  0.00000000000E+00 -0.13971970881E+04  0.13971970881E+04  0.50400001928E-02 0. -1.
    10030    2    1    2    0    0  0.00000000000E+00  0.00000000000E+00  0.31452378086E+03  0.31089179571E+04  0.30929671280E+04 0.  0.
        3    1    3    3  502    0  0.10254337256E+04 -0.45633451272E+03 -0.91211187296E+03  0.14462723091E+04  0.10100000352E+00 0. -1.
       -3    1    3    3    0  502 -0.10254337256E+04  0.45633451272E+03  0.12266356538E+04  0.16626456479E+04  0.10100000352E+00 0.  1.
</event>
<event>
 5   0  0.1686012E-06  0.2998280E+04  0.7818609E-02  0.8244222E-01
        1   -1    0    0  501    0  0.00000000000E+00  0.00000000000E+00  0.31587419876E+04  0.31587419876E+04  0.50400001928E-02 0.  1.
       -1   -1    0    0    0  501  0.00000000000E+00  0.00000000000E+00 -0.71149227926E+03  0.71149227927E+03  0.50400001928E-02 0. -1.
    10030    2    1    2    0    0  0.00000000000E+00  0.00000000000E+00  0.24472497084E+04  0.38702342669E+04  0.29982798645E+04 0.  0.
        4    1    3    3  502    0 -0.12245495221E+03  0.12920464200E+04  0.25504681804E+03  0.13226600693E+04  0.12699999809E+01 0. -1.
       -4    1    3    3    0  502  0.12245495221E+03 -0.12920464200E+04  0.21922028903E+04  0.25475741975E+04  0.12699999809E+01 0.  1.
</event>
<event>
 5   0  0.1686012E-06  0.2927395E+04  0.7818609E-02  0.8264773E-01
        1   -1    0    0  501    0  0.00000000000E+00  0.00000000000E+00  0.14720596972E+04  0.14720596972E+04  0.50400001928E-02 0.  1.
       -1   -1    0    0    0  501  0.00000000000E+00  0.00000000000E+00 -0.14553823664E+04  0.14553823664E+04  0.50400001928E-02 0. -1.
    10030    2    1    2    0    0  0.00000000000E+00  0.00000000000E+00  0.16677330835E+02  0.29274420636E+04  0.29273945587E+04 0.  0.
        4    1    3    3  502    0 -0.69955853908E+03 -0.94863623302E+03 -0.85949755376E+03  0.14587770597E+04  0.12699999809E+01 0. -1.
       -4    1    3    3    0  502  0.69955853908E+03  0.94863623302E+03  0.87617488459E+03  0.14686650038E+04  0.12699999809E+01 0.  1.
</event>
<event>
 5   0  0.1686012E-06  0.3036095E+04  0.7818609E-02  0.8233498E-01
        1   -1    0    0  501    0  0.00000000000E+00  0.00000000000E+00  0.16221772565E+04  0.16221772565E+04  0.50400001928E-02 0. -1.
       -1   -1    0    0    0  501  0.00000000000E+00  0.00000000000E+00 -0.14206018195E+04  0.14206018195E+04  0.50400001928E-02 0.  1.
    10030    2    1    2    0    0  0.00000000000E+00  0.00000000000E+00  0.20157543703E+03  0.30427790760E+04  0.30360948353E+04 0.  0.
        4    1    3    3  502    0  0.11451933518E+04 -0.87498550332E+03 -0.37712575333E+03  0.14897291333E+04  0.12699999809E+01 0.  1.
       -4    1    3    3    0  502 -0.11451933518E+04  0.87498550332E+03  0.57870119036E+03  0.15530499427E+04  0.12699999809E+01 0. -1.
</event>
<event>
 5   0  0.1709858E-06  0.2980022E+04  0.7818609E-02  0.8249459E-01
       -1   -1    0    0    0  501  0.00000000000E+00  0.00000000000E+00  0.13635769233E+04  0.13635769233E+04  0.50400001928E-02 0. -1.
        1   -1    0    0  501    0  0.00000000000E+00  0.00000000000E+00 -0.16281679893E+04  0.16281679893E+04  0.50400001928E-02 0.  1.
    10030    2    1    2    0    0  0.00000000000E+00  0.00000000000E+00 -0.26459106593E+03  0.29917449126E+04  0.29800216761E+04 0.  0.
        3    1    3    3  502    0 -0.55647198373E+03  0.98767673158E+03  0.83844468341E+03  0.14100198198E+04  0.10100000352E+00 0. -1.
       -3    1    3    3    0  502  0.55647198373E+03 -0.98767673158E+03 -0.11030357493E+04  0.15817250928E+04  0.10100000352E+00 0.  1.
</event>
<event>
 5   0  0.4935331E-06  0.2999971E+04  0.7818609E-02  0.8243739E-01
        2   -1    0    0  501    0  0.00000000000E+00  0.00000000000E+00  0.20657582873E+04  0.20657582873E+04  0.25500000920E-02 0. -1.
       -2   -1    0    0    0  501  0.00000000000E+00  0.00000000000E+00 -0.10891672657E+04  0.10891672657E+04  0.25500000920E-02 0.  1.
    10030    2    1    2    0    0  0.00000000000E+00  0.00000000000E+00  0.97659102160E+03  0.31549255530E+04  0.29999708701E+04 0.  0.
        5    1    3    3  502    0  0.13352871349E+02 -0.12399023167E+04  0.13759285782E+04  0.18522250394E+04  0.46999998093E+01 0. -1.
       -5    1    3    3    0  502 -0.13352871349E+02  0.12399023167E+04 -0.39933755664E+03  0.13027005136E+04  0.46999998093E+01 0.  1.
</event>
<event>
 5   0  0.4702748E-06  0.2838684E+04  0.7818609E-02  0.8291358E-01
       -2   -1    0    0    0  501  0.00000000000E+00  0.00000000000E+00  0.15899818791E+04  0.15899818791E+04  0.25500000920E-02 0. -1.
        2   -1    0    0  501    0  0.00000000000E+00  0.00000000000E+00 -0.12670154688E+04  0.12670154688E+04  0.25500000920E-02 0.  1.
    10030    2    1    2    0    0  0.00000000000E+00  0.00000000000E+00  0.32296641032E+03  0.28569973480E+04  0.28386839458E+04 0.  0.
        2    1    3    3  502    0 -0.63482814400E+03 -0.12680984362E+03 -0.11097744920E+04  0.12847906179E+04  0.25500000920E-02 0.  1.
       -2    1    3    3    0  502  0.63482814400E+03  0.12680984362E+03  0.14327409023E+04  0.15722067300E+04  0.25500000920E-02 0. -1.
</event>
<event>
 5   0  0.1734885E-06  0.3002950E+04  0.7818609E-02  0.8242889E-01
        1   -1    0    0  501    0  0.00000000000E+00  0.00000000000E+00  0.68274534002E+03  0.68274534003E+03  0.50400001928E-02 0.  1.
       -1   -1    0    0    0  501  0.00000000000E+00  0.00000000000E+00 -0.33020040461E+04  0.33020040461E+04  0.50400001928E-02 0. -1.
    10030    2    1    2    0    0  0.00000000000E+00  0.00000000000E+00 -0.26192587061E+04  0.39847493861E+04  0.30029504659E+04 0.  0.
        2    1    3    3  502    0  0.27465682694E+03 -0.44858266898E+03  0.55649335421E+03  0.76573339798E+03  0.25500000920E-02 0.  1.
       -2    1    3    3    0  502 -0.27465682694E+03  0.44858266898E+03 -0.31757520603E+04  0.32190159881E+04  0.25500000920E-02 0. -1.
</event>
<event>
 5   0  0.1700885E-06  0.2988929E+04  0.7818609E-02  0.8246899E-01
        1   -1    0    0  501    0  0.00000000000E+00  0.00000000000E+00  0.15500451064E+04  0.15500451064E+04  0.50400001928E-02 0. -1.
       -1   -1    0    0    0  501  0.00000000000E+00  0.00000000000E+00 -0.14408765051E+04  0.14408765051E+04  0.50400001928E-02 0.  1.
    10030    2    1    2    0    0  0.00000000000E+00  0.00000000000E+00  0.10916860135E+03  0.29909216115E+04  0.29889286212E+04 0.  0.
        1    1    3    3  502    0 -0.31432856498E+03 -0.42120969143E+02 -0.14068164749E+04  0.14421196958E+04  0.50400001928E-02 0.  1.
       -1    1    3    3    0  502  0.31432856498E+03  0.42120969143E+02  0.15159850763E+04  0.15488019158E+04  0.50400001928E-02 0. -1.
</event>
<event>
 5   0  0.1709858E-06  0.3017994E+04  0.7818609E-02  0.8238611E-01
        1   -1    0    0  501    0  0.00000000000E+00  0.00000000000E+00  0.25107985251E+04  0.25107985251E+04  0.50400001928E-02 0. -1.
       -1   -1    0    0    0  501  0.00000000000E+00  0.00000000000E+00 -0.90691154161E+03  0.90691154163E+03  0.50400001928E-02 0.  1.
    10030    2    1    2    0    0  0.00000000000E+00  0.00000000000E+00  0.16038869834E+04  0.34177100667E+04  0.30179941425E+04 0.  0.
        3    1    3    3  502    0  0.13004534021E+04  0.73304308324E+03  0.55244328653E+03  0.15917678248E+04  0.10100000352E+00 0.  1.
       -3    1    3    3    0  502 -0.13004534021E+04 -0.73304308324E+03  0.10514436969E+04  0.18259422419E+04  0.10100000352E+00 0. -1.
</event>
<event>
 5   0  0.1700885E-06  0.3026286E+04  0.7818609E-02  0.8236264E-01
       -1   -1    0    0    0  501  0.00000000000E+00  0.00000000000E+00  0.84530689916E+03  0.84530689918E+03  0.50400001928E-02 0.  1.
        1   -1    0    0  501    0  0.00000000000E+00  0.00000000000E+00 -0.27086039427E+04  0.27086039427E+04  0.50400001928E-02 0. -1.
    10030    2    1    2    0    0  0.00000000000E+00  0.00000000000E+00 -0.18632970435E+04  0.35539108419E+04  0.30262859084E+04 0.  0.
        1    1    3    3  502    0 -0.46367688532E+03  0.10763310965E+04 -0.20556631846E+04  0.23662704858E+04  0.50400001928E-02 0. -1.
       -1    1    3    3    0  502  0.46367688532E+03 -0.10763310965E+04  0.19236614109E+03  0.11876403561E+04  0.50400001928E-02 0.  1.
</event>
<event>
 5   0  0.1686012E-06  0.2912144E+04  0.7818609E-02  0.8269273E-01
       -1   -1    0    0    0  501  0.00000000000E+00  0.00000000000E+00  0.13317122499E+04  0.13317122499E+04  0.50400001928E-02 0.  1.
        1   -1    0    0  501    0  0.00000000000E+00  0.00000000000E+00 -0.15920453598E+04  0.15920453598E+04  0.50400001928E-02 0. -1.
    10030    2    1    2    0    0  0.00000000000E+00  0.00000000000E+00 -0.26033310987E+03  0.29237576097E+04  0.29121444387E+04 0.  0.
        4    1    3    3  502    0 -0.94032914058E+03  0.96185590702E+03  0.42951413446E+03  0.14120445046E+04  0.12699999809E+01 0.  1.
       -4    1    3    3    0  502  0.94032914058E+03 -0.96185590702E+03 -0.68984724433E+03  0.15117131050E+04  0.12699999809E+01 0. -1.
</event>
<event>
 5   0  0.1686012E-06  0.2998276E+04  0.7818609E-02  0.8244223E-01
       -1   -1    0    0    0  501  0.00000000000E+00  0.00000000000E+00  0.18527275078E+04  0.18527275079E+04  0.50400001928E-02 0.  1.
        1   -1    0    0  501    0  0.00000000000E+00  0.00000000000E+00 -0.12130300969E+04  0.12130300969E+04  0.50400001928E-02 0. -1.
    10030    2    1    2    0    0  0.00000000000E+00  0.00000000000E+00  0.63969741093E+03  0.30657576048E+04  0.29982756567E+04 0.  0.
        4    1    3    3  502    0 -0.59223329176E+03  0.12597569371E+04  0.88886696449E+03  0.16516094895E+04  0.12699999809E+01 0.  1.
       -4    1    3    3    0  502  0.59223329176E+03 -0.12597569371E+04 -0.24916955356E+03  0.14141481152E+04  0.12699999809E+01 0. -1.
</event>
<event>
 5   0  0.1709858E-06  0.3036740E+04  0.7818609E-02  0.8233317E-01
        1   -1    0    0  501    0  0.00000000000E+00  0.00000000000E+00  0.77522257977E+03  0.77522257979E+03  0.50400001928E-02 0.  1.
       -1   -1    0    0    0  501  0.00000000000E+00  0.00000000000E+00 -0.29739166390E+04  0.29739166390E+04  0.50400001928E-02 0. -1.
    10030    2    1    2    0    0  0.00000000000E+00  0.00000000000E+00 -0.21986940592E+04  0.37491392187E+04  0.30367399157E+04 0.  0.
        3    1    3    3  502    0 -0.91779500234E+02  0.21303623679E+03  0.75321769299E+03  0.78812741234E+03  0.10100000352E+00 0.  1.
       -3    1    3    3    0  502  0.91779500234E+02 -0.21303623679E+03 -0.29519117522E+04  0.29610118064E+04  0.10100000352E+00 0. -1.
</event>
<event>
 5   0  0.4702748E-06  0.2983123E+04  0.7818609E-02  0.8248567E-01
        2   -1    0    0  501    0  0.00000000000E+00  0.00000000000E+00  0.24152057101E+04  0.24152057101E+04  0.25500000920E-02 0.  1.
       -2   -1    0    0    0  501  0.00000000000E+00  0.00000000000E+00 -0.92114557467E+03  0.92114557467E+03  0.25500000920E-02 0. -1.
    10030    2    1    2    0    0  0.00000000000E+00  0.00000000000E+00  0.14940601355E+04  0.33363512848E+04  0.29831232303E+04 0.  0.
        2    1    3    3  502    0  0.67975711335E+03  0.25592347729E+03  0.22040508432E+04  0.23206479007E+04  0.25500000920E-02 0.  1.
       -2    1    3    3    0  502 -0.67975711335E+03 -0.25592347729E+03 -0.70999070777E+03  0.10157033841E+04  0.25500000920E-02 0. -1.
</event>
<event>
 5   0  0.1545375E-06  0.3009418E+04  0.7818609E-02  0.8241047E-01
        3   -1    0    0  501    0  0.00000000000E+00  0.00000000000E+00  0.20457833297E+04  0.20457833322E+04  0.10100000352E+00 0.  1.
       -3   -1    0    0    0  501  0.00000000000E+00  0.00000000000E+00 -0.11067395191E+04  0.11067395237E+04  0.10100000352E+00 0. -1.
    10030    2    1    2    0    0  0.00000000000E+00  0.00000000000E+00  0.93904381066E+03  0.31525228559E+04  0.30094180631E+04 0.  0.
        2    1    3    3  502    0 -0.46160442805E+03  0.62613335798E+03  0.18188032982E+04  0.19781726586E+04  0.25500000920E-02 0.  1.
       -2    1    3    3    0  502  0.46160442805E+03 -0.62613335798E+03 -0.87975948751E+03  0.11743501973E+04  0.25500000920E-02 0. -1.
</event>
<event>
 5   0  0.4768570E-06  0.3004713E+04  0.7818609E-02  0.8242386E-01
       -2   -1    0    0    0  501  0.00000000000E+00  0.00000000000E+00  0.32423335444E+04  0.32423335444E+04  0.25500000920E-02 0. -1.
        2   -1    0    0  501    0  0.00000000000E+00  0.00000000000E+00 -0.69612685423E+03  0.69612685423E+03  0.25500000920E-02 0.  1.
    10030    2    1    2    0    0  0.00000000000E+00  0.00000000000E+00  0.25462066901E+04  0.39384603986E+04  0.30047132646E+04 0.  0.
        1    1    3    3  502    0 -0.81873069835E+01 -0.16961575880E+03 -0.68350691203E+03  0.70428562136E+03  0.50400001928E-02 0.  1.
       -1    1    3    3    0  502  0.81873069835E+01  0.16961575880E+03  0.32297136022E+04  0.32341747772E+04  0.50400001928E-02 0. -1.
</event>
<event>
 5   0  0.1709858E-06  0.2988849E+04  0.7818609E-02  0.8246922E-01
        1   -1    0    0  501    0  0.00000000000E+00  0.00000000000E+00  0.11710999454E+04  0.11710999454E+04  0.50400001928E-02 0. -1.
       -1   -1    0    0    0  501  0.00000000000E+00  0.00000000000E+00 -0.19070144688E+04  0.19070144688E+04  0.50400001928E-02 0.  1.
    10030    2    1    2    0    0  0.00000000000E+00  0.00000000000E+00 -0.73591452337E+03  0.30781144141E+04  0.29888489692E+04 0.  0.
        3    1    3    3  502    0 -0.41350481404E+03  0.87363368816E+03 -0.15417708995E+04  0.18196921633E+04  0.10100000352E+00 0.  1.
       -3    1    3    3    0  502  0.41350481404E+03 -0.87363368816E+03  0.80585637614E+03  0.12584222509E+04  0.10100000352E+00 0. -1.
</event>
<event>
 5   0  0.4768570E-06  0.3042673E+04  0.7818609E-02  0.8231649E-01
       -2   -1    0    0    0  501  0.00000000000E+00  0.00000000000E+00  0.14836954423E+04  0.14836954423E+04  0.25500000920E-02 0. -1.
        2   -1    0    0  501    0  0.00000000000E+00  0.00000000000E+00 -0.15599329317E+04  0.15599329317E+04  0.25500000920E-02 0.  1.
    10030    2    1    2    0    0  0.00000000000E+00  0.00000000000E+00 -0.76237489416E+02  0.30436283740E+04  0.30426734173E+04 0.  0.
        1    1    3    3  502    0 -0.10070366480E+03 -0.90939828183E+03 -0.12539503078E+04  0.15522686100E+04  0.50400001928E-02 0.  1.
       -1    1    3    3    0  502  0.10070366480E+03  0.90939828183E+03  0.11777128184E+04  0.14913597640E+04  0.50400001928E-02 0. -1.
</event>
<event>
 5   0  0.1700885E-06  0.2946906E+04  0.7818609E-02  0.8259057E-01
       -1   -1    0    0    0  501  0.00000000000E+00  0.00000000000E+00  0.14213883833E+04  0.14213883833E+04  0.50400001928E-02 0.  1.
        1   -1    0    0  501    0  0.00000000000E+00  0.00000000000E+00 -0.15274252006E+04  0.15274252006E+04  0.50400001928E-02 0. -1.
    10030    2    1    2    0    0  0.00000000000E+00  0.00000000000E+00 -0.10603681727E+03  0.29488135839E+04  0.29469064705E+04 0.  0.
        1    1    3    3  502    0  0.11790305870E+04 -0.34744395120E+03  0.76005529028E+03  0.14451693564E+04  0.50400001928E-02 0.  1.
       -1    1    3    3    0  502 -0.11790305870E+04  0.34744395120E+03 -0.86609210755E+03  0.15036442276E+04  0.50400001928E-02 0. -1.
</event>
<event>
 5   0  0.4935331E-06  0.2984159E+04  0.7818609E-02  0.8248269E-01
        2   -1    0    0  501    0  0.00000000000E+00  0.00000000000E+00  0.24797828464E+04  0.24797828464E+04  0.25500000920E-02 0.  1.
       -2   -1    0    0    0  501  0.00000000000E+00  0.00000000000E+00 -0.89778086748E+03  0.89778086749E+03  0.25500000920E-02 0. -1.
    10030    2    1    2    0    0  0.00000000000E+00  0.00000000000E+00  0.15820019789E+04  0.33775637139E+04  0.29841592418E+04 0.  0.
        5    1    3    3  502    0  0.26053045305E+03 -0.74920690595E+03  0.22213650102E+04  0.23587436706E+04  0.46999998093E+01 0.  1.
       -5    1    3    3    0  502 -0.26053045305E+03  0.74920690595E+03 -0.63936303129E+03  0.10188200433E+04  0.46999998093E+01 0. -1.
</event>
<event>
 5   0  0.1734885E-06  0.2903273E+04  0.7818609E-02  0.8271904E-01
       -1   -1    0    0    0  501  0.00000000000E+00  0.00000000000E+00  0.27601433984E+04  0.27601433984E+04  0.50400001928E-02 0. -1.
        1   -1    0    0  501    0  0.00000000000E+00  0.00000000000E+00 -0.76345642221E+03  0.76345642223E+03  0.50400001928E-02 0.  1.
    10030    2    1    2    0    0  0.00000000000E+00  0.00000000000E+00  0.19966869761E+04  0.35235998206E+04  0.29032734654E+04 0.  0.
        2    1    3    3  502    0  0.94105368628E+02 -0.12595015479E+03 -0.75309246863E+03  0.76932927164E+03  0.25500000920E-02 0.  1.
       -2    1    3    3    0  502 -0.94105368628E+02  0.12595015479E+03  0.27497794448E+04  0.27542705490E+04  0.25500000920E-02 0. -1.
</event>
<event>
 5   0  0.5003556E-06  0.3004293E+04  0.7818609E-02  0.8242506E-01
       -2   -1    0    0    0  501  0.00000000000E+00  0.00000000000E+00  0.10649455152E+04  0.10649455152E+04  0.25500000920E-02 0.  1.
        2   -1    0    0  501    0  0.00000000000E+00  0.00000000000E+00 -0.21188350781E+04  0.21188350781E+04  0.25500000920E-02 0. -1.
    10030    2    1    2    0    0  0.00000000000E+00  0.00000000000E+00 -0.10538895629E+04  0.31837805933E+04  0.30042928711E+04 0.  0.
        3    1    3    3  502    0  0.11573569735E+04  0.26455868169E+03  0.44835198908E+03  0.12690492412E+04  0.10100000352E+00 0.  1.
       -3    1    3    3    0  502 -0.11573569735E+04 -0.26455868169E+03 -0.15022415520E+04  0.19147313521E+04  0.10100000352E+00 0. -1.
</event>
<event>
 5   0  0.4702748E-06  0.2968469E+04  0.7818609E-02  0.8252792E-01
        2   -1    0    0  501    0  0.00000000000E+00  0.00000000000E+00  0.12287022274E+04  0.12287022274E+04  0.25500000920E-02 0. -1.
       -2   -1    0    0    0  501  0.00000000000E+00  0.00000000000E+00 -0.17929099385E+04  0.17929099385E+04  0.25500000920E-02 0.  1.
    10030    2    1    2    0    0  0.00000000000E+00  0.00000000000E+00 -0.56420771103E+03  0.30216121659E+04  0.29684692587E+04 0.  0.
        2    1    3    3  502    0 -0.59511567819E+03  0.83586570051E+03 -0.13737387778E+04  0.17146405948E+04  0.25500000920E-02 0.  1.
       -2    1    3    3    0  502  0.59511567819E+03 -0.83586570051E+03  0.80953106673E+03  0.13069715711E+04  0.25500000920E-02 0. -1.
</event>
<event>
 5   0  0.1734885E-06  0.2987985E+04  0.7818609E-02  0.8247170E-01
       -1   -1    0    0    0  501  0.00000000000E+00  0.00000000000E+00  0.12861232297E+04  0.12861232298E+04  0.50400001928E-02 0.  1.
        1   -1    0    0  501    0  0.00000000000E+00  0.00000000000E+00 -0.17354581301E+04  0.17354581301E+04  0.50400001928E-02 0. -1.
    10030    2    1    2    0    0  0.00000000000E+00  0.00000000000E+00 -0.44933490035E+03  0.30215813599E+04  0.29879846154E+04 0.  0.
        2    1    3    3  502    0  0.36158059426E+03 -0.14409979833E+04 -0.65425258651E+02  0.14871100089E+04  0.25500000920E-02 0.  1.
       -2    1    3    3    0  502 -0.36158059426E+03  0.14409979833E+04 -0.38390964170E+03  0.15344713510E+04  0.25500000920E-02 0. -1.
</event>
<event>
 5   0  0.1545375E-06  0.2826494E+04  0.7818609E-02  0.8295090E-01
       -4   -1    0    0    0  501  0.00000000000E+00  0.00000000000E+00  0.15306355433E+04  0.15306360702E+04  0.12699999809E+01 0.  1.
        4   -1    0    0  501    0  0.00000000000E+00  0.00000000000E+00 -0.13048606118E+04  0.13048612298E+04  0.12699999809E+01 0. -1.
    10030    2    1    2    0    0  0.00000000000E+00  0.00000000000E+00  0.22577493154E+03  0.28354973001E+04  0.28264944045E+04 0.  0.
        2    1    3    3  502    0 -0.12554640044E+04  0.27856878818E+03  0.70082349755E+03  0.14645627370E+04  0.25500000920E-02 0.  1.
       -2    1    3    3    0  502  0.12554640044E+04 -0.27856878818E+03 -0.47504856601E+03  0.13709345630E+04  0.25500000920E-02 0. -1.
</event>
<event>
 5   0  0.4935331E-06  0.2991667E+04  0.7818609E-02  0.8246115E-01
        2   -1    0    0  501    0  0.00000000000E+00  0.00000000000E+00  0.12461501354E+04  0.12461501354E+04  0.25500000920E-02 0. -1.
       -2   -1    0    0    0  501  0.00000000000E+00  0.00000000000E+00 -0.17955438358E+04  0.17955438358E+04  0.25500000920E-02 0.  1.
    10030    2    1    2    0    0  0.00000000000E+00  0.00000000000E+00 -0.54939370040E+03  0.30416939712E+04  0.29916665550E+04 0.  0.
        5    1    3    3  502    0 -0.80301892857E+02  0.19332485659E+03  0.12311756327E+04  0.12488548445E+04  0.46999998093E+01 0. -1.
       -5    1    3    3    0  502  0.80301892857E+02 -0.19332485659E+03 -0.17805693331E+04  0.17928391267E+04  0.46999998093E+01 0.  1.
</event>
<event>
 5   0  0.5003556E-06  0.3389156E+04  0.7818609E-02  0.8140573E-01
       -2   -1    0    0    0  501  0.00000000000E+00  0.00000000000E+00  0.12779320346E+04  0.12779320346E+04  0.25500000920E-02 0. -1.
        2   -1    0    0  501    0  0.00000000000E+00  0.00000000000E+00 -0.22470631416E+04  0.22470631416E+04  0.25500000920E-02 0.  1.
    10030    2    1    2    0    0  0.00000000000E+00  0.00000000000E+00 -0.96913110707E+03  0.35249951762E+04  0.33891556308E+04 0.  0.
        3    1    3    3  502    0 -0.62956192638E+03 -0.11207993453E+04  0.66379585254E+03  0.14467772239E+04  0.10100000352E+00 0. -1.
       -3    1    3    3    0  502  0.62956192638E+03  0.11207993453E+04 -0.16329269596E+04  0.20782179523E+04  0.10100000352E+00 0.  1.
</event>
<event>
 5   0  0.4768570E-06  0.2993540E+04  0.7818609E-02  0.8245578E-01
        2   -1    0    0  501    0  0.00000000000E+00  0.00000000000E+00  0.22096119940E+04  0.22096119940E+04  0.25500000920E-02 0.  1.
       -2   -1    0    0    0  501  0.00000000000E+00  0.00000000000E+00 -0.10138973352E+04  0.10138973352E+04  0.25500000920E-02 0. -1.
    10030    2    1    2    0    0  0.00000000000E+00  0.00000000000E+00  0.11957146589E+04  0.32235093292E+04  0.29935395187E+04 0.  0.
        1    1    3    3  502    0  0.34571687118E+03  0.77396285040E+03 -0.73051562092E+03  0.11190137270E+04  0.50400001928E-02 0. -1.
       -1    1    3    3    0  502 -0.34571687118E+03 -0.77396285040E+03  0.19262302798E+04  0.21044956022E+04  0.50400001928E-02 0.  1.
</event>
<event>
 5   0  0.1672907E-06  0.3014268E+04  0.7818609E-02  0.8239668E-01
       -1   -1    0    0    0  501  0.00000000000E+00  0.00000000000E+00  0.12693659867E+04  0.12693659868E+04  0.50400001928E-02 0. -1.
        1   -1    0    0  501    0  0.00000000000E+00  0.00000000000E+00 -0.17894389874E+04  0.17894389874E+04  0.50400001928E-02 0.  1.
    10030    2    1    2    0    0  0.00000000000E+00  0.00000000000E+00 -0.52007300064E+03  0.30588049741E+04  0.30142680610E+04 0.  0.
        5    1    3    3  502    0  0.26481151463E+02 -0.63085582324E+02 -0.17878548232E+04  0.17891696400E+04  0.46999998093E+01 0.  1.
       -5    1    3    3    0  502 -0.26481151463E+02  0.63085582324E+02  0.12677818225E+04  0.12696353341E+04  0.46999998093E+01 0. -1.
</event>
<event>
 5   0  0.1700885E-06  0.3037118E+04  0.7818609E-02  0.8233210E-01
        1   -1    0    0  501    0  0.00000000000E+00  0.00000000000E+00  0.23180853283E+04  0.23180853283E+04  0.50400001928E-02 0. -1.
       -1   -1    0    0    0  501  0.00000000000E+00  0.00000000000E+00 -0.99479550859E+03  0.99479550860E+03  0.50400001928E-02 0.  1.
    10030    2    1    2    0    0  0.00000000000E+00  0.00000000000E+00  0.13232898197E+04  0.33128808369E+04  0.30371176290E+04 0.  0.
        1    1    3    3  502    0  0.12428458489E+04 -0.14212027969E+03 -0.27742792729E+03  0.12813392342E+04  0.50400001928E-02 0. -1.
       -1    1    3    3    0  502 -0.12428458489E+04  0.14212027969E+03  0.16007177470E+04  0.20315416027E+04  0.50400001928E-02 0.  1.
</event>
<event>
 5   0  0.4702748E-06  0.2939710E+04  0.7818609E-02  0.8261160E-01
       -2   -1    0    0    0  501  0.00000000000E+00  0.00000000000E+00  0.13511053947E+04  0.13511053947E+04  0.25500000920E-02 0.  1.
        2   -1    0    0  501    0  0.00000000000E+00  0.00000000000E+00 -0.15990413334E+04  0.15990413334E+04  0.25500000920E-02 0. -1.
    10030    2    1    2    0    0  0.00000000000E+00  0.00000000000E+00 -0.24793593871E+03  0.29501467281E+04  0.29397097625E+04 0.  0.
        2    1    3    3  502    0 -0.99887923294E+03  0.43329376087E+02  0.95727833517E+03  0.13842033694E+04  0.25500000920E-02 0.  1.
       -2    1    3    3    0  502  0.99887923294E+03 -0.43329376087E+02 -0.12052142739E+04  0.15659433587E+04  0.25500000920E-02 0. -1.
</event>
<event>
 5   0  0.1734885E-06  0.2992535E+04  0.7818609E-02  0.8245866E-01
        1   -1    0    0  501    0  0.00000000000E+00  0.00000000000E+00  0.15131068384E+04  0.15131068384E+04  0.50400001928E-02 0.  1.
       -1   -1    0    0    0  501  0.00000000000E+00  0.00000000000E+00 -0.14796155088E+04  0.14796155088E+04  0.50400001928E-02 0. -1.
    10030    2    1    2    0    0  0.00000000000E+00  0.00000000000E+00  0.33491329652E+02  0.29927223472E+04  0.29925349419E+04 0.  0.
        2    1    3    3  502    0 -0.13478518836E+04  0.11782914853E+03 -0.62222152343E+03  0.14892105401E+04  0.25500000920E-02 0. -1.
       -2    1    3    3    0  502  0.13478518836E+04 -0.11782914853E+03  0.65571285308E+03  0.15035118071E+04  0.25500000920E-02 0.  1.
</event>
<event>
 5   0  0.4768570E-06  0.3001203E+04  0.7818609E-02  0.8243388E-01
        2   -1    0    0  501    0  0.00000000000E+00  0.00000000000E+00  0.28807430288E+04  0.28807430288E+04  0.25500000920E-02 0.  1.
       -2   -1    0    0    0  501  0.00000000000E+00  0.00000000000E+00 -0.78167485276E+03  0.78167485276E+03  0.25500000920E-02 0. -1.
    10030    2    1    2    0    0  0.00000000000E+00  0.00000000000E+00  0.20990681761E+04  0.36624178816E+04  0.30012026809E+04 0.  0.
        1    1    3    3  502    0 -0.89809528409E+03 -0.13169675936E+03 -0.40867304128E+03  0.99545609166E+03  0.50400001928E-02 0. -1.
       -1    1    3    3    0  502  0.89809528409E+03  0.13169675936E+03  0.25077412173E+04  0.26669617899E+04  0.50400001928E-02 0.  1.
</event>
<event>
 5   0  0.4935331E-06  0.2917702E+04  0.7818609E-02  0.8267630E-01
        2   -1    0    0  501    0  0.00000000000E+00  0.00000000000E+00  0.11701412770E+04  0.11701412771E+04  0.25500000920E-02 0.  1.
       -2   -1    0    0    0  501  0.00000000000E+00  0.00000000000E+00 -0.18187948805E+04  0.18187948805E+04  0.25500000920E-02 0. -1.
    10030    2    1    2    0    0  0.00000000000E+00  0.00000000000E+00 -0.64865360350E+03  0.29889361576E+04  0.29177024963E+04 0.  0.
        5    1    3    3  502    0  0.12921326751E+04  0.15445915966E+03  0.35113472570E+03  0.13478806207E+04  0.46999998093E+01 0.  1.
       -5    1    3    3    0  502 -0.12921326751E+04 -0.15445915966E+03 -0.99978832920E+03  0.16410555369E+04  0.46999998093E+01 0. -1.
</event>
<event>
 5   0  0.1672907E-06  0.3027202E+04  0.7818609E-02  0.8236006E-01
        1   -1    0    0  501    0  0.00000000000E+00  0.00000000000E+00  0.18841225476E+04  0.18841225476E+04  0.50400001928E-02 0.  1.
       -1   -1    0    0    0  501  0.00000000000E+00  0.00000000000E+00 -0.12159439842E+04  0.12159439842E+04  0.50400001928E-02 0. -1.
    10030    2    1    2    0    0  0.00000000000E+00  0.00000000000E+00  0.66817856341E+03  0.31000665319E+04  0.30272016632E+04 0.  0.
        5    1    3    3  502    0 -0.81570139509E+03  0.39451103648E+03 -0.90751177794E+03  0.12824224893E+04  0.46999998093E+01 0. -1.
       -5    1    3    3    0  502  0.81570139509E+03 -0.39451103648E+03  0.15756903414E+04  0.18176440426E+04  0.46999998093E+01 0.  1.
</event>
<event>
 5   0  0.1672907E-06  0.2962786E+04  0.7818609E-02  0.8254438E-01
        1   -1    0    0  501    0  0.00000000000E+00  0.00000000000E+00  0.17299604437E+04  0.17299604437E+04  0.50400001928E-02 0. -1.
       -1   -1    0    0    0  501  0.00000000000E+00  0.00000000000E+00 -0.12685407017E+04  0.12685407017E+04  0.50400001928E-02 0.  1.
    10030    2    1    2    0    0  0.00000000000E+00  0.00000000000E+00  0.46141974202E+03  0.29985011454E+04  0.29627860099E+04 0.  0.
        5    1    3    3  502    0 -0.12456379410E+04  0.42862220044E+03 -0.45508109878E+03  0.13937186829E+04  0.46999998093E+01 0.  1.
       -5    1    3    3    0  502  0.12456379410E+04 -0.42862220044E+03  0.91650084080E+03  0.16047824625E+04  0.46999998093E+01 0. -1.
</event>
<event>
 5   0  0.4768570E-06  0.2983868E+04  0.7818609E-02  0.8248353E-01
        2   -1    0    0  501    0  0.00000000000E+00  0.00000000000E+00  0.15818431430E+04  0.15818431430E+04  0.25500000920E-02 0.  1.
       -2   -1    0    0    0  501  0.00000000000E+00  0.00000000000E+00 -0.14071348761E+04  0.14071348761E+04  0.25500000920E-02 0. -1.
    10030    2    1    2    0    0  0.00000000000E+00  0.00000000000E+00  0.17470826690E+03  0.29889780192E+04  0.29838677284E+04 0.  0.
        1    1    3    3  502    0  0.67431678423E+03  0.75727652370E+03 -0.10089130568E+04  0.14304112748E+04  0.50400001928E-02 0. -1.
       -1    1    3    3    0  502 -0.67431678423E+03 -0.75727652370E+03  0.11836213237E+04  0.15585667444E+04  0.50400001928E-02 0.  1.
</event>
<event>
 5   0  0.4532420E-06  0.3017524E+04  0.7818609E-02  0.8238744E-01
        2   -1    0    0  501    0  0.00000000000E+00  0.00000000000E+00  0.18548929885E+04  0.18548929885E+04  0.25500000920E-02 0. -1.
       -2   -1    0    0    0  501  0.00000000000E+00  0.00000000000E+00 -0.12272205357E+04  0.12272205357E+04  0.25500000920E-02 0.  1.
    10030    2    1    2    0    0  0.00000000000E+00  0.00000000000E+00  0.62767245278E+03  0.30821135242E+04  0.30175239962E+04 0.  0.
        4    1    3    3  502    0 -0.13214480314E+04 -0.54565512983E+03  0.80623040353E+03  0.16413328416E+04  0.12699999809E+01 0. -1.
       -4    1    3    3    0  502  0.13214480314E+04  0.54565512983E+03 -0.17855795075E+03  0.14407806825E+04  0.12699999809E+01 0.  1.
</event>
<event>
 5   0  0.1734885E-06  0.2938454E+04  0.7818609E-02  0.8261527E-01
       -1   -1    0    0    0  501  0.00000000000E+00  0.00000000000E+00  0.11004985547E+04  0.11004985547E+04  0.50400001928E-02 0. -1.
        1   -1    0    0  501    0  0.00000000000E+00  0.00000000000E+00 -0.19615002974E+04  0.19615002975E+04  0.50400001928E-02 0.  1.
    10030    2    1    2    0    0  0.00000000000E+00  0.00000000000E+00 -0.86100174276E+03  0.30619988522E+04  0.29384541803E+04 0.  0.
        2    1    3    3  502    0 -0.14097492392E+04 -0.16002263593E+03 -0.82815790067E+03  0.16428163835E+04  0.25500000920E-02 0.  1.
       -2    1    3    3    0  502  0.14097492392E+04  0.16002263593E+03 -0.32843842085E+02  0.14191824687E+04  0.25500000920E-02 0. -1.
</event>
<event>
 5   0  0.1686012E-06  0.3030539E+04  0.7818609E-02  0.8235064E-01
        1   -1    0    0  501    0  0.00000000000E+00  0.00000000000E+00  0.13151475623E+04  0.13151475623E+04  0.50400001928E-02 0. -1.
       -1   -1    0    0    0  501  0.00000000000E+00  0.00000000000E+00 -0.17458439179E+04  0.17458439179E+04  0.50400001928E-02 0.  1.
    10030    2    1    2    0    0  0.00000000000E+00  0.00000000000E+00 -0.43069635560E+03  0.30609914802E+04  0.30305394720E+04 0.  0.
        4    1    3    3  502    0  0.11894808327E+04  0.85672309269E+03  0.17217574377E+03  0.14759692438E+04  0.12699999809E+01 0. -1.
       -4    1    3    3    0  502 -0.11894808327E+04 -0.85672309269E+03 -0.60287209937E+03  0.15850222365E+04  0.12699999809E+01 0.  1.
</event>
<event>
 5   0  0.5003556E-06  0.2984606E+04  0.7818609E-02  0.8248141E-01
       -2   -1    0    0    0  501  0.00000000000E+00  0.00000000000E+00  0.91981125649E+03  0.91981125650E+03  0.25500000920E-02 0.  1.
        2   -1    0    0  501    0  0.00000000000E+00  0.00000000000E+00 -0.24211136164E+04  0.24211136164E+04  0.25500000920E-02 0. -1.
    10030    2    1    2    0    0  0.00000000000E+00  0.00000000000E+00 -0.15013023599E+04  0.33409248729E+04  0.29846055402E+04 0.  0.
        3    1    3    3  502    0  0.11774086670E+04 -0.37717227746E+03 -0.16861372184E+04  0.20908392634E+04  0.10100000352E+00 0.  1.
       -3    1    3    3    0  502 -0.11774086670E+04  0.37717227746E+03  0.18483485842E+03  0.12500856095E+04  0.10100000352E+00 0. -1.
</event>
<event>
 5   0  0.1700885E-06  0.2993999E+04  0.7818609E-02  0.8245447E-01
        1   -1    0    0  501    0  0.00000000000E+00  0.00000000000E+00  0.10132324587E+04  0.10132324587E+04  0.50400001928E-02 0. -1.
       -1   -1    0    0    0  501  0.00000000000E+00  0.00000000000E+00 -0.22117410854E+04  0.22117410854E+04  0.50400001928E-02 0.  1.
    10030    2    1    2    0    0  0.00000000000E+00  0.00000000000E+00 -0.11985086267E+04  0.32249735441E+04  0.29939992372E+04 0.  0.
        1    1    3    3  502    0  0.11549819711E+04 -0.65976755798E+03  0.14055842601E+03  0.13375474778E+04  0.50400001928E-02 0. -1.
       -1    1    3    3    0  502 -0.11549819711E+04  0.65976755798E+03 -0.13390670527E+04  0.18874260663E+04  0.50400001928E-02 0.  1.
</event>
<event>
 5   0  0.4935331E-06  0.3000754E+04  0.7818609E-02  0.8243516E-01
        2   -1    0    0  501    0  0.00000000000E+00  0.00000000000E+00  0.18521508694E+04  0.18521508694E+04  0.25500000920E-02 0. -1.
       -2   -1    0    0    0  501  0.00000000000E+00  0.00000000000E+00 -0.12154142304E+04  0.12154142304E+04  0.25500000920E-02 0.  1.
    10030    2    1    2    0    0  0.00000000000E+00  0.00000000000E+00  0.63673663900E+03  0.30675650998E+04  0.30007535877E+04 0.  0.
        5    1    3    3  502    0 -0.10278367847E+04 -0.10695992230E+04  0.88375798897E+02  0.14860428411E+04  0.46999998093E+01 0.  1.
       -5    1    3    3    0  502  0.10278367847E+04  0.10695992230E+04  0.54836084010E+03  0.15815222587E+04  0.46999998093E+01 0. -1.
</event>
<event>
 5   0  0.1734885E-06  0.2985610E+04  0.7818609E-02  0.8247852E-01
        1   -1    0    0  501    0  0.00000000000E+00  0.00000000000E+00  0.19255519811E+04  0.19255519811E+04  0.50400001928E-02 0.  1.
       -1   -1    0    0    0  501  0.00000000000E+00  0.00000000000E+00 -0.11573128633E+04  0.11573128633E+04  0.50400001928E-02 0. -1.
    10030    2    1    2    0    0  0.00000000000E+00  0.00000000000E+00  0.76823911779E+03  0.30828648444E+04  0.29856095368E+04 0.  0.
        2    1    3    3  502    0  0.11541253015E+04  0.65609461462E+03  0.10889988811E+04  0.17170858796E+04  0.25500000920E-02 0.  1.
       -2    1    3    3    0  502 -0.11541253015E+04 -0.65609461462E+03 -0.32075976333E+03  0.13657789648E+04  0.25500000920E-02 0. -1.
</event>
<event>
 5   0  0.4768570E-06  0.2998999E+04  0.7818609E-02  0.8244017E-01
        2   -1    0    0  501    0  0.00000000000E+00  0.00000000000E+00  0.13269367863E+04  0.13269367863E+04  0.25500000920E-02 0.  1.
       -2   -1    0    0    0  501  0.00000000000E+00  0.00000000000E+00 -0.16945036115E+04  0.16945036115E+04  0.25500000920E-02 0. -1.
    10030    2    1    2    0    0  0.00000000000E+00  0.00000000000E+00 -0.36756682512E+03  0.30214403978E+04  0.29989992842E+04 0.  0.
        1    1    3    3  502    0 -0.72380048623E+03 -0.11807199049E+04  0.39542070376E+03  0.14402583694E+04  0.50400001928E-02 0.  1.
       -1    1    3    3    0  502  0.72380048623E+03  0.11807199049E+04 -0.76298752888E+03  0.15811820284E+04  0.50400001928E-02 0. -1.
</event>
<event>
 5   0  0.4702748E-06  0.2989118E+04  0.7818609E-02  0.8246845E-01
       -2   -1    0    0    0  501  0.00000000000E+00  0.00000000000E+00  0.19168356726E+04  0.19168356726E+04  0.25500000920E-02 0.  1.
        2   -1    0    0  501    0  0.00000000000E+00  0.00000000000E+00 -0.11653092991E+04  0.11653092991E+04  0.25500000920E-02 0. -1.
    10030    2    1    2    0    0  0.00000000000E+00  0.00000000000E+00  0.75152637354E+03  0.30821449717E+04  0.29891178860E+04 0.  0.
        2    1    3    3  502    0 -0.49709020979E+03  0.11166534607E+04 -0.51105729836E+03  0.13248370429E+04  0.25500000920E-02 0. -1.
       -2    1    3    3    0  502  0.49709020979E+03 -0.11166534607E+04  0.12625836719E+04  0.17573079288E+04  0.25500000920E-02 0.  1.
</event>
<event>
 5   0  0.1686012E-06  0.3011329E+04  0.7818609E-02  0.8240503E-01
       -1   -1    0    0    0  501  0.00000000000E+00  0.00000000000E+00  0.11212218065E+04  0.11212218065E+04  0.50400001928E-02 0. -1.
        1   -1    0    0  501    0  0.00000000000E+00  0.00000000000E+00 -0.20219243539E+04  0.20219243539E+04  0.50400001928E-02 0.  1.
    10030    2    1    2    0    0  0.00000000000E+00  0.00000000000E+00 -0.90070254741E+03  0.31431461605E+04  0.30113290599E+04 0.  0.
        4    1    3    3  502    0 -0.65256345702E+03 -0.72988646616E+03  0.74359573270E+03  0.12294346447E+04  0.12699999809E+01 0. -1.
       -4    1    3    3    0  502  0.65256345702E+03  0.72988646616E+03 -0.16442982801E+04  0.19137115158E+04  0.12699999809E+01 0.  1.
</event>
<event>
 5   0  0.4532420E-06  0.3004739E+04  0.7818609E-02  0.8242379E-01
        2   -1    0    0  501    0  0.00000000000E+00  0.00000000000E+00  0.19485939606E+04  0.19485939606E+04  0.25500000920E-02 0.  1.
       -2   -1    0    0    0  501  0.00000000000E+00  0.00000000000E+00 -0.11583299865E+04  0.11583299865E+04  0.25500000920E-02 0. -1.
    10030    2    1    2    0    0  0.00000000000E+00  0.00000000000E+00  0.79026397410E+03  0.31069239470E+04  0.30047394669E+04 0.  0.
        4    1    3    3  502    0 -0.11629661493E+04  0.15707015889E+03 -0.57482677083E+03  0.13067473851E+04  0.12699999809E+01 0. -1.
       -4    1    3    3    0  502  0.11629661493E+04 -0.15707015889E+03  0.13650907449E+04  0.18001765619E+04  0.12699999809E+01 0.  1.
</event>
<event>
 5   0  0.4935331E-06  0.3036510E+04  0.7818609E-02  0.8233381E-01
       -2   -1    0    0    0  501  0.00000000000E+00  0.00000000000E+00  0.84827344113E+03  0.84827344114E+03  0.25500000920E-02 0.  1.
        2   -1    0    0  501    0  0.00000000000E+00  0.00000000000E+00 -0.27173996779E+04  0.27173996779E+04  0.25500000920E-02 0. -1.
    10030    2    1    2    0    0  0.00000000000E+00  0.00000000000E+00 -0.18691262368E+04  0.35656731191E+04  0.30365098226E+04 0.  0.
        5    1    3    3  502    0 -0.99007116530E+02  0.13141122938E+03 -0.27068912531E+04  0.27118911605E+04  0.46999998093E+01 0. -1.
       -5    1    3    3    0  502  0.99007116530E+02 -0.13141122938E+03  0.83776501627E+03  0.85378195859E+03  0.46999998093E+01 0.  1.
</event>
<event>
 5   0  0.1700885E-06  0.2914292E+04  0.7818609E-02  0.8268638E-01
       -1   -1    0    0    0  501  0.00000000000E+00  0.00000000000E+00  0.16579951542E+04  0.16579951542E+04  0.50400001928E-02 0. -1.
        1   -1    0    0  501    0  0.00000000000E+00  0.00000000000E+00 -0.12806272346E+04  0.12806272346E+04  0.50400001928E-02 0.  1.
    10030    2    1    2    0    0  0.00000000000E+00  0.00000000000E+00  0.37736791963E+03  0.29386223888E+04  0.29142915086E+04 0.  0.
        1    1    3    3  502    0  0.63806169368E+03 -0.12664962073E+04  0.52635042637E+03  0.15126731767E+04  0.50400001928E-02 0. -1.
       -1    1    3    3    0  502 -0.63806169368E+03  0.12664962073E+04 -0.14898250674E+03  0.14259492121E+04  0.50400001928E-02 0.  1.
</event>
<event>
 5   0  0.4532420E-06  0.2884797E+04  0.7818609E-02  0.8277415E-01
        2   -1    0    0  501    0  0.00000000000E+00  0.00000000000E+00  0.11539464206E+04  0.11539464206E+04  0.25500000920E-02 0.  1.
       -2   -1    0    0    0  501  0.00000000000E+00  0.00000000000E+00 -0.18029549479E+04  0.18029549479E+04  0.25500000920E-02 0. -1.
    10030    2    1    2    0    0  0.00000000000E+00  0.00000000000E+00 -0.64900852730E+03  0.29569013684E+04  0.28847969832E+04 0.  0.
        4    1    3    3  502    0  0.22593565629E+03  0.71647813265E+03  0.93758170565E+03  0.12014361835E+04  0.12699999809E+01 0.  1.
       -4    1    3    3    0  502 -0.22593565629E+03 -0.71647813265E+03 -0.15865902329E+04  0.17554651849E+04  0.12699999809E+01 0. -1.
</event>
<event>
 5   0  0.1709858E-06  0.3000099E+04  0.7818609E-02  0.8243703E-01
        1   -1    0    0  501    0  0.00000000000E+00  0.00000000000E+00  0.18011366304E+04  0.18011366304E+04  0.50400001928E-02 0. -1.
       -1   -1    0    0    0  501  0.00000000000E+00  0.00000000000E+00 -0.12492935027E+04  0.12492935028E+04  0.50400001928E-02 0.  1.
    10030    2    1    2    0    0  0.00000000000E+00  0.00000000000E+00  0.55184312769E+03  0.30504301332E+04  0.30000988584E+04 0.  0.
        3    1    3    3  502    0 -0.30744652320E+03 -0.94232266632E+03 -0.86886808836E+03  0.13181149939E+04  0.10100000352E+00 0.  1.
       -3    1    3    3    0  502  0.30744652320E+03  0.94232266632E+03  0.14207112161E+04  0.17323151393E+04  0.10100000352E+00 0. -1.
</event>
<event>
 5   0  0.1734885E-06  0.2944057E+04  0.7818609E-02  0.8259889E-01
       -1   -1    0    0    0  501  0.00000000000E+00  0.00000000000E+00  0.17686308351E+04  0.17686308351E+04  0.50400001928E-02 0.  1.
        1   -1    0    0  501    0  0.00000000000E+00  0.00000000000E+00 -0.12251668604E+04  0.12251668604E+04  0.50400001928E-02 0. -1.
    10030    2    1    2    0    0  0.00000000000E+00  0.00000000000E+00  0.54346397472E+03  0.29937976956E+04  0.29440569883E+04 0.  0.
        2    1    3    3  502    0  0.70483929197E+03  0.12836547521E+04  0.42358662533E+03  0.15244650141E+04  0.25500000920E-02 0. -1.
       -2    1    3    3    0  502 -0.70483929197E+03 -0.12836547521E+04  0.11987734939E+03  0.14693326815E+04  0.25500000920E-02 0.  1.
</event>
<event>
 5   0  0.1734885E-06  0.2994417E+04  0.7818609E-02  0.8245327E-01
       -1   -1    0    0    0  501  0.00000000000E+00  0.00000000000E+00  0.89167675840E+03  0.89167675842E+03  0.50400001928E-02 0.  1.
        1   -1    0    0  501    0  0.00000000000E+00  0.00000000000E+00 -0.25139531317E+04  0.25139531317E+04  0.50400001928E-02 0. -1.
    10030    2    1    2    0    0  0.00000000000E+00  0.00000000000E+00 -0.16222763733E+04  0.34056298901E+04  0.29944171915E+04 0.  0.
        2    1    3    3  502    0  0.73677522870E+03 -0.28304030173E+03  0.63585398730E+03  0.10135382791E+04  0.25500000920E-02 0.  1.
       -2    1    3    3    0  502 -0.73677522870E+03  0.28304030173E+03 -0.22581303606E+04  0.23920916110E+04  0.25500000920E-02 0. -1.
</event>
<event>
 5   0  0.1700885E-06  0.2970476E+04  0.7818609E-02  0.8252212E-01
       -1   -1    0    0    0  501  0.00000000000E+00  0.00000000000E+00  0.84734497104E+03  0.84734497105E+03  0.50400001928E-02 0. -1.
        1   -1    0    0  501    0  0.00000000000E+00  0.00000000000E+00 -0.26033454488E+04  0.26033454488E+04  0.50400001928E-02 0.  1.
    10030    2    1    2    0    0  0.00000000000E+00  0.00000000000E+00 -0.17560004777E+04  0.34506904198E+04  0.29704758366E+04 0.  0.
        1    1    3    3  502    0  0.12842931776E+04 -0.25009809880E+03 -0.61545968022E+02  0.13098648523E+04  0.50400001928E-02 0. -1.
       -1    1    3    3    0  502 -0.12842931776E+04  0.25009809880E+03 -0.16944545097E+04  0.21408255675E+04  0.50400001928E-02 0.  1.
</event>
<event>
 5   0  0.1672907E-06  0.3007917E+04  0.7818609E-02  0.8241474E-01
       -1   -1    0    0    0  501  0.00000000000E+00  0.00000000000E+00  0.14291356714E+04  0.14291356715E+04  0.50400001928E-02 0.  1.
        1   -1    0    0  501    0  0.00000000000E+00  0.00000000000E+00 -0.15826990949E+04  0.15826990950E+04  0.50400001928E-02 0. -1.
    10030    2    1    2    0    0  0.00000000000E+00  0.00000000000E+00 -0.15356342350E+03  0.30118347664E+04  0.30079173750E+04 0.  0.
        5    1    3    3  502    0 -0.47314658048E+03  0.11186060438E+04  0.81134722152E+03  0.14606346469E+04  0.46999998093E+01 0.  1.
       -5    1    3    3    0  502  0.47314658048E+03 -0.11186060438E+04 -0.96491064502E+03  0.15512001195E+04  0.46999998093E+01 0. -1.
</event>
<event>
 5   0  0.1734885E-06  0.2987303E+04  0.7818609E-02  0.8247366E-01
       -1   -1    0    0    0  501  0.00000000000E+00  0.00000000000E+00  0.13006226985E+04  0.13006226985E+04  0.50400001928E-02 0. -1.
        1   -1    0    0  501    0  0.00000000000E+00  0.00000000000E+00 -0.17153281549E+04  0.17153281549E+04  0.50400001928E-02 0.  1.
    10030    2    1    2    0    0  0.00000000000E+00  0.00000000000E+00 -0.41470545640E+03  0.30159508535E+04  0.29873029533E+04 0.  0.
        2    1    3    3  502    0  0.37309543815E+03  0.14435992104E+04 -0.29660782587E+03  0.15202483641E+04  0.25500000920E-02 0.  1.
       -2    1    3    3    0  502 -0.37309543815E+03 -0.14435992104E+04 -0.11809763053E+03  0.14957024893E+04  0.25500000920E-02 0. -1.
</event>
<event>
 5   0  0.4532420E-06  0.3067073E+04  0.7818609E-02  0.8224833E-01
       -2   -1    0    0    0  501  0.00000000000E+00  0.00000000000E+00  0.85451025400E+03  0.85451025401E+03  0.25500000920E-02 0. -1.
        2   -1    0    0  501    0  0.00000000000E+00  0.00000000000E+00 -0.27521425347E+04  0.27521425347E+04  0.25500000920E-02 0.  1.
    10030    2    1    2    0    0  0.00000000000E+00  0.00000000000E+00 -0.18976322807E+04  0.36066527887E+04  0.30670728824E+04 0.  0.
        4    1    3    3  502    0  0.13607218192E+04 -0.59771199926E+03 -0.50427713125E+03  0.15694331911E+04  0.12699999809E+01 0. -1.
       -4    1    3    3    0  502 -0.13607218192E+04  0.59771199926E+03 -0.13933551495E+04  0.20372195976E+04  0.12699999809E+01 0.  1.
</event>
<event>
 5   0  0.4532420E-06  0.3053178E+04  0.7818609E-02  0.8228707E-01
        2   -1    0    0  501    0  0.00000000000E+00  0.00000000000E+00  0.20537902119E+04  0.20537902119E+04  0.25500000920E-02 0. -1.
       -2   -1    0    0    0  501  0.00000000000E+00  0.00000000000E+00 -0.11347183711E+04  0.11347183711E+04  0.25500000920E-02 0.  1.
    10030    2    1    2    0    0  0.00000000000E+00  0.00000000000E+00  0.91907184086E+03  0.31885085830E+04  0.30531776783E+04 0.  0.
        4    1    3    3  502    0  0.32480932341E+03  0.14326530460E+04  0.25825478950E+02  0.14692394002E+04  0.12699999809E+01 0.  1.
       -4    1    3    3    0  502 -0.32480932341E+03 -0.14326530460E+04  0.89324636191E+03  0.17192691828E+04  0.12699999809E+01 0. -1.
</event>
<event>
 5   0  0.4768570E-06  0.3040070E+04  0.7818609E-02  0.8232380E-01
        2   -1    0    0  501    0  0.00000000000E+00  0.00000000000E+00  0.15637460549E+04  0.15637460549E+04  0.25500000920E-02 0. -1.
       -2   -1    0    0    0  501  0.00000000000E+00  0.00000000000E+00 -0.14775457606E+04  0.14775457606E+04  0.25500000920E-02 0.  1.
    10030    2    1    2    0    0  0.00000000000E+00  0.00000000000E+00  0.86200294365E+02  0.30412918155E+04  0.30400699690E+04 0.  0.
        1    1    3    3  502    0  0.11024849850E+04 -0.92857938268E+03 -0.43955986722E+03  0.15069657225E+04  0.50400001928E-02 0.  1.
       -1    1    3    3    0  502 -0.11024849850E+04  0.92857938268E+03  0.52576016159E+03  0.15343260930E+04  0.50400001928E-02 0. -1.
</event>
<event>
 5   0  0.1686012E-06  0.3015177E+04  0.7818609E-02  0.8239410E-01
        1   -1    0    0  501    0  0.00000000000E+00  0.00000000000E+00  0.24105325532E+04  0.24105325533E+04  0.50400001928E-02 0. -1.
       -1   -1    0    0    0  501  0.00000000000E+00  0.00000000000E+00 -0.94287176012E+03  0.94287176013E+03  0.50400001928E-02 0.  1.
    10030    2    1    2    0    0  0.00000000000E+00  0.00000000000E+00  0.14676607931E+04  0.33534043134E+04  0.30151769907E+04 0.  0.
        4    1    3    3  502    0  0.93053559421E+02  0.60549228883E+03 -0.79820485764E+03  0.10061871021E+04  0.12699999809E+01 0.  1.
       -4    1    3    3    0  502 -0.93053559421E+02 -0.60549228883E+03  0.22658656508E+04  0.23472172113E+04  0.12699999809E+01 0. -1.
</event>
<event>
 5   0  0.1686012E-06  0.3312634E+04  0.7818609E-02  0.8159688E-01
        1   -1    0    0  501    0  0.00000000000E+00  0.00000000000E+00  0.15349913915E+04  0.15349913915E+04  0.50400001928E-02 0.  1.
       -1   -1    0    0    0  501  0.00000000000E+00  0.00000000000E+00 -0.17872317978E+04  0.17872317978E+04  0.50400001928E-02 0. -1.
    10030    2    1    2    0    0  0.00000000000E+00  0.00000000000E+00 -0.25224040633E+03  0.33222231893E+04  0.33126336497E+04 0.  0.
        4    1    3    3  502    0  0.11130488388E+04 -0.11456823067E+04  0.31323261461E+03  0.16277536512E+04  0.12699999809E+01 0.  1.
       -4    1    3    3    0  502 -0.11130488388E+04  0.11456823067E+04 -0.56547302094E+03  0.16944695381E+04  0.12699999809E+01 0. -1.
</event>
<event>
 5   0  0.4935331E-06  0.2996654E+04  0.7818609E-02  0.8244687E-01
        2   -1    0    0  501    0  0.00000000000E+00  0.00000000000E+00  0.13142465110E+04  0.13142465110E+04  0.25500000920E-02 0. -1.
       -2   -1    0    0    0  501  0.00000000000E+00  0.00000000000E+00 -0.17081907187E+04  0.17081907187E+04  0.25500000920E-02 0.  1.
    10030    2    1    2    0    0  0.00000000000E+00  0.00000000000E+00 -0.39394420765E+03  0.30224372297E+04  0.29966539288E+04 0.  0.
        5    1    3    3  502    0  0.10077096039E+04 -0.10348608922E+04 -0.59857625550E+03  0.15635636653E+04  0.46999998093E+01 0.  1.
       -5    1    3    3    0  502 -0.10077096039E+04  0.10348608922E+04  0.20463204785E+03  0.14588735644E+04  0.46999998093E+01 0. -1.
</event>
<event>
 5   0  0.1672907E-06  0.2700613E+04  0.7818609E-02  0.8334806E-01
        1   -1    0    0  501    0  0.00000000000E+00  0.00000000000E+00  0.23403320853E+04  0.23403320853E+04  0.50400001928E-02 0.  1.
       -1   -1    0    0    0  501  0.00000000000E+00  0.00000000000E+00 -0.77908953725E+03  0.77908953727E+03  0.50400001928E-02 0. -1.
    10030    2    1    2    0    0  0.00000000000E+00  0.00000000000E+00  0.15612425481E+04  0.31194216226E+04  0.27006134425E+04 0.  0.
        5    1    3    3  502    0 -0.16674418183E+02  0.43354351985E+03 -0.69637561346E+03  0.82048711437E+03  0.46999998093E+01 0. -1.
       -5    1    3    3    0  502  0.16674418183E+02 -0.43354351985E+03  0.22576181616E+04  0.22989345082E+04  0.46999998093E+01 0.  1.
</event>
<event>
 5   0  0.1545375E-06  0.2851331E+04  0.7818609E-02  0.8287507E-01
       -3   -1    0    0    0  501  0.00000000000E+00  0.00000000000E+00  0.20848895670E+04  0.20848895694E+04  0.10100000352E+00 0. -1.
        3   -1    0    0  501    0  0.00000000000E+00  0.00000000000E+00 -0.97488217258E+03  0.97488217782E+03  0.10100000352E+00 0.  1.
    10030    2    1    2    0    0  0.00000000000E+00  0.00000000000E+00  0.11100073944E+04  0.30597717472E+04  0.28513306945E+04 0.  0.
        4    1    3    3  502    0  0.58541778268E+03 -0.76185990569E+03 -0.57526250297E+03  0.11198540335E+04  0.12699999809E+01 0. -1.
       -4    1    3    3    0  502 -0.58541778268E+03  0.76185990569E+03  0.16852698974E+04  0.19399177137E+04  0.12699999809E+01 0.  1.
</event>
<event>
 5   0  0.4702748E-06  0.2990686E+04  0.7818609E-02  0.8246395E-01
       -2   -1    0    0    0  501  0.00000000000E+00  0.00000000000E+00  0.12203094952E+04  0.12203094952E+04  0.25500000920E-02 0.  1.
        2   -1    0    0  501    0  0.00000000000E+00  0.00000000000E+00 -0.18323638433E+04  0.18323638433E+04  0.25500000920E-02 0. -1.
    10030    2    1    2    0    0  0.00000000000E+00  0.00000000000E+00 -0.61205434809E+03  0.30526733385E+04  0.29906862067E+04 0.  0.
        2    1    3    3  502    0 -0.52338661705E+03 -0.12354436188E+04  0.36780440495E+03  0.13912349070E+04  0.25500000920E-02 0.  1.
       -2    1    3    3    0  502  0.52338661705E+03  0.12354436188E+04 -0.97985875304E+03  0.16614384316E+04  0.25500000920E-02 0. -1.
</event>
<event>
 5   0  0.1709858E-06  0.2465021E+04  0.7818609E-02  0.8415554E-01
        1   -1    0    0  501    0  0.00000000000E+00  0.00000000000E+00  0.99242517938E+03  0.99242517939E+03  0.50400001928E-02 0.  1.
       -1   -1    0    0    0  501  0.00000000000E+00  0.00000000000E+00 -0.15306765268E+04  0.15306765268E+04  0.50400001928E-02 0. -1.
    10030    2    1    2    0    0  0.00000000000E+00  0.00000000000E+00 -0.53825134746E+03  0.25231017062E+04  0.24650208330E+04 0.  0.
        3    1    3    3  502    0 -0.80865740003E+03  0.66909663015E+03 -0.93046463303E+03  0.14026337849E+04  0.10100000352E+00 0. -1.
       -3    1    3    3    0  502  0.80865740003E+03 -0.66909663015E+03  0.39221328557E+03  0.11204679213E+04  0.10100000352E+00 0.  1.
</event>
<event>
 5   0  0.5003556E-06  0.2963826E+04  0.7818609E-02  0.8254137E-01
       -2   -1    0    0    0  501  0.00000000000E+00  0.00000000000E+00  0.16705531624E+04  0.16705531624E+04  0.25500000920E-02 0. -1.
        2   -1    0    0  501    0  0.00000000000E+00  0.00000000000E+00 -0.13145742166E+04  0.13145742166E+04  0.25500000920E-02 0.  1.
    10030    2    1    2    0    0  0.00000000000E+00  0.00000000000E+00  0.35597894576E+03  0.29851273790E+04  0.29638259832E+04 0.  0.
        3    1    3    3  502    0 -0.58658110880E+03  0.13576087864E+04  0.83040566959E+02  0.14812409528E+04  0.10100000352E+00 0.  1.
       -3    1    3    3    0  502  0.58658110880E+03 -0.13576087864E+04  0.27293837880E+03  0.15038864262E+04  0.10100000352E+00 0. -1.
</event>
<event>
 5   0  0.4532420E-06  0.2971571E+04  0.7818609E-02  0.8251896E-01
       -2   -1    0    0    0  501  0.00000000000E+00  0.00000000000E+00  0.13013644081E+04  0.13013644081E+04  0.25500000920E-02 0. -1.
        2   -1    0    0  501    0  0.00000000000E+00  0.00000000000E+00 -0.16963418313E+04  0.16963418313E+04  0.25500000920E-02 0.  1.
    10030    2    1    2    0    0  0.00000000000E+00  0.00000000000E+00 -0.39497742315E+03  0.29977062394E+04  0.29715712229E+04 0.  0.
        4    1    3    3  502    0  0.13203417303E+04  0.43938199113E+03 -0.72283604298E+03  0.15680728226E+04  0.12699999809E+01 0.  1.
       -4    1    3    3    0  502 -0.13203417303E+04 -0.43938199113E+03  0.32785861983E+03  0.14296334168E+04  0.12699999809E+01 0. -1.
</event>
<event>
 5   0  0.4532420E-06  0.2992342E+04  0.7818609E-02  0.8245921E-01
        2   -1    0    0  501    0  0.00000000000E+00  0.00000000000E+00  0.16287925277E+04  0.16287925277E+04  0.25500000920E-02 0.  1.
       -2   -1    0    0    0  501  0.00000000000E+00  0.00000000000E+00 -0.13743475678E+04  0.13743475678E+04  0.25500000920E-02 0. -1.
    10030    2    1    2    0    0  0.00000000000E+00  0.00000000000E+00  0.25444495985E+03  0.30031400956E+04  0.29923415908E+04 0.  0.
        4    1    3    3  502    0  0.55769164834E+03 -0.12621269419E+04 -0.45326001468E+03  0.14523879116E+04  0.12699999809E+01 0. -1.
       -4    1    3    3    0  502 -0.55769164834E+03  0.12621269419E+04  0.70770497453E+03  0.15507521839E+04  0.12699999809E+01 0.  1.
</event>
<event>
 5   0  0.1686012E-06  0.3005579E+04  0.7818609E-02  0.8242139E-01
       -1   -1    0    0    0  501  0.00000000000E+00  0.00000000000E+00  0.14377590281E+04  0.14377590281E+04  0.50400001928E-02 0.  1.
        1   -1    0    0  501    0  0.00000000000E+00  0.00000000000E+00 -0.15707616866E+04  0.15707616866E+04  0.50400001928E-02 0. -1.
    10030    2    1    2    0    0  0.00000000000E+00  0.00000000000E+00 -0.13300265846E+03  0.30085207147E+04  0.30055793424E+04 0.  0.
        4    1    3    3  502    0  0.12321632162E+04  0.39952407967E+03 -0.82917184335E+03  0.15379769960E+04  0.12699999809E+01 0. -1.
       -4    1    3    3    0  502 -0.12321632162E+04 -0.39952407967E+03  0.69616918489E+03  0.14705437187E+04  0.12699999809E+01 0.  1.
</event>
<event>
 5   0  0.4768570E-06  0.3003762E+04  0.7818609E-02  0.8242657E-01
        2   -1    0    0  501    0  0.00000000000E+00  0.00000000000E+00  0.13478477572E+04  0.13478477572E+04  0.25500000920E-02 0.  1.
       -2   -1    0    0    0  501  0.00000000000E+00  0.00000000000E+00 -0.16735174563E+04  0.16735174563E+04  0.25500000920E-02 0. -1.
    10030    2    1    2    0    0  0.00000000000E+00  0.00000000000E+00 -0.32566969911E+03  0.30213652134E+04  0.30037621410E+04 0.  0.
        1    1    3    3  502    0 -0.10247946570E+04 -0.20468378820E+03 -0.12478347281E+04  0.16276335739E+04  0.50400001928E-02 0. -1.
       -1    1    3    3    0  502  0.10247946570E+04  0.20468378820E+03  0.92216502903E+03  0.13937316395E+04  0.50400001928E-02 0.  1.
</event>
<event>
 5   0  0.1700885E-06  0.3013967E+04  0.7818609E-02  0.8239754E-01
        1   -1    0    0  501    0  0.00000000000E+00  0.00000000000E+00  0.12016755210E+04  0.12016755211E+04  0.50400001928E-02 0.  1.
       -1   -1    0    0    0  501  0.00000000000E+00  0.00000000000E+00 -0.18898600653E+04  0.18898600653E+04  0.50400001928E-02 0. -1.
    10030    2    1    2    0    0  0.00000000000E+00  0.00000000000E+00 -0.68818454425E+03  0.30915355864E+04  0.30139665417E+04 0.  0.
        1    1    3    3  502    0  0.10306937902E+03 -0.14646614811E+04 -0.69215118506E+03  0.16232466892E+04  0.50400001928E-02 0. -1.
       -1    1    3    3    0  502 -0.10306937902E+03  0.14646614811E+04  0.39666408074E+01  0.14682888971E+04  0.50400001928E-02 0.  1.
</event>
<event>
 5   0  0.1672907E-06  0.3039692E+04  0.7818609E-02  0.8232487E-01
       -1   -1    0    0    0  501  0.00000000000E+00  0.00000000000E+00  0.11562537546E+04  0.11562537546E+04  0.50400001928E-02 0.  1.
        1   -1    0    0  501    0  0.00000000000E+00  0.00000000000E+00 -0.19977726554E+04  0.19977726554E+04  0.50400001928E-02 0. -1.
    10030    2    1    2    0    0  0.00000000000E+00  0.00000000000E+00 -0.84151890079E+03  0.31540264100E+04  0.30396921776E+04 0.  0.
        5    1    3    3  502    0 -0.11002918424E+04  0.18529518794E+03  0.65001249567E+03  0.12913228797E+04  0.46999998093E+01 0.  1.
       -5    1    3    3    0  502  0.11002918424E+04 -0.18529518794E+03 -0.14915313965E+04  0.18627035303E+04  0.46999998093E+01 0. -1.
</event>
<event>
 5   0  0.4768570E-06  0.2968899E+04  0.7818609E-02  0.8252668E-01
       -2   -1    0    0    0  501  0.00000000000E+00  0.00000000000E+00  0.18263181466E+04  0.18263181466E+04  0.25500000920E-02 0. -1.
        2   -1    0    0  501    0  0.00000000000E+00  0.00000000000E+00 -0.12065753282E+04  0.12065753282E+04  0.25500000920E-02 0.  1.
    10030    2    1    2    0    0  0.00000000000E+00  0.00000000000E+00  0.61974281835E+03  0.30328934748E+04  0.29688990668E+04 0.  0.
        1    1    3    3  502    0 -0.18773003370E+02 -0.43633738107E+03 -0.11394582488E+04  0.12202900625E+04  0.50400001928E-02 0.  1.
       -1    1    3    3    0  502  0.18773003370E+02  0.43633738107E+03  0.17592010671E+04  0.18126034123E+04  0.50400001928E-02 0. -1.
</event>
<event>
 5   0  0.1672907E-06  0.2969030E+04  0.7818609E-02  0.8252630E-01
       -1   -1    0    0    0  501  0.00000000000E+00  0.00000000000E+00  0.16491938279E+04  0.16491938280E+04  0.50400001928E-02 0. -1.
        1   -1    0    0  501    0  0.00000000000E+00  0.00000000000E+00 -0.13362799213E+04  0.13362799213E+04  0.50400001928E-02 0.  1.
    10030    2    1    2    0    0  0.00000000000E+00  0.00000000000E+00  0.31291390667E+03  0.29854737492E+04  0.29690298743E+04 0.  0.
        5    1    3    3  502    0 -0.62036575075E+03  0.11684298641E+04  0.83374551981E+03  0.15637249419E+04  0.46999998093E+01 0. -1.
       -5    1    3    3    0  502  0.62036575075E+03 -0.11684298641E+04 -0.52083161314E+03  0.14217488074E+04  0.46999998093E+01 0.  1.
</event>
<event>
 5   0  0.1672907E-06  0.2914179E+04  0.7818609E-02  0.8268671E-01
        1   -1    0    0  501    0  0.00000000000E+00  0.00000000000E+00  0.17713649219E+04  0.17713649219E+04  0.50400001928E-02 0. -1.
       -1   -1    0    0    0  501  0.00000000000E+00  0.00000000000E+00 -0.11985725066E+04  0.11985725066E+04  0.50400001928E-02 0.  1.
    10030    2    1    2    0    0  0.00000000000E+00  0.00000000000E+00  0.57279241525E+03  0.29699374285E+04  0.29141786456E+04 0.  0.
        5    1    3    3  502    0  0.16153826536E+03 -0.39012132544E+03 -0.11348469000E+04  0.12108628478E+04  0.46999998093E+01 0.  1.
       -5    1    3    3    0  502 -0.16153826536E+03  0.39012132544E+03  0.17076393152E+04  0.17590745808E+04  0.46999998093E+01 0. -1.
</event>
<event>
 5   0  0.1686012E-06  0.2989831E+04  0.7818609E-02  0.8246641E-01
       -1   -1    0    0    0  501  0.00000000000E+00  0.00000000000E+00  0.91368317899E+03  0.91368317900E+03  0.50400001928E-02 0. -1.
        1   -1    0    0  501    0  0.00000000000E+00  0.00000000000E+00 -0.24458948202E+04  0.24458948202E+04  0.50400001928E-02 0.  1.
    10030    2    1    2    0    0  0.00000000000E+00  0.00000000000E+00 -0.15322116412E+04  0.33595779992E+04  0.29898314031E+04 0.  0.
        4    1    3    3  502    0 -0.10425300236E+04  0.68022479475E+03  0.16402849507E+03  0.12555801773E+04  0.12699999809E+01 0. -1.
       -4    1    3    3    0  502  0.10425300236E+04 -0.68022479475E+03 -0.16962401363E+04  0.21039978219E+04  0.12699999809E+01 0.  1.
</event>
<event>
 5   0  0.4935331E-06  0.3026273E+04  0.7818609E-02  0.8236268E-01
        2   -1    0    0  501    0  0.00000000000E+00  0.00000000000E+00  0.96527911663E+03  0.96527911663E+03  0.25500000920E-02 0. -1.
       -2   -1    0    0    0  501  0.00000000000E+00  0.00000000000E+00 -0.23719380381E+04  0.23719380381E+04  0.25500000920E-02 0.  1.
    10030    2    1    2    0    0  0.00000000000E+00  0.00000000000E+00 -0.14066589214E+04  0.33372171547E+04  0.30262731232E+04 0.  0.
        5    1    3    3  502    0  0.75573207070E+03  0.11511832822E+04 -0.11838425816E+02  0.13771405703E+04  0.46999998093E+01 0.  1.
       -5    1    3    3    0  502 -0.75573207070E+03 -0.11511832822E+04 -0.13948204956E+04  0.19600765845E+04  0.46999998093E+01 0. -1.
</event>
<event>
 5   0  0.4768570E-06  0.2987170E+04  0.7818609E-02  0.8247404E-01
        2   -1    0    0  501    0  0.00000000000E+00  0.00000000000E+00  0.12188042356E+04  0.12188042357E+04  0.25500000920E-02 0.  1.
       -2   -1    0    0    0  501  0.00000000000E+00  0.00000000000E+00 -0.18303151558E+04  0.18303151558E+04  0.25500000920E-02 0. -1.
    10030    2    1    2    0    0  0.00000000000E+00  0.00000000000E+00 -0.61151092019E+03  0.30491193915E+04  0.29871698074E+04 0.  0.
        1    1    3    3  502    0  0.13309909355E+04  0.41611041519E+03  0.24023101523E+03  0.14150603128E+04  0.50400001928E-02 0.  1.
       -1    1    3    3    0  502 -0.13309909355E+04 -0.41611041519E+03 -0.85174193542E+03  0.16340590787E+04  0.50400001928E-02 0. -1.
</event>
<event>
 5   0  0.1734885E-06  0.3004485E+04  0.7818609E-02  0.8242451E-01
       -1   -1    0    0    0  501  0.00000000000E+00  0.00000000000E+00  0.18795184515E+04  0.18795184515E+04  0.50400001928E-02 0.  1.
        1   -1    0    0  501    0  0.00000000000E+00  0.00000000000E+00 -0.12006968644E+04  0.12006968644E+04  0.50400001928E-02 0. -1.
    10030    2    1    2    0    0  0.00000000000E+00  0.00000000000E+00  0.67882158708E+03  0.30802153159E+04  0.30044845890E+04 0.  0.
        2    1    3    3  502    0 -0.91916185434E+02  0.86869051652E+03  0.15923701601E+04  0.18162363628E+04  0.25500000920E-02 0.  1.
       -2    1    3    3    0  502  0.91916185434E+02 -0.86869051652E+03 -0.91354857304E+03  0.12639789531E+04  0.25500000920E-02 0. -1.
</event>
<event>
 5   0  0.1672907E-06  0.2944893E+04  0.7818609E-02  0.8259644E-01
        1   -1    0    0  501    0  0.00000000000E+00  0.00000000000E+00  0.20638072784E+04  0.20638072784E+04  0.50400001928E-02 0.  1.
       -1   -1    0    0    0  501  0.00000000000E+00  0.00000000000E+00 -0.10505338544E+04  0.10505338544E+04  0.50400001928E-02 0. -1.
    10030    2    1    2    0    0  0.00000000000E+00  0.00000000000E+00  0.10132734240E+04  0.31143411328E+04  0.29448934886E+04 0.  0.
        5    1    3    3  502    0 -0.11838918678E+04 -0.16549284019E+03 -0.40253330154E+03  0.12613655234E+04  0.46999998093E+01 0. -1.
       -5    1    3    3    0  502  0.11838918678E+04  0.16549284019E+03  0.14158067256E+04  0.18529756094E+04  0.46999998093E+01 0.  1.
</event>
<event>
 5   0  0.5003556E-06  0.2995239E+04  0.7818609E-02  0.8245092E-01
        2   -1    0    0  501    0  0.00000000000E+00  0.00000000000E+00  0.13367610076E+04  0.13367610076E+04  0.25500000920E-02 0. -1.
       -2   -1    0    0    0  501  0.00000000000E+00  0.00000000000E+00 -0.16778345266E+04  0.16778345266E+04  0.25500000920E-02 0.  1.
    10030    2    1    2    0    0  0.00000000000E+00  0.00000000000E+00 -0.34107351903E+03  0.30145955342E+04  0.29952387366E+04 0.  0.
        3    1    3    3  502    0  0.80520199743E+03  0.12557940029E+04 -0.37413579266E+02  0.14922361142E+04  0.10100000352E+00 0.  1.
       -3    1    3    3    0  502 -0.80520199743E+03 -0.12557940029E+04 -0.30365993977E+03  0.15223594200E+04  0.10100000352E+00 0. -1.
</event>
<event>
 5   0  0.4768570E-06  0.2980040E+04  0.7818609E-02  0.8249454E-01
        2   -1    0    0  501    0  0.00000000000E+00  0.00000000000E+00  0.24597432488E+04  0.24597432488E+04  0.25500000920E-02 0. -1.
       -2   -1    0    0    0  501  0.00000000000E+00  0.00000000000E+00 -0.90259790182E+03  0.90259790183E+03  0.25500000920E-02 0.  1.
    10030    2    1    2    0    0  0.00000000000E+00  0.00000000000E+00  0.15571453469E+04  0.33623411506E+04  0.29800396611E+04 0.  0.
        1    1    3    3  502    0 -0.61968846627E+03  0.16535188685E+03 -0.73888118068E+03  0.97841731429E+03  0.50400001928E-02 0.  1.
       -1    1    3    3    0  502  0.61968846627E+03 -0.16535188685E+03  0.22960265276E+04  0.23839238363E+04  0.50400001928E-02 0. -1.
</event>
<event>
 5   0  0.1545375E-06  0.3008073E+04  0.7818609E-02  0.8241429E-01
        3   -1    0    0  501    0  0.00000000000E+00  0.00000000000E+00  0.99731681367E+03  0.99731681878E+03  0.10100000352E+00 0. -1.
       -3   -1    0    0    0  501  0.00000000000E+00  0.00000000000E+00 -0.22682123794E+04  0.22682123817E+04  0.10100000352E+00 0.  1.
    10030    2    1    2    0    0  0.00000000000E+00  0.00000000000E+00 -0.12708955657E+04  0.32655292005E+04  0.30080733734E+04 0.  0.
        3    1    3    3  502    0  0.83086237513E+03  0.97119603000E+03  0.22523432675E+03  0.12977998795E+04  0.10100000352E+00 0.  1.
       -3    1    3    3    0  502 -0.83086237513E+03 -0.97119603000E+03 -0.14961298925E+04  0.19677293209E+04  0.10100000352E+00 0. -1.
</event>
<event>
 5   0  0.1734885E-06  0.2981024E+04  0.7818609E-02  0.8249170E-01
        1   -1    0    0  501    0  0.00000000000E+00  0.00000000000E+00  0.18488434395E+04  0.18488434395E+04  0.50400001928E-02 0.  1.
       -1   -1    0    0    0  501  0.00000000000E+00  0.00000000000E+00 -0.12016303804E+04  0.12016303804E+04  0.50400001928E-02 0. -1.
    10030    2    1    2    0    0  0.00000000000E+00  0.00000000000E+00  0.64721305907E+03  0.30504738199E+04  0.29810242840E+04 0.  0.
        2    1    3    3  502    0  0.93514199269E+03  0.28697847685E+03  0.14744311769E+04  0.17694051226E+04  0.25500000920E-02 0.  1.
       -2    1    3    3    0  502 -0.93514199269E+03 -0.28697847685E+03 -0.82721811779E+03  0.12810686973E+04  0.25500000920E-02 0. -1.
</event>
<event>
 5   0  0.1672907E-06  0.3005540E+04  0.7818609E-02  0.8242151E-01
       -1   -1    0    0    0  501  0.00000000000E+00  0.00000000000E+00  0.95487208939E+03  0.95487208940E+03  0.50400001928E-02 0.  1.
        1   -1    0    0  501    0  0.00000000000E+00  0.00000000000E+00 -0.23650475907E+04  0.23650475908E+04  0.50400001928E-02 0. -1.
    10030    2    1    2    0    0  0.00000000000E+00  0.00000000000E+00 -0.14101755014E+04  0.33199196802E+04  0.30055401741E+04 0.  0.
        5    1    3    3  502    0 -0.13323093575E+03 -0.21278929908E+03  0.93153514519E+03  0.96478473494E+03  0.46999998093E+01 0.  1.
       -5    1    3    3    0  502  0.13323093575E+03  0.21278929908E+03 -0.23417106465E+04  0.23551349452E+04  0.46999998093E+01 0. -1.
</event>
<event>
 5   0  0.1734885E-06  0.2977053E+04  0.7818609E-02  0.8250314E-01
        1   -1    0    0  501    0  0.00000000000E+00  0.00000000000E+00  0.13984470701E+04  0.13984470701E+04  0.50400001928E-02 0. -1.
       -1   -1    0    0    0  501  0.00000000000E+00  0.00000000000E+00 -0.15844082942E+04  0.15844082942E+04  0.50400001928E-02 0.  1.
    10030    2    1    2    0    0  0.00000000000E+00  0.00000000000E+00 -0.18596122416E+03  0.29828553643E+04  0.29770529971E+04 0.  0.
        2    1    3    3  502    0  0.11166454330E+04  0.11747744382E+02  0.89315109452E+03  0.14299489187E+04  0.25500000920E-02 0. -1.
       -2    1    3    3    0  502 -0.11166454330E+04 -0.11747744382E+02 -0.10791123187E+04  0.15529064456E+04  0.25500000920E-02 0.  1.
</event>
<event>
 5   0  0.1672907E-06  0.2991397E+04  0.7818609E-02  0.8246192E-01
        1   -1    0    0  501    0  0.00000000000E+00  0.00000000000E+00  0.15618638229E+04  0.15618638229E+04  0.50400001928E-02 0. -1.
       -1   -1    0    0    0  501  0.00000000000E+00  0.00000000000E+00 -0.14323363508E+04  0.14323363508E+04  0.50400001928E-02 0.  1.
    10030    2    1    2    0    0  0.00000000000E+00  0.00000000000E+00  0.12952747213E+03  0.29942001737E+04  0.29913972177E+04 0.  0.
        5    1    3    3  502    0  0.11908746798E+04 -0.87453833946E+03  0.29755945269E+03  0.15071707030E+04  0.46999998093E+01 0.  1.
       -5    1    3    3    0  502 -0.11908746798E+04  0.87453833946E+03 -0.16803198056E+03  0.14870294707E+04  0.46999998093E+01 0. -1.
</event>
<event>
 5   0  0.1734885E-06  0.2985874E+04  0.7818609E-02  0.8247776E-01
       -1   -1    0    0    0  501  0.00000000000E+00  0.00000000000E+00  0.18298381305E+04  0.18298381305E+04  0.50400001928E-02 0.  1.
        1   -1    0    0  501    0  0.00000000000E+00  0.00000000000E+00 -0.12180645757E+04  0.12180645757E+04  0.50400001928E-02 0. -1.
    10030    2    1    2    0    0  0.00000000000E+00  0.00000000000E+00  0.61177355472E+03  0.30479027062E+04  0.29858740804E+04 0.  0.
        2    1    3    3  502    0  0.45584264662E+03  0.29107277019E+03  0.17263205659E+04  0.18090601350E+04  0.25500000920E-02 0.  1.
       -2    1    3    3    0  502 -0.45584264662E+03 -0.29107277019E+03 -0.11145470112E+04  0.12388425712E+04  0.25500000920E-02 0. -1.
</event>
<event>
 5   0  0.5003556E-06  0.3001532E+04  0.7818609E-02  0.8243293E-01
        2   -1    0    0  501    0  0.00000000000E+00  0.00000000000E+00  0.18260774261E+04  0.18260774261E+04  0.25500000920E-02 0. -1.
       -2   -1    0    0    0  501  0.00000000000E+00  0.00000000000E+00 -0.12334084255E+04  0.12334084255E+04  0.25500000920E-02 0.  1.
    10030    2    1    2    0    0  0.00000000000E+00  0.00000000000E+00  0.59266900060E+03  0.30594858517E+04  0.30015324640E+04 0.  0.
        3    1    3    3  502    0  0.27004604010E+02 -0.66986626406E+02  0.18243049088E+04  0.18257340625E+04  0.10100000352E+00 0. -1.
       -3    1    3    3    0  502 -0.27004604010E+02  0.66986626406E+02 -0.12316359082E+04  0.12337517891E+04  0.10100000352E+00 0.  1.
</event>
<event>
 5   0  0.4702748E-06  0.3006290E+04  0.7818609E-02  0.8241937E-01
       -2   -1    0    0    0  501  0.00000000000E+00  0.00000000000E+00  0.14524440654E+04  0.14524440654E+04  0.25500000920E-02 0. -1.
        2   -1    0    0  501    0  0.00000000000E+00  0.00000000000E+00 -0.15556159817E+04  0.15556159817E+04  0.25500000920E-02 0.  1.
    10030    2    1    2    0    0  0.00000000000E+00  0.00000000000E+00 -0.10317191632E+03  0.30080600471E+04  0.30062902060E+04 0.  0.
        2    1    3    3  502    0 -0.11795245677E+04 -0.10001880497E+03 -0.97850232652E+03  0.15358218550E+04  0.25500000920E-02 0.  1.
       -2    1    3    3    0  502  0.11795245677E+04  0.10001880497E+03  0.87533041020E+03  0.14722381921E+04  0.25500000920E-02 0. -1.
</event>
<event>
 5   0  0.4768570E-06  0.2942481E+04  0.7818609E-02  0.8260349E-01
        2   -1    0    0  501    0  0.00000000000E+00  0.00000000000E+00  0.23154705979E+04  0.23154705979E+04  0.25500000920E-02 0.  1.
       -2   -1    0    0    0  501  0.00000000000E+00  0.00000000000E+00 -0.93482027909E+03  0.93482027909E+03  0.25500000920E-02 0. -1.
    10030    2    1    2    0    0  0.00000000000E+00  0.00000000000E+00  0.13806503188E+04  0.32502908770E+04  0.29424811779E+04 0.  0.
        1    1    3    3  502    0 -0.40572423511E+03  0.14141000735E+04  0.70805740478E+03  0.16326776967E+04  0.50400001928E-02 0. -1.
       -1    1    3    3    0  502  0.40572423511E+03 -0.14141000735E+04  0.67259291402E+03  0.16176131803E+04  0.50400001928E-02 0.  1.
</event>
<event>
 5   0  0.1734885E-06  0.2539127E+04  0.7818609E-02  0.8389177E-01
        1   -1    0    0  501    0  0.00000000000E+00  0.00000000000E+00  0.13778848858E+04  0.13778848858E+04  0.50400001928E-02 0. -1.
       -1   -1    0    0    0  501  0.00000000000E+00  0.00000000000E+00 -0.11697578512E+04  0.11697578512E+04  0.50400001928E-02 0.  1.
    10030    2    1    2    0    0  0.00000000000E+00  0.00000000000E+00  0.20812703457E+03  0.25476427370E+04  0.25391271439E+04 0.  0.
        2    1    3    3  502    0 -0.63325620611E+03  0.72216926505E+03  0.93705852697E+03  0.13418720330E+04  0.25500000920E-02 0. -1.
       -2    1    3    3    0  502  0.63325620611E+03 -0.72216926505E+03 -0.72893149241E+03  0.12057707040E+04  0.25500000920E-02 0.  1.
</event>
<event>
 5   0  0.4532420E-06  0.3003959E+04  0.7818609E-02  0.8242601E-01
        2   -1    0    0  501    0  0.00000000000E+00  0.00000000000E+00  0.21984703410E+04  0.21984703410E+04  0.25500000920E-02 0. -1.
       -2   -1    0    0    0  501  0.00000000000E+00  0.00000000000E+00 -0.10261419572E+04  0.10261419572E+04  0.25500000920E-02 0.  1.
    10030    2    1    2    0    0  0.00000000000E+00  0.00000000000E+00  0.11723283838E+04  0.32246122982E+04  0.30039591599E+04 0.  0.
        4    1    3    3  502    0  0.12428000653E+04  0.66921320254E+03  0.11372370287E+04  0.18126521964E+04  0.12699999809E+01 0. -1.
       -4    1    3    3    0  502 -0.12428000653E+04 -0.66921320254E+03  0.35091355148E+02  0.14119601018E+04  0.12699999809E+01 0.  1.
</event>
<event>
 5   0  0.1700885E-06  0.2700881E+04  0.7818609E-02  0.8334719E-01
       -1   -1    0    0    0  501  0.00000000000E+00  0.00000000000E+00  0.69609765242E+03  0.69609765244E+03  0.50400001928E-02 0. -1.
        1   -1    0    0  501    0  0.00000000000E+00  0.00000000000E+00 -0.26198756721E+04  0.26198756721E+04  0.50400001928E-02 0.  1.
    10030    2    1    2    0    0  0.00000000000E+00  0.00000000000E+00 -0.19237780197E+04  0.33159733245E+04  0.27008808230E+04 0.  0.
        1    1    3    3  502    0  0.60547341217E+03  0.87386951612E+02 -0.24400030466E+04  0.25155216954E+04  0.50400001928E-02 0.  1.
       -1    1    3    3    0  502 -0.60547341217E+03 -0.87386951612E+02  0.51622502698E+03  0.80045162918E+03  0.50400001928E-02 0. -1.
</event>
<event>
 5   0  0.1686012E-06  0.2999376E+04  0.7818609E-02  0.8243909E-01
       -1   -1    0    0    0  501  0.00000000000E+00  0.00000000000E+00  0.12866194373E+04  0.12866194373E+04  0.50400001928E-02 0.  1.
        1   -1    0    0  501    0  0.00000000000E+00  0.00000000000E+00 -0.17480416900E+04  0.17480416900E+04  0.50400001928E-02 0. -1.
    10030    2    1    2    0    0  0.00000000000E+00  0.00000000000E+00 -0.46142225269E+03  0.30346611273E+04  0.29993762122E+04 0.  0.
        4    1    3    3  502    0  0.11962658360E+04 -0.43130661164E+03  0.57361615936E+03  0.13950320623E+04  0.12699999809E+01 0. -1.
       -4    1    3    3    0  502 -0.11962658360E+04  0.43130661164E+03 -0.10350384120E+04  0.16396290651E+04  0.12699999809E+01 0.  1.
</event>
<event>
 5   0  0.5003556E-06  0.2989408E+04  0.7818609E-02  0.8246762E-01
       -2   -1    0    0    0  501  0.00000000000E+00  0.00000000000E+00  0.16729775679E+04  0.16729775679E+04  0.25500000920E-02 0.  1.
        2   -1    0    0  501    0  0.00000000000E+00  0.00000000000E+00 -0.13354276568E+04  0.13354276568E+04  0.25500000920E-02 0. -1.
    10030    2    1    2    0    0  0.00000000000E+00  0.00000000000E+00  0.33754991103E+03  0.30084052247E+04  0.29894083116E+04 0.  0.
        3    1    3    3  502    0 -0.14616599622E+04 -0.14495323119E+03 -0.10989486415E+03  0.14729352246E+04  0.10100000352E+00 0.  1.
       -3    1    3    3    0  502  0.14616599622E+04  0.14495323119E+03  0.44744477518E+03  0.15354700002E+04  0.10100000352E+00 0. -1.
</event>
<event>
 5   0  0.1672907E-06  0.3006689E+04  0.7818609E-02  0.8241823E-01
       -1   -1    0    0    0  501  0.00000000000E+00  0.00000000000E+00  0.19026115775E+04  0.19026115775E+04  0.50400001928E-02 0. -1.
        1   -1    0    0  501    0  0.00000000000E+00  0.00000000000E+00 -0.11878641400E+04  0.11878641400E+04  0.50400001928E-02 0.  1.
    10030    2    1    2    0    0  0.00000000000E+00  0.00000000000E+00  0.71474743748E+03  0.30904757175E+04  0.30066885873E+04 0.  0.
        5    1    3    3  502    0  0.15826193454E+03  0.14202929710E+04 -0.12225921860E+03  0.14343111134E+04  0.46999998093E+01 0. -1.
       -5    1    3    3    0  502 -0.15826193454E+03 -0.14202929710E+04  0.83700665608E+03  0.16561646041E+04  0.46999998093E+01 0.  1.
</event>
<event>
 5   0  0.5003556E-06  0.2980564E+04  0.7818609E-02  0.8249303E-01
       -2   -1    0    0    0  501  0.00000000000E+00  0.00000000000E+00  0.13300325284E+04  0.13300325284E+04  0.25500000920E-02 0.  1.
        2   -1    0    0  501    0  0.00000000000E+00  0.00000000000E+00 -0.16698395702E+04  0.16698395702E+04  0.25500000920E-02 0. -1.
    10030    2    1    2    0    0  0.00000000000E+00  0.00000000000E+00 -0.33980704185E+03  0.29998720986E+04  0.29805643396E+04 0.  0.
        3    1    3    3  502    0  0.13219029536E+04 -0.21802687392E+01 -0.86248081290E+03  0.15783869409E+04  0.10100000352E+00 0. -1.
       -3    1    3    3    0  502 -0.13219029536E+04  0.21802687392E+01  0.52267377105E+03  0.14214851577E+04  0.10100000352E+00 0.  1.
</event>
<event>
 5   0  0.1700885E-06  0.3001560E+04  0.7818609E-02  0.8243285E-01
       -1   -1    0    0    0  501  0.00000000000E+00  0.00000000000E+00  0.24598626653E+04  0.24598626653E+04  0.50400001928E-02 0.  1.
        1   -1    0    0  501    0  0.00000000000E+00  0.00000000000E+00 -0.91563690518E+03  0.91563690519E+03  0.50400001928E-02 0. -1.
    10030    2    1    2    0    0  0.00000000000E+00  0.00000000000E+00  0.15442257601E+04  0.33754995705E+04  0.30015602863E+04 0.  0.
        1    1    3    3  502    0 -0.54218142800E+03 -0.13280148923E+04  0.12684048893E+04  0.19147937795E+04  0.50400001928E-02 0. -1.
       -1    1    3    3    0  502  0.54218142800E+03  0.13280148923E+04  0.27582087081E+03  0.14607057910E+04  0.50400001928E-02 0.  1.
</event>
<event>
 5   0  0.1672907E-06  0.2985200E+04  0.7818609E-02  0.8247970E-01
       -1   -1    0    0    0  501  0.00000000000E+00  0.00000000000E+00  0.13389663881E+04  0.13389663881E+04  0.50400001928E-02 0.  1.
        1   -1    0    0  501    0  0.00000000000E+00  0.00000000000E+00 -0.16638615497E+04  0.16638615497E+04  0.50400001928E-02 0. -1.
    10030    2    1    2    0    0  0.00000000000E+00  0.00000000000E+00 -0.32489516160E+03  0.30028279379E+04  0.29851999528E+04 0.  0.
        5    1    3    3  502    0 -0.13454638520E+04  0.63804682358E+03 -0.59589792274E+02  0.14902851269E+04  0.46999998093E+01 0.  1.
       -5    1    3    3    0  502  0.13454638520E+04 -0.63804682358E+03 -0.26530536933E+03  0.15125428110E+04  0.46999998093E+01 0. -1.
</event>
<event>
 5   0  0.4935331E-06  0.2989468E+04  0.7818609E-02  0.8246745E-01
       -2   -1    0    0    0  501  0.00000000000E+00  0.00000000000E+00  0.12942491926E+04  0.12942491926E+04  0.25500000920E-02 0.  1.
        2   -1    0    0  501    0  0.00000000000E+00  0.00000000000E+00 -0.17262742997E+04  0.17262742997E+04  0.25500000920E-02 0. -1.
    10030    2    1    2    0    0  0.00000000000E+00  0.00000000000E+00 -0.43202510707E+03  0.30205234922E+04  0.29894675904E+04 0.  0.
        5    1    3    3  502    0 -0.91104895580E+03 -0.76416609517E+03 -0.11310959926E+04  0.16411460189E+04  0.46999998093E+01 0. -1.
       -5    1    3    3    0  502  0.91104895580E+03  0.76416609517E+03  0.69907088555E+03  0.13793774733E+04  0.46999998093E+01 0.  1.
</event>
<event>
 5   0  0.1700885E-06  0.2996232E+04  0.7818609E-02  0.8244808E-01
       -1   -1    0    0    0  501  0.00000000000E+00  0.00000000000E+00  0.13219456648E+04  0.13219456648E+04  0.50400001928E-02 0.  1.
        1   -1    0    0  501    0  0.00000000000E+00  0.00000000000E+00 -0.16977633776E+04  0.16977633776E+04  0.50400001928E-02 0. -1.
    10030    2    1    2    0    0  0.00000000000E+00  0.00000000000E+00 -0.37581771275E+03  0.30197090424E+04  0.29962315911E+04 0.  0.
        1    1    3    3  502    0  0.88592032128E+03  0.15329525380E+03  0.10198116477E+04  0.13595477363E+04  0.50400001928E-02 0.  1.
       -1    1    3    3    0  502 -0.88592032128E+03 -0.15329525380E+03 -0.13956293605E+04  0.16601613061E+04  0.50400001928E-02 0. -1.
</event>
<event>
 5   0  0.4935331E-06  0.3007929E+04  0.7818609E-02  0.8241470E-01
       -2   -1    0    0    0  501  0.00000000000E+00  0.00000000000E+00  0.10390899570E+04  0.10390899570E+04  0.25500000920E-02 0.  1.
        2   -1    0    0  501    0  0.00000000000E+00  0.00000000000E+00 -0.21768168093E+04  0.21768168093E+04  0.25500000920E-02 0. -1.
    10030    2    1    2    0    0  0.00000000000E+00  0.00000000000E+00 -0.11377268523E+04  0.32159067662E+04  0.30079285129E+04 0.  0.
        5    1    3    3  502    0 -0.50167137378E+03 -0.13902817297E+04 -0.27155517263E+03  0.15027713589E+04  0.46999998093E+01 0.  1.
       -5    1    3    3    0  502  0.50167137378E+03  0.13902817297E+04 -0.86617167964E+03  0.17131354074E+04  0.46999998093E+01 0. -1.
</event>
<event>
 5   0  0.1734885E-06  0.3010397E+04  0.7818609E-02  0.8240768E-01
        1   -1    0    0  501    0  0.00000000000E+00  0.00000000000E+00  0.18551702967E+04  0.18551702967E+04  0.50400001928E-02 0.  1.
       -1   -1    0    0    0  501  0.00000000000E+00  0.00000000000E+00 -0.12212481172E+04  0.12212481172E+04  0.50400001928E-02 0. -1.
    10030    2    1    2    0    0  0.00000000000E+00  0.00000000000E+00  0.63392217947E+03  0.30764184140E+04  0.30103974701E+04 0.  0.
        2    1    3    3  502    0  0.33624794654E+03  0.19077008103E+03  0.18035694272E+04  0.18445374987E+04  0.25500000920E-02 0.  1.
       -2    1    3    3    0  502 -0.33624794654E+03 -0.19077008103E+03 -0.11696472477E+04  0.12318809153E+04  0.25500000920E-02 0. -1.
</event>
<event>
 5   0  0.1709858E-06  0.3059916E+04  0.7818609E-02  0.8226825E-01
        1   -1    0    0  501    0  0.00000000000E+00  0.00000000000E+00  0.19944545123E+04  0.19944545123E+04  0.50400001928E-02 0. -1.
       -1   -1    0    0    0  501  0.00000000000E+00  0.00000000000E+00 -0.11736399359E+04  0.11736399359E+04  0.50400001928E-02 0.  1.
    10030    2    1    2    0    0  0.00000000000E+00  0.00000000000E+00  0.82081457638E+03  0.31680944482E+04  0.30599159897E+04 0.  0.
        3    1    3    3  502    0  0.17325073815E+03  0.15001590493E+04  0.66460387028E+03  0.16499064538E+04  0.10100000352E+00 0. -1.
       -3    1    3    3    0  502 -0.17325073815E+03 -0.15001590493E+04  0.15621070609E+03  0.15181879944E+04  0.10100000352E+00 0.  1.
</event>
<event>
 5   0  0.1672907E-06  0.3007881E+04  0.7818609E-02  0.8241484E-01
        1   -1    0    0  501    0  0.00000000000E+00  0.00000000000E+00  0.84016477168E+03  0.84016477170E+03  0.50400001928E-02 0.  1.
       -1   -1    0    0    0  501  0.00000000000E+00  0.00000000000E+00 -0.26921341660E+04  0.26921341660E+04  0.50400001928E-02 0. -1.
    10030    2    1    2    0    0  0.00000000000E+00  0.00000000000E+00 -0.18519693943E+04  0.35322989377E+04  0.30078805075E+04 0.  0.
        5    1    3    3  502    0  0.85892978385E+03  0.21036379851E+03 -0.23545447916E+04  0.25151374847E+04  0.46999998093E+01 0. -1.
       -5    1    3    3    0  502 -0.85892978385E+03 -0.21036379851E+03  0.50257539735E+03  0.10171614529E+04  0.46999998093E+01 0.  1.
</event>
<event>
 5   0  0.4702748E-06  0.3004379E+04  0.7818609E-02  0.8242482E-01
       -2   -1    0    0    0  501  0.00000000000E+00  0.00000000000E+00  0.21506204925E+04  0.21506204925E+04  0.25500000920E-02 0.  1.
        2   -1    0    0  501    0  0.00000000000E+00  0.00000000000E+00 -0.10492661259E+04  0.10492661259E+04  0.25500000920E-02 0. -1.
    10030    2    1    2    0    0  0.00000000000E+00  0.00000000000E+00  0.11013543666E+04  0.31998866184E+04  0.30043789590E+04 0.  0.
        2    1    3    3  502    0  0.26925187492E+03 -0.93631492556E+03  0.17684958520E+04  0.20190987570E+04  0.25500000920E-02 0.  1.
       -2    1    3    3    0  502 -0.26925187492E+03  0.93631492556E+03 -0.66714148541E+03  0.11807878614E+04  0.25500000920E-02 0. -1.
</event>
<event>
 5   0  0.4768570E-06  0.3025342E+04  0.7818609E-02  0.8236531E-01
       -2   -1    0    0    0  501  0.00000000000E+00  0.00000000000E+00  0.10511858769E+04  0.10511858769E+04  0.25500000920E-02 0.  1.
        2   -1    0    0  501    0  0.00000000000E+00  0.00000000000E+00 -0.21767544996E+04  0.21767544996E+04  0.25500000920E-02 0. -1.
    10030    2    1    2    0    0  0.00000000000E+00  0.00000000000E+00 -0.11255686227E+04  0.32279403764E+04  0.30253420219E+04 0.  0.
        1    1    3    3  502    0 -0.12441040793E+04  0.60257667201E+03 -0.12181488006E+04  0.18424929053E+04  0.50400001928E-02 0. -1.
       -1    1    3    3    0  502  0.12441040793E+04 -0.60257667201E+03  0.92580177860E+02  0.13854474711E+04  0.50400001928E-02 0.  1.
</event>
<event>
 5   0  0.1700885E-06  0.3081686E+04  0.7818609E-02  0.8220782E-01
        1   -1    0    0  501    0  0.00000000000E+00  0.00000000000E+00  0.19565585510E+04  0.19565585511E+04  0.50400001928E-02 0. -1.
       -1   -1    0    0    0  501  0.00000000000E+00  0.00000000000E+00 -0.12134556806E+04  0.12134556806E+04  0.50400001928E-02 0.  1.
    10030    2    1    2    0    0  0.00000000000E+00  0.00000000000E+00  0.74310287045E+03  0.31700142317E+04  0.30816859595E+04 0.  0.
        1    1    3    3  502    0 -0.78578677698E+03 -0.11758591306E+04 -0.25760953348E+03  0.14375215566E+04  0.50400001928E-02 0. -1.
       -1    1    3    3    0  502  0.78578677698E+03  0.11758591306E+04  0.10007124039E+04  0.17324926751E+04  0.50400001928E-02 0.  1.
</event>
<event>
 5   0  0.1709858E-06  0.2996736E+04  0.7818609E-02  0.8244664E-01
       -1   -1    0    0    0  501  0.00000000000E+00  0.00000000000E+00  0.20303208097E+04  0.20303208097E+04  0.50400001928E-02 0.  1.
        1   -1    0    0  501    0  0.00000000000E+00  0.00000000000E+00 -0.11057889837E+04  0.11057889837E+04  0.50400001928E-02 0. -1.
    10030    2    1    2    0    0  0.00000000000E+00  0.00000000000E+00  0.92453182606E+03  0.31361097934E+04  0.29967358140E+04 0.  0.
        3    1    3    3  502    0  0.93517349797E+03 -0.38515951547E+03 -0.69468663871E+03  0.12269828279E+04  0.10100000352E+00 0. -1.
       -3    1    3    3    0  502 -0.93517349797E+03  0.38515951547E+03  0.16192184648E+04  0.19091269655E+04  0.10100000352E+00 0.  1.
</event>
<event>
 5   0  0.1709858E-06  0.3004162E+04  0.7818609E-02  0.8242543E-01
       -1   -1    0    0    0  501  0.00000000000E+00  0.00000000000E+00  0.12442310574E+04  0.12442310574E+04  0.50400001928E-02 0.  1.
        1   -1    0    0  501    0  0.00000000000E+00  0.00000000000E+00 -0.18133665779E+04  0.18133665779E+04  0.50400001928E-02 0. -1.
    10030    2    1    2    0    0  0.00000000000E+00  0.00000000000E+00 -0.56913552046E+03  0.30575976353E+04  0.30041617897E+04 0.  0.
        3    1    3    3  502    0  0.49631451281E+03 -0.12216322917E+04 -0.10167618678E+04  0.16650880631E+04  0.10100000352E+00 0. -1.
       -3    1    3    3    0  502 -0.49631451281E+03  0.12216322917E+04  0.44762634730E+03  0.13925095722E+04  0.10100000352E+00 0.  1.
</event>
<event>
 5   0  0.1686012E-06  0.3005884E+04  0.7818609E-02  0.8242053E-01
        1   -1    0    0  501    0  0.00000000000E+00  0.00000000000E+00  0.97775625410E+03  0.97775625411E+03  0.50400001928E-02 0. -1.
       -1   -1    0    0    0  501  0.00000000000E+00  0.00000000000E+00 -0.23102229431E+04  0.23102229431E+04  0.50400001928E-02 0.  1.
    10030    2    1    2    0    0  0.00000000000E+00  0.00000000000E+00 -0.13324666890E+04  0.32879791972E+04  0.30058841834E+04 0.  0.
        4    1    3    3  502    0  0.82739298633E+03  0.53999120450E+03  0.57260093406E+03  0.11419470642E+04  0.12699999809E+01 0. -1.
       -4    1    3    3    0  502 -0.82739298633E+03 -0.53999120450E+03 -0.19050676230E+04  0.21460321330E+04  0.12699999809E+01 0.  1.
</event>
<event>
 5   0  0.4768570E-06  0.3004220E+04  0.7818609E-02  0.8242527E-01
       -2   -1    0    0    0  501  0.00000000000E+00  0.00000000000E+00  0.13625828117E+04  0.13625828117E+04  0.25500000920E-02 0. -1.
        2   -1    0    0  501    0  0.00000000000E+00  0.00000000000E+00 -0.16559244579E+04  0.16559244579E+04  0.25500000920E-02 0.  1.
    10030    2    1    2    0    0  0.00000000000E+00  0.00000000000E+00 -0.29334164619E+03  0.30185072696E+04  0.30042198347E+04 0.  0.
        1    1    3    3  502    0 -0.49149766306E+03  0.46584455858E+03 -0.14938505538E+04  0.16401739489E+04  0.50400001928E-02 0.  1.
       -1    1    3    3    0  502  0.49149766306E+03 -0.46584455858E+03  0.12005089076E+04  0.13783333206E+04  0.50400001928E-02 0. -1.
</event>
<event>
 5   0  0.5003556E-06  0.3006382E+04  0.7818609E-02  0.8241911E-01
        2   -1    0    0  501    0  0.00000000000E+00  0.00000000000E+00  0.92541484960E+03  0.92541484960E+03  0.25500000920E-02 0. -1.
       -2   -1    0    0    0  501  0.00000000000E+00  0.00000000000E+00 -0.24416969500E+04  0.24416969500E+04  0.25500000920E-02 0.  1.
    10030    2    1    2    0    0  0.00000000000E+00  0.00000000000E+00 -0.15162821004E+04  0.33671117996E+04  0.30063816230E+04 0.  0.
        3    1    3    3  502    0  0.62011499832E+03  0.12947368476E+04 -0.25890202547E+03  0.14587379424E+04  0.10100000352E+00 0. -1.
       -3    1    3    3    0  502 -0.62011499832E+03 -0.12947368476E+04 -0.12573800750E+04  0.19083738572E+04  0.10100000352E+00 0.  1.
</event>
<event>
 5   0  0.1709858E-06  0.3095235E+04  0.7818609E-02  0.8217047E-01
       -1   -1    0    0    0  501  0.00000000000E+00  0.00000000000E+00  0.17121214575E+04  0.17121214575E+04  0.50400001928E-02 0. -1.
        1   -1    0    0  501    0  0.00000000000E+00  0.00000000000E+00 -0.13989189715E+04  0.13989189715E+04  0.50400001928E-02 0.  1.
    10030    2    1    2    0    0  0.00000000000E+00  0.00000000000E+00  0.31320248599E+03  0.31110404290E+04  0.30952345232E+04 0.  0.
        3    1    3    3  502    0 -0.24425735995E+03 -0.25554574274E+03  0.16709982538E+04  0.17079813989E+04  0.10100000352E+00 0. -1.
       -3    1    3    3    0  502  0.24425735995E+03  0.25554574274E+03 -0.13577957678E+04  0.14030590301E+04  0.10100000352E+00 0.  1.
</event>
<event>
 5   0  0.4532420E-06  0.2988062E+04  0.7818609E-02  0.8247148E-01
        2   -1    0    0  501    0  0.00000000000E+00  0.00000000000E+00  0.15321685344E+04  0.15321685344E+04  0.25500000920E-02 0.  1.
       -2   -1    0    0    0  501  0.00000000000E+00  0.00000000000E+00 -0.14568430868E+04  0.14568430869E+04  0.25500000920E-02 0. -1.
    10030    2    1    2    0    0  0.00000000000E+00  0.00000000000E+00  0.75325447580E+02  0.29890116213E+04  0.29880623402E+04 0.  0.
        4    1    3    3  502    0  0.11320037505E+03  0.64024450764E+03  0.13832295239E+04  0.15284151540E+04  0.12699999809E+01 0.  1.
       -4    1    3    3    0  502 -0.11320037505E+03 -0.64024450764E+03 -0.13079040763E+04  0.14605964673E+04  0.12699999809E+01 0. -1.
</event>
<event>
 5   0  0.1709858E-06  0.2964310E+04  0.7818609E-02  0.8253996E-01
        1   -1    0    0  501    0  0.00000000000E+00  0.00000000000E+00  0.20488026290E+04  0.20488026290E+04  0.50400001928E-02 0.  1.
       -1   -1    0    0    0  501  0.00000000000E+00  0.00000000000E+00 -0.10722280301E+04  0.10722280301E+04  0.50400001928E-02 0. -1.
    10030    2    1    2    0    0  0.00000000000E+00  0.00000000000E+00  0.97657459883E+03  0.31210306591E+04  0.29643101100E+04 0.  0.
        3    1    3    3  502    0 -0.95825395195E+03  0.60837402706E+03 -0.51521023541E+03  0.12465196309E+04  0.10100000352E+00 0. -1.
       -3    1    3    3    0  502  0.95825395195E+03 -0.60837402706E+03  0.14917848342E+04  0.18745110283E+04  0.10100000352E+00 0.  1.
</event>
<event>
 5   0  0.1709858E-06  0.3012793E+04  0.7818609E-02  0.8240087E-01
        1   -1    0    0  501    0  0.00000000000E+00  0.00000000000E+00  0.29228322484E+04  0.29228322484E+04  0.50400001928E-02 0. -1.
       -1   -1    0    0    0  501  0.00000000000E+00  0.00000000000E+00 -0.77638063920E+03  0.77638063921E+03  0.50400001928E-02 0.  1.
    10030    2    1    2    0    0  0.00000000000E+00  0.00000000000E+00  0.21464516092E+04  0.36992128876E+04  0.30127929695E+04 0.  0.
        3    1    3    3  502    0  0.95038937103E+03 -0.10272754060E+04  0.38882956050E+03  0.14524886071E+04  0.10100000352E+00 0. -1.
       -3    1    3    3    0  502 -0.95038937103E+03  0.10272754060E+04  0.17576220487E+04  0.22467242805E+04  0.10100000352E+00 0.  1.
</event>
<event>
 5   0  0.4935331E-06  0.3013094E+04  0.7818609E-02  0.8240002E-01
       -2   -1    0    0    0  501  0.00000000000E+00  0.00000000000E+00  0.17647128339E+04  0.17647128339E+04  0.25500000920E-02 0.  1.
        2   -1    0    0  501    0  0.00000000000E+00  0.00000000000E+00 -0.12861488870E+04  0.12861488870E+04  0.25500000920E-02 0. -1.
    10030    2    1    2    0    0  0.00000000000E+00  0.00000000000E+00  0.47856394695E+03  0.30508617209E+04  0.30130937239E+04 0.  0.
        5    1    3    3  502    0  0.87523828871E+03 -0.46789091507E+03 -0.90837025252E+03  0.13454079590E+04  0.46999998093E+01 0. -1.
       -5    1    3    3    0  502 -0.87523828871E+03  0.46789091507E+03  0.13869341995E+04  0.17054537619E+04  0.46999998093E+01 0.  1.
</event>
<event>
 5   0  0.1686012E-06  0.3008065E+04  0.7818609E-02  0.8241432E-01
       -1   -1    0    0    0  501  0.00000000000E+00  0.00000000000E+00  0.10910944679E+04  0.10910944679E+04  0.50400001928E-02 0. -1.
        1   -1    0    0  501    0  0.00000000000E+00  0.00000000000E+00 -0.20732518532E+04  0.20732518532E+04  0.50400001928E-02 0.  1.
    10030    2    1    2    0    0  0.00000000000E+00  0.00000000000E+00 -0.98215738531E+03  0.31643463210E+04  0.30080649112E+04 0.  0.
        4    1    3    3  502    0 -0.13087957999E+03  0.28065281144E+03 -0.20393524036E+04  0.20627300609E+04  0.12699999809E+01 0.  1.
       -4    1    3    3    0  502  0.13087957999E+03 -0.28065281144E+03  0.10571950183E+04  0.11016162602E+04  0.12699999809E+01 0. -1.
</event>
<event>
 5   0  0.1709858E-06  0.2458119E+04  0.7818609E-02  0.8418060E-01
        1   -1    0    0  501    0  0.00000000000E+00  0.00000000000E+00  0.15136795274E+04  0.15136795274E+04  0.50400001928E-02 0.  1.
       -1   -1    0    0    0  501  0.00000000000E+00  0.00000000000E+00 -0.99795717993E+03  0.99795717994E+03  0.50400001928E-02 0. -1.
    10030    2    1    2    0    0  0.00000000000E+00  0.00000000000E+00  0.51572234745E+03  0.25116367073E+04  0.24581190797E+04 0.  0.
        3    1    3    3  502    0 -0.87724070616E+02 -0.11124612783E+04 -0.26844724536E+03  0.11477497733E+04  0.10100000352E+00 0. -1.
       -3    1    3    3    0  502  0.87724070616E+02  0.11124612783E+04  0.78416959281E+03  0.13638869340E+04  0.10100000352E+00 0.  1.
</event>
<event>
 5   0  0.4702748E-06  0.3049538E+04  0.7818609E-02  0.8229725E-01
        2   -1    0    0  501    0  0.00000000000E+00  0.00000000000E+00  0.17950401565E+04  0.17950401565E+04  0.25500000920E-02 0.  1.
       -2   -1    0    0    0  501  0.00000000000E+00  0.00000000000E+00 -0.12951914673E+04  0.12951914673E+04  0.25500000920E-02 0. -1.
    10030    2    1    2    0    0  0.00000000000E+00  0.00000000000E+00  0.49984868914E+03  0.30902316238E+04  0.30495381251E+04 0.  0.
        2    1    3    3  502    0 -0.61599418019E+03  0.47822646802E+03  0.15776648017E+04  0.17598794309E+04  0.25500000920E-02 0.  1.
       -2    1    3    3    0  502  0.61599418019E+03 -0.47822646802E+03 -0.10778161125E+04  0.13303521929E+04  0.25500000920E-02 0. -1.
</event>
<event>
 5   0  0.1700885E-06  0.3011878E+04  0.7818609E-02  0.8240347E-01
        1   -1    0    0  501    0  0.00000000000E+00  0.00000000000E+00  0.16032763815E+04  0.16032763815E+04  0.50400001928E-02 0. -1.
       -1   -1    0    0    0  501  0.00000000000E+00  0.00000000000E+00 -0.14145107049E+04  0.14145107050E+04  0.50400001928E-02 0.  1.
    10030    2    1    2    0    0  0.00000000000E+00  0.00000000000E+00  0.18876567653E+03  0.30177870864E+04  0.30118775570E+04 0.  0.
        1    1    3    3  502    0 -0.44326075913E+03  0.12526204241E+04  0.80451428001E+03  0.15533129930E+04  0.50400001928E-02 0. -1.
       -1    1    3    3    0  502  0.44326075913E+03 -0.12526204241E+04 -0.61574860348E+03  0.14644740934E+04  0.50400001928E-02 0.  1.
</event>
<event>
 5   0  0.4768570E-06  0.2965380E+04  0.7818609E-02  0.8253686E-01
       -2   -1    0    0    0  501  0.00000000000E+00  0.00000000000E+00  0.12567335983E+04  0.12567335984E+04  0.25500000920E-02 0.  1.
        2   -1    0    0  501    0  0.00000000000E+00  0.00000000000E+00 -0.17492729670E+04  0.17492729670E+04  0.25500000920E-02 0. -1.
    10030    2    1    2    0    0  0.00000000000E+00  0.00000000000E+00 -0.49253936869E+03  0.30060065654E+04  0.29653803199E+04 0.  0.
        1    1    3    3  502    0  0.45844374719E+03  0.39472412784E+03 -0.16184739130E+04  0.17278413161E+04  0.50400001928E-02 0. -1.
       -1    1    3    3    0  502 -0.45844374719E+03 -0.39472412784E+03  0.11259345443E+04  0.12781652493E+04  0.50400001928E-02 0.  1.
</event>
<event>
 5   0  0.1734885E-06  0.2972225E+04  0.7818609E-02  0.8251707E-01
       -1   -1    0    0    0  501  0.00000000000E+00  0.00000000000E+00  0.11378106043E+04  0.11378106043E+04  0.50400001928E-02 0.  1.
        1   -1    0    0  501    0  0.00000000000E+00  0.00000000000E+00 -0.19410357336E+04  0.19410357336E+04  0.50400001928E-02 0. -1.
    10030    2    1    2    0    0  0.00000000000E+00  0.00000000000E+00 -0.80322512929E+03  0.30788463379E+04  0.29722254565E+04 0.  0.
        2    1    3    3  502    0 -0.13729556201E+04 -0.35405131651E+03 -0.86274634895E+03  0.16597261016E+04  0.25500000920E-02 0. -1.
       -2    1    3    3    0  502  0.13729556201E+04  0.35405131651E+03  0.59521219668E+02  0.14191202363E+04  0.25500000920E-02 0.  1.
</event>
<event>
 5   0  0.1686012E-06  0.2963595E+04  0.7818609E-02  0.8254204E-01
       -1   -1    0    0    0  501  0.00000000000E+00  0.00000000000E+00  0.16541932035E+04  0.16541932035E+04  0.50400001928E-02 0. -1.
        1   -1    0    0  501    0  0.00000000000E+00  0.00000000000E+00 -0.13273686448E+04  0.13273686448E+04  0.50400001928E-02 0.  1.
    10030    2    1    2    0    0  0.00000000000E+00  0.00000000000E+00  0.32682455870E+03  0.29815618484E+04  0.29635952429E+04 0.  0.
        4    1    3    3  502    0 -0.17491459754E+03  0.11876192291E+04 -0.71058214889E+03  0.13949778324E+04  0.12699999809E+01 0.  1.
       -4    1    3    3    0  502  0.17491459754E+03 -0.11876192291E+04  0.10374067076E+04  0.15865840159E+04  0.12699999809E+01 0. -1.
</event>
<event>
 5   0  0.5003556E-06  0.3032488E+04  0.7818609E-02  0.8234514E-01
       -2   -1    0    0    0  501  0.00000000000E+00  0.00000000000E+00  0.13035798827E+04  0.13035798827E+04  0.25500000920E-02 0. -1.
        2   -1    0    0  501    0  0.00000000000E+00  0.00000000000E+00 -0.17636015338E+04  0.17636015338E+04  0.25500000920E-02 0.  1.
    10030    2    1    2    0    0  0.00000000000E+00  0.00000000000E+00 -0.46002165115E+03  0.30671814165E+04  0.30324877448E+04 0.  0.
        3    1    3    3  502    0 -0.85804174569E+02  0.14802988164E+04 -0.55041333831E+03  0.15816452812E+04  0.10100000352E+00 0.  1.
       -3    1    3    3    0  502  0.85804174569E+02 -0.14802988164E+04  0.90391687156E+02  0.14855361354E+04  0.10100000352E+00 0. -1.
</event>
<event>
 5   0  0.1709858E-06  0.3098293E+04  0.7818609E-02  0.8216206E-01
       -1   -1    0    0    0  501  0.00000000000E+00  0.00000000000E+00  0.14613432647E+04  0.14613432647E+04  0.50400001928E-02 0. -1.
        1   -1    0    0  501    0  0.00000000000E+00  0.00000000000E+00 -0.16422257394E+04  0.16422257394E+04  0.50400001928E-02 0.  1.
    10030    2    1    2    0    0  0.00000000000E+00  0.00000000000E+00 -0.18088247476E+03  0.31035690041E+04  0.30982934163E+04 0.  0.
        3    1    3    3  502    0  0.32613705816E+03 -0.12977772778E+04 -0.87232413991E+03  0.15973542684E+04  0.10100000352E+00 0.  1.
       -3    1    3    3    0  502 -0.32613705816E+03  0.12977772778E+04  0.69144166515E+03  0.15062147357E+04  0.10100000352E+00 0. -1.
</event>
<event>
 5   0  0.4702748E-06  0.2999100E+04  0.7818609E-02  0.8243988E-01
       -2   -1    0    0    0  501  0.00000000000E+00  0.00000000000E+00  0.11445996312E+04  0.11445996312E+04  0.25500000920E-02 0.  1.
        2   -1    0    0  501    0  0.00000000000E+00  0.00000000000E+00 -0.19645735115E+04  0.19645735115E+04  0.25500000920E-02 0. -1.
    10030    2    1    2    0    0  0.00000000000E+00  0.00000000000E+00 -0.81997388024E+03  0.31091731427E+04  0.29990999428E+04 0.  0.
        2    1    3    3  502    0  0.18783959600E+02 -0.35349583617E+03 -0.19206358178E+04  0.19529859416E+04  0.25500000920E-02 0. -1.
       -2    1    3    3    0  502 -0.18783959600E+02  0.35349583617E+03  0.11006619375E+04  0.11561872011E+04  0.25500000920E-02 0.  1.
</event>
<event>
 5   0  0.5003556E-06  0.3011482E+04  0.7818609E-02  0.8240460E-01
       -2   -1    0    0    0  501  0.00000000000E+00  0.00000000000E+00  0.89814305977E+03  0.89814305978E+03  0.25500000920E-02 0.  1.
        2   -1    0    0  501    0  0.00000000000E+00  0.00000000000E+00 -0.25243818365E+04  0.25243818365E+04  0.25500000920E-02 0. -1.
    10030    2    1    2    0    0  0.00000000000E+00  0.00000000000E+00 -0.16262387767E+04  0.34225248963E+04  0.30114820449E+04 0.  0.
        3    1    3    3  502    0 -0.88928444543E+02  0.80075389973E+03 -0.22588071710E+04  0.23981920111E+04  0.10100000352E+00 0. -1.
       -3    1    3    3    0  502  0.88928444543E+02 -0.80075389973E+03  0.63256839422E+03  0.10243328852E+04  0.10100000352E+00 0.  1.
</event>
<event>
 5   0  0.4702748E-06  0.2994389E+04  0.7818609E-02  0.8245335E-01
       -2   -1    0    0    0  501  0.00000000000E+00  0.00000000000E+00  0.69420709860E+03  0.69420709860E+03  0.25500000920E-02 0.  1.
        2   -1    0    0  501    0  0.00000000000E+00  0.00000000000E+00 -0.32289950123E+04  0.32289950123E+04  0.25500000920E-02 0. -1.
    10030    2    1    2    0    0  0.00000000000E+00  0.00000000000E+00 -0.25347879137E+04  0.39232021109E+04  0.29943889252E+04 0.  0.
        2    1    3    3  502    0  0.12712535577E+03 -0.71930211389E+03  0.44490992355E+03  0.85527845010E+03  0.25500000920E-02 0.  1.
       -2    1    3    3    0  502 -0.12712535577E+03  0.71930211389E+03 -0.29796978372E+04  0.30679236608E+04  0.25500000920E-02 0. -1.
</event>
<event>
 5   0  0.4702748E-06  0.2494286E+04  0.7818609E-02  0.8405024E-01
        2   -1    0    0  501    0  0.00000000000E+00  0.00000000000E+00  0.93078536442E+03  0.93078536442E+03  0.25500000920E-02 0. -1.
       -2   -1    0    0    0  501  0.00000000000E+00  0.00000000000E+00 -0.16710248894E+04  0.16710248894E+04  0.25500000920E-02 0.  1.
    10030    2    1    2    0    0  0.00000000000E+00  0.00000000000E+00 -0.74023952497E+03  0.26018102538E+04  0.24942858783E+04 0.  0.
        2    1    3    3  502    0  0.35963057878E+02  0.18304289350E+03  0.91615053307E+03  0.93494911179E+03  0.25500000920E-02 0. -1.
       -2    1    3    3    0  502 -0.35963057878E+02 -0.18304289350E+03 -0.16563900580E+04  0.16668611420E+04  0.25500000920E-02 0.  1.
</event>
<event>
 5   0  0.1672907E-06  0.2969974E+04  0.7818609E-02  0.8252357E-01
       -1   -1    0    0    0  501  0.00000000000E+00  0.00000000000E+00  0.12671064682E+04  0.12671064682E+04  0.50400001928E-02 0.  1.
        1   -1    0    0  501    0  0.00000000000E+00  0.00000000000E+00 -0.17403319770E+04  0.17403319770E+04  0.50400001928E-02 0. -1.
    10030    2    1    2    0    0  0.00000000000E+00  0.00000000000E+00 -0.47322550882E+03  0.30074384452E+04  0.29699736732E+04 0.  0.
        5    1    3    3  502    0  0.50082506030E+03  0.11875405759E+04 -0.98353897490E+03  0.16212493224E+04  0.46999998093E+01 0. -1.
       -5    1    3    3    0  502 -0.50082506030E+03 -0.11875405759E+04  0.51031346608E+03  0.13861891228E+04  0.46999998093E+01 0.  1.
</event>
<event>
 5   0  0.1700885E-06  0.3004835E+04  0.7818609E-02  0.8242351E-01
        1   -1    0    0  501    0  0.00000000000E+00  0.00000000000E+00  0.12194981432E+04  0.12194981432E+04  0.50400001928E-02 0. -1.
       -1   -1    0    0    0  501  0.00000000000E+00  0.00000000000E+00 -0.18509735851E+04  0.18509735852E+04  0.50400001928E-02 0.  1.
    10030    2    1    2    0    0  0.00000000000E+00  0.00000000000E+00 -0.63147544198E+03  0.30704717283E+04  0.30048353367E+04 0.  0.
        1    1    3    3  502    0  0.50907713219E+03  0.91606784412E+03  0.78430859742E+03  0.13089995407E+04  0.50400001928E-02 0. -1.
       -1    1    3    3    0  502 -0.50907713219E+03 -0.91606784412E+03 -0.14157840394E+04  0.17614721876E+04  0.50400001928E-02 0.  1.
</event>
<event>
 5   0  0.4702748E-06  0.2433255E+04  0.7818609E-02  0.8427157E-01
        2   -1    0    0  501    0  0.00000000000E+00  0.00000000000E+00  0.14641010828E+04  0.14641010828E+04  0.25500000920E-02 0.  1.
       -2   -1    0    0    0  501  0.00000000000E+00  0.00000000000E+00 -0.10109838456E+04  0.10109838456E+04  0.25500000920E-02 0. -1.
    10030    2    1    2    0    0  0.00000000000E+00  0.00000000000E+00  0.45311723725E+03  0.24750849285E+04  0.24332550570E+04 0.  0.
        2    1    3    3  502    0 -0.69548010188E+03 -0.86457204478E+03 -0.28102387619E+03  0.11446186316E+04  0.25500000920E-02 0.  1.
       -2    1    3    3    0  502  0.69548010188E+03  0.86457204478E+03  0.73414111344E+03  0.13304662969E+04  0.25500000920E-02 0. -1.
</event>
<event>
 5   0  0.4702748E-06  0.3004922E+04  0.7818609E-02  0.8242327E-01
       -2   -1    0    0    0  501  0.00000000000E+00  0.00000000000E+00  0.99408297288E+03  0.99408297289E+03  0.25500000920E-02 0. -1.
        2   -1    0    0  501    0  0.00000000000E+00  0.00000000000E+00 -0.22708262642E+04  0.22708262642E+04  0.25500000920E-02 0.  1.
    10030    2    1    2    0    0  0.00000000000E+00  0.00000000000E+00 -0.12767432913E+04  0.32649092371E+04  0.30049224440E+04 0.  0.
        2    1    3    3  502    0 -0.80242348269E+03 -0.81365557569E+03 -0.16982001510E+04  0.20469007289E+04  0.25500000920E-02 0.  1.
       -2    1    3    3    0  502  0.80242348269E+03  0.81365557569E+03  0.42145685962E+03  0.12180085082E+04  0.25500000920E-02 0. -1.
</event>
<event>
 5   0  0.5003556E-06  0.2996771E+04  0.7818609E-02  0.8244654E-01
       -2   -1    0    0    0  501  0.00000000000E+00  0.00000000000E+00  0.18586042137E+04  0.18586042137E+04  0.25500000920E-02 0.  1.
        2   -1    0    0  501    0  0.00000000000E+00  0.00000000000E+00 -0.12079811183E+04  0.12079811183E+04  0.25500000920E-02 0. -1.
    10030    2    1    2    0    0  0.00000000000E+00  0.00000000000E+00  0.65062309540E+03  0.30665853320E+04  0.29967707930E+04 0.  0.
        3    1    3    3  502    0  0.28556813529E+03  0.12954541299E+04 -0.38763191572E+03  0.13820307793E+04  0.10100000352E+00 0. -1.
       -3    1    3    3    0  502 -0.28556813529E+03 -0.12954541299E+04  0.10382550111E+04  0.16845545527E+04  0.10100000352E+00 0.  1.
</event>
<event>
 5   0  0.1734885E-06  0.3006463E+04  0.7818609E-02  0.8241888E-01
        1   -1    0    0  501    0  0.00000000000E+00  0.00000000000E+00  0.23468018542E+04  0.23468018542E+04  0.50400001928E-02 0. -1.
       -1   -1    0    0    0  501  0.00000000000E+00  0.00000000000E+00 -0.96288671750E+03  0.96288671752E+03  0.50400001928E-02 0.  1.
    10030    2    1    2    0    0  0.00000000000E+00  0.00000000000E+00  0.13839151367E+04  0.33096885717E+04  0.30064625952E+04 0.  0.
        2    1    3    3  502    0  0.23636538641E+03 -0.12084314567E+04  0.16412069568E+04  0.20517639865E+04  0.25500000920E-02 0. -1.
       -2    1    3    3    0  502 -0.23636538641E+03  0.12084314567E+04 -0.25729182011E+03  0.12579245852E+04  0.25500000920E-02 0.  1.
</event>
<event>
 5   0  0.1700885E-06  0.2972929E+04  0.7818609E-02  0.8251504E-01
       -1   -1    0    0    0  501  0.00000000000E+00  0.00000000000E+00  0.10193745728E+04  0.10193745728E+04  0.50400001928E-02 0. -1.
        1   -1    0    0  501    0  0.00000000000E+00  0.00000000000E+00 -0.21675808348E+04  0.21675808348E+04  0.50400001928E-02 0.  1.
    10030    2    1    2    0    0  0.00000000000E+00  0.00000000000E+00 -0.11482062620E+04  0.31869554076E+04  0.29729290523E+04 0.  0.
        1    1    3    3  502    0 -0.37967125019E+03  0.35356033871E+03  0.91917083541E+03  0.10554762887E+04  0.50400001928E-02 0. -1.
       -1    1    3    3    0  502  0.37967125019E+03 -0.35356033871E+03 -0.20673770974E+04  0.21314791189E+04  0.50400001928E-02 0.  1.
</event>
<event>
 5   0  0.4702748E-06  0.2882932E+04  0.7818609E-02  0.8277974E-01
        2   -1    0    0  501    0  0.00000000000E+00  0.00000000000E+00  0.17107543895E+04  0.17107543895E+04  0.25500000920E-02 0.  1.
       -2   -1    0    0    0  501  0.00000000000E+00  0.00000000000E+00 -0.12145659832E+04  0.12145659832E+04  0.25500000920E-02 0. -1.
    10030    2    1    2    0    0  0.00000000000E+00  0.00000000000E+00  0.49618840631E+03  0.29253203727E+04  0.28829319015E+04 0.  0.
        2    1    3    3  502    0 -0.71110543838E+03 -0.11596571896E+04  0.73191546592E+03  0.15447252154E+04  0.25500000920E-02 0.  1.
       -2    1    3    3    0  502  0.71110543838E+03  0.11596571896E+04 -0.23572705961E+03  0.13805951573E+04  0.25500000920E-02 0. -1.
</event>
<event>
 5   0  0.4935331E-06  0.3002240E+04  0.7818609E-02  0.8243092E-01
        2   -1    0    0  501    0  0.00000000000E+00  0.00000000000E+00  0.27419197173E+04  0.27419197173E+04  0.25500000920E-02 0.  1.
       -2   -1    0    0    0  501  0.00000000000E+00  0.00000000000E+00 -0.82181881874E+03  0.82181881874E+03  0.25500000920E-02 0. -1.
    10030    2    1    2    0    0  0.00000000000E+00  0.00000000000E+00  0.19201008985E+04  0.35637385360E+04  0.30022399792E+04 0.  0.
        5    1    3    3  502    0  0.65497111501E+03 -0.56636361486E+03  0.24155910027E+04  0.25660975991E+04  0.46999998093E+01 0.  1.
       -5    1    3    3    0  502 -0.65497111501E+03  0.56636361486E+03 -0.49549010415E+03  0.99764093694E+03  0.46999998093E+01 0. -1.
</event>
<event>
 5   0  0.1734885E-06  0.2993134E+04  0.7818609E-02  0.8245694E-01
       -1   -1    0    0    0  501  0.00000000000E+00  0.00000000000E+00  0.10129900486E+04  0.10129900486E+04  0.50400001928E-02 0. -1.
        1   -1    0    0  501    0  0.00000000000E+00  0.00000000000E+00 -0.22109913645E+04  0.22109913646E+04  0.50400001928E-02 0.  1.
    10030    2    1    2    0    0  0.00000000000E+00  0.00000000000E+00 -0.11980013160E+04  0.32239814132E+04  0.29931336421E+04 0.  0.
        2    1    3    3  502    0  0.13231004348E+03  0.70229388276E+03  0.81732333425E+03  0.10856979682E+04  0.25500000920E-02 0. -1.
       -2    1    3    3    0  502 -0.13231004348E+03 -0.70229388276E+03 -0.20153246502E+04  0.21382834450E+04  0.25500000920E-02 0.  1.
</event>
<event>
 5   0  0.1672907E-06  0.2951793E+04  0.7818609E-02  0.8257632E-01
       -1   -1    0    0    0  501  0.00000000000E+00  0.00000000000E+00  0.13106238024E+04  0.13106238024E+04  0.50400001928E-02 0.  1.
        1   -1    0    0  501    0  0.00000000000E+00  0.00000000000E+00 -0.16620103419E+04  0.16620103419E+04  0.50400001928E-02 0. -1.
    10030    2    1    2    0    0  0.00000000000E+00  0.00000000000E+00 -0.35138653953E+03  0.29726341443E+04  0.29517928884E+04 0.  0.
        5    1    3    3  502    0  0.60851907527E+03  0.12252130627E+04  0.38211801867E+03  0.14203798028E+04  0.46999998093E+01 0.  1.
       -5    1    3    3    0  502 -0.60851907527E+03 -0.12252130627E+04 -0.73350455820E+03  0.15522543415E+04  0.46999998093E+01 0. -1.
</event>
<event>
 5   0  0.4532420E-06  0.2817000E+04  0.7818609E-02  0.8298010E-01
        2   -1    0    0  501    0  0.00000000000E+00  0.00000000000E+00  0.16934541993E+04  0.16934541993E+04  0.25500000920E-02 0. -1.
       -2   -1    0    0    0  501  0.00000000000E+00  0.00000000000E+00 -0.11714940913E+04  0.11714940913E+04  0.25500000920E-02 0.  1.
    10030    2    1    2    0    0  0.00000000000E+00  0.00000000000E+00  0.52196010796E+03  0.28649482906E+04  0.28169995302E+04 0.  0.
        4    1    3    3  502    0  0.13415915023E+04 -0.42846135582E+03  0.28189914516E+03  0.14362853593E+04  0.12699999809E+01 0. -1.
       -4    1    3    3    0  502 -0.13415915023E+04  0.42846135582E+03  0.24006096280E+03  0.14286629313E+04  0.12699999809E+01 0.  1.
</event>
<event>
 5   0  0.1709858E-06  0.2945665E+04  0.7818609E-02  0.8259419E-01
       -1   -1    0    0    0  501  0.00000000000E+00  0.00000000000E+00  0.10841730105E+04  0.10841730105E+04  0.50400001928E-02 0.  1.
        1   -1    0    0  501    0  0.00000000000E+00  0.00000000000E+00 -0.20008208163E+04  0.20008208163E+04  0.50400001928E-02 0. -1.
    10030    2    1    2    0    0  0.00000000000E+00  0.00000000000E+00 -0.91664780580E+03  0.30849938268E+04  0.29456652409E+04 0.  0.
        3    1    3    3  502    0 -0.64919453422E+03 -0.87449979326E+03 -0.14967003873E+04  0.18510309266E+04  0.10100000352E+00 0. -1.
       -3    1    3    3    0  502  0.64919453422E+03  0.87449979326E+03  0.58005258147E+03  0.12339629002E+04  0.10100000352E+00 0.  1.
</event>
<event>
 5   0  0.1734885E-06  0.3008561E+04  0.7818609E-02  0.8241291E-01
        1   -1    0    0  501    0  0.00000000000E+00  0.00000000000E+00  0.23637589740E+04  0.23637589740E+04  0.50400001928E-02 0. -1.
       -1   -1    0    0    0  501  0.00000000000E+00  0.00000000000E+00 -0.95731396597E+03  0.95731396598E+03  0.50400001928E-02 0.  1.
    10030    2    1    2    0    0  0.00000000000E+00  0.00000000000E+00  0.14064450081E+04  0.33210729400E+04  0.30085607709E+04 0.  0.
        2    1    3    3  502    0 -0.37838062410E+03 -0.95647608921E+03 -0.50844792104E+03  0.11474047648E+04  0.25500000920E-02 0.  1.
       -2    1    3    3    0  502  0.37838062410E+03  0.95647608921E+03  0.19148929291E+04  0.21736681752E+04  0.25500000920E-02 0. -1.
</event>
<event>
 5   0  0.4702748E-06  0.2440835E+04  0.7818609E-02  0.8424372E-01
       -2   -1    0    0    0  501  0.00000000000E+00  0.00000000000E+00  0.74547045530E+03  0.74547045531E+03  0.25500000920E-02 0. -1.
        2   -1    0    0  501    0  0.00000000000E+00  0.00000000000E+00 -0.19979581630E+04  0.19979581630E+04  0.25500000920E-02 0.  1.
    10030    2    1    2    0    0  0.00000000000E+00  0.00000000000E+00 -0.12524877077E+04  0.27434286183E+04  0.24408349239E+04 0.  0.
        2    1    3    3  502    0  0.33963181711E+03 -0.11635090974E+04 -0.46604109837E+03  0.12985751793E+04  0.25500000920E-02 0.  1.
       -2    1    3    3    0  502 -0.33963181711E+03  0.11635090974E+04 -0.78644660933E+03  0.14448534390E+04  0.25500000920E-02 0. -1.
</event>
<event>
 5   0  0.4935331E-06  0.3008758E+04  0.7818609E-02  0.8241234E-01
       -2   -1    0    0    0  501  0.00000000000E+00  0.00000000000E+00  0.79827475373E+03  0.79827475373E+03  0.25500000920E-02 0. -1.
        2   -1    0    0  501    0  0.00000000000E+00  0.00000000000E+00 -0.28350590712E+04  0.28350590712E+04  0.25500000920E-02 0.  1.
    10030    2    1    2    0    0  0.00000000000E+00  0.00000000000E+00 -0.20367843175E+04  0.36333338250E+04  0.30087579377E+04 0.  0.
        5    1    3    3  502    0  0.73936405204E+03  0.11686349768E+04 -0.17335920958E+04  0.22175956699E+04  0.46999998093E+01 0.  1.
       -5    1    3    3    0  502 -0.73936405204E+03 -0.11686349768E+04 -0.30319222169E+03  0.14157381551E+04  0.46999998093E+01 0. -1.
</event>
<event>
 5   0  0.1686012E-06  0.2950190E+04  0.7818609E-02  0.8258099E-01
        1   -1    0    0  501    0  0.00000000000E+00  0.00000000000E+00  0.20204008705E+04  0.20204008705E+04  0.50400001928E-02 0. -1.
       -1   -1    0    0    0  501  0.00000000000E+00  0.00000000000E+00 -0.10769672604E+04  0.10769672604E+04  0.50400001928E-02 0.  1.
    10030    2    1    2    0    0  0.00000000000E+00  0.00000000000E+00  0.94343361012E+03  0.30973681308E+04  0.29501902246E+04 0.  0.
        4    1    3    3  502    0 -0.97086309511E+03 -0.66138153698E+03 -0.46492374541E+03  0.12633908298E+04  0.12699999809E+01 0.  1.
       -4    1    3    3    0  502  0.97086309511E+03  0.66138153698E+03  0.14083573555E+04  0.18339773010E+04  0.12699999809E+01 0. -1.
</event>
<event>
 5   0  0.4935331E-06  0.2997547E+04  0.7818609E-02  0.8244432E-01
       -2   -1    0    0    0  501  0.00000000000E+00  0.00000000000E+00  0.10128870311E+04  0.10128870311E+04  0.25500000920E-02 0. -1.
        2   -1    0    0  501    0  0.00000000000E+00  0.00000000000E+00 -0.22177415654E+04  0.22177415654E+04  0.25500000920E-02 0.  1.
    10030    2    1    2    0    0  0.00000000000E+00  0.00000000000E+00 -0.12048545343E+04  0.32306285965E+04  0.29975467768E+04 0.  0.
        5    1    3    3  502    0  0.23069075848E+03 -0.32588935514E+03  0.95450435837E+03  0.10346606970E+04  0.46999998093E+01 0. -1.
       -5    1    3    3    0  502 -0.23069075848E+03  0.32588935514E+03 -0.21593588927E+04  0.21959678994E+04  0.46999998093E+01 0.  1.
</event>
<event>
 5   0  0.1709858E-06  0.3082745E+04  0.7818609E-02  0.8220489E-01
        1   -1    0    0  501    0  0.00000000000E+00  0.00000000000E+00  0.82395981004E+03  0.82395981006E+03  0.50400001928E-02 0. -1.
       -1   -1    0    0    0  501  0.00000000000E+00  0.00000000000E+00 -0.28834292695E+04  0.28834292695E+04  0.50400001928E-02 0.  1.
    10030    2    1    2    0    0  0.00000000000E+00  0.00000000000E+00 -0.20594694595E+04  0.37073890796E+04  0.30827454213E+04 0.  0.
        3    1    3    3  502    0 -0.15228051978E+04 -0.23753128266E+03 -0.10558912810E+04  0.18682246086E+04  0.10100000352E+00 0. -1.
       -3    1    3    3    0  502  0.15228051978E+04  0.23753128266E+03 -0.10035781785E+04  0.18391644710E+04  0.10100000352E+00 0.  1.
</event>
<event>
 5   0  0.4702748E-06  0.2959910E+04  0.7818609E-02  0.8255272E-01
        2   -1    0    0  501    0  0.00000000000E+00  0.00000000000E+00  0.17266729008E+04  0.17266729009E+04  0.25500000920E-02 0.  1.
       -2   -1    0    0    0  501  0.00000000000E+00  0.00000000000E+00 -0.12684895230E+04  0.12684895230E+04  0.25500000920E-02 0. -1.
    10030    2    1    2    0    0  0.00000000000E+00  0.00000000000E+00  0.45818337786E+03  0.29951624238E+04  0.29599097854E+04 0.  0.
        2    1    3    3  502    0  0.79850935048E+02 -0.13586616316E+04  0.81733169939E+03  0.15875669145E+04  0.25500000920E-02 0.  1.
       -2    1    3    3    0  502 -0.79850935048E+02  0.13586616316E+04 -0.35914832152E+03  0.14075955094E+04  0.25500000920E-02 0. -1.
</event>
<event>
 5   0  0.5003556E-06  0.3001095E+04  0.7818609E-02  0.8243418E-01
       -2   -1    0    0    0  501  0.00000000000E+00  0.00000000000E+00  0.20088967485E+04  0.20088967485E+04  0.25500000920E-02 0.  1.
        2   -1    0    0  501    0  0.00000000000E+00  0.00000000000E+00 -0.11208357167E+04  0.11208357167E+04  0.25500000920E-02 0. -1.
    10030    2    1    2    0    0  0.00000000000E+00  0.00000000000E+00  0.88806103179E+03  0.31297324653E+04  0.30010952847E+04 0.  0.
        3    1    3    3  502    0 -0.21182648756E+03  0.14854119615E+04  0.42525722178E+03  0.15595393138E+04  0.10100000352E+00 0. -1.
       -3    1    3    3    0  502  0.21182648756E+03 -0.14854119615E+04  0.46280381001E+03  0.15701931515E+04  0.10100000352E+00 0.  1.
</event>
<event>
 5   0  0.4768570E-06  0.3077736E+04  0.7818609E-02  0.8221875E-01
        2   -1    0    0  501    0  0.00000000000E+00  0.00000000000E+00  0.18164992112E+04  0.18164992112E+04  0.25500000920E-02 0.  1.
       -2   -1    0    0    0  501  0.00000000000E+00  0.00000000000E+00 -0.13036692657E+04  0.13036692657E+04  0.25500000920E-02 0. -1.
    10030    2    1    2    0    0  0.00000000000E+00  0.00000000000E+00  0.51282994553E+03  0.31201684768E+04  0.30777356564E+04 0.  0.
        1    1    3    3  502    0  0.16470221553E+03  0.13696344307E+04  0.94779163517E+03  0.16737186972E+04  0.50400001928E-02 0.  1.
       -1    1    3    3    0  502 -0.16470221553E+03 -0.13696344307E+04 -0.43496168964E+03  0.14464497797E+04  0.50400001928E-02 0. -1.
</event>
<event>
 5   0  0.1700885E-06  0.3060067E+04  0.7818609E-02  0.8226783E-01
        1   -1    0    0  501    0  0.00000000000E+00  0.00000000000E+00  0.18553082560E+04  0.18553082560E+04  0.50400001928E-02 0.  1.
       -1   -1    0    0    0  501  0.00000000000E+00  0.00000000000E+00 -0.12617862943E+04  0.12617862943E+04  0.50400001928E-02 0. -1.
    10030    2    1    2    0    0  0.00000000000E+00  0.00000000000E+00  0.59352196173E+03  0.31170945503E+04  0.30600670118E+04 0.  0.
        1    1    3    3  502    0 -0.64923431009E+03 -0.12799952773E+03 -0.11084818530E+04  0.12909767957E+04  0.50400001928E-02 0. -1.
       -1    1    3    3    0  502  0.64923431009E+03  0.12799952773E+03  0.17020038147E+04  0.18261177546E+04  0.50400001928E-02 0.  1.
</event>
<event>
 5   0  0.5003556E-06  0.2969740E+04  0.7818609E-02  0.8252425E-01
        2   -1    0    0  501    0  0.00000000000E+00  0.00000000000E+00  0.22507780069E+04  0.22507780069E+04  0.25500000920E-02 0.  1.
       -2   -1    0    0    0  501  0.00000000000E+00  0.00000000000E+00 -0.97958975104E+03  0.97958975105E+03  0.25500000920E-02 0. -1.
    10030    2    1    2    0    0  0.00000000000E+00  0.00000000000E+00  0.12711882558E+04  0.32303677579E+04  0.29697401013E+04 0.  0.
        3    1    3    3  502    0  0.88936959054E+03 -0.41900193085E+03  0.18460421334E+04  0.20915096116E+04  0.10100000352E+00 0.  1.
       -3    1    3    3    0  502 -0.88936959054E+03  0.41900193085E+03 -0.57485387763E+03  0.11388581463E+04  0.10100000352E+00 0. -1.
</event>
<event>
 5   0  0.1686012E-06  0.2983865E+04  0.7818609E-02  0.8248353E-01
        1   -1    0    0  501    0  0.00000000000E+00  0.00000000000E+00  0.20439904420E+04  0.20439904420E+04  0.50400001928E-02 0.  1.
       -1   -1    0    0    0  501  0.00000000000E+00  0.00000000000E+00 -0.10889789398E+04  0.10889789398E+04  0.50400001928E-02 0. -1.
    10030    2    1    2    0    0  0.00000000000E+00  0.00000000000E+00  0.95501150219E+03  0.31329693818E+04  0.29838649731E+04 0.  0.
        4    1    3    3  502    0  0.11844368289E+04  0.32724747869E+03  0.13658819658E+04  0.18372851360E+04  0.12699999809E+01 0.  1.
       -4    1    3    3    0  502 -0.11844368289E+04 -0.32724747869E+03 -0.41087046357E+03  0.12956842457E+04  0.12699999809E+01 0. -1.
</event>
<event>
 5   0  0.4935331E-06  0.2935238E+04  0.7818609E-02  0.8262470E-01
        2   -1    0    0  501    0  0.00000000000E+00  0.00000000000E+00  0.12785694733E+04  0.12785694733E+04  0.25500000920E-02 0. -1.
       -2   -1    0    0    0  501  0.00000000000E+00  0.00000000000E+00 -0.16846215576E+04  0.16846215576E+04  0.25500000920E-02 0.  1.
    10030    2    1    2    0    0  0.00000000000E+00  0.00000000000E+00 -0.40605208427E+03  0.29631910310E+04  0.29352381148E+04 0.  0.
        5    1    3    3  502    0 -0.39803853479E+03 -0.15165122711E+03 -0.16208405174E+04  0.16758815122E+04  0.46999998093E+01 0.  1.
       -5    1    3    3    0  502  0.39803853479E+03  0.15165122711E+03  0.12147884332E+04  0.12873095188E+04  0.46999998093E+01 0. -1.
</event>
<event>
 5   0  0.1686012E-06  0.2984487E+04  0.7818609E-02  0.8248175E-01
       -1   -1    0    0    0  501  0.00000000000E+00  0.00000000000E+00  0.12139788075E+04  0.12139788075E+04  0.50400001928E-02 0.  1.
        1   -1    0    0  501    0  0.00000000000E+00  0.00000000000E+00 -0.18342908086E+04  0.18342908086E+04  0.50400001928E-02 0. -1.
    10030    2    1    2    0    0  0.00000000000E+00  0.00000000000E+00 -0.62031200114E+03  0.30482696161E+04  0.29844866684E+04 0.  0.
        4    1    3    3  502    0 -0.88598562374E+03 -0.84847847111E+03  0.55765060382E+03  0.13475392574E+04  0.12699999809E+01 0.  1.
       -4    1    3    3    0  502  0.88598562374E+03  0.84847847111E+03 -0.11779626050E+04  0.17007303587E+04  0.12699999809E+01 0. -1.
</event>
<event>
 5   0  0.1672907E-06  0.2927427E+04  0.7818609E-02  0.8264764E-01
        1   -1    0    0  501    0  0.00000000000E+00  0.00000000000E+00  0.27552983462E+04  0.27552983462E+04  0.50400001928E-02 0.  1.
       -1   -1    0    0    0  501  0.00000000000E+00  0.00000000000E+00 -0.77757714027E+03  0.77757714029E+03  0.50400001928E-02 0. -1.
    10030    2    1    2    0    0  0.00000000000E+00  0.00000000000E+00  0.19777212059E+04  0.35328754865E+04  0.29274268624E+04 0.  0.
        5    1    3    3  502    0  0.40459908429E+03 -0.13631310227E+04  0.14079733812E+04  0.20010591536E+04  0.46999998093E+01 0. -1.
       -5    1    3    3    0  502 -0.40459908429E+03  0.13631310227E+04  0.56974782472E+03  0.15318163329E+04  0.46999998093E+01 0.  1.
</event>
<event>
 5   0  0.4768570E-06  0.2927365E+04  0.7818609E-02  0.8264782E-01
       -2   -1    0    0    0  501  0.00000000000E+00  0.00000000000E+00  0.12270276966E+04  0.12270276966E+04  0.25500000920E-02 0. -1.
        2   -1    0    0  501    0  0.00000000000E+00  0.00000000000E+00 -0.17459809080E+04  0.17459809080E+04  0.25500000920E-02 0.  1.
    10030    2    1    2    0    0  0.00000000000E+00  0.00000000000E+00 -0.51895321139E+03  0.29730086046E+04  0.29273653218E+04 0.  0.
        1    1    3    3  502    0 -0.14456618787E+04  0.18968553416E+03 -0.38972627105E+03  0.15092400192E+04  0.50400001928E-02 0.  1.
       -1    1    3    3    0  502  0.14456618787E+04 -0.18968553416E+03 -0.12922694034E+03  0.14637685853E+04  0.50400001928E-02 0. -1.
</event>
<event>
 5   0  0.4532420E-06  0.3014960E+04  0.7818609E-02  0.8239472E-01
        2   -1    0    0  501    0  0.00000000000E+00  0.00000000000E+00  0.20422727245E+04  0.20422727245E+04  0.25500000920E-02 0.  1.
       -2   -1    0    0    0  501  0.00000000000E+00  0.00000000000E+00 -0.11127289308E+04  0.11127289308E+04  0.25500000920E-02 0. -1.
    10030    2    1    2    0    0  0.00000000000E+00  0.00000000000E+00  0.92954379374E+03  0.31550016554E+04  0.30149599966E+04 0.  0.
        4    1    3    3  502    0 -0.39124919742E+03  0.13794334799E+04  0.95177181568E+03  0.17209833996E+04  0.12699999809E+01 0.  1.
       -4    1    3    3    0  502  0.39124919742E+03 -0.13794334799E+04 -0.22228021941E+02  0.14340182557E+04  0.12699999809E+01 0. -1.
</event>
<event>
 5   0  0.5003556E-06  0.3032634E+04  0.7818609E-02  0.8234473E-01
       -2   -1    0    0    0  501  0.00000000000E+00  0.00000000000E+00  0.12398569821E+04  0.12398569821E+04  0.25500000920E-02 0.  1.
        2   -1    0    0  501    0  0.00000000000E+00  0.00000000000E+00 -0.18544209786E+04  0.18544209786E+04  0.25500000920E-02 0. -1.
    10030    2    1    2    0    0  0.00000000000E+00  0.00000000000E+00 -0.61456399644E+03  0.30942779607E+04  0.30326337056E+04 0.  0.
        3    1    3    3  502    0  0.33373124871E+03  0.14747605095E+04 -0.19129778604E+03  0.15241030017E+04  0.10100000352E+00 0.  1.
       -3    1    3    3    0  502 -0.33373124871E+03 -0.14747605095E+04 -0.42326621040E+03  0.15701749590E+04  0.10100000352E+00 0. -1.
</event>
<event>
 5   0  0.1686012E-06  0.2981879E+04  0.7818609E-02  0.8248925E-01
       -1   -1    0    0    0  501  0.00000000000E+00  0.00000000000E+00  0.10438255390E+04  0.10438255390E+04  0.50400001928E-02 0.  1.
        1   -1    0    0  501    0  0.00000000000E+00  0.00000000000E+00 -0.21295704513E+04  0.21295704513E+04  0.50400001928E-02 0. -1.
    10030    2    1    2    0    0  0.00000000000E+00  0.00000000000E+00 -0.10857449123E+04  0.31733959903E+04  0.29818786187E+04 0.  0.
        4    1    3    3  502    0  0.20220374321E+03  0.14274243631E+04 -0.13836571180E+03  0.14483001586E+04  0.12699999809E+01 0.  1.
       -4    1    3    3    0  502 -0.20220374321E+03 -0.14274243631E+04 -0.94737920053E+03  0.17250958318E+04  0.12699999809E+01 0. -1.
</event>
<event>
 5   0  0.1734885E-06  0.2550084E+04  0.7818609E-02  0.8385357E-01
        1   -1    0    0  501    0  0.00000000000E+00  0.00000000000E+00  0.16129962851E+04  0.16129962851E+04  0.50400001928E-02 0. -1.
       -1   -1    0    0    0  501  0.00000000000E+00  0.00000000000E+00 -0.10078955836E+04  0.10078955836E+04  0.50400001928E-02 0.  1.
    10030    2    1    2    0    0  0.00000000000E+00  0.00000000000E+00  0.60510070150E+03  0.26208918688E+04  0.25500837886E+04 0.  0.
        2    1    3    3  502    0  0.19149240889E+03 -0.65669077391E+03 -0.80334777904E+03  0.10551207368E+04  0.25500000920E-02 0.  1.
       -2    1    3    3    0  502 -0.19149240889E+03  0.65669077391E+03  0.14084484805E+04  0.15657711319E+04  0.25500000920E-02 0. -1.
</event>
<event>
 5   0  0.4935331E-06  0.2938918E+04  0.7818609E-02  0.8261392E-01
       -2   -1    0    0    0  501  0.00000000000E+00  0.00000000000E+00  0.13352096041E+04  0.13352096041E+04  0.25500000920E-02 0. -1.
        2   -1    0    0  501    0  0.00000000000E+00  0.00000000000E+00 -0.16172063124E+04  0.16172063124E+04  0.25500000920E-02 0.  1.
    10030    2    1    2    0    0  0.00000000000E+00  0.00000000000E+00 -0.28199670827E+03  0.29524159164E+04  0.29389177600E+04 0.  0.
        5    1    3    3  502    0  0.13387464039E+04  0.60576202981E+03 -0.15093008402E+03  0.14771565763E+04  0.46999998093E+01 0. -1.
       -5    1    3    3    0  502 -0.13387464039E+04 -0.60576202981E+03 -0.13106662425E+03  0.14752593401E+04  0.46999998093E+01 0.  1.
</event>
<event>
 5   0  0.1700885E-06  0.2867155E+04  0.7818609E-02  0.8282717E-01
       -1   -1    0    0    0  501  0.00000000000E+00  0.00000000000E+00  0.15705613454E+04  0.15705613454E+04  0.50400001928E-02 0. -1.
        1   -1    0    0  501    0  0.00000000000E+00  0.00000000000E+00 -0.13085415231E+04  0.13085415231E+04  0.50400001928E-02 0.  1.
    10030    2    1    2    0    0  0.00000000000E+00  0.00000000000E+00  0.26201982231E+03  0.28791028685E+04  0.28671551999E+04 0.  0.
        1    1    3    3  502    0 -0.76218308219E+03  0.10696657722E+04 -0.44587233971E+03  0.13870508493E+04  0.50400001928E-02 0.  1.
       -1    1    3    3    0  502  0.76218308219E+03 -0.10696657722E+04  0.70789216202E+03  0.14920520193E+04  0.50400001928E-02 0. -1.
</event>
<event>
 5   0  0.5003556E-06  0.3038056E+04  0.7818609E-02  0.8232947E-01
        2   -1    0    0  501    0  0.00000000000E+00  0.00000000000E+00  0.17120166151E+04  0.17120166151E+04  0.25500000920E-02 0. -1.
       -2   -1    0    0    0  501  0.00000000000E+00  0.00000000000E+00 -0.13477939069E+04  0.13477939069E+04  0.25500000920E-02 0.  1.
    10030    2    1    2    0    0  0.00000000000E+00  0.00000000000E+00  0.36422270823E+03  0.30598105220E+04  0.30380556693E+04 0.  0.
        3    1    3    3  502    0  0.15006274330E+04 -0.50744504060E+02  0.41395061059E+03  0.15575021077E+04  0.10100000352E+00 0. -1.
       -3    1    3    3    0  502 -0.15006274330E+04  0.50744504060E+02 -0.49727902359E+02  0.15023084143E+04  0.10100000352E+00 0.  1.
</event>
<event>
 5   0  0.1734885E-06  0.3003854E+04  0.7818609E-02  0.8242631E-01
        1   -1    0    0  501    0  0.00000000000E+00  0.00000000000E+00  0.24050253968E+04  0.24050253968E+04  0.50400001928E-02 0. -1.
       -1   -1    0    0    0  501  0.00000000000E+00  0.00000000000E+00 -0.93794648012E+03  0.93794648014E+03  0.50400001928E-02 0.  1.
    10030    2    1    2    0    0  0.00000000000E+00  0.00000000000E+00  0.14670789167E+04  0.33429718770E+04  0.30038542612E+04 0.  0.
        2    1    3    3  502    0 -0.40263422402E+03 -0.42658711018E+03  0.22722717895E+04  0.23467658525E+04  0.25500000920E-02 0. -1.
       -2    1    3    3    0  502  0.40263422402E+03  0.42658711018E+03 -0.80519287278E+03  0.99620602453E+03  0.25500000920E-02 0.  1.
</event>
<event>
 5   0  0.1686012E-06  0.3030223E+04  0.7818609E-02  0.8235153E-01
       -1   -1    0    0    0  501  0.00000000000E+00  0.00000000000E+00  0.99387223464E+03  0.99387223465E+03  0.50400001928E-02 0.  1.
        1   -1    0    0  501    0  0.00000000000E+00  0.00000000000E+00 -0.23097167909E+04  0.23097167909E+04  0.50400001928E-02 0. -1.
    10030    2    1    2    0    0  0.00000000000E+00  0.00000000000E+00 -0.13158445563E+04  0.33035890256E+04  0.30302233504E+04 0.  0.
        4    1    3    3  502    0  0.46018776836E+03  0.59041073999E+03 -0.20940288291E+04  0.22238066404E+04  0.12699999809E+01 0. -1.
       -4    1    3    3    0  502 -0.46018776836E+03 -0.59041073999E+03  0.77818427278E+03  0.10797823852E+04  0.12699999809E+01 0.  1.
</event>
<event>
 5   0  0.1545375E-06  0.3060088E+04  0.7818609E-02  0.8226777E-01
        3   -1    0    0  501    0  0.00000000000E+00  0.00000000000E+00  0.15005429215E+04  0.15005429249E+04  0.10100000352E+00 0. -1.
       -3   -1    0    0    0  501  0.00000000000E+00  0.00000000000E+00 -0.15601253964E+04  0.15601253996E+04  0.10100000352E+00 0.  1.
    10030    2    1    2    0    0  0.00000000000E+00  0.00000000000E+00 -0.59582474906E+02  0.30606683245E+04  0.30600883192E+04 0.  0.
        3    1    3    3  502    0  0.15057770929E+04  0.55841760368E+02 -0.29545815612E+03  0.15355059387E+04  0.10100000352E+00 0. -1.
       -3    1    3    3    0  502 -0.15057770929E+04 -0.55841760368E+02  0.23587568121E+03  0.15251623857E+04  0.10100000352E+00 0.  1.
</event>
<event>
 5   0  0.4532420E-06  0.3004443E+04  0.7818609E-02  0.8242463E-01
       -2   -1    0    0    0  501  0.00000000000E+00  0.00000000000E+00  0.16090192308E+04  0.16090192308E+04  0.25500000920E-02 0.  1.
        2   -1    0    0  501    0  0.00000000000E+00  0.00000000000E+00 -0.14025126828E+04  0.14025126828E+04  0.25500000920E-02 0. -1.
    10030    2    1    2    0    0  0.00000000000E+00  0.00000000000E+00  0.20650654796E+03  0.30115319136E+04  0.30044432949E+04 0.  0.
        4    1    3    3  502    0 -0.11206717950E+04  0.36755232148E+03 -0.82935488660E+03  0.14418152177E+04  0.12699999809E+01 0. -1.
       -4    1    3    3    0  502  0.11206717950E+04 -0.36755232148E+03  0.10358614346E+04  0.15697166960E+04  0.12699999809E+01 0.  1.
</event>
<event>
 5   0  0.1672907E-06  0.2946092E+04  0.7818609E-02  0.8259294E-01
        1   -1    0    0  501    0  0.00000000000E+00  0.00000000000E+00  0.25983864830E+04  0.25983864830E+04  0.50400001928E-02 0.  1.
       -1   -1    0    0    0  501  0.00000000000E+00  0.00000000000E+00 -0.83508178730E+03  0.83508178732E+03  0.50400001928E-02 0. -1.
    10030    2    1    2    0    0  0.00000000000E+00  0.00000000000E+00  0.17633046957E+04  0.34334682703E+04  0.29460924822E+04 0.  0.
        5    1    3    3  502    0 -0.61855862485E+03  0.86287910313E+03  0.20716872229E+04  0.23278928581E+04  0.46999998093E+01 0.  1.
       -5    1    3    3    0  502  0.61855862485E+03 -0.86287910313E+03 -0.30838252726E+03  0.11055754122E+04  0.46999998093E+01 0. -1.
</event>
<event>
 5   0  0.4702748E-06  0.3021065E+04  0.7818609E-02  0.8237741E-01
       -2   -1    0    0    0  501  0.00000000000E+00  0.00000000000E+00  0.17933128849E+04  0.17933128849E+04  0.25500000920E-02 0. -1.
        2   -1    0    0  501    0  0.00000000000E+00  0.00000000000E+00 -0.12723425233E+04  0.12723425234E+04  0.25500000920E-02 0.  1.
    10030    2    1    2    0    0  0.00000000000E+00  0.00000000000E+00  0.52097036155E+03  0.30656554083E+04  0.30210648726E+04 0.  0.
        2    1    3    3  502    0  0.12862798690E+04  0.39629418144E+03  0.95627551861E+03  0.16510686985E+04  0.25500000920E-02 0. -1.
       -2    1    3    3    0  502 -0.12862798690E+04 -0.39629418144E+03 -0.43530515706E+03  0.14145867098E+04  0.25500000920E-02 0.  1.
</event>
<event>
 5   0  0.1686012E-06  0.2964240E+04  0.7818609E-02  0.8254017E-01
        1   -1    0    0  501    0  0.00000000000E+00  0.00000000000E+00  0.17858227888E+04  0.17858227888E+04  0.50400001928E-02 0. -1.
       -1   -1    0    0    0  501  0.00000000000E+00  0.00000000000E+00 -0.12300657237E+04  0.12300657237E+04  0.50400001928E-02 0.  1.
    10030    2    1    2    0    0  0.00000000000E+00  0.00000000000E+00  0.55575706512E+03  0.30158885126E+04  0.29642398022E+04 0.  0.
        4    1    3    3  502    0 -0.50501038925E+03  0.12219214736E+04 -0.40352986196E+03  0.13823767733E+04  0.12699999809E+01 0.  1.
       -4    1    3    3    0  502  0.50501038925E+03 -0.12219214736E+04  0.95928692708E+03  0.16335117393E+04  0.12699999809E+01 0. -1.
</event>
<event>
 5   0  0.1700885E-06  0.2994946E+04  0.7818609E-02  0.8245176E-01
       -1   -1    0    0    0  501  0.00000000000E+00  0.00000000000E+00  0.26788157073E+04  0.26788157073E+04  0.50400001928E-02 0. -1.
        1   -1    0    0  501    0  0.00000000000E+00  0.00000000000E+00 -0.83709578496E+03  0.83709578497E+03  0.50400001928E-02 0.  1.
    10030    2    1    2    0    0  0.00000000000E+00  0.00000000000E+00  0.18417199224E+04  0.35159114923E+04  0.29949459677E+04 0.  0.
        1    1    3    3  502    0 -0.45420747740E+03 -0.14184967696E+04  0.11026810806E+04  0.18531980691E+04  0.50400001928E-02 0. -1.
       -1    1    3    3    0  502  0.45420747740E+03  0.14184967696E+04  0.73903884180E+03  0.16627134232E+04  0.50400001928E-02 0.  1.
</event>
<event>
 5   0  0.4702748E-06  0.3008408E+04  0.7818609E-02  0.8241334E-01
        2   -1    0    0  501    0  0.00000000000E+00  0.00000000000E+00  0.22751184299E+04  0.22751184299E+04  0.25500000920E-02 0. -1.
       -2   -1    0    0    0  501  0.00000000000E+00  0.00000000000E+00 -0.99451055330E+03  0.99451055330E+03  0.25500000920E-02 0.  1.
    10030    2    1    2    0    0  0.00000000000E+00  0.00000000000E+00  0.12806078766E+04  0.32696289832E+04  0.30084077440E+04 0.  0.
        2    1    3    3  502    0  0.12573499762E+04 -0.36887354326E+03 -0.16250453124E+03  0.13203803907E+04  0.25500000920E-02 0. -1.
       -2    1    3    3    0  502 -0.12573499762E+04  0.36887354326E+03  0.14431124078E+04  0.19492485924E+04  0.25500000920E-02 0.  1.
</event>
<event>
 5   0  0.4532420E-06  0.3122838E+04  0.7818609E-02  0.8209498E-01
        2   -1    0    0  501    0  0.00000000000E+00  0.00000000000E+00  0.26675444938E+04  0.26675444938E+04  0.25500000920E-02 0. -1.
       -2   -1    0    0    0  501  0.00000000000E+00  0.00000000000E+00 -0.91396018020E+03  0.91396018021E+03  0.25500000920E-02 0.  1.
    10030    2    1    2    0    0  0.00000000000E+00  0.00000000000E+00  0.17535843136E+04  0.35815046741E+04  0.31228380978E+04 0.  0.
        4    1    3    3  502    0  0.14028288110E+04  0.37160723539E+03  0.21596205220E+03  0.14671952260E+04  0.12699999809E+01 0. -1.
       -4    1    3    3    0  502 -0.14028288110E+04 -0.37160723539E+03  0.15376222614E+04  0.21143094481E+04  0.12699999809E+01 0.  1.
</event>
<event>
 5   0  0.1734885E-06  0.3070513E+04  0.7818609E-02  0.8223877E-01
       -1   -1    0    0    0  501  0.00000000000E+00  0.00000000000E+00  0.93353179397E+03  0.93353179398E+03  0.50400001928E-02 0.  1.
        1   -1    0    0  501    0  0.00000000000E+00  0.00000000000E+00 -0.25248333853E+04  0.25248333853E+04  0.50400001928E-02 0. -1.
    10030    2    1    2    0    0  0.00000000000E+00  0.00000000000E+00 -0.15913015913E+04  0.34583651793E+04  0.30705128169E+04 0.  0.
        2    1    3    3  502    0  0.41358454888E+03  0.87252055697E+02  0.86670307947E+03  0.96428176809E+03  0.25500000920E-02 0.  1.
       -2    1    3    3    0  502 -0.41358454888E+03 -0.87252055697E+02 -0.24580046708E+04  0.24940834112E+04  0.25500000920E-02 0. -1.
</event>
<event>
 5   0  0.1700885E-06  0.2833078E+04  0.7818609E-02  0.8293072E-01
       -1   -1    0    0    0  501  0.00000000000E+00  0.00000000000E+00  0.19705426352E+04  0.19705426352E+04  0.50400001928E-02 0.  1.
        1   -1    0    0  501    0  0.00000000000E+00  0.00000000000E+00 -0.10182896692E+04  0.10182896693E+04  0.50400001928E-02 0. -1.
    10030    2    1    2    0    0  0.00000000000E+00  0.00000000000E+00  0.95225296598E+03  0.29888323045E+04  0.28330783316E+04 0.  0.
        1    1    3    3  502    0  0.12720974592E+02 -0.11387443051E+04  0.13648672537E+04  0.17775722308E+04  0.50400001928E-02 0.  1.
       -1    1    3    3    0  502 -0.12720974592E+02  0.11387443051E+04 -0.41261428772E+03  0.12112600737E+04  0.50400001928E-02 0. -1.
</event>
<event>
 5   0  0.1700885E-06  0.2966869E+04  0.7818609E-02  0.8253255E-01
        1   -1    0    0  501    0  0.00000000000E+00  0.00000000000E+00  0.19128388227E+04  0.19128388227E+04  0.50400001928E-02 0. -1.
       -1   -1    0    0    0  501  0.00000000000E+00  0.00000000000E+00 -0.11504253754E+04  0.11504253754E+04  0.50400001928E-02 0.  1.
    10030    2    1    2    0    0  0.00000000000E+00  0.00000000000E+00  0.76241344729E+03  0.30632641981E+04  0.29668692729E+04 0.  0.
        1    1    3    3  502    0  0.11481542971E+04  0.32617529210E+03 -0.52828182408E+03  0.13052702007E+04  0.50400001928E-02 0.  1.
       -1    1    3    3    0  502 -0.11481542971E+04 -0.32617529210E+03  0.12906952714E+04  0.17579939974E+04  0.50400001928E-02 0. -1.
</event>
<event>
 5   0  0.4532420E-06  0.2985992E+04  0.7818609E-02  0.8247742E-01
       -2   -1    0    0    0  501  0.00000000000E+00  0.00000000000E+00  0.14582628802E+04  0.14582628802E+04  0.25500000920E-02 0. -1.
        2   -1    0    0  501    0  0.00000000000E+00  0.00000000000E+00 -0.15285567642E+04  0.15285567642E+04  0.25500000920E-02 0.  1.
    10030    2    1    2    0    0  0.00000000000E+00  0.00000000000E+00 -0.70293883981E+02  0.29868196443E+04  0.29859923573E+04 0.  0.
        4    1    3    3  502    0  0.81994276006E+03 -0.99865340358E+03 -0.78329883244E+03  0.15110173474E+04  0.12699999809E+01 0.  1.
       -4    1    3    3    0  502 -0.81994276006E+03  0.99865340358E+03  0.71300494846E+03  0.14758022970E+04  0.12699999809E+01 0. -1.
</event>
<event>
 5   0  0.1709858E-06  0.3036073E+04  0.7818609E-02  0.8233504E-01
       -1   -1    0    0    0  501  0.00000000000E+00  0.00000000000E+00  0.11660922446E+04  0.11660922446E+04  0.50400001928E-02 0. -1.
        1   -1    0    0  501    0  0.00000000000E+00  0.00000000000E+00 -0.19762031718E+04  0.19762031718E+04  0.50400001928E-02 0.  1.
    10030    2    1    2    0    0  0.00000000000E+00  0.00000000000E+00 -0.81011092728E+03  0.31422954164E+04  0.30360732484E+04 0.  0.
        3    1    3    3  502    0  0.38085614293E+03 -0.87617186858E+03 -0.16260356488E+04  0.18859269568E+04  0.10100000352E+00 0.  1.
       -3    1    3    3    0  502 -0.38085614293E+03  0.87617186858E+03  0.81592472153E+03  0.12563684596E+04  0.10100000352E+00 0. -1.
</event>
<event>
 5   0  0.1700885E-06  0.2997690E+04  0.7818609E-02  0.8244391E-01
        1   -1    0    0  501    0  0.00000000000E+00  0.00000000000E+00  0.23296412493E+04  0.23296412493E+04  0.50400001928E-02 0.  1.
       -1   -1    0    0    0  501  0.00000000000E+00  0.00000000000E+00 -0.96432711673E+03  0.96432711674E+03  0.50400001928E-02 0. -1.
    10030    2    1    2    0    0  0.00000000000E+00  0.00000000000E+00  0.13653141326E+04  0.32939683661E+04  0.29976899299E+04 0.  0.
        1    1    3    3  502    0 -0.58118413711E+03  0.85567981673E+03 -0.50924948134E+03  0.11529518569E+04  0.50400001928E-02 0. -1.
       -1    1    3    3    0  502  0.58118413711E+03 -0.85567981673E+03  0.18745636139E+04  0.21410165092E+04  0.50400001928E-02 0.  1.
</event>
<event>
 5   0  0.1700885E-06  0.2999607E+04  0.7818609E-02  0.8243843E-01
       -1   -1    0    0    0  501  0.00000000000E+00  0.00000000000E+00  0.13340445880E+04  0.13340445880E+04  0.50400001928E-02 0. -1.
        1   -1    0    0  501    0  0.00000000000E+00  0.00000000000E+00 -0.16861583806E+04  0.16861583807E+04  0.50400001928E-02 0.  1.
    10030    2    1    2    0    0  0.00000000000E+00  0.00000000000E+00 -0.35211379262E+03  0.30202029687E+04  0.29996069491E+04 0.  0.
        1    1    3    3  502    0 -0.13092502415E+04 -0.72064632451E+03 -0.48923766330E+02  0.14952795240E+04  0.50400001928E-02 0. -1.
       -1    1    3    3    0  502  0.13092502415E+04  0.72064632451E+03 -0.30319002629E+03  0.15249234447E+04  0.50400001928E-02 0.  1.
</event>
<event>
 5   0  0.4532420E-06  0.3078182E+04  0.7818609E-02  0.8221751E-01
       -2   -1    0    0    0  501  0.00000000000E+00  0.00000000000E+00  0.20343537744E+04  0.20343537744E+04  0.25500000920E-02 0. -1.
        2   -1    0    0  501    0  0.00000000000E+00  0.00000000000E+00 -0.11643995098E+04  0.11643995098E+04  0.25500000920E-02 0.  1.
    10030    2    1    2    0    0  0.00000000000E+00  0.00000000000E+00  0.86995426462E+03  0.31987532843E+04  0.30781816306E+04 0.  0.
        4    1    3    3  502    0 -0.56018548139E+03  0.14311479359E+03  0.19172096718E+04  0.20024944835E+04  0.12699999809E+01 0. -1.
       -4    1    3    3    0  502  0.56018548139E+03 -0.14311479359E+03 -0.10472554072E+04  0.11962588008E+04  0.12699999809E+01 0.  1.
</event>
<event>
 5   0  0.5003556E-06  0.2966505E+04  0.7818609E-02  0.8253361E-01
       -2   -1    0    0    0  501  0.00000000000E+00  0.00000000000E+00  0.15104601604E+04  0.15104601604E+04  0.25500000920E-02 0. -1.
        2   -1    0    0  501    0  0.00000000000E+00  0.00000000000E+00 -0.14565353002E+04  0.14565353002E+04  0.25500000920E-02 0.  1.
    10030    2    1    2    0    0  0.00000000000E+00  0.00000000000E+00  0.53924860144E+02  0.29669954606E+04  0.29665053805E+04 0.  0.
        3    1    3    3  502    0 -0.61772559513E+03  0.75074118341E+03 -0.10934196220E+04  0.14631348931E+04  0.10100000352E+00 0.  1.
       -3    1    3    3    0  502  0.61772559513E+03 -0.75074118341E+03  0.11473444822E+04  0.15038605675E+04  0.10100000352E+00 0. -1.
</event>
<event>
 5   0  0.4935331E-06  0.2923224E+04  0.7818609E-02  0.8266001E-01
        2   -1    0    0  501    0  0.00000000000E+00  0.00000000000E+00  0.23233904779E+04  0.23233904779E+04  0.25500000920E-02 0. -1.
       -2   -1    0    0    0  501  0.00000000000E+00  0.00000000000E+00 -0.91947920689E+03  0.91947920689E+03  0.25500000920E-02 0.  1.
    10030    2    1    2    0    0  0.00000000000E+00  0.00000000000E+00  0.14039112710E+04  0.32428696848E+04  0.29232237232E+04 0.  0.
        5    1    3    3  502    0  0.62312525473E+03  0.10371288739E+04 -0.20768580395E+03  0.12276305907E+04  0.46999998093E+01 0.  1.
       -5    1    3    3    0  502 -0.62312525473E+03 -0.10371288739E+04  0.16115970750E+04  0.20152390940E+04  0.46999998093E+01 0. -1.
</event>
<event>
 5   0  0.5003556E-06  0.3008143E+04  0.7818609E-02  0.8241410E-01
        2   -1    0    0  501    0  0.00000000000E+00  0.00000000000E+00  0.25532511382E+04  0.25532511382E+04  0.25500000920E-02 0.  1.
       -2   -1    0    0    0  501  0.00000000000E+00  0.00000000000E+00 -0.88601959426E+03  0.88601959426E+03  0.25500000920E-02 0. -1.
    10030    2    1    2    0    0  0.00000000000E+00  0.00000000000E+00  0.16672315439E+04  0.34392707324E+04  0.30081426412E+04 0.  0.
        3    1    3    3  502    0  0.11104572774E+04  0.92996889906E+03  0.12970104528E+04  0.19442720085E+04  0.10100000352E+00 0.  1.
       -3    1    3    3    0  502 -0.11104572774E+04 -0.92996889906E+03  0.37022109110E+03  0.14949987239E+04  0.10100000352E+00 0. -1.
</event>
<event>
 5   0  0.1672907E-06  0.3002139E+04  0.7818609E-02  0.8243120E-01
       -1   -1    0    0    0  501  0.00000000000E+00  0.00000000000E+00  0.93584061709E+03  0.93584061711E+03  0.50400001928E-02 0. -1.
        1   -1    0    0  501    0  0.00000000000E+00  0.00000000000E+00 -0.24076845246E+04  0.24076845246E+04  0.50400001928E-02 0.  1.
    10030    2    1    2    0    0  0.00000000000E+00  0.00000000000E+00 -0.14718439075E+04  0.33435251417E+04  0.30021385519E+04 0.  0.
        5    1    3    3  502    0  0.10340974524E+04  0.92810420986E+03 -0.13683430411E+04  0.19501588995E+04  0.46999998093E+01 0.  1.
       -5    1    3    3    0  502 -0.10340974524E+04 -0.92810420986E+03 -0.10350086639E+03  0.13933662421E+04  0.46999998093E+01 0. -1.
</event>
<event>
 5   0  0.4935331E-06  0.2964876E+04  0.7818609E-02  0.8253832E-01
       -2   -1    0    0    0  501  0.00000000000E+00  0.00000000000E+00  0.87761529572E+03  0.87761529573E+03  0.25500000920E-02 0. -1.
        2   -1    0    0  501    0  0.00000000000E+00  0.00000000000E+00 -0.25040847850E+04  0.25040847850E+04  0.25500000920E-02 0.  1.
    10030    2    1    2    0    0  0.00000000000E+00  0.00000000000E+00 -0.16264694893E+04  0.33817000808E+04  0.29648764623E+04 0.  0.
        5    1    3    3  502    0 -0.47774054726E+03 -0.79381531653E+03 -0.21331766309E+04  0.23256920294E+04  0.46999998093E+01 0.  1.
       -5    1    3    3    0  502  0.47774054726E+03  0.79381531653E+03  0.50670714154E+03  0.10560080514E+04  0.46999998093E+01 0. -1.
</event>
<event>
 5   0  0.4702748E-06  0.2975552E+04  0.7818609E-02  0.8250747E-01
       -2   -1    0    0    0  501  0.00000000000E+00  0.00000000000E+00  0.11150554038E+04  0.11150554038E+04  0.25500000920E-02 0. -1.
        2   -1    0    0  501    0  0.00000000000E+00  0.00000000000E+00 -0.19850824062E+04  0.19850824063E+04  0.25500000920E-02 0.  1.
    10030    2    1    2    0    0  0.00000000000E+00  0.00000000000E+00 -0.87002700242E+03  0.31001378101E+04  0.29755516222E+04 0.  0.
        2    1    3    3  502    0 -0.88674690605E+03  0.65337507164E+03 -0.14770177387E+04  0.18424984287E+04  0.25500000920E-02 0.  1.
       -2    1    3    3    0  502  0.88674690605E+03 -0.65337507164E+03  0.60699073623E+03  0.12576393813E+04  0.25500000920E-02 0. -1.
</event>
<event>
 5   0  0.4935331E-06  0.2997493E+04  0.7818609E-02  0.8244447E-01
       -2   -1    0    0    0  501  0.00000000000E+00  0.00000000000E+00  0.12247134436E+04  0.12247134436E+04  0.25500000920E-02 0.  1.
        2   -1    0    0  501    0  0.00000000000E+00  0.00000000000E+00 -0.18340958186E+04  0.18340958186E+04  0.25500000920E-02 0. -1.
    10030    2    1    2    0    0  0.00000000000E+00  0.00000000000E+00 -0.60938237501E+03  0.30588092623E+04  0.29974934902E+04 0.  0.
        5    1    3    3  502    0  0.61267982433E+03  0.83602113009E+03 -0.14093842206E+04  0.17494838863E+04  0.46999998093E+01 0. -1.
       -5    1    3    3    0  502 -0.61267982433E+03 -0.83602113009E+03  0.80000184562E+03  0.13093253759E+04  0.46999998093E+01 0.  1.
</event>
<event>
 5   0  0.1700885E-06  0.3010201E+04  0.7818609E-02  0.8240824E-01
        1   -1    0    0  501    0  0.00000000000E+00  0.00000000000E+00  0.26026693978E+04  0.26026693978E+04  0.50400001928E-02 0. -1.
       -1   -1    0    0    0  501  0.00000000000E+00  0.00000000000E+00 -0.87038622433E+03  0.87038622434E+03  0.50400001928E-02 0.  1.
    10030    2    1    2    0    0  0.00000000000E+00  0.00000000000E+00  0.17322831734E+04  0.34730556221E+04  0.30102010500E+04 0.  0.
        1    1    3    3  502    0 -0.71913225054E+03  0.98799040754E+03 -0.14762816654E+03  0.12308819256E+04  0.50400001928E-02 0.  1.
       -1    1    3    3    0  502  0.71913225054E+03 -0.98799040754E+03  0.18799113400E+04  0.22421736965E+04  0.50400001928E-02 0. -1.
</event>
<event>
 5   0  0.4702748E-06  0.3012592E+04  0.7818609E-02  0.8240144E-01
       -2   -1    0    0    0  501  0.00000000000E+00  0.00000000000E+00  0.82026601717E+03  0.82026601717E+03  0.25500000920E-02 0.  1.
        2   -1    0    0  501    0  0.00000000000E+00  0.00000000000E+00 -0.27660873401E+04  0.27660873401E+04  0.25500000920E-02 0. -1.
    10030    2    1    2    0    0  0.00000000000E+00  0.00000000000E+00 -0.19458213229E+04  0.35863533573E+04  0.30125918712E+04 0.  0.
        2    1    3    3  502    0  0.23983768822E+03  0.85970387503E+03  0.47157449557E+03  0.10094530075E+04  0.25500000920E-02 0.  1.
       -2    1    3    3    0  502 -0.23983768822E+03 -0.85970387503E+03 -0.24173958185E+04  0.25769003498E+04  0.25500000920E-02 0. -1.
</event>
<event>
 5   0  0.1672907E-06  0.3067825E+04  0.7818609E-02  0.8224624E-01
       -1   -1    0    0    0  501  0.00000000000E+00  0.00000000000E+00  0.14035247009E+04  0.14035247009E+04  0.50400001928E-02 0. -1.
        1   -1    0    0  501    0  0.00000000000E+00  0.00000000000E+00 -0.16764129621E+04  0.16764129621E+04  0.50400001928E-02 0.  1.
    10030    2    1    2    0    0  0.00000000000E+00  0.00000000000E+00 -0.27288826113E+03  0.30799376630E+04  0.30678246372E+04 0.  0.
        5    1    3    3  502    0  0.35674937091E+03 -0.33713180477E+03  0.13225443716E+04  0.14106997102E+04  0.46999998093E+01 0. -1.
       -5    1    3    3    0  502 -0.35674937091E+03  0.33713180477E+03 -0.15954326328E+04  0.16692379528E+04  0.46999998093E+01 0.  1.
</event>
<event>
 5   0  0.1709858E-06  0.3029851E+04  0.7818609E-02  0.8235258E-01
        1   -1    0    0  501    0  0.00000000000E+00  0.00000000000E+00  0.28365808696E+04  0.28365808696E+04  0.50400001928E-02 0. -1.
       -1   -1    0    0    0  501  0.00000000000E+00  0.00000000000E+00 -0.80907249900E+03  0.80907249901E+03  0.50400001928E-02 0.  1.
    10030    2    1    2    0    0  0.00000000000E+00  0.00000000000E+00  0.20275083706E+04  0.36456533686E+04  0.30298511995E+04 0.  0.
        3    1    3    3  502    0 -0.55702290951E+03  0.67644756007E+03  0.25006961937E+04  0.26497806110E+04  0.10100000352E+00 0. -1.
       -3    1    3    3    0  502  0.55702290951E+03 -0.67644756007E+03 -0.47318782307E+03  0.99587275761E+03  0.10100000352E+00 0.  1.
</event>
<event>
 5   0  0.4532420E-06  0.2988592E+04  0.7818609E-02  0.8246996E-01
       -2   -1    0    0    0  501  0.00000000000E+00  0.00000000000E+00  0.90345617050E+03  0.90345617051E+03  0.25500000920E-02 0.  1.
        2   -1    0    0  501    0  0.00000000000E+00  0.00000000000E+00 -0.24715310928E+04  0.24715310928E+04  0.25500000920E-02 0. -1.
    10030    2    1    2    0    0  0.00000000000E+00  0.00000000000E+00 -0.15680749223E+04  0.33749872633E+04  0.29885916525E+04 0.  0.
        4    1    3    3  502    0 -0.25897659019E+03  0.12967620227E+04 -0.15698950747E+04  0.20526160810E+04  0.12699999809E+01 0. -1.
       -4    1    3    3    0  502  0.25897659019E+03 -0.12967620227E+04  0.18201524282E+01  0.13223711822E+04  0.12699999809E+01 0.  1.
</event>
<event>
 5   0  0.1672907E-06  0.2993133E+04  0.7818609E-02  0.8245695E-01
       -1   -1    0    0    0  501  0.00000000000E+00  0.00000000000E+00  0.14008642877E+04  0.14008642877E+04  0.50400001928E-02 0.  1.
        1   -1    0    0  501    0  0.00000000000E+00  0.00000000000E+00 -0.15988064966E+04  0.15988064966E+04  0.50400001928E-02 0. -1.
    10030    2    1    2    0    0  0.00000000000E+00  0.00000000000E+00 -0.19794220886E+03  0.29996707843E+04  0.29931327562E+04 0.  0.
        5    1    3    3  502    0 -0.33244575344E+03 -0.24162429727E+02  0.13631828226E+04  0.14033508114E+04  0.46999998093E+01 0.  1.
       -5    1    3    3    0  502  0.33244575344E+03  0.24162429727E+02 -0.15611250315E+04  0.15963199729E+04  0.46999998093E+01 0. -1.
</event>
<event>
 5   0  0.1700885E-06  0.2893797E+04  0.7818609E-02  0.8274725E-01
        1   -1    0    0  501    0  0.00000000000E+00  0.00000000000E+00  0.16211035425E+04  0.16211035425E+04  0.50400001928E-02 0.  1.
       -1   -1    0    0    0  501  0.00000000000E+00  0.00000000000E+00 -0.12914135496E+04  0.12914135496E+04  0.50400001928E-02 0. -1.
    10030    2    1    2    0    0  0.00000000000E+00  0.00000000000E+00  0.32968999289E+03  0.29125170921E+04  0.28937968692E+04 0.  0.
        1    1    3    3  502    0 -0.15409582920E+03 -0.11179591770E+04 -0.74651642060E+03  0.13530946058E+04  0.50400001928E-02 0. -1.
       -1    1    3    3    0  502  0.15409582920E+03  0.11179591770E+04  0.10762064135E+04  0.15594224862E+04  0.50400001928E-02 0.  1.
</event>
<event>
 5   0  0.1672907E-06  0.3004187E+04  0.7818609E-02  0.8242536E-01
        1   -1    0    0  501    0  0.00000000000E+00  0.00000000000E+00  0.13695301230E+04  0.13695301230E+04  0.50400001928E-02 0.  1.
       -1   -1    0    0    0  501  0.00000000000E+00  0.00000000000E+00 -0.16474883943E+04  0.16474883943E+04  0.50400001928E-02 0. -1.
    10030    2    1    2    0    0  0.00000000000E+00  0.00000000000E+00 -0.27795827129E+03  0.30170185172E+04  0.30041870669E+04 0.  0.
        5    1    3    3  502    0 -0.91040639413E+03 -0.19538385596E+02  0.10607115337E+04  0.13979816160E+04  0.46999998093E+01 0. -1.
       -5    1    3    3    0  502  0.91040639413E+03  0.19538385596E+02 -0.13386698049E+04  0.16190369013E+04  0.46999998093E+01 0.  1.
</event>
<event>
 5   0  0.4935331E-06  0.2860879E+04  0.7818609E-02  0.8284613E-01
       -2   -1    0    0    0  501  0.00000000000E+00  0.00000000000E+00  0.10160812675E+04  0.10160812675E+04  0.25500000920E-02 0.  1.
        2   -1    0    0  501    0  0.00000000000E+00  0.00000000000E+00 -0.20137729313E+04  0.20137729313E+04  0.25500000920E-02 0. -1.
    10030    2    1    2    0    0  0.00000000000E+00  0.00000000000E+00 -0.99769166380E+03  0.30298541987E+04  0.28608788527E+04 0.  0.
        5    1    3    3  502    0 -0.29642303692E+03 -0.13970798770E+04 -0.41388233102E+03  0.14869497213E+04  0.46999998093E+01 0. -1.
       -5    1    3    3    0  502  0.29642303692E+03  0.13970798770E+04 -0.58380933279E+03  0.15429044775E+04  0.46999998093E+01 0.  1.
</event>
<event>
 5   0  0.1700885E-06  0.3007462E+04  0.7818609E-02  0.8241603E-01
       -1   -1    0    0    0  501  0.00000000000E+00  0.00000000000E+00  0.12046560746E+04  0.12046560746E+04  0.50400001928E-02 0. -1.
        1   -1    0    0  501    0  0.00000000000E+00  0.00000000000E+00 -0.18770554000E+04  0.18770554000E+04  0.50400001928E-02 0.  1.
    10030    2    1    2    0    0  0.00000000000E+00  0.00000000000E+00 -0.67239932537E+03  0.30817114746E+04  0.30074615143E+04 0.  0.
        1    1    3    3  502    0 -0.47925780424E+03 -0.32092030044E+03 -0.17591996819E+04  0.18513404341E+04  0.50400001928E-02 0.  1.
       -1    1    3    3    0  502  0.47925780424E+03  0.32092030044E+03  0.10868003566E+04  0.12303710405E+04  0.50400001928E-02 0. -1.
</event>
<event>
 5   0  0.1545375E-06  0.2951734E+04  0.7818609E-02  0.8257649E-01
        3   -1    0    0  501    0  0.00000000000E+00  0.00000000000E+00  0.11458423173E+04  0.11458423218E+04  0.10100000352E+00 0.  1.
       -3   -1    0    0    0  501  0.00000000000E+00  0.00000000000E+00 -0.19009454166E+04  0.19009454193E+04  0.10100000352E+00 0. -1.
    10030    2    1    2    0    0  0.00000000000E+00  0.00000000000E+00 -0.75510309927E+03  0.30467877411E+04  0.29517342104E+04 0.  0.
        4    1    3    3  502    0  0.32269790846E+03 -0.11180737255E+04 -0.13145046048E+04  0.17556043873E+04  0.12699999809E+01 0. -1.
       -4    1    3    3    0  502 -0.32269790846E+03  0.11180737255E+04  0.55940150551E+03  0.12911833538E+04  0.12699999809E+01 0.  1.
</event>
<event>
 5   0  0.4935331E-06  0.2993976E+04  0.7818609E-02  0.8245453E-01
        2   -1    0    0  501    0  0.00000000000E+00  0.00000000000E+00  0.21905561846E+04  0.21905561846E+04  0.25500000920E-02 0. -1.
       -2   -1    0    0    0  501  0.00000000000E+00  0.00000000000E+00 -0.10230157593E+04  0.10230157593E+04  0.25500000920E-02 0.  1.
    10030    2    1    2    0    0  0.00000000000E+00  0.00000000000E+00  0.11675404253E+04  0.32135719439E+04  0.29939762848E+04 0.  0.
        5    1    3    3  502    0 -0.47061354181E+03  0.10194404188E+04  0.16464452080E+04  0.19928722453E+04  0.46999998093E+01 0. -1.
       -5    1    3    3    0  502  0.47061354181E+03 -0.10194404188E+04 -0.47890478266E+03  0.12206996986E+04  0.46999998093E+01 0.  1.
</event>
<event>
 5   0  0.1672907E-06  0.2951767E+04  0.7818609E-02  0.8257640E-01
        1   -1    0    0  501    0  0.00000000000E+00  0.00000000000E+00  0.11685791093E+04  0.11685791093E+04  0.50400001928E-02 0.  1.
       -1   -1    0    0    0  501  0.00000000000E+00  0.00000000000E+00 -0.18640001490E+04  0.18640001491E+04  0.50400001928E-02 0. -1.
    10030    2    1    2    0    0  0.00000000000E+00  0.00000000000E+00 -0.69542103975E+03  0.30325792584E+04  0.29517666804E+04 0.  0.
        5    1    3    3  502    0  0.14358061891E+04  0.84144033022E+02 -0.76036337666E+01  0.14382974436E+04  0.46999998093E+01 0.  1.
       -5    1    3    3    0  502 -0.14358061891E+04 -0.84144033022E+02 -0.68781740598E+03  0.15942818148E+04  0.46999998093E+01 0. -1.
</event>
<event>
 5   0  0.4532420E-06  0.2944490E+04  0.7818609E-02  0.8259762E-01
        2   -1    0    0  501    0  0.00000000000E+00  0.00000000000E+00  0.16079268757E+04  0.16079268757E+04  0.25500000920E-02 0.  1.
       -2   -1    0    0    0  501  0.00000000000E+00  0.00000000000E+00 -0.13480124588E+04  0.13480124588E+04  0.25500000920E-02 0. -1.
    10030    2    1    2    0    0  0.00000000000E+00  0.00000000000E+00  0.25991441688E+03  0.29559393345E+04  0.29444900823E+04 0.  0.
        4    1    3    3  502    0  0.34579323713E+03 -0.14308890766E+04  0.10779568029E+03  0.14760210140E+04  0.12699999809E+01 0.  1.
       -4    1    3    3    0  502 -0.34579323713E+03  0.14308890766E+04  0.15211873660E+03  0.14799183204E+04  0.12699999809E+01 0. -1.
</event>
<event>
 5   0  0.1686012E-06  0.2493247E+04  0.7818609E-02  0.8405395E-01
        1   -1    0    0  501    0  0.00000000000E+00  0.00000000000E+00  0.11331299606E+04  0.11331299606E+04  0.50400001928E-02 0. -1.
       -1   -1    0    0    0  501  0.00000000000E+00  0.00000000000E+00 -0.13714847045E+04  0.13714847045E+04  0.50400001928E-02 0.  1.
    10030    2    1    2    0    0  0.00000000000E+00  0.00000000000E+00 -0.23835474389E+03  0.25046146650E+04  0.24932472072E+04 0.  0.
        4    1    3    3  502    0 -0.11720672432E+04 -0.35251295821E+03 -0.35703060016E+03  0.12749429284E+04  0.12699999809E+01 0. -1.
       -4    1    3    3    0  502  0.11720672432E+04  0.35251295821E+03  0.11867585628E+03  0.12296717367E+04  0.12699999809E+01 0.  1.
</event>
<event>
 5   0  0.1734885E-06  0.2999795E+04  0.7818609E-02  0.8243789E-01
       -1   -1    0    0    0  501  0.00000000000E+00  0.00000000000E+00  0.16432592465E+04  0.16432592466E+04  0.50400001928E-02 0.  1.
        1   -1    0    0  501    0  0.00000000000E+00  0.00000000000E+00 -0.13690430061E+04  0.13690430061E+04  0.50400001928E-02 0. -1.
    10030    2    1    2    0    0  0.00000000000E+00  0.00000000000E+00  0.27421624043E+03  0.30123022527E+04  0.29997950455E+04 0.  0.
        2    1    3    3  502    0 -0.62391033635E+03  0.13375964718E+04 -0.13095836266E+03  0.14817484679E+04  0.25500000920E-02 0. -1.
       -2    1    3    3    0  502  0.62391033635E+03 -0.13375964718E+04  0.40517460310E+03  0.15305537848E+04  0.25500000920E-02 0.  1.
</event>
<event>
 5   0  0.1709858E-06  0.3002432E+04  0.7818609E-02  0.8243037E-01
        1   -1    0    0  501    0  0.00000000000E+00  0.00000000000E+00  0.18179926920E+04  0.18179926920E+04  0.50400001928E-02 0. -1.
       -1   -1    0    0    0  501  0.00000000000E+00  0.00000000000E+00 -0.12396357753E+04  0.12396357753E+04  0.50400001928E-02 0.  1.
    10030    2    1    2    0    0  0.00000000000E+00  0.00000000000E+00  0.57835691664E+03  0.30576284673E+04  0.30024315348E+04 0.  0.
        3    1    3    3  502    0 -0.64925382223E+03 -0.54043927706E+03 -0.97462084883E+03  0.12897639114E+04  0.10100000352E+00 0.  1.
       -3    1    3    3    0  502  0.64925382223E+03  0.54043927706E+03  0.15529777655E+04  0.17678645559E+04  0.10100000352E+00 0. -1.
</event>
<event>
 5   0  0.5003556E-06  0.2741086E+04  0.7818609E-02  0.8321796E-01
        2   -1    0    0  501    0  0.00000000000E+00  0.00000000000E+00  0.18257704486E+04  0.18257704486E+04  0.25500000920E-02 0. -1.
       -2   -1    0    0    0  501  0.00000000000E+00  0.00000000000E+00 -0.10288196161E+04  0.10288196161E+04  0.25500000920E-02 0.  1.
    10030    2    1    2    0    0  0.00000000000E+00  0.00000000000E+00  0.79695083246E+03  0.28545900647E+04  0.27410862460E+04 0.  0.
        3    1    3    3  502    0  0.40747938143E+03 -0.68236285024E+03  0.15612813608E+04  0.17519297941E+04  0.10100000352E+00 0. -1.
       -3    1    3    3    0  502 -0.40747938143E+03  0.68236285024E+03 -0.76433052833E+03  0.11026602706E+04  0.10100000352E+00 0.  1.
</event>
<event>
 5   0  0.1734885E-06  0.2969324E+04  0.7818609E-02  0.8252545E-01
       -1   -1    0    0    0  501  0.00000000000E+00  0.00000000000E+00  0.14439876167E+04  0.14439876167E+04  0.50400001928E-02 0.  1.
        1   -1    0    0  501    0  0.00000000000E+00  0.00000000000E+00 -0.15264822480E+04  0.15264822480E+04  0.50400001928E-02 0. -1.
    10030    2    1    2    0    0  0.00000000000E+00  0.00000000000E+00 -0.82494631262E+02  0.29704698648E+04  0.29693241408E+04 0.  0.
        2    1    3    3  502    0 -0.59824990516E+03  0.48967600390E+03 -0.13092283642E+04  0.15204487651E+04  0.25500000920E-02 0. -1.
       -2    1    3    3    0  502  0.59824990516E+03 -0.48967600390E+03  0.12267337329E+04  0.14500210996E+04  0.25500000920E-02 0.  1.
</event>
<event>
 5   0  0.1686012E-06  0.3004541E+04  0.7818609E-02  0.8242435E-01
       -1   -1    0    0    0  501  0.00000000000E+00  0.00000000000E+00  0.10893328282E+04  0.10893328282E+04  0.50400001928E-02 0. -1.
        1   -1    0    0  501    0  0.00000000000E+00  0.00000000000E+00 -0.20717422187E+04  0.20717422187E+04  0.50400001928E-02 0.  1.
    10030    2    1    2    0    0  0.00000000000E+00  0.00000000000E+00 -0.98240939050E+03  0.31610750470E+04  0.30045411034E+04 0.  0.
        4    1    3    3  502    0 -0.65271108951E+03  0.17685426843E+02 -0.19146410137E+04  0.20229177850E+04  0.12699999809E+01 0.  1.
       -4    1    3    3    0  502  0.65271108951E+03 -0.17685426843E+02  0.93223162320E+03  0.11381572619E+04  0.12699999809E+01 0. -1.
</event>
<event>
 5   0  0.4935331E-06  0.3019996E+04  0.7818609E-02  0.8238044E-01
        2   -1    0    0  501    0  0.00000000000E+00  0.00000000000E+00  0.12820796842E+04  0.12820796842E+04  0.25500000920E-02 0. -1.
       -2   -1    0    0    0  501  0.00000000000E+00  0.00000000000E+00 -0.17784335578E+04  0.17784335578E+04  0.25500000920E-02 0.  1.
    10030    2    1    2    0    0  0.00000000000E+00  0.00000000000E+00 -0.49635387357E+03  0.30605132419E+04  0.30199957179E+04 0.  0.
        5    1    3    3  502    0  0.16174332085E+03  0.24373733145E+03 -0.17494372057E+04  0.17737309309E+04  0.46999998093E+01 0.  1.
       -5    1    3    3    0  502 -0.16174332085E+03 -0.24373733145E+03  0.12530833322E+04  0.12867823110E+04  0.46999998093E+01 0. -1.
</event>
<event>
 5   0  0.4532420E-06  0.3061505E+04  0.7818609E-02  0.8226383E-01
       -2   -1    0    0    0  501  0.00000000000E+00  0.00000000000E+00  0.95224963812E+03  0.95224963812E+03  0.25500000920E-02 0. -1.
        2   -1    0    0  501    0  0.00000000000E+00  0.00000000000E+00 -0.24607020645E+04  0.24607020646E+04  0.25500000920E-02 0.  1.
    10030    2    1    2    0    0  0.00000000000E+00  0.00000000000E+00 -0.15084524264E+04  0.34129517027E+04  0.30615046304E+04 0.  0.
        4    1    3    3  502    0  0.82246762324E+03  0.12880260498E+04 -0.85228350071E+03  0.17498150973E+04  0.12699999809E+01 0.  1.
       -4    1    3    3    0  502 -0.82246762324E+03 -0.12880260498E+04 -0.65616892572E+03  0.16631366054E+04  0.12699999809E+01 0. -1.
</event>
<event>
 5   0  0.1734885E-06  0.2955248E+04  0.7818609E-02  0.8256627E-01
       -1   -1    0    0    0  501  0.00000000000E+00  0.00000000000E+00  0.10947541189E+04  0.10947541189E+04  0.50400001928E-02 0.  1.
        1   -1    0    0  501    0  0.00000000000E+00  0.00000000000E+00 -0.19943954068E+04  0.19943954068E+04  0.50400001928E-02 0. -1.
    10030    2    1    2    0    0  0.00000000000E+00  0.00000000000E+00 -0.89964128797E+03  0.30891495257E+04  0.29552479329E+04 0.  0.
        2    1    3    3  502    0 -0.13184325805E+04 -0.66705425396E+03 -0.43715818401E+03  0.15408871227E+04  0.25500000920E-02 0. -1.
       -2    1    3    3    0  502  0.13184325805E+04  0.66705425396E+03 -0.46248310395E+03  0.15482624030E+04  0.25500000920E-02 0.  1.
</event>
<event>
 5   0  0.1709858E-06  0.2947232E+04  0.7818609E-02  0.8258962E-01
       -1   -1    0    0    0  501  0.00000000000E+00  0.00000000000E+00  0.91964799560E+03  0.91964799562E+03  0.50400001928E-02 0. -1.
        1   -1    0    0  501    0  0.00000000000E+00  0.00000000000E+00 -0.23612778511E+04  0.23612778511E+04  0.50400001928E-02 0.  1.
    10030    2    1    2    0    0  0.00000000000E+00  0.00000000000E+00 -0.14416298555E+04  0.32809258467E+04  0.29472322222E+04 0.  0.
        3    1    3    3  502    0  0.41874635374E+03  0.13852919353E+03 -0.22860731955E+04  0.23282331308E+04  0.10100000352E+00 0.  1.
       -3    1    3    3    0  502 -0.41874635374E+03 -0.13852919353E+03  0.84444333999E+03  0.95269271588E+03  0.10100000352E+00 0. -1.
</event>
<event>
 5   0  0.1709858E-06  0.2617016E+04  0.7818609E-02  0.8362444E-01
        1   -1    0    0  501    0  0.00000000000E+00  0.00000000000E+00  0.19328558176E+04  0.19328558176E+04  0.50400001928E-02 0.  1.
       -1   -1    0    0    0  501  0.00000000000E+00  0.00000000000E+00 -0.88583593342E+03  0.88583593343E+03  0.50400001928E-02 0. -1.
    10030    2    1    2    0    0  0.00000000000E+00  0.00000000000E+00  0.10470198842E+04  0.28186917510E+04  0.26170159628E+04 0.  0.
        3    1    3    3  502    0 -0.98858806886E+03 -0.48315056694E+03  0.12862139367E+04  0.16926568292E+04  0.10100000352E+00 0.  1.
       -3    1    3    3    0  502  0.98858806886E+03  0.48315056694E+03 -0.23919405253E+03  0.11260349218E+04  0.10100000352E+00 0. -1.
</event>
<event>
 5   0  0.4702748E-06  0.2995133E+04  0.7818609E-02  0.8245122E-01
        2   -1    0    0  501    0  0.00000000000E+00  0.00000000000E+00  0.24769757225E+04  0.24769757225E+04  0.25500000920E-02 0.  1.
       -2   -1    0    0    0  501  0.00000000000E+00  0.00000000000E+00 -0.90542059209E+03  0.90542059209E+03  0.25500000920E-02 0. -1.
    10030    2    1    2    0    0  0.00000000000E+00  0.00000000000E+00  0.15715551304E+04  0.33823963145E+04  0.29951326016E+04 0.  0.
        2    1    3    3  502    0 -0.45855141293E+02 -0.58992179556E+03 -0.76781528582E+03  0.96935583353E+03  0.25500000920E-02 0. -1.
       -2    1    3    3    0  502  0.45855141293E+02  0.58992179556E+03  0.23393704162E+04  0.24130404810E+04  0.25500000920E-02 0.  1.
</event>
<event>
 5   0  0.1700885E-06  0.3016643E+04  0.7818609E-02  0.8238994E-01
        1   -1    0    0  501    0  0.00000000000E+00  0.00000000000E+00  0.19802707526E+04  0.19802707526E+04  0.50400001928E-02 0. -1.
       -1   -1    0    0    0  501  0.00000000000E+00  0.00000000000E+00 -0.11488498689E+04  0.11488498689E+04  0.50400001928E-02 0.  1.
    10030    2    1    2    0    0  0.00000000000E+00  0.00000000000E+00  0.83142088363E+03  0.31291206215E+04  0.30166430313E+04 0.  0.
        1    1    3    3  502    0  0.39540084170E+03  0.11112315297E+04 -0.55947958736E+03  0.13054481020E+04  0.50400001928E-02 0.  1.
       -1    1    3    3    0  502 -0.39540084170E+03 -0.11112315297E+04  0.13909004710E+04  0.18236725195E+04  0.50400001928E-02 0. -1.
</event>
<event>
 5   0  0.4935331E-06  0.2985210E+04  0.7818609E-02  0.8247967E-01
       -2   -1    0    0    0  501  0.00000000000E+00  0.00000000000E+00  0.10015198353E+04  0.10015198353E+04  0.25500000920E-02 0. -1.
        2   -1    0    0  501    0  0.00000000000E+00  0.00000000000E+00 -0.22244882886E+04  0.22244882886E+04  0.25500000920E-02 0.  1.
    10030    2    1    2    0    0  0.00000000000E+00  0.00000000000E+00 -0.12229684533E+04  0.32260081240E+04  0.29852096372E+04 0.  0.
        5    1    3    3  502    0 -0.10782655534E+03 -0.11226830605E+04 -0.16679972858E+04  0.20135244861E+04  0.46999998093E+01 0. -1.
       -5    1    3    3    0  502  0.10782655534E+03  0.11226830605E+04  0.44502883255E+03  0.12124836379E+04  0.46999998093E+01 0.  1.
</event>
<event>
 5   0  0.1709858E-06  0.3009690E+04  0.7818609E-02  0.8240969E-01
        1   -1    0    0  501    0  0.00000000000E+00  0.00000000000E+00  0.21863201153E+04  0.21863201153E+04  0.50400001928E-02 0. -1.
       -1   -1    0    0    0  501  0.00000000000E+00  0.00000000000E+00 -0.10357857047E+04  0.10357857047E+04  0.50400001928E-02 0.  1.
    10030    2    1    2    0    0  0.00000000000E+00  0.00000000000E+00  0.11505344107E+04  0.32221058200E+04  0.30096904301E+04 0.  0.
        3    1    3    3  502    0  0.34552365025E+03  0.77917522137E+03  0.19029807876E+04  0.20851466391E+04  0.10100000352E+00 0. -1.
       -3    1    3    3    0  502 -0.34552365025E+03 -0.77917522137E+03 -0.75244637696E+03  0.11369591808E+04  0.10100000352E+00 0.  1.
</event>
<event>
 5   0  0.4702748E-06  0.2982890E+04  0.7818609E-02  0.8248634E-01
        2   -1    0    0  501    0  0.00000000000E+00  0.00000000000E+00  0.27588266034E+04  0.27588266034E+04  0.25500000920E-02 0.  1.
       -2   -1    0    0    0  501  0.00000000000E+00  0.00000000000E+00 -0.80628777559E+03  0.80628777559E+03  0.25500000920E-02 0. -1.
    10030    2    1    2    0    0  0.00000000000E+00  0.00000000000E+00  0.19525388279E+04  0.35651143790E+04  0.29828899848E+04 0.  0.
        2    1    3    3  502    0 -0.35352863880E+03 -0.14246536993E+04  0.66053271488E+03  0.16096347812E+04  0.25500000920E-02 0.  1.
       -2    1    3    3    0  502  0.35352863880E+03  0.14246536993E+04  0.12920061130E+04  0.19554795978E+04  0.25500000920E-02 0. -1.
</event>
<event>
 5   0  0.4935331E-06  0.2950562E+04  0.7818609E-02  0.8257991E-01
        2   -1    0    0  501    0  0.00000000000E+00  0.00000000000E+00  0.30685620003E+04  0.30685620003E+04  0.25500000920E-02 0.  1.
       -2   -1    0    0    0  501  0.00000000000E+00  0.00000000000E+00 -0.70927479985E+03  0.70927479986E+03  0.25500000920E-02 0. -1.
    10030    2    1    2    0    0  0.00000000000E+00  0.00000000000E+00  0.23592872004E+04  0.37778368001E+04  0.29505617761E+04 0.  0.
        5    1    3    3  502    0 -0.43364350403E+03  0.12659873509E+04  0.38450779055E+03  0.13923501687E+04  0.46999998093E+01 0. -1.
       -5    1    3    3    0  502  0.43364350403E+03 -0.12659873509E+04  0.19747794099E+04  0.23854866315E+04  0.46999998093E+01 0.  1.
</event>
<event>
 5   0  0.1700885E-06  0.3001411E+04  0.7818609E-02  0.8243328E-01
        1   -1    0    0  501    0  0.00000000000E+00  0.00000000000E+00  0.20750517049E+04  0.20750517049E+04  0.50400001928E-02 0.  1.
       -1   -1    0    0    0  501  0.00000000000E+00  0.00000000000E+00 -0.10853302827E+04  0.10853302828E+04  0.50400001928E-02 0. -1.
    10030    2    1    2    0    0  0.00000000000E+00  0.00000000000E+00  0.98972142215E+03  0.31603819876E+04  0.30014106374E+04 0.  0.
        1    1    3    3  502    0 -0.32252957104E+03  0.70342103151E+03 -0.85904580233E+03  0.11561946905E+04  0.50400001928E-02 0. -1.
       -1    1    3    3    0  502  0.32252957104E+03 -0.70342103151E+03  0.18487672245E+04  0.20041872972E+04  0.50400001928E-02 0.  1.
</event>
<event>
 5   0  0.1686012E-06  0.2967256E+04  0.7818609E-02  0.8253143E-01
        1   -1    0    0  501    0  0.00000000000E+00  0.00000000000E+00  0.89953164036E+03  0.89953164037E+03  0.50400001928E-02 0.  1.
       -1   -1    0    0    0  501  0.00000000000E+00  0.00000000000E+00 -0.24469983189E+04  0.24469983189E+04  0.50400001928E-02 0. -1.
    10030    2    1    2    0    0  0.00000000000E+00  0.00000000000E+00 -0.15474666786E+04  0.33465299593E+04  0.29672562490E+04 0.  0.
        4    1    3    3  502    0 -0.10196685094E+04  0.10700648475E+04 -0.62935413122E+03  0.16065026867E+04  0.12699999809E+01 0. -1.
       -4    1    3    3    0  502  0.10196685094E+04 -0.10700648475E+04 -0.91811254734E+03  0.17400272726E+04  0.12699999809E+01 0.  1.
</event>
<event>
 5   0  0.5003556E-06  0.2999109E+04  0.7818609E-02  0.8243985E-01
       -2   -1    0    0    0  501  0.00000000000E+00  0.00000000000E+00  0.92549721168E+03  0.92549721168E+03  0.25500000920E-02 0. -1.
        2   -1    0    0  501    0  0.00000000000E+00  0.00000000000E+00 -0.24296820975E+04  0.24296820975E+04  0.25500000920E-02 0.  1.
    10030    2    1    2    0    0  0.00000000000E+00  0.00000000000E+00 -0.15041848859E+04  0.33551793092E+04  0.29991092054E+04 0.  0.
        3    1    3    3  502    0  0.13349732773E+04 -0.51749055726E+03 -0.12507903483E+04  0.19011645466E+04  0.10100000352E+00 0.  1.
       -3    1    3    3    0  502 -0.13349732773E+04  0.51749055726E+03 -0.25339453760E+03  0.14540147626E+04  0.10100000352E+00 0. -1.
</event>
<event>
 5   0  0.1672907E-06  0.2970337E+04  0.7818609E-02  0.8252252E-01
        1   -1    0    0  501    0  0.00000000000E+00  0.00000000000E+00  0.16682221577E+04  0.16682221578E+04  0.50400001928E-02 0. -1.
       -1   -1    0    0    0  501  0.00000000000E+00  0.00000000000E+00 -0.13222012109E+04  0.13222012109E+04  0.50400001928E-02 0.  1.
    10030    2    1    2    0    0  0.00000000000E+00  0.00000000000E+00  0.34602094687E+03  0.29904233686E+04  0.29703369216E+04 0.  0.
        5    1    3    3  502    0 -0.56970021879E+03  0.23607129072E+03  0.15332262390E+04  0.16526018225E+04  0.46999998093E+01 0. -1.
       -5    1    3    3    0  502  0.56970021879E+03 -0.23607129072E+03 -0.11872052922E+04  0.13378215462E+04  0.46999998093E+01 0.  1.
</event>
<event>
 5   0  0.4768570E-06  0.3005139E+04  0.7818609E-02  0.8242265E-01
       -2   -1    0    0    0  501  0.00000000000E+00  0.00000000000E+00  0.97086070530E+03  0.97086070530E+03  0.25500000920E-02 0. -1.
        2   -1    0    0  501    0  0.00000000000E+00  0.00000000000E+00 -0.23254781146E+04  0.23254781146E+04  0.25500000920E-02 0.  1.
    10030    2    1    2    0    0  0.00000000000E+00  0.00000000000E+00 -0.13546174093E+04  0.32963388199E+04  0.30051391466E+04 0.  0.
        1    1    3    3  502    0  0.14041649929E+04  0.34806986953E+03 -0.23190310250E+03  0.14651317382E+04  0.50400001928E-02 0.  1.
       -1    1    3    3    0  502 -0.14041649929E+04 -0.34806986953E+03 -0.11227143068E+04  0.18312070817E+04  0.50400001928E-02 0. -1.
</event>
<event>
 5   0  0.1700885E-06  0.2973067E+04  0.7818609E-02  0.8251464E-01
        1   -1    0    0  501    0  0.00000000000E+00  0.00000000000E+00  0.13764586215E+04  0.13764586215E+04  0.50400001928E-02 0.  1.
       -1   -1    0    0    0  501  0.00000000000E+00  0.00000000000E+00 -0.16054106679E+04  0.16054106679E+04  0.50400001928E-02 0. -1.
    10030    2    1    2    0    0  0.00000000000E+00  0.00000000000E+00 -0.22895204647E+03  0.29818692894E+04  0.29730666692E+04 0.  0.
        1    1    3    3  502    0 -0.44615026607E+03  0.12017975844E+04  0.64035699748E+03  0.14329775218E+04  0.50400001928E-02 0.  1.
       -1    1    3    3    0  502  0.44615026607E+03 -0.12017975844E+04 -0.86930904395E+03  0.15488917676E+04  0.50400001928E-02 0. -1.
</event>
<event>
 5   0  0.4702748E-06  0.2940809E+04  0.7818609E-02  0.8260838E-01
       -2   -1    0    0    0  501  0.00000000000E+00  0.00000000000E+00  0.10543014198E+04  0.10543014198E+04  0.25500000920E-02 0.  1.
        2   -1    0    0  501    0  0.00000000000E+00  0.00000000000E+00 -0.20507323912E+04  0.20507323912E+04  0.25500000920E-02 0. -1.
    10030    2    1    2    0    0  0.00000000000E+00  0.00000000000E+00 -0.99643097137E+03  0.31050338110E+04  0.29408094611E+04 0.  0.
        2    1    3    3  502    0 -0.70356317447E+03  0.55733502061E+03  0.73149818188E+03  0.11578916425E+04  0.25500000920E-02 0.  1.
       -2    1    3    3    0  502  0.70356317447E+03 -0.55733502061E+03 -0.17279291532E+04  0.19471421685E+04  0.25500000920E-02 0. -1.
</event>
<event>
 5   0  0.1709858E-06  0.2992672E+04  0.7818609E-02  0.8245827E-01
        1   -1    0    0  501    0  0.00000000000E+00  0.00000000000E+00  0.20921891525E+04  0.20921891525E+04  0.50400001928E-02 0.  1.
       -1   -1    0    0    0  501  0.00000000000E+00  0.00000000000E+00 -0.10701811400E+04  0.10701811400E+04  0.50400001928E-02 0. -1.
    10030    2    1    2    0    0  0.00000000000E+00  0.00000000000E+00  0.10220080125E+04  0.31623702926E+04  0.29926719649E+04 0.  0.
        3    1    3    3  502    0 -0.25740768038E+03  0.12215846458E+04  0.13827011628E+04  0.18628983538E+04  0.10100000352E+00 0.  1.
       -3    1    3    3    0  502  0.25740768038E+03 -0.12215846458E+04 -0.36069315029E+03  0.12994719388E+04  0.10100000352E+00 0. -1.
</event>
<event>
 5   0  0.4532420E-06  0.2970322E+04  0.7818609E-02  0.8252257E-01
       -2   -1    0    0    0  501  0.00000000000E+00  0.00000000000E+00  0.74614116654E+03  0.74614116655E+03  0.25500000920E-02 0.  1.
        2   -1    0    0  501    0  0.00000000000E+00  0.00000000000E+00 -0.29561468798E+04  0.29561468798E+04  0.25500000920E-02 0. -1.
    10030    2    1    2    0    0  0.00000000000E+00  0.00000000000E+00 -0.22100057133E+04  0.37022880464E+04  0.29703217882E+04 0.  0.
        4    1    3    3  502    0 -0.12953724112E+04 -0.59532871590E+03 -0.16238746972E+04  0.21608740381E+04  0.12699999809E+01 0. -1.
       -4    1    3    3    0  502  0.12953724112E+04  0.59532871590E+03 -0.58613101610E+03  0.15414140082E+04  0.12699999809E+01 0.  1.
</event>
<event>
 5   0  0.4768570E-06  0.3040974E+04  0.7818609E-02  0.8232126E-01
        2   -1    0    0  501    0  0.00000000000E+00  0.00000000000E+00  0.21680006249E+04  0.21680006249E+04  0.25500000920E-02 0.  1.
       -2   -1    0    0    0  501  0.00000000000E+00  0.00000000000E+00 -0.10663651854E+04  0.10663651854E+04  0.25500000920E-02 0. -1.
    10030    2    1    2    0    0  0.00000000000E+00  0.00000000000E+00  0.11016354394E+04  0.32343658103E+04  0.30409737838E+04 0.  0.
        1    1    3    3  502    0 -0.10365242092E+04  0.48563033439E+03 -0.51366072613E+03  0.12546181091E+04  0.50400001928E-02 0. -1.
       -1    1    3    3    0  502  0.10365242092E+04 -0.48563033439E+03  0.16152961656E+04  0.19797477012E+04  0.50400001928E-02 0.  1.
</event>
<event>
 5   0  0.1709858E-06  0.2983089E+04  0.7818609E-02  0.8248577E-01
        1   -1    0    0  501    0  0.00000000000E+00  0.00000000000E+00  0.16564646464E+04  0.16564646464E+04  0.50400001928E-02 0.  1.
       -1   -1    0    0    0  501  0.00000000000E+00  0.00000000000E+00 -0.13430436863E+04  0.13430436863E+04  0.50400001928E-02 0. -1.
    10030    2    1    2    0    0  0.00000000000E+00  0.00000000000E+00  0.31342096015E+03  0.29995083327E+04  0.29830885906E+04 0.  0.
        3    1    3    3  502    0  0.14242985663E+04  0.32702121946E+03 -0.14348785340E+03  0.14683862088E+04  0.10100000352E+00 0. -1.
       -3    1    3    3    0  502 -0.14242985663E+04 -0.32702121946E+03  0.45690881355E+03  0.15311221238E+04  0.10100000352E+00 0.  1.
</event>
<event>
 5   0  0.1672907E-06  0.3016718E+04  0.7818609E-02  0.8238973E-01
        1   -1    0    0  501    0  0.00000000000E+00  0.00000000000E+00  0.12284004874E+04  0.12284004874E+04  0.50400001928E-02 0. -1.
       -1   -1    0    0    0  501  0.00000000000E+00  0.00000000000E+00 -0.18521211135E+04  0.18521211136E+04  0.50400001928E-02 0.  1.
    10030    2    1    2    0    0  0.00000000000E+00  0.00000000000E+00 -0.62372062611E+03  0.30805216010E+04  0.30167177387E+04 0.  0.
        5    1    3    3  502    0  0.39584493968E+03  0.10264896535E+04 -0.13655517222E+04  0.17536042373E+04  0.46999998093E+01 0.  1.
       -5    1    3    3    0  502 -0.39584493968E+03 -0.10264896535E+04  0.74183109614E+03  0.13269173637E+04  0.46999998093E+01 0. -1.
</event>
<event>
 5   0  0.1709858E-06  0.3005800E+04  0.7818609E-02  0.8242077E-01
       -1   -1    0    0    0  501  0.00000000000E+00  0.00000000000E+00  0.12104340830E+04  0.12104340830E+04  0.50400001928E-02 0.  1.
        1   -1    0    0  501    0  0.00000000000E+00  0.00000000000E+00 -0.18660314063E+04  0.18660314063E+04  0.50400001928E-02 0. -1.
    10030    2    1    2    0    0  0.00000000000E+00  0.00000000000E+00 -0.65559732330E+03  0.30764654893E+04  0.30057997366E+04 0.  0.
        3    1    3    3  502    0 -0.26902162225E+03  0.53668178175E+03  0.10823839287E+04  0.12377216761E+04  0.10100000352E+00 0.  1.
       -3    1    3    3    0  502  0.26902162225E+03 -0.53668178175E+03 -0.17379812520E+04  0.18387438132E+04  0.10100000352E+00 0. -1.
</event>
<event>
 5   0  0.1545375E-06  0.3000063E+04  0.7818609E-02  0.8243713E-01
       -3   -1    0    0    0  501  0.00000000000E+00  0.00000000000E+00  0.15696265829E+04  0.15696265861E+04  0.10100000352E+00 0. -1.
        3   -1    0    0  501    0  0.00000000000E+00  0.00000000000E+00 -0.14335219597E+04  0.14335219632E+04  0.10100000352E+00 0.  1.
    10030    2    1    2    0    0  0.00000000000E+00  0.00000000000E+00  0.13610462319E+03  0.30031485494E+04  0.30000627895E+04 0.  0.
        4    1    3    3  502    0 -0.13540838751E+04  0.58168489256E+03 -0.21186383918E+03  0.14888882948E+04  0.12699999809E+01 0.  1.
       -4    1    3    3    0  502  0.13540838751E+04 -0.58168489256E+03  0.34796846237E+03  0.15142602546E+04  0.12699999809E+01 0. -1.
</event>
<event>
 5   0  0.4702748E-06  0.3032056E+04  0.7818609E-02  0.8234636E-01
       -2   -1    0    0    0  501  0.00000000000E+00  0.00000000000E+00  0.82028313740E+03  0.82028313741E+03  0.25500000920E-02 0.  1.
        2   -1    0    0  501    0  0.00000000000E+00  0.00000000000E+00 -0.28018867403E+04  0.28018867403E+04  0.25500000920E-02 0. -1.
    10030    2    1    2    0    0  0.00000000000E+00  0.00000000000E+00 -0.19816036029E+04  0.36221698777E+04  0.30320557026E+04 0.  0.
        2    1    3    3  502    0  0.13921867620E+04  0.59757855272E+03 -0.10568456536E+04  0.18472159707E+04  0.25500000920E-02 0. -1.
       -2    1    3    3    0  502 -0.13921867620E+04 -0.59757855272E+03 -0.92475794924E+03  0.17749539069E+04  0.25500000920E-02 0.  1.
</event>
<event>
 5   0  0.1709858E-06  0.2927668E+04  0.7818609E-02  0.8264693E-01
       -1   -1    0    0    0  501  0.00000000000E+00  0.00000000000E+00  0.15898937330E+04  0.15898937330E+04  0.50400001928E-02 0.  1.
        1   -1    0    0  501    0  0.00000000000E+00  0.00000000000E+00 -0.13477694266E+04  0.13477694266E+04  0.50400001928E-02 0. -1.
    10030    2    1    2    0    0  0.00000000000E+00  0.00000000000E+00  0.24212430643E+03  0.29376631596E+04  0.29276681266E+04 0.  0.
        3    1    3    3  502    0 -0.14537790962E+04  0.10464038715E+03  0.25712332709E+03  0.14800458394E+04  0.10100000352E+00 0.  1.
       -3    1    3    3    0  502  0.14537790962E+04 -0.10464038715E+03 -0.14999020666E+02  0.14576173202E+04  0.10100000352E+00 0. -1.
</event>
<event>
 5   0  0.4768570E-06  0.2937871E+04  0.7818609E-02  0.8261698E-01
       -2   -1    0    0    0  501  0.00000000000E+00  0.00000000000E+00  0.14907109405E+04  0.14907109405E+04  0.25500000920E-02 0. -1.
        2   -1    0    0  501    0  0.00000000000E+00  0.00000000000E+00 -0.14474780971E+04  0.14474780971E+04  0.25500000920E-02 0.  1.
    10030    2    1    2    0    0  0.00000000000E+00  0.00000000000E+00  0.43232843365E+02  0.29381890376E+04  0.29378709540E+04 0.  0.
        1    1    3    3  502    0 -0.11746438336E+04 -0.67917493732E+03 -0.54120973902E+03  0.14608130315E+04  0.50400001928E-02 0.  1.
       -1    1    3    3    0  502  0.11746438336E+04  0.67917493732E+03  0.58444258239E+03  0.14773760061E+04  0.50400001928E-02 0. -1.
</event>
<event>
 5   0  0.4532420E-06  0.2996598E+04  0.7818609E-02  0.8244703E-01
        2   -1    0    0  501    0  0.00000000000E+00  0.00000000000E+00  0.15090785951E+04  0.15090785951E+04  0.25500000920E-02 0. -1.
       -2   -1    0    0    0  501  0.00000000000E+00  0.00000000000E+00 -0.14875959392E+04  0.14875959392E+04  0.25500000920E-02 0.  1.
    10030    2    1    2    0    0  0.00000000000E+00  0.00000000000E+00  0.21482655846E+02  0.29966745343E+04  0.29965975306E+04 0.  0.
        4    1    3    3  502    0  0.12186082898E+04  0.67979671921E+03  0.55643642355E+03  0.15022492635E+04  0.12699999809E+01 0. -1.
       -4    1    3    3    0  502 -0.12186082898E+04 -0.67979671921E+03 -0.53495376771E+03  0.14944252708E+04  0.12699999809E+01 0.  1.
</event>
<event>
 5   0  0.1672907E-06  0.2848642E+04  0.7818609E-02  0.8288324E-01
        1   -1    0    0  501    0  0.00000000000E+00  0.00000000000E+00  0.15282346835E+04  0.15282346835E+04  0.50400001928E-02 0. -1.
       -1   -1    0    0    0  501  0.00000000000E+00  0.00000000000E+00 -0.13274732487E+04  0.13274732487E+04  0.50400001928E-02 0.  1.
    10030    2    1    2    0    0  0.00000000000E+00  0.00000000000E+00  0.20076143481E+03  0.28557079322E+04  0.28486422450E+04 0.  0.
        5    1    3    3  502    0 -0.83704725499E+03  0.34594810367E+03 -0.10015911830E+04  0.13503833475E+04  0.46999998093E+01 0.  1.
       -5    1    3    3    0  502  0.83704725499E+03 -0.34594810367E+03  0.12023526178E+04  0.15053245846E+04  0.46999998093E+01 0. -1.
</event>
<event>
 5   0  0.5003556E-06  0.2993098E+04  0.7818609E-02  0.8245705E-01
       -2   -1    0    0    0  501  0.00000000000E+00  0.00000000000E+00  0.11845436950E+04  0.11845436950E+04  0.25500000920E-02 0.  1.
        2   -1    0    0  501    0  0.00000000000E+00  0.00000000000E+00 -0.18907357168E+04  0.18907357168E+04  0.25500000920E-02 0. -1.
    10030    2    1    2    0    0  0.00000000000E+00  0.00000000000E+00 -0.70619202178E+03  0.30752794118E+04  0.29930981088E+04 0.  0.
        3    1    3    3  502    0 -0.49617308645E+02  0.10223196167E+04  0.76869678560E+03  0.12800367317E+04  0.10100000352E+00 0.  1.
       -3    1    3    3    0  502  0.49617308645E+02 -0.10223196167E+04 -0.14748888074E+04  0.17952426801E+04  0.10100000352E+00 0. -1.
</event>
<event>
 5   0  0.5003556E-06  0.2985554E+04  0.7818609E-02  0.8247868E-01
       -2   -1    0    0    0  501  0.00000000000E+00  0.00000000000E+00  0.15873930407E+04  0.15873930407E+04  0.25500000920E-02 0.  1.
        2   -1    0    0  501    0  0.00000000000E+00  0.00000000000E+00 -0.14038005725E+04  0.14038005725E+04  0.25500000920E-02 0. -1.
    10030    2    1    2    0    0  0.00000000000E+00  0.00000000000E+00  0.18359246811E+03  0.29911936132E+04  0.29855540587E+04 0.  0.
        3    1    3    3  502    0 -0.10316717720E+04 -0.67535403898E+03  0.93477342851E+03  0.15473367752E+04  0.10100000352E+00 0.  1.
       -3    1    3    3    0  502  0.10316717720E+04  0.67535403898E+03 -0.75118096040E+03  0.14438568380E+04  0.10100000352E+00 0. -1.
</event>
<event>
 5   0  0.1734885E-06  0.3003895E+04  0.7818609E-02  0.8242620E-01
       -1   -1    0    0    0  501  0.00000000000E+00  0.00000000000E+00  0.14421526652E+04  0.14421526652E+04  0.50400001928E-02 0. -1.
        1   -1    0    0  501    0  0.00000000000E+00  0.00000000000E+00 -0.15642214821E+04  0.15642214821E+04  0.50400001928E-02 0.  1.
    10030    2    1    2    0    0  0.00000000000E+00  0.00000000000E+00 -0.12206881689E+03  0.30063741474E+04  0.30038949246E+04 0.  0.
        2    1    3    3  502    0 -0.14022538875E+04 -0.52434553439E+03 -0.18193135386E+03  0.15080958929E+04  0.25500000920E-02 0.  1.
       -2    1    3    3    0  502  0.14022538875E+04  0.52434553439E+03  0.59862536970E+02  0.14982782545E+04  0.25500000920E-02 0. -1.
</event>
<event>
 5   0  0.1672907E-06  0.2992593E+04  0.7818609E-02  0.8245849E-01
        1   -1    0    0  501    0  0.00000000000E+00  0.00000000000E+00  0.20755422517E+04  0.20755422517E+04  0.50400001928E-02 0.  1.
       -1   -1    0    0    0  501  0.00000000000E+00  0.00000000000E+00 -0.10787078483E+04  0.10787078483E+04  0.50400001928E-02 0. -1.
    10030    2    1    2    0    0  0.00000000000E+00  0.00000000000E+00  0.99683440337E+03  0.31542501000E+04  0.29925933345E+04 0.  0.
        5    1    3    3  502    0 -0.13302179664E+04 -0.68292663761E+03  0.55627310691E+03  0.15954091920E+04  0.46999998093E+01 0.  1.
       -5    1    3    3    0  502  0.13302179664E+04  0.68292663761E+03  0.44056129646E+03  0.15588409080E+04  0.46999998093E+01 0. -1.
</event>
<event>
 5   0  0.1700885E-06  0.2948484E+04  0.7818609E-02  0.8258597E-01
       -1   -1    0    0    0  501  0.00000000000E+00  0.00000000000E+00  0.10965195853E+04  0.10965195854E+04  0.50400001928E-02 0. -1.
        1   -1    0    0  501    0  0.00000000000E+00  0.00000000000E+00 -0.19820794428E+04  0.19820794428E+04  0.50400001928E-02 0.  1.
    10030    2    1    2    0    0  0.00000000000E+00  0.00000000000E+00 -0.88555985747E+03  0.30785990282E+04  0.29484836298E+04 0.  0.
        1    1    3    3  502    0 -0.33440624335E+03 -0.67893079576E+03  0.87820469528E+03  0.11593179235E+04  0.50400001928E-02 0. -1.
       -1    1    3    3    0  502  0.33440624335E+03  0.67893079576E+03 -0.17637645527E+04  0.19192811046E+04  0.50400001928E-02 0.  1.
</event>
<event>
 5   0  0.4935331E-06  0.2999858E+04  0.7818609E-02  0.8243772E-01
        2   -1    0    0  501    0  0.00000000000E+00  0.00000000000E+00  0.17428940426E+04  0.17428940426E+04  0.25500000920E-02 0. -1.
       -2   -1    0    0    0  501  0.00000000000E+00  0.00000000000E+00 -0.12908338523E+04  0.12908338523E+04  0.25500000920E-02 0.  1.
    10030    2    1    2    0    0  0.00000000000E+00  0.00000000000E+00  0.45206019022E+03  0.30337278949E+04  0.29998577507E+04 0.  0.
        5    1    3    3  502    0  0.12671696795E+04 -0.33035885397E+03 -0.51360198938E+03  0.14066502986E+04  0.46999998093E+01 0.  1.
       -5    1    3    3    0  502 -0.12671696795E+04  0.33035885397E+03  0.96566217959E+03  0.16270775963E+04  0.46999998093E+01 0. -1.
</event>
<event>
 5   0  0.5003556E-06  0.2988175E+04  0.7818609E-02  0.8247116E-01
        2   -1    0    0  501    0  0.00000000000E+00  0.00000000000E+00  0.16471493447E+04  0.16471493447E+04  0.25500000920E-02 0. -1.
       -2   -1    0    0    0  501  0.00000000000E+00  0.00000000000E+00 -0.13552486370E+04  0.13552486370E+04  0.25500000920E-02 0.  1.
    10030    2    1    2    0    0  0.00000000000E+00  0.00000000000E+00  0.29190070773E+03  0.30023979818E+04  0.29881746297E+04 0.  0.
        3    1    3    3  502    0  0.25115338801E+03  0.94404690899E+03  0.12818154237E+04  0.16116306591E+04  0.10100000352E+00 0. -1.
       -3    1    3    3    0  502 -0.25115338801E+03 -0.94404690899E+03 -0.98991471597E+03  0.13907673227E+04  0.10100000352E+00 0.  1.
</event>
<event>
 5   0  0.4532420E-06  0.2981444E+04  0.7818609E-02  0.8249050E-01
       -2   -1    0    0    0  501  0.00000000000E+00  0.00000000000E+00  0.84439570214E+03  0.84439570214E+03  0.25500000920E-02 0. -1.
        2   -1    0    0  501    0  0.00000000000E+00  0.00000000000E+00 -0.26317661835E+04  0.26317661835E+04  0.25500000920E-02 0.  1.
    10030    2    1    2    0    0  0.00000000000E+00  0.00000000000E+00 -0.17873704814E+04  0.34761618857E+04  0.29814439820E+04 0.  0.
        4    1    3    3  502    0  0.96466753923E+03 -0.63819211693E+03 -0.19901438861E+04  0.23018572804E+04  0.12699999809E+01 0.  1.
       -4    1    3    3    0  502 -0.96466753923E+03  0.63819211693E+03  0.20277340466E+03  0.11743046052E+04  0.12699999809E+01 0. -1.
</event>
<event>
 5   0  0.5003556E-06  0.3021769E+04  0.7818609E-02  0.8237542E-01
       -2   -1    0    0    0  501  0.00000000000E+00  0.00000000000E+00  0.10398892377E+04  0.10398892377E+04  0.25500000920E-02 0. -1.
        2   -1    0    0  501    0  0.00000000000E+00  0.00000000000E+00 -0.21952073045E+04  0.21952073045E+04  0.25500000920E-02 0.  1.
    10030    2    1    2    0    0  0.00000000000E+00  0.00000000000E+00 -0.11553180668E+04  0.32350965423E+04  0.30217693165E+04 0.  0.
        3    1    3    3  502    0  0.53901477987E+03  0.40459485250E+03 -0.20253571001E+04  0.21345503791E+04  0.10100000352E+00 0.  1.
       -3    1    3    3    0  502 -0.53901477987E+03 -0.40459485250E+03  0.87003903334E+03  0.11005461632E+04  0.10100000352E+00 0. -1.
</event>
<event>
 5   0  0.1672907E-06  0.2999450E+04  0.7818609E-02  0.8243888E-01
        1   -1    0    0  501    0  0.00000000000E+00  0.00000000000E+00  0.13883393834E+04  0.13883393834E+04  0.50400001928E-02 0. -1.
       -1   -1    0    0    0  501  0.00000000000E+00  0.00000000000E+00 -0.16200474191E+04  0.16200474191E+04  0.50400001928E-02 0.  1.
    10030    2    1    2    0    0  0.00000000000E+00  0.00000000000E+00 -0.23170803573E+03  0.30083868025E+04  0.29994503730E+04 0.  0.
        5    1    3    3  502    0 -0.83073966043E+03  0.67302353187E+03 -0.11706833994E+04  0.15854370910E+04  0.46999998093E+01 0.  1.
       -5    1    3    3    0  502  0.83073966043E+03 -0.67302353187E+03  0.93897536370E+03  0.14229497115E+04  0.46999998093E+01 0. -1.
</event>
<event>
 5   0  0.1686012E-06  0.2994440E+04  0.7818609E-02  0.8245320E-01
        1   -1    0    0  501    0  0.00000000000E+00  0.00000000000E+00  0.24958129252E+04  0.24958129253E+04  0.50400001928E-02 0. -1.
       -1   -1    0    0    0  501  0.00000000000E+00  0.00000000000E+00 -0.89817140225E+03  0.89817140227E+03  0.50400001928E-02 0.  1.
    10030    2    1    2    0    0  0.00000000000E+00  0.00000000000E+00  0.15976415230E+04  0.33939843275E+04  0.29944400444E+04 0.  0.
        4    1    3    3  502    0 -0.74957007825E+02 -0.32526269754E+03  0.24531032851E+04  0.24757083261E+04  0.12699999809E+01 0. -1.
       -4    1    3    3    0  502  0.74957007825E+02  0.32526269754E+03 -0.85546176214E+03  0.91827600144E+03  0.12699999809E+01 0.  1.
</event>
<event>
 5   0  0.1672907E-06  0.2996386E+04  0.7818609E-02  0.8244764E-01
        1   -1    0    0  501    0  0.00000000000E+00  0.00000000000E+00  0.21298428901E+04  0.21298428901E+04  0.50400001928E-02 0.  1.
       -1   -1    0    0    0  501  0.00000000000E+00  0.00000000000E+00 -0.10538722976E+04  0.10538722976E+04  0.50400001928E-02 0. -1.
    10030    2    1    2    0    0  0.00000000000E+00  0.00000000000E+00  0.10759705926E+04  0.31837151877E+04  0.29963861034E+04 0.  0.
        5    1    3    3  502    0 -0.51737796919E+03  0.11493561140E+04  0.13984683111E+04  0.18826670302E+04  0.46999998093E+01 0.  1.
       -5    1    3    3    0  502  0.51737796919E+03 -0.11493561140E+04 -0.32249771851E+03  0.13010481575E+04  0.46999998093E+01 0. -1.
</event>
<event>
 5   0  0.1686012E-06  0.2996509E+04  0.7818609E-02  0.8244728E-01
        1   -1    0    0  501    0  0.00000000000E+00  0.00000000000E+00  0.18763062026E+04  0.18763062026E+04  0.50400001928E-02 0.  1.
       -1   -1    0    0    0  501  0.00000000000E+00  0.00000000000E+00 -0.11963753458E+04  0.11963753458E+04  0.50400001928E-02 0. -1.
    10030    2    1    2    0    0  0.00000000000E+00  0.00000000000E+00  0.67993085674E+03  0.30726815484E+04  0.29965089568E+04 0.  0.
        4    1    3    3  502    0  0.75693859988E+03 -0.49196050640E+03 -0.88616632866E+03  0.12650191931E+04  0.12699999809E+01 0. -1.
       -4    1    3    3    0  502 -0.75693859988E+03  0.49196050640E+03  0.15660971854E+04  0.18076623553E+04  0.12699999809E+01 0.  1.
</event>
<event>
 5   0  0.5003556E-06  0.3014670E+04  0.7818609E-02  0.8239554E-01
       -2   -1    0    0    0  501  0.00000000000E+00  0.00000000000E+00  0.10593925131E+04  0.10593925132E+04  0.25500000920E-02 0.  1.
        2   -1    0    0  501    0  0.00000000000E+00  0.00000000000E+00 -0.21446810663E+04  0.21446810663E+04  0.25500000920E-02 0. -1.
    10030    2    1    2    0    0  0.00000000000E+00  0.00000000000E+00 -0.10852885531E+04  0.32040735794E+04  0.30146701741E+04 0.  0.
        3    1    3    3  502    0 -0.14780607044E+04  0.29428986242E+03 -0.57249979969E+03  0.16121494968E+04  0.10100000352E+00 0. -1.
       -3    1    3    3    0  502  0.14780607044E+04 -0.29428986242E+03 -0.51278875342E+03  0.15919240826E+04  0.10100000352E+00 0.  1.
</event>
<event>
 5   0  0.1709858E-06  0.2997979E+04  0.7818609E-02  0.8244308E-01
       -1   -1    0    0    0  501  0.00000000000E+00  0.00000000000E+00  0.17207084653E+04  0.17207084653E+04  0.50400001928E-02 0.  1.
        1   -1    0    0  501    0  0.00000000000E+00  0.00000000000E+00 -0.13058399993E+04  0.13058399993E+04  0.50400001928E-02 0. -1.
    10030    2    1    2    0    0  0.00000000000E+00  0.00000000000E+00  0.41486846592E+03  0.30265484646E+04  0.29979792802E+04 0.  0.
        3    1    3    3  502    0  0.22783970926E+03  0.85028636185E+03 -0.10174175724E+04  0.13453759166E+04  0.10100000352E+00 0. -1.
       -3    1    3    3    0  502 -0.22783970926E+03 -0.85028636185E+03  0.14322860383E+04  0.16811725480E+04  0.10100000352E+00 0.  1.
</event>
<event>
 5   0  0.1734885E-06  0.3002281E+04  0.7818609E-02  0.8243080E-01
       -1   -1    0    0    0  501  0.00000000000E+00  0.00000000000E+00  0.18907343013E+04  0.18907343013E+04  0.50400001928E-02 0. -1.
        1   -1    0    0  501    0  0.00000000000E+00  0.00000000000E+00 -0.11918238286E+04  0.11918238286E+04  0.50400001928E-02 0.  1.
    10030    2    1    2    0    0  0.00000000000E+00  0.00000000000E+00  0.69891047268E+03  0.30825581299E+04  0.30022805957E+04 0.  0.
        2    1    3    3  502    0  0.14357799187E+04  0.12251382903E+03  0.78135556778E+03  0.16392041168E+04  0.25500000920E-02 0. -1.
       -2    1    3    3    0  502 -0.14357799187E+04 -0.12251382903E+03 -0.82445095101E+02  0.14433540131E+04  0.25500000920E-02 0.  1.
</event>
<event>
 5   0  0.5003556E-06  0.2951602E+04  0.7818609E-02  0.8257688E-01
        2   -1    0    0  501    0  0.00000000000E+00  0.00000000000E+00  0.21581277155E+04  0.21581277155E+04  0.25500000920E-02 0.  1.
       -2   -1    0    0    0  501  0.00000000000E+00  0.00000000000E+00 -0.10092030542E+04  0.10092030542E+04  0.25500000920E-02 0. -1.
    10030    2    1    2    0    0  0.00000000000E+00  0.00000000000E+00  0.11489246613E+04  0.31673307697E+04  0.29516023322E+04 0.  0.
        3    1    3    3  502    0 -0.88869369361E+02  0.13929242444E+04  0.59991211405E+02  0.13970449781E+04  0.10100000352E+00 0.  1.
       -3    1    3    3    0  502  0.88869369361E+02 -0.13929242444E+04  0.10889334498E+04  0.17702857915E+04  0.10100000352E+00 0. -1.
</event>
<event>
 5   0  0.1709858E-06  0.2989764E+04  0.7818609E-02  0.8246660E-01
       -1   -1    0    0    0  501  0.00000000000E+00  0.00000000000E+00  0.21232744162E+04  0.21232744162E+04  0.50400001928E-02 0. -1.
        1   -1    0    0  501    0  0.00000000000E+00  0.00000000000E+00 -0.10524648519E+04  0.10524648519E+04  0.50400001928E-02 0.  1.
    10030    2    1    2    0    0  0.00000000000E+00  0.00000000000E+00  0.10708095644E+04  0.31757392681E+04  0.29897636655E+04 0.  0.
        3    1    3    3  502    0  0.24392869407E+03 -0.39685223478E+03  0.20442128330E+04  0.20966160881E+04  0.10100000352E+00 0. -1.
       -3    1    3    3    0  502 -0.24392869407E+03  0.39685223478E+03 -0.97340326864E+03  0.10791231800E+04  0.10100000352E+00 0.  1.
</event>
<event>
 5   0  0.4532420E-06  0.2997953E+04  0.7818609E-02  0.8244316E-01
       -2   -1    0    0    0  501  0.00000000000E+00  0.00000000000E+00  0.12958370313E+04  0.12958370313E+04  0.25500000920E-02 0. -1.
        2   -1    0    0  501    0  0.00000000000E+00  0.00000000000E+00 -0.17339604379E+04  0.17339604379E+04  0.25500000920E-02 0.  1.
    10030    2    1    2    0    0  0.00000000000E+00  0.00000000000E+00 -0.43812340666E+03  0.30297974692E+04  0.29979527323E+04 0.  0.
        4    1    3    3  502    0 -0.97644987362E+03 -0.28777722067E+03 -0.13310485135E+04  0.16756974198E+04  0.12699999809E+01 0.  1.
       -4    1    3    3    0  502  0.97644987362E+03  0.28777722067E+03  0.89292510686E+03  0.13541000494E+04  0.12699999809E+01 0. -1.
</event>
<event>
 5   0  0.1734885E-06  0.3026961E+04  0.7818609E-02  0.8236074E-01
       -1   -1    0    0    0  501  0.00000000000E+00  0.00000000000E+00  0.13874694795E+04  0.13874694795E+04  0.50400001928E-02 0.  1.
        1   -1    0    0  501    0  0.00000000000E+00  0.00000000000E+00 -0.16509360106E+04  0.16509360106E+04  0.50400001928E-02 0. -1.
    10030    2    1    2    0    0  0.00000000000E+00  0.00000000000E+00 -0.26346653107E+03  0.30384054901E+04  0.30269610683E+04 0.  0.
        2    1    3    3  502    0  0.27485248691E+02  0.83403939632E+03  0.11356751559E+04  0.14093030949E+04  0.25500000920E-02 0.  1.
       -2    1    3    3    0  502 -0.27485248691E+02 -0.83403939632E+03 -0.13991416870E+04  0.16291023951E+04  0.25500000920E-02 0. -1.
</event>
<event>
 5   0  0.1734885E-06  0.2972728E+04  0.7818609E-02  0.8251562E-01
        1   -1    0    0  501    0  0.00000000000E+00  0.00000000000E+00  0.22020696023E+04  0.22020696023E+04  0.50400001928E-02 0. -1.
       -1   -1    0    0    0  501  0.00000000000E+00  0.00000000000E+00 -0.10032733846E+04  0.10032733846E+04  0.50400001928E-02 0.  1.
    10030    2    1    2    0    0  0.00000000000E+00  0.00000000000E+00  0.11987962177E+04  0.32053429869E+04  0.29727279210E+04 0.  0.
        2    1    3    3  502    0 -0.22962556591E+03 -0.59300843070E+03  0.20479859187E+04  0.21444424036E+04  0.25500000920E-02 0. -1.
       -2    1    3    3    0  502  0.22962556591E+03  0.59300843070E+03 -0.84918970096E+03  0.10609005833E+04  0.25500000920E-02 0.  1.
</event>
<event>
 5   0  0.1686012E-06  0.2994034E+04  0.7818609E-02  0.8245437E-01
        1   -1    0    0  501    0  0.00000000000E+00  0.00000000000E+00  0.15346248339E+04  0.15346248339E+04  0.50400001928E-02 0.  1.
       -1   -1    0    0    0  501  0.00000000000E+00  0.00000000000E+00 -0.14603308688E+04  0.14603308688E+04  0.50400001928E-02 0. -1.
    10030    2    1    2    0    0  0.00000000000E+00  0.00000000000E+00  0.74293965140E+02  0.29949557027E+04  0.29940340793E+04 0.  0.
        4    1    3    3  502    0  0.11446249518E+04 -0.48418376221E+03  0.87194458783E+03  0.15181861457E+04  0.12699999809E+01 0.  1.
       -4    1    3    3    0  502 -0.11446249518E+04  0.48418376221E+03 -0.79765062269E+03  0.14767695570E+04  0.12699999809E+01 0. -1.
</event>
<event>
 5   0  0.1709858E-06  0.3009454E+04  0.7818609E-02  0.8241036E-01
       -1   -1    0    0    0  501  0.00000000000E+00  0.00000000000E+00  0.16425300139E+04  0.16425300140E+04  0.50400001928E-02 0.  1.
        1   -1    0    0  501    0  0.00000000000E+00  0.00000000000E+00 -0.13784852432E+04  0.13784852432E+04  0.50400001928E-02 0. -1.
    10030    2    1    2    0    0  0.00000000000E+00  0.00000000000E+00  0.26404477075E+03  0.30210152572E+04  0.30094540274E+04 0.  0.
        3    1    3    3  502    0  0.12883727314E+04 -0.22821185502E+03  0.87799116811E+03  0.15757072848E+04  0.10100000352E+00 0.  1.
       -3    1    3    3    0  502 -0.12883727314E+04  0.22821185502E+03 -0.61394639736E+03  0.14453079723E+04  0.10100000352E+00 0. -1.
</event>
<event>
 5   0  0.1672907E-06  0.3002495E+04  0.7818609E-02  0.8243019E-01
       -1   -1    0    0    0  501  0.00000000000E+00  0.00000000000E+00  0.17769189560E+04  0.17769189560E+04  0.50400001928E-02 0.  1.
        1   -1    0    0  501    0  0.00000000000E+00  0.00000000000E+00 -0.12683439177E+04  0.12683439177E+04  0.50400001928E-02 0. -1.
    10030    2    1    2    0    0  0.00000000000E+00  0.00000000000E+00  0.50857503834E+03  0.30452628737E+04  0.30024951957E+04 0.  0.
        5    1    3    3  502    0 -0.12280440676E+04 -0.64564540673E+03 -0.32726628757E+03  0.14255088692E+04  0.46999998093E+01 0. -1.
       -5    1    3    3    0  502  0.12280440676E+04  0.64564540673E+03  0.83584132591E+03  0.16197540045E+04  0.46999998093E+01 0.  1.
</event>
<event>
 5   0  0.5003556E-06  0.2987059E+04  0.7818609E-02  0.8247436E-01
        2   -1    0    0  501    0  0.00000000000E+00  0.00000000000E+00  0.23758448664E+04  0.23758448664E+04  0.25500000920E-02 0.  1.
       -2   -1    0    0    0  501  0.00000000000E+00  0.00000000000E+00 -0.93887867483E+03  0.93887867483E+03  0.25500000920E-02 0. -1.
    10030    2    1    2    0    0  0.00000000000E+00  0.00000000000E+00  0.14369661916E+04  0.33147235413E+04  0.29870588075E+04 0.  0.
        3    1    3    3  502    0 -0.11394648330E+03  0.49358362241E+03 -0.84063666680E+03  0.98146757927E+03  0.10100000352E+00 0. -1.
       -3    1    3    3    0  502  0.11394648330E+03 -0.49358362241E+03  0.22776028584E+04  0.23332559620E+04  0.10100000352E+00 0.  1.
</event>
<event>
 5   0  0.1700885E-06  0.2987323E+04  0.7818609E-02  0.8247360E-01
        1   -1    0    0  501    0  0.00000000000E+00  0.00000000000E+00  0.20609559096E+04  0.20609559096E+04  0.50400001928E-02 0. -1.
       -1   -1    0    0    0  501  0.00000000000E+00  0.00000000000E+00 -0.10825190699E+04  0.10825190699E+04  0.50400001928E-02 0.  1.
    10030    2    1    2    0    0  0.00000000000E+00  0.00000000000E+00  0.97843683965E+03  0.31434749795E+04  0.29873225969E+04 0.  0.
        1    1    3    3  502    0 -0.30795201013E+03 -0.94476842949E+03  0.16626793464E+04  0.19369884964E+04  0.50400001928E-02 0. -1.
       -1    1    3    3    0  502  0.30795201013E+03  0.94476842949E+03 -0.68424250680E+03  0.12064864832E+04  0.50400001928E-02 0.  1.
</event>
<event>
 5   0  0.4768570E-06  0.2935448E+04  0.7818609E-02  0.8262408E-01
        2   -1    0    0  501    0  0.00000000000E+00  0.00000000000E+00  0.15029277212E+04  0.15029277212E+04  0.25500000920E-02 0. -1.
       -2   -1    0    0    0  501  0.00000000000E+00  0.00000000000E+00 -0.14333445779E+04  0.14333445779E+04  0.25500000920E-02 0.  1.
    10030    2    1    2    0    0  0.00000000000E+00  0.00000000000E+00  0.69583143298E+02  0.29362722991E+04  0.29354477002E+04 0.  0.
        1    1    3    3  502    0 -0.11725781564E+04  0.64330958259E+03 -0.56988344984E+03  0.14538066922E+04  0.50400001928E-02 0. -1.
       -1    1    3    3    0  502  0.11725781564E+04 -0.64330958259E+03  0.63946659314E+03  0.14824656069E+04  0.50400001928E-02 0.  1.
</event>
<event>
 5   0  0.1709858E-06  0.3086582E+04  0.7818609E-02  0.8219430E-01
       -1   -1    0    0    0  501  0.00000000000E+00  0.00000000000E+00  0.85673714306E+03  0.85673714308E+03  0.50400001928E-02 0.  1.
        1   -1    0    0  501    0  0.00000000000E+00  0.00000000000E+00 -0.27800210685E+04  0.27800210686E+04  0.50400001928E-02 0. -1.
    10030    2    1    2    0    0  0.00000000000E+00  0.00000000000E+00 -0.19232839255E+04  0.36367582116E+04  0.30865821278E+04 0.  0.
        3    1    3    3  502    0 -0.12686804957E+03  0.14400223919E+04 -0.15983181060E+04  0.21550825436E+04  0.10100000352E+00 0. -1.
       -3    1    3    3    0  502  0.12686804957E+03 -0.14400223919E+04 -0.32496581946E+03  0.14816756681E+04  0.10100000352E+00 0.  1.
</event>
<event>
 5   0  0.1734885E-06  0.2992721E+04  0.7818609E-02  0.8245813E-01
       -1   -1    0    0    0  501  0.00000000000E+00  0.00000000000E+00  0.11901401488E+04  0.11901401488E+04  0.50400001928E-02 0. -1.
        1   -1    0    0  501    0  0.00000000000E+00  0.00000000000E+00 -0.18813700718E+04  0.18813700718E+04  0.50400001928E-02 0.  1.
    10030    2    1    2    0    0  0.00000000000E+00  0.00000000000E+00 -0.69122992300E+03  0.30715102206E+04  0.29927205398E+04 0.  0.
        2    1    3    3  502    0  0.19691234422E+03 -0.85715464308E+03 -0.15881090871E+04  0.18153729716E+04  0.25500000920E-02 0.  1.
       -2    1    3    3    0  502 -0.19691234422E+03  0.85715464308E+03  0.89687916410E+03  0.12561372491E+04  0.25500000920E-02 0. -1.
</event>
<event>
 5   0  0.1672907E-06  0.2972567E+04  0.7818609E-02  0.8251608E-01
        1   -1    0    0  501    0  0.00000000000E+00  0.00000000000E+00  0.11813879294E+04  0.11813879294E+04  0.50400001928E-02 0.  1.
       -1   -1    0    0    0  501  0.00000000000E+00  0.00000000000E+00 -0.18698673349E+04  0.18698673349E+04  0.50400001928E-02 0. -1.
    10030    2    1    2    0    0  0.00000000000E+00  0.00000000000E+00 -0.68847940548E+03  0.30512552643E+04  0.29725670381E+04 0.  0.
        5    1    3    3  502    0  0.12070602900E+04  0.38021940738E+03  0.45578617536E+03  0.13451113222E+04  0.46999998093E+01 0. -1.
       -5    1    3    3    0  502 -0.12070602900E+04 -0.38021940738E+03 -0.11442655808E+04  0.17061439420E+04  0.46999998093E+01 0.  1.
</event>
<event>
 5   0  0.4935331E-06  0.3032471E+04  0.7818609E-02  0.8234519E-01
       -2   -1    0    0    0  501  0.00000000000E+00  0.00000000000E+00  0.17824855403E+04  0.17824855403E+04  0.25500000920E-02 0.  1.
        2   -1    0    0  501    0  0.00000000000E+00  0.00000000000E+00 -0.12897554187E+04  0.12897554187E+04  0.25500000920E-02 0. -1.
    10030    2    1    2    0    0  0.00000000000E+00  0.00000000000E+00  0.49273012165E+03  0.30722409590E+04  0.30324711931E+04 0.  0.
        5    1    3    3  502    0  0.15624129656E+03 -0.95254916232E+03 -0.93823720255E+03  0.13461323812E+04  0.46999998093E+01 0. -1.
       -5    1    3    3    0  502 -0.15624129656E+03  0.95254916232E+03  0.14309673242E+04  0.17261085778E+04  0.46999998093E+01 0.  1.
</event>
<event>
 5   0  0.4935331E-06  0.2794461E+04  0.7818609E-02  0.8304990E-01
        2   -1    0    0  501    0  0.00000000000E+00  0.00000000000E+00  0.16971416151E+04  0.16971416151E+04  0.25500000920E-02 0.  1.
       -2   -1    0    0    0  501  0.00000000000E+00  0.00000000000E+00 -0.11503179956E+04  0.11503179956E+04  0.25500000920E-02 0. -1.
    10030    2    1    2    0    0  0.00000000000E+00  0.00000000000E+00  0.54682361956E+03  0.28474596107E+04  0.27944606213E+04 0.  0.
        5    1    3    3  502    0 -0.23961656057E+03  0.13512976523E+04  0.61221043944E+01  0.13723997273E+04  0.46999998093E+01 0. -1.
       -5    1    3    3    0  502  0.23961656057E+03 -0.13512976523E+04  0.54070151517E+03  0.14750598835E+04  0.46999998093E+01 0.  1.
</event>
<event>
 5   0  0.4935331E-06  0.3006681E+04  0.7818609E-02  0.8241826E-01
       -2   -1    0    0    0  501  0.00000000000E+00  0.00000000000E+00  0.13511672670E+04  0.13511672670E+04  0.25500000920E-02 0. -1.
        2   -1    0    0  501    0  0.00000000000E+00  0.00000000000E+00 -0.16726515760E+04  0.16726515760E+04  0.25500000920E-02 0.  1.
    10030    2    1    2    0    0  0.00000000000E+00  0.00000000000E+00 -0.32148430904E+03  0.30238188430E+04  0.30066806007E+04 0.  0.
        5    1    3    3  502    0 -0.13572510162E+04 -0.35223187064E+03  0.38439213709E+03  0.14539522058E+04  0.46999998093E+01 0. -1.
       -5    1    3    3    0  502  0.13572510162E+04  0.35223187064E+03 -0.70587644613E+03  0.15698666373E+04  0.46999998093E+01 0.  1.
</event>
<event>
 5   0  0.1686012E-06  0.2965617E+04  0.7818609E-02  0.8253618E-01
       -1   -1    0    0    0  501  0.00000000000E+00  0.00000000000E+00  0.14360891456E+04  0.14360891456E+04  0.50400001928E-02 0. -1.
        1   -1    0    0  501    0  0.00000000000E+00  0.00000000000E+00 -0.15310475304E+04  0.15310475304E+04  0.50400001928E-02 0.  1.
    10030    2    1    2    0    0  0.00000000000E+00  0.00000000000E+00 -0.94958384813E+02  0.29671366761E+04  0.29656167924E+04 0.  0.
        4    1    3    3  502    0 -0.25640536400E+03  0.61929599366E+03 -0.13708240220E+04  0.15259198376E+04  0.12699999809E+01 0.  1.
       -4    1    3    3    0  502  0.25640536400E+03 -0.61929599366E+03  0.12758656372E+04  0.14412168385E+04  0.12699999809E+01 0. -1.
</event>
<event>
 5   0  0.4702748E-06  0.2934500E+04  0.7818609E-02  0.8262686E-01
        2   -1    0    0  501    0  0.00000000000E+00  0.00000000000E+00  0.21983707185E+04  0.21983707185E+04  0.25500000920E-02 0.  1.
       -2   -1    0    0    0  501  0.00000000000E+00  0.00000000000E+00 -0.97928091774E+03  0.97928091774E+03  0.25500000920E-02 0. -1.
    10030    2    1    2    0    0  0.00000000000E+00  0.00000000000E+00  0.12190898008E+04  0.31776516363E+04  0.29344999538E+04 0.  0.
        2    1    3    3  502    0 -0.12911003056E+04 -0.61768249055E+03  0.25974462717E+03  0.14546267321E+04  0.25500000920E-02 0. -1.
       -2    1    3    3    0  502  0.12911003056E+04  0.61768249055E+03  0.95934517361E+03  0.17230249042E+04  0.25500000920E-02 0.  1.
</event>
<event>
 5   0  0.5003556E-06  0.2992320E+04  0.7818609E-02  0.8245927E-01
       -2   -1    0    0    0  501  0.00000000000E+00  0.00000000000E+00  0.96638326535E+03  0.96638326536E+03  0.25500000920E-02 0.  1.
        2   -1    0    0  501    0  0.00000000000E+00  0.00000000000E+00 -0.23163637545E+04  0.23163637545E+04  0.25500000920E-02 0. -1.
    10030    2    1    2    0    0  0.00000000000E+00  0.00000000000E+00 -0.13499804892E+04  0.32827470199E+04  0.29923202829E+04 0.  0.
        3    1    3    3  502    0 -0.48045045262E+03  0.42150767994E+03  0.80907894260E+03  0.10310723094E+04  0.10100000352E+00 0.  1.
       -3    1    3    3    0  502  0.48045045262E+03 -0.42150767994E+03 -0.21590594318E+04  0.22516747105E+04  0.10100000352E+00 0. -1.
</event>
<event>
 5   0  0.1709858E-06  0.3008058E+04  0.7818609E-02  0.8241433E-01
        1   -1    0    0  501    0  0.00000000000E+00  0.00000000000E+00  0.15701363731E+04  0.15701363731E+04  0.50400001928E-02 0.  1.
       -1   -1    0    0    0  501  0.00000000000E+00  0.00000000000E+00 -0.14407054169E+04  0.14407054169E+04  0.50400001928E-02 0. -1.
    10030    2    1    2    0    0  0.00000000000E+00  0.00000000000E+00  0.12943095616E+03  0.30108417900E+04  0.30080584955E+04 0.  0.
        3    1    3    3  502    0  0.16869848869E+03  0.15429449981E+03  0.15526433400E+04  0.15693843774E+04  0.10100000352E+00 0.  1.
       -3    1    3    3    0  502 -0.16869848869E+03 -0.15429449981E+03 -0.14232123838E+04  0.14414574126E+04  0.10100000352E+00 0. -1.
</event>
<event>
 5   0  0.5003556E-06  0.3002019E+04  0.7818609E-02  0.8243155E-01
        2   -1    0    0  501    0  0.00000000000E+00  0.00000000000E+00  0.78564608121E+03  0.78564608121E+03  0.25500000920E-02 0.  1.
       -2   -1    0    0    0  501  0.00000000000E+00  0.00000000000E+00 -0.28677412377E+04  0.28677412377E+04  0.25500000920E-02 0. -1.
    10030    2    1    2    0    0  0.00000000000E+00  0.00000000000E+00 -0.20820951564E+04  0.36533873189E+04  0.30020190974E+04 0.  0.
        3    1    3    3  502    0  0.12889078849E+04  0.62926619447E+03 -0.50258499328E+03  0.15198194514E+04  0.10100000352E+00 0. -1.
       -3    1    3    3    0  502 -0.12889078849E+04 -0.62926619447E+03 -0.15795101632E+04  0.21335678674E+04  0.10100000352E+00 0.  1.
</event>
<event>
 5   0  0.1700885E-06  0.3034402E+04  0.7818609E-02  0.8233975E-01
        1   -1    0    0  501    0  0.00000000000E+00  0.00000000000E+00  0.20038613220E+04  0.20038613221E+04  0.50400001928E-02 0. -1.
       -1   -1    0    0    0  501  0.00000000000E+00  0.00000000000E+00 -0.11487316572E+04  0.11487316572E+04  0.50400001928E-02 0.  1.
    10030    2    1    2    0    0  0.00000000000E+00  0.00000000000E+00  0.85512966483E+03  0.31525929793E+04  0.30344020415E+04 0.  0.
        1    1    3    3  502    0  0.15140154691E+04 -0.77085733608E+02  0.49088019374E+03  0.15934705568E+04  0.50400001928E-02 0. -1.
       -1    1    3    3    0  502 -0.15140154691E+04  0.77085733608E+02  0.36424947109E+03  0.15591224224E+04  0.50400001928E-02 0.  1.
</event>
<event>
 5   0  0.4935331E-06  0.2998108E+04  0.7818609E-02  0.8244271E-01
       -2   -1    0    0    0  501  0.00000000000E+00  0.00000000000E+00  0.11845966735E+04  0.11845966735E+04  0.25500000920E-02 0.  1.
        2   -1    0    0  501    0  0.00000000000E+00  0.00000000000E+00 -0.18969858132E+04  0.18969858132E+04  0.25500000920E-02 0. -1.
    10030    2    1    2    0    0  0.00000000000E+00  0.00000000000E+00 -0.71238913973E+03  0.30815824866E+04  0.29981081261E+04 0.  0.
        5    1    3    3  502    0 -0.93751475014E+03  0.11687365320E+04 -0.30730982147E+03  0.15294902433E+04  0.46999998093E+01 0.  1.
       -5    1    3    3    0  502  0.93751475014E+03 -0.11687365320E+04 -0.40507931826E+03  0.15520922434E+04  0.46999998093E+01 0. -1.
</event>
<event>
 5   0  0.1709858E-06  0.3025974E+04  0.7818609E-02  0.8236352E-01
        1   -1    0    0  501    0  0.00000000000E+00  0.00000000000E+00  0.19743506613E+04  0.19743506613E+04  0.50400001928E-02 0. -1.
       -1   -1    0    0    0  501  0.00000000000E+00  0.00000000000E+00 -0.11594344283E+04  0.11594344283E+04  0.50400001928E-02 0.  1.
    10030    2    1    2    0    0  0.00000000000E+00  0.00000000000E+00  0.81491623299E+03  0.31337850895E+04  0.30259743093E+04 0.  0.
        3    1    3    3  502    0 -0.14034866762E+04  0.58031254871E+02 -0.17469740793E+03  0.14155075667E+04  0.10100000352E+00 0.  1.
       -3    1    3    3    0  502  0.14034866762E+04 -0.58031254871E+02  0.98961364092E+03  0.17182775228E+04  0.10100000352E+00 0. -1.
</event>
<event>
 5   0  0.4702748E-06  0.3025097E+04  0.7818609E-02  0.8236600E-01
        2   -1    0    0  501    0  0.00000000000E+00  0.00000000000E+00  0.10505043243E+04  0.10505043243E+04  0.25500000920E-02 0. -1.
       -2   -1    0    0    0  501  0.00000000000E+00  0.00000000000E+00 -0.21778141082E+04  0.21778141082E+04  0.25500000920E-02 0.  1.
    10030    2    1    2    0    0  0.00000000000E+00  0.00000000000E+00 -0.11273097839E+04  0.32283184325E+04  0.30250971146E+04 0.  0.
        2    1    3    3  502    0  0.32573280531E+03  0.12688070374E+04  0.24333947771E+03  0.13323615350E+04  0.25500000920E-02 0. -1.
       -2    1    3    3    0  502 -0.32573280531E+03 -0.12688070374E+04 -0.13706492616E+04  0.18959568975E+04  0.25500000920E-02 0.  1.
</event>
<event>
 5   0  0.1672907E-06  0.2974766E+04  0.7818609E-02  0.8250973E-01
       -1   -1    0    0    0  501  0.00000000000E+00  0.00000000000E+00  0.67324110626E+03  0.67324110628E+03  0.50400001928E-02 0. -1.
        1   -1    0    0  501    0  0.00000000000E+00  0.00000000000E+00 -0.32860567153E+04  0.32860567153E+04  0.50400001928E-02 0.  1.
    10030    2    1    2    0    0  0.00000000000E+00  0.00000000000E+00 -0.26128156090E+04  0.39592978216E+04  0.29747661813E+04 0.  0.
        5    1    3    3  502    0 -0.50336456478E+02 -0.51338971444E+03  0.55035847717E+03  0.75433368023E+03  0.46999998093E+01 0. -1.
       -5    1    3    3    0  502  0.50336456478E+02  0.51338971444E+03 -0.31631740862E+04  0.32049641413E+04  0.46999998093E+01 0.  1.
</event>
<event>
 5   0  0.1734885E-06  0.2948632E+04  0.7818609E-02  0.8258553E-01
       -1   -1    0    0    0  501  0.00000000000E+00  0.00000000000E+00  0.15959182270E+04  0.15959182270E+04  0.50400001928E-02 0. -1.
        1   -1    0    0  501    0  0.00000000000E+00  0.00000000000E+00 -0.13619796988E+04  0.13619796988E+04  0.50400001928E-02 0.  1.
    10030    2    1    2    0    0  0.00000000000E+00  0.00000000000E+00  0.23393852820E+03  0.29578979259E+04  0.29486323787E+04 0.  0.
        2    1    3    3  502    0 -0.18966866627E+02 -0.10809663163E+04  0.11224963824E+04  0.15584755524E+04  0.25500000920E-02 0. -1.
       -2    1    3    3    0  502  0.18966866627E+02  0.10809663163E+04 -0.88855785423E+03  0.13994223734E+04  0.25500000920E-02 0.  1.
</event>
<event>
 5   0  0.1672907E-06  0.2996318E+04  0.7818609E-02  0.8244783E-01
        1   -1    0    0  501    0  0.00000000000E+00  0.00000000000E+00  0.15761381110E+04  0.15761381110E+04  0.50400001928E-02 0.  1.
       -1   -1    0    0    0  501  0.00000000000E+00  0.00000000000E+00 -0.14240381911E+04  0.14240381911E+04  0.50400001928E-02 0. -1.
    10030    2    1    2    0    0  0.00000000000E+00  0.00000000000E+00  0.15209991986E+03  0.30001763021E+04  0.29963183172E+04 0.  0.
        5    1    3    3  502    0  0.97270011776E+03  0.10375599089E+04  0.54759442473E+03  0.15239940379E+04  0.46999998093E+01 0.  1.
       -5    1    3    3    0  502 -0.97270011776E+03 -0.10375599089E+04 -0.39549450487E+03  0.14761822642E+04  0.46999998093E+01 0. -1.
</event>
<event>
 5   0  0.4935331E-06  0.2968893E+04  0.7818609E-02  0.8252670E-01
        2   -1    0    0  501    0  0.00000000000E+00  0.00000000000E+00  0.14962383414E+04  0.14962383414E+04  0.25500000920E-02 0.  1.
       -2   -1    0    0    0  501  0.00000000000E+00  0.00000000000E+00 -0.14727479286E+04  0.14727479286E+04  0.25500000920E-02 0. -1.
    10030    2    1    2    0    0  0.00000000000E+00  0.00000000000E+00  0.23490412755E+02  0.29689862701E+04  0.29688933413E+04 0.  0.
        5    1    3    3  502    0  0.10695863165E+04  0.10147220390E+04 -0.16113045437E+03  0.14831253548E+04  0.46999998093E+01 0. -1.
       -5    1    3    3    0  502 -0.10695863165E+04 -0.10147220390E+04  0.18462086712E+03  0.14858609152E+04  0.46999998093E+01 0.  1.
</event>
<event>
 5   0  0.1672907E-06  0.2997032E+04  0.7818609E-02  0.8244579E-01
        1   -1    0    0  501    0  0.00000000000E+00  0.00000000000E+00  0.19073145599E+04  0.19073145599E+04  0.50400001928E-02 0. -1.
       -1   -1    0    0    0  501  0.00000000000E+00  0.00000000000E+00 -0.11773362162E+04  0.11773362162E+04  0.50400001928E-02 0.  1.
    10030    2    1    2    0    0  0.00000000000E+00  0.00000000000E+00  0.72997834370E+03  0.30846507760E+04  0.29970322033E+04 0.  0.
        5    1    3    3  502    0 -0.12601736324E+04  0.55070353879E+03  0.97754962317E+03  0.16872869724E+04  0.46999998093E+01 0. -1.
       -5    1    3    3    0  502  0.12601736324E+04 -0.55070353879E+03 -0.24757127947E+03  0.13973638037E+04  0.46999998093E+01 0.  1.
</event>
<event>
 5   0  0.4768570E-06  0.2894829E+04  0.7818609E-02  0.8274418E-01
        2   -1    0    0  501    0  0.00000000000E+00  0.00000000000E+00  0.10001914467E+04  0.10001914467E+04  0.25500000920E-02 0.  1.
       -2   -1    0    0    0  501  0.00000000000E+00  0.00000000000E+00 -0.20946078448E+04  0.20946078448E+04  0.25500000920E-02 0. -1.
    10030    2    1    2    0    0  0.00000000000E+00  0.00000000000E+00 -0.10944163981E+04  0.30947992915E+04  0.28948290800E+04 0.  0.
        1    1    3    3  502    0 -0.81118914097E+03 -0.43338883236E+03  0.64765381087E+03  0.11248596184E+04  0.50400001928E-02 0.  1.
       -1    1    3    3    0  502  0.81118914097E+03  0.43338883236E+03 -0.17420702090E+04  0.19699396731E+04  0.50400001928E-02 0. -1.
</event>
<event>
 5   0  0.4935331E-06  0.2816891E+04  0.7818609E-02  0.8298043E-01
        2   -1    0    0  501    0  0.00000000000E+00  0.00000000000E+00  0.14295321422E+04  0.14295321422E+04  0.25500000920E-02 0. -1.
       -2   -1    0    0    0  501  0.00000000000E+00  0.00000000000E+00 -0.13876699254E+04  0.13876699254E+04  0.25500000920E-02 0.  1.
    10030    2    1    2    0    0  0.00000000000E+00  0.00000000000E+00  0.41862216778E+02  0.28172020676E+04  0.28168910246E+04 0.  0.
        5    1    3    3  502    0  0.22329240098E+02  0.14080552378E+04  0.44986277052E+02  0.14089584816E+04  0.46999998093E+01 0.  1.
       -5    1    3    3    0  502 -0.22329240098E+02 -0.14080552378E+04 -0.31240602741E+01  0.14082435860E+04  0.46999998093E+01 0. -1.
</event>
<event>
 5   0  0.4935331E-06  0.2986454E+04  0.7818609E-02  0.8247610E-01
        2   -1    0    0  501    0  0.00000000000E+00  0.00000000000E+00  0.22476889068E+04  0.22476889068E+04  0.25500000920E-02 0.  1.
       -2   -1    0    0    0  501  0.00000000000E+00  0.00000000000E+00 -0.99200877434E+03  0.99200877434E+03  0.25500000920E-02 0. -1.
    10030    2    1    2    0    0  0.00000000000E+00  0.00000000000E+00  0.12556801325E+04  0.32396976812E+04  0.29864541634E+04 0.  0.
        5    1    3    3  502    0 -0.52906488405E+03  0.13082183944E+04  0.98218906886E+02  0.14145720423E+04  0.46999998093E+01 0.  1.
       -5    1    3    3    0  502  0.52906488405E+03 -0.13082183944E+04  0.11574612256E+04  0.18251256389E+04  0.46999998093E+01 0. -1.
</event>
<event>
 5   0  0.1672907E-06  0.2986332E+04  0.7818609E-02  0.8247645E-01
        1   -1    0    0  501    0  0.00000000000E+00  0.00000000000E+00  0.19852632649E+04  0.19852632649E+04  0.50400001928E-02 0.  1.
       -1   -1    0    0    0  501  0.00000000000E+00  0.00000000000E+00 -0.11230474114E+04  0.11230474114E+04  0.50400001928E-02 0. -1.
    10030    2    1    2    0    0  0.00000000000E+00  0.00000000000E+00  0.86221585353E+03  0.31083106763E+04  0.29863320449E+04 0.  0.
        5    1    3    3  502    0  0.30151495464E+03 -0.14319005454E+04  0.74034987562E+03  0.16399361171E+04  0.46999998093E+01 0. -1.
       -5    1    3    3    0  502 -0.30151495464E+03  0.14319005454E+04  0.12186597791E+03  0.14683745593E+04  0.46999998093E+01 0.  1.
</event>
<event>
 5   0  0.1672907E-06  0.3040897E+04  0.7818609E-02  0.8232148E-01
       -1   -1    0    0    0  501  0.00000000000E+00  0.00000000000E+00  0.95251505187E+03  0.95251505189E+03  0.50400001928E-02 0. -1.
        1   -1    0    0  501    0  0.00000000000E+00  0.00000000000E+00 -0.24270105440E+04  0.24270105440E+04  0.50400001928E-02 0.  1.
    10030    2    1    2    0    0  0.00000000000E+00  0.00000000000E+00 -0.14744954921E+04  0.33795255959E+04  0.30408972849E+04 0.  0.
        5    1    3    3  502    0  0.64421872658E+03 -0.54508655144E+03 -0.21428432127E+04  0.23030276248E+04  0.46999998093E+01 0.  1.
       -5    1    3    3    0  502 -0.64421872658E+03  0.54508655144E+03  0.66834772057E+03  0.10764979711E+04  0.46999998093E+01 0. -1.
</event>
<event>
 5   0  0.4935331E-06  0.3027073E+04  0.7818609E-02  0.8236042E-01
       -2   -1    0    0    0  501  0.00000000000E+00  0.00000000000E+00  0.12273577467E+04  0.12273577467E+04  0.25500000920E-02 0.  1.
        2   -1    0    0  501    0  0.00000000000E+00  0.00000000000E+00 -0.18664429850E+04  0.18664429850E+04  0.25500000920E-02 0. -1.
    10030    2    1    2    0    0  0.00000000000E+00  0.00000000000E+00 -0.63908523826E+03  0.30938007317E+04  0.30270733433E+04 0.  0.
        5    1    3    3  502    0 -0.10906397053E+04 -0.72820100095E+02  0.75042197665E+03  0.13258781870E+04  0.46999998093E+01 0.  1.
       -5    1    3    3    0  502  0.10906397053E+04  0.72820100095E+02 -0.13895072149E+04  0.17679225447E+04  0.46999998093E+01 0. -1.
</event>
<event>
 5   0  0.1686012E-06  0.2806667E+04  0.7818609E-02  0.8301201E-01
       -1   -1    0    0    0  501  0.00000000000E+00  0.00000000000E+00  0.86588449610E+03  0.86588449611E+03  0.50400001928E-02 0.  1.
        1   -1    0    0  501    0  0.00000000000E+00  0.00000000000E+00 -0.22743744013E+04  0.22743744013E+04  0.50400001928E-02 0. -1.
    10030    2    1    2    0    0  0.00000000000E+00  0.00000000000E+00 -0.14084899052E+04  0.31402588974E+04  0.28066674420E+04 0.  0.
        4    1    3    3  502    0 -0.10527510846E+03  0.84860334945E+03 -0.19492130490E+04  0.21285308587E+04  0.12699999809E+01 0. -1.
       -4    1    3    3    0  502  0.10527510846E+03 -0.84860334945E+03  0.54072314381E+03  0.10117280387E+04  0.12699999809E+01 0.  1.
</event>
<event>
 5   0  0.4768570E-06  0.2964781E+04  0.7818609E-02  0.8253860E-01
       -2   -1    0    0    0  501  0.00000000000E+00  0.00000000000E+00  0.90155392581E+03  0.90155392582E+03  0.25500000920E-02 0. -1.
        2   -1    0    0  501    0  0.00000000000E+00  0.00000000000E+00 -0.24374379301E+04  0.24374379301E+04  0.25500000920E-02 0.  1.
    10030    2    1    2    0    0  0.00000000000E+00  0.00000000000E+00 -0.15358840043E+04  0.33389918559E+04  0.29647810947E+04 0.  0.
        1    1    3    3  502    0  0.13206357669E+04  0.26834353720E+03 -0.14634626487E+04  0.19894245417E+04  0.50400001928E-02 0.  1.
       -1    1    3    3    0  502 -0.13206357669E+04 -0.26834353720E+03 -0.72421355557E+02  0.13495673142E+04  0.50400001928E-02 0. -1.
</event>
<event>
 5   0  0.1672907E-06  0.3006791E+04  0.7818609E-02  0.8241794E-01
       -1   -1    0    0    0  501  0.00000000000E+00  0.00000000000E+00  0.11659853327E+04  0.11659853327E+04  0.50400001928E-02 0.  1.
        1   -1    0    0  501    0  0.00000000000E+00  0.00000000000E+00 -0.19384450718E+04  0.19384450718E+04  0.50400001928E-02 0. -1.
    10030    2    1    2    0    0  0.00000000000E+00  0.00000000000E+00 -0.77245973916E+03  0.31044304045E+04  0.30067913276E+04 0.  0.
        5    1    3    3  502    0  0.90374719004E+03  0.84259535356E+03  0.49799769493E+03  0.13321973230E+04  0.46999998093E+01 0.  1.
       -5    1    3    3    0  502 -0.90374719004E+03 -0.84259535356E+03 -0.12704574341E+04  0.17722330815E+04  0.46999998093E+01 0. -1.
</event>
<event>
 5   0  0.1700885E-06  0.3017324E+04  0.7818609E-02  0.8238801E-01
        1   -1    0    0  501    0  0.00000000000E+00  0.00000000000E+00  0.15842207289E+04  0.15842207289E+04  0.50400001928E-02 0.  1.
       -1   -1    0    0    0  501  0.00000000000E+00  0.00000000000E+00 -0.14367069354E+04  0.14367069354E+04  0.50400001928E-02 0. -1.
    10030    2    1    2    0    0  0.00000000000E+00  0.00000000000E+00  0.14751379349E+03  0.30209276644E+04  0.30173239193E+04 0.  0.
        1    1    3    3  502    0 -0.20997991682E+03  0.10751465182E+04 -0.96480035086E+03  0.14597504301E+04  0.50400001928E-02 0. -1.
       -1    1    3    3    0  502  0.20997991682E+03 -0.10751465182E+04  0.11123141444E+04  0.15611772343E+04  0.50400001928E-02 0.  1.
</event>
<event>
 5   0  0.1700885E-06  0.2653680E+04  0.7818609E-02  0.8350192E-01
       -1   -1    0    0    0  501  0.00000000000E+00  0.00000000000E+00  0.10122340209E+04  0.10122340209E+04  0.50400001928E-02 0. -1.
        1   -1    0    0  501    0  0.00000000000E+00  0.00000000000E+00 -0.17392272547E+04  0.17392272547E+04  0.50400001928E-02 0.  1.
    10030    2    1    2    0    0  0.00000000000E+00  0.00000000000E+00 -0.72699323380E+03  0.27514612756E+04  0.26536804610E+04 0.  0.
        1    1    3    3  502    0 -0.77615819164E+03  0.10192119463E+04 -0.72160760599E+03  0.14703510013E+04  0.50400001928E-02 0.  1.
       -1    1    3    3    0  502  0.77615819164E+03 -0.10192119463E+04 -0.53856278096E+01  0.12811102743E+04  0.50400001928E-02 0. -1.
</event>
<event>
 5   0  0.1686012E-06  0.2916152E+04  0.7818609E-02  0.8268088E-01
        1   -1    0    0  501    0  0.00000000000E+00  0.00000000000E+00  0.25118730960E+04  0.25118730961E+04  0.50400001928E-02 0. -1.
       -1   -1    0    0    0  501  0.00000000000E+00  0.00000000000E+00 -0.84637454116E+03  0.84637454117E+03  0.50400001928E-02 0.  1.
    10030    2    1    2    0    0  0.00000000000E+00  0.00000000000E+00  0.16654985549E+04  0.33582476372E+04  0.29161518747E+04 0.  0.
        4    1    3    3  502    0  0.82737755227E+03 -0.86448892842E+03 -0.12667387173E+03  0.12033048675E+04  0.12699999809E+01 0.  1.
       -4    1    3    3    0  502 -0.82737755227E+03  0.86448892842E+03  0.17921724266E+04  0.21549427698E+04  0.12699999809E+01 0. -1.
</event>
<event>
 5   0  0.4532420E-06  0.2982648E+04  0.7818609E-02  0.8248703E-01
        2   -1    0    0  501    0  0.00000000000E+00  0.00000000000E+00  0.22986388966E+04  0.22986388967E+04  0.25500000920E-02 0. -1.
       -2   -1    0    0    0  501  0.00000000000E+00  0.00000000000E+00 -0.96754948564E+03  0.96754948564E+03  0.25500000920E-02 0.  1.
    10030    2    1    2    0    0  0.00000000000E+00  0.00000000000E+00  0.13310894110E+04  0.32661883823E+04  0.29826477379E+04 0.  0.
        4    1    3    3  502    0  0.51185090785E+03 -0.13704709348E+04  0.34842346815E+03  0.15038558645E+04  0.12699999809E+01 0.  1.
       -4    1    3    3    0  502 -0.51185090785E+03  0.13704709348E+04  0.98266594286E+03  0.17623325178E+04  0.12699999809E+01 0. -1.
</event>
<event>
 5   0  0.4768570E-06  0.2542051E+04  0.7818609E-02  0.8388156E-01
        2   -1    0    0  501    0  0.00000000000E+00  0.00000000000E+00  0.13445470774E+04  0.13445470774E+04  0.25500000920E-02 0.  1.
       -2   -1    0    0    0  501  0.00000000000E+00  0.00000000000E+00 -0.12015238229E+04  0.12015238229E+04  0.25500000920E-02 0. -1.
    10030    2    1    2    0    0  0.00000000000E+00  0.00000000000E+00  0.14302325450E+03  0.25460709003E+04  0.25420506246E+04 0.  0.
        1    1    3    3  502    0 -0.10388234767E+03  0.88709124242E+03  0.97725532021E+03  0.13239147916E+04  0.50400001928E-02 0.  1.
       -1    1    3    3    0  502  0.10388234767E+03 -0.88709124242E+03 -0.83423206572E+03  0.12221561087E+04  0.50400001928E-02 0. -1.
</event>
<event>
 5   0  0.1700885E-06  0.2990865E+04  0.7818609E-02  0.8246344E-01
        1   -1    0    0  501    0  0.00000000000E+00  0.00000000000E+00  0.23384647069E+04  0.23384647069E+04  0.50400001928E-02 0. -1.
       -1   -1    0    0    0  501  0.00000000000E+00  0.00000000000E+00 -0.95631898269E+03  0.95631898271E+03  0.50400001928E-02 0.  1.
    10030    2    1    2    0    0  0.00000000000E+00  0.00000000000E+00  0.13821457242E+04  0.32947836896E+04  0.29908648847E+04 0.  0.
        1    1    3    3  502    0  0.79826044620E+03  0.57009591269E+03 -0.55238196825E+03  0.11257685946E+04  0.50400001928E-02 0.  1.
       -1    1    3    3    0  502 -0.79826044620E+03 -0.57009591269E+03  0.19345276925E+04  0.21690150951E+04  0.50400001928E-02 0. -1.
</event>
<event>
 5   0  0.4935331E-06  0.2616911E+04  0.7818609E-02  0.8362480E-01
        2   -1    0    0  501    0  0.00000000000E+00  0.00000000000E+00  0.13066225060E+04  0.13066225060E+04  0.25500000920E-02 0.  1.
       -2   -1    0    0    0  501  0.00000000000E+00  0.00000000000E+00 -0.13102910065E+04  0.13102910065E+04  0.25500000920E-02 0. -1.
    10030    2    1    2    0    0  0.00000000000E+00  0.00000000000E+00 -0.36685005282E+01  0.26169135125E+04  0.26169109411E+04 0.  0.
        5    1    3    3  502    0 -0.13804219590E+03 -0.82686251379E+03  0.10027942120E+04  0.13070484254E+04  0.46999998093E+01 0.  1.
       -5    1    3    3    0  502  0.13804219590E+03  0.82686251379E+03 -0.10064627126E+04  0.13098650871E+04  0.46999998093E+01 0. -1.
</event>
<event>
 5   0  0.5003556E-06  0.2911867E+04  0.7818609E-02  0.8269355E-01
       -2   -1    0    0    0  501  0.00000000000E+00  0.00000000000E+00  0.10672890078E+04  0.10672890078E+04  0.25500000920E-02 0. -1.
        2   -1    0    0  501    0  0.00000000000E+00  0.00000000000E+00 -0.19861002141E+04  0.19861002141E+04  0.25500000920E-02 0.  1.
    10030    2    1    2    0    0  0.00000000000E+00  0.00000000000E+00 -0.91881120634E+03  0.30533892219E+04  0.29118673918E+04 0.  0.
        3    1    3    3  502    0  0.60185338857E+03 -0.10339262691E+04 -0.13294998479E+04  0.17885191883E+04  0.10100000352E+00 0.  1.
       -3    1    3    3    0  502 -0.60185338857E+03  0.10339262691E+04  0.41068864158E+03  0.12648700335E+04  0.10100000352E+00 0. -1.
</event>
<event>
 5   0  0.4532420E-06  0.2990851E+04  0.7818609E-02  0.8246348E-01
       -2   -1    0    0    0  501  0.00000000000E+00  0.00000000000E+00  0.13888794939E+04  0.13888794939E+04  0.25500000920E-02 0.  1.
        2   -1    0    0  501    0  0.00000000000E+00  0.00000000000E+00 -0.16101449156E+04  0.16101449156E+04  0.25500000920E-02 0. -1.
    10030    2    1    2    0    0  0.00000000000E+00  0.00000000000E+00 -0.22126542176E+03  0.29990244095E+04  0.29908508859E+04 0.  0.
        4    1    3    3  502    0  0.24971544643E+03 -0.63383451003E+03 -0.14455076594E+04  0.15979981215E+04  0.12699999809E+01 0. -1.
       -4    1    3    3    0  502 -0.24971544643E+03  0.63383451003E+03  0.12242422376E+04  0.14010262879E+04  0.12699999809E+01 0.  1.
</event>
<event>
 5   0  0.4702748E-06  0.3002145E+04  0.7818609E-02  0.8243119E-01
        2   -1    0    0  501    0  0.00000000000E+00  0.00000000000E+00  0.12651433270E+04  0.12651433270E+04  0.25500000920E-02 0.  1.
       -2   -1    0    0    0  501  0.00000000000E+00  0.00000000000E+00 -0.17809985674E+04  0.17809985674E+04  0.25500000920E-02 0. -1.
    10030    2    1    2    0    0  0.00000000000E+00  0.00000000000E+00 -0.51585524046E+03  0.30461418944E+04  0.30021448685E+04 0.  0.
        2    1    3    3  502    0  0.14316350438E+04  0.26275992378E+03 -0.63017856976E+03  0.15861105592E+04  0.25500000920E-02 0. -1.
       -2    1    3    3    0  502 -0.14316350438E+04 -0.26275992378E+03  0.11432332930E+03  0.14600313352E+04  0.25500000920E-02 0.  1.
</event>
<event>
 5   0  0.4702748E-06  0.3017634E+04  0.7818609E-02  0.8238713E-01
       -2   -1    0    0    0  501  0.00000000000E+00  0.00000000000E+00  0.13211995789E+04  0.13211995789E+04  0.25500000920E-02 0. -1.
        2   -1    0    0  501    0  0.00000000000E+00  0.00000000000E+00 -0.17230771500E+04  0.17230771500E+04  0.25500000920E-02 0.  1.
    10030    2    1    2    0    0  0.00000000000E+00  0.00000000000E+00 -0.40187757105E+03  0.30442767289E+04  0.30176340434E+04 0.  0.
        2    1    3    3  502    0  0.66137037856E+02  0.11117779050E+04  0.82594041073E+03  0.13865791647E+04  0.25500000920E-02 0. -1.
       -2    1    3    3    0  502 -0.66137037856E+02 -0.11117779050E+04 -0.12278179818E+04  0.16576975642E+04  0.25500000920E-02 0.  1.
</event>
<event>
 5   0  0.4702748E-06  0.3001494E+04  0.7818609E-02  0.8243305E-01
        2   -1    0    0  501    0  0.00000000000E+00  0.00000000000E+00  0.12785475827E+04  0.12785475827E+04  0.25500000920E-02 0.  1.
       -2   -1    0    0    0  501  0.00000000000E+00  0.00000000000E+00 -0.17615620881E+04  0.17615620881E+04  0.25500000920E-02 0. -1.
    10030    2    1    2    0    0  0.00000000000E+00  0.00000000000E+00 -0.48301450546E+03  0.30401096708E+04  0.30014935946E+04 0.  0.
        2    1    3    3  502    0 -0.82288852916E+03  0.97394598052E+03  0.56020940933E+03  0.13926775961E+04  0.25500000920E-02 0.  1.
       -2    1    3    3    0  502  0.82288852916E+03 -0.97394598052E+03 -0.10432239148E+04  0.16474320747E+04  0.25500000920E-02 0. -1.
</event>
<event>
 5   0  0.5003556E-06  0.3131668E+04  0.7818609E-02  0.8207100E-01
        2   -1    0    0  501    0  0.00000000000E+00  0.00000000000E+00  0.20230438505E+04  0.20230438505E+04  0.25500000920E-02 0. -1.
       -2   -1    0    0    0  501  0.00000000000E+00  0.00000000000E+00 -0.12119537276E+04  0.12119537276E+04  0.25500000920E-02 0.  1.
    10030    2    1    2    0    0  0.00000000000E+00  0.00000000000E+00  0.81109012293E+03  0.32349975781E+04  0.31316676296E+04 0.  0.
        3    1    3    3  502    0  0.10623080628E+04 -0.36637071371E+03 -0.72089798951E+03  0.13350729724E+04  0.10100000352E+00 0.  1.
       -3    1    3    3    0  502 -0.10623080628E+04  0.36637071371E+03  0.15319881124E+04  0.18999246056E+04  0.10100000352E+00 0. -1.
</event>
<event>
 5   0  0.4532420E-06  0.3018077E+04  0.7818609E-02  0.8238588E-01
        2   -1    0    0  501    0  0.00000000000E+00  0.00000000000E+00  0.15113331156E+04  0.15113331156E+04  0.25500000920E-02 0.  1.
       -2   -1    0    0    0  501  0.00000000000E+00  0.00000000000E+00 -0.15067473886E+04  0.15067473886E+04  0.25500000920E-02 0. -1.
    10030    2    1    2    0    0  0.00000000000E+00  0.00000000000E+00  0.45857270081E+01  0.30180805042E+04  0.30180770204E+04 0.  0.
        4    1    3    3  502    0  0.40066113919E+03  0.13452470682E+04 -0.55176245703E+03  0.15081984103E+04  0.12699999809E+01 0. -1.
       -4    1    3    3    0  502 -0.40066113919E+03 -0.13452470682E+04  0.55634818404E+03  0.15098820939E+04  0.12699999809E+01 0.  1.
</event>
<event>
 5   0  0.4768570E-06  0.2954191E+04  0.7818609E-02  0.8256934E-01
       -2   -1    0    0    0  501  0.00000000000E+00  0.00000000000E+00  0.90438799414E+03  0.90438799414E+03  0.25500000920E-02 0. -1.
        2   -1    0    0  501    0  0.00000000000E+00  0.00000000000E+00 -0.24124719639E+04  0.24124719639E+04  0.25500000920E-02 0.  1.
    10030    2    1    2    0    0  0.00000000000E+00  0.00000000000E+00 -0.15080839697E+04  0.33168599580E+04  0.29541907050E+04 0.  0.
        1    1    3    3  502    0 -0.42400424519E+03 -0.12923589539E+04 -0.14008160432E+04  0.19525001543E+04  0.50400001928E-02 0.  1.
       -1    1    3    3    0  502  0.42400424519E+03  0.12923589539E+04 -0.10726792654E+03  0.13643598037E+04  0.50400001928E-02 0. -1.
</event>
<event>
 5   0  0.1700885E-06  0.2982430E+04  0.7818609E-02  0.8248766E-01
        1   -1    0    0  501    0  0.00000000000E+00  0.00000000000E+00  0.16682691834E+04  0.16682691834E+04  0.50400001928E-02 0. -1.
       -1   -1    0    0    0  501  0.00000000000E+00  0.00000000000E+00 -0.13329516715E+04  0.13329516715E+04  0.50400001928E-02 0.  1.
    10030    2    1    2    0    0  0.00000000000E+00  0.00000000000E+00  0.33531751184E+03  0.30012208549E+04  0.29824300136E+04 0.  0.
        1    1    3    3  502    0 -0.30588806013E+03  0.25437502068E+03  0.16138803152E+04  0.16621924763E+04  0.50400001928E-02 0. -1.
       -1    1    3    3    0  502  0.30588806013E+03 -0.25437502068E+03 -0.12785628034E+04  0.13390283786E+04  0.50400001928E-02 0.  1.
</event>
<event>
 5   0  0.1709858E-06  0.2987030E+04  0.7818609E-02  0.8247444E-01
       -1   -1    0    0    0  501  0.00000000000E+00  0.00000000000E+00  0.97078602331E+03  0.97078602332E+03  0.50400001928E-02 0.  1.
        1   -1    0    0  501    0  0.00000000000E+00  0.00000000000E+00 -0.22977131060E+04  0.22977131060E+04  0.50400001928E-02 0. -1.
    10030    2    1    2    0    0  0.00000000000E+00  0.00000000000E+00 -0.13269270827E+04  0.32684991294E+04  0.29870304779E+04 0.  0.
        3    1    3    3  502    0 -0.29304358313E+03 -0.15365280249E+03 -0.22571016431E+04  0.22812258904E+04  0.10100000352E+00 0. -1.
       -3    1    3    3    0  502  0.29304358313E+03  0.15365280249E+03  0.93017456042E+03  0.98727323896E+03  0.10100000352E+00 0.  1.
</event>
<event>
 5   0  0.1700885E-06  0.2981324E+04  0.7818609E-02  0.8249084E-01
       -1   -1    0    0    0  501  0.00000000000E+00  0.00000000000E+00  0.10550665081E+04  0.10550665081E+04  0.50400001928E-02 0.  1.
        1   -1    0    0  501    0  0.00000000000E+00  0.00000000000E+00 -0.21060981058E+04  0.21060981058E+04  0.50400001928E-02 0. -1.
    10030    2    1    2    0    0  0.00000000000E+00  0.00000000000E+00 -0.10510315978E+04  0.31611646139E+04  0.29813242522E+04 0.  0.
        1    1    3    3  502    0  0.31543714722E+03  0.50483017165E+03  0.92356874030E+03  0.10987872015E+04  0.50400001928E-02 0.  1.
       -1    1    3    3    0  502 -0.31543714722E+03 -0.50483017165E+03 -0.19746003381E+04  0.20623774124E+04  0.50400001928E-02 0. -1.
</event>
<event>
 5   0  0.4532420E-06  0.3014489E+04  0.7818609E-02  0.8239605E-01
       -2   -1    0    0    0  501  0.00000000000E+00  0.00000000000E+00  0.11445604155E+04  0.11445604155E+04  0.25500000920E-02 0.  1.
        2   -1    0    0  501    0  0.00000000000E+00  0.00000000000E+00 -0.19848549655E+04  0.19848549655E+04  0.25500000920E-02 0. -1.
    10030    2    1    2    0    0  0.00000000000E+00  0.00000000000E+00 -0.84029455002E+03  0.31294153811E+04  0.30144892928E+04 0.  0.
        4    1    3    3  502    0 -0.97323197527E+03  0.79729707948E+03  0.44150968358E+03  0.13333399882E+04  0.12699999809E+01 0.  1.
       -4    1    3    3    0  502  0.97323197527E+03 -0.79729707948E+03 -0.12818042336E+04  0.17960753928E+04  0.12699999809E+01 0. -1.
</event>
<event>
 5   0  0.4702748E-06  0.2961062E+04  0.7818609E-02  0.8254938E-01
        2   -1    0    0  501    0  0.00000000000E+00  0.00000000000E+00  0.13689024239E+04  0.13689024239E+04  0.25500000920E-02 0. -1.
       -2   -1    0    0    0  501  0.00000000000E+00  0.00000000000E+00 -0.16012620259E+04  0.16012620259E+04  0.25500000920E-02 0.  1.
    10030    2    1    2    0    0  0.00000000000E+00  0.00000000000E+00 -0.23235960200E+03  0.29701644499E+04  0.29610616128E+04 0.  0.
        2    1    3    3  502    0  0.90199467187E+03  0.11739959754E+04 -0.12672545499E+03  0.14859072244E+04  0.25500000920E-02 0. -1.
       -2    1    3    3    0  502 -0.90199467187E+03 -0.11739959754E+04 -0.10563414701E+03  0.14842572255E+04  0.25500000920E-02 0.  1.
</event>
<event>
 5   0  0.4702748E-06  0.2988090E+04  0.7818609E-02  0.8247140E-01
       -2   -1    0    0    0  501  0.00000000000E+00  0.00000000000E+00  0.20708260433E+04  0.20708260433E+04  0.25500000920E-02 0. -1.
        2   -1    0    0  501    0  0.00000000000E+00  0.00000000000E+00 -0.10779129887E+04  0.10779129887E+04  0.25500000920E-02 0.  1.
    10030    2    1    2    0    0  0.00000000000E+00  0.00000000000E+00  0.99291305466E+03  0.31487390320E+04  0.29880898845E+04 0.  0.
        2    1    3    3  502    0  0.82120097105E+03 -0.10880353230E+03  0.18066706724E+04  0.19875281537E+04  0.25500000920E-02 0. -1.
       -2    1    3    3    0  502 -0.82120097105E+03  0.10880353230E+03 -0.81375761770E+03  0.11612108783E+04  0.25500000920E-02 0.  1.
</event>
<event>
 5   0  0.4768570E-06  0.2965386E+04  0.7818609E-02  0.8253685E-01
        2   -1    0    0  501    0  0.00000000000E+00  0.00000000000E+00  0.12404471018E+04  0.12404471018E+04  0.25500000920E-02 0. -1.
       -2   -1    0    0    0  501  0.00000000000E+00  0.00000000000E+00 -0.17722471231E+04  0.17722471231E+04  0.25500000920E-02 0.  1.
    10030    2    1    2    0    0  0.00000000000E+00  0.00000000000E+00 -0.53180002127E+03  0.30126942249E+04  0.29653861857E+04 0.  0.
        1    1    3    3  502    0 -0.39122820137E+03 -0.44181694102E+03  0.11159897620E+04  0.12624162799E+04  0.50400001928E-02 0. -1.
       -1    1    3    3    0  502  0.39122820137E+03  0.44181694102E+03 -0.16477897833E+04  0.17502779450E+04  0.50400001928E-02 0.  1.
</event>
<event>
 5   0  0.4935331E-06  0.3044810E+04  0.7818609E-02  0.8231050E-01
       -2   -1    0    0    0  501  0.00000000000E+00  0.00000000000E+00  0.11903443700E+04  0.11903443700E+04  0.25500000920E-02 0.  1.
        2   -1    0    0  501    0  0.00000000000E+00  0.00000000000E+00 -0.19470982244E+04  0.19470982244E+04  0.25500000920E-02 0. -1.
    10030    2    1    2    0    0  0.00000000000E+00  0.00000000000E+00 -0.75675385435E+03  0.31374425944E+04  0.30448102793E+04 0.  0.
        5    1    3    3  502    0  0.31521692070E+03 -0.35175828287E+03 -0.18696805470E+04  0.19284250139E+04  0.46999998093E+01 0. -1.
       -5    1    3    3    0  502 -0.31521692070E+03  0.35175828287E+03  0.11129266926E+04  0.12090175804E+04  0.46999998093E+01 0.  1.
</event>
<event>
 5   0  0.1734885E-06  0.3000094E+04  0.7818609E-02  0.8243704E-01
        1   -1    0    0  501    0  0.00000000000E+00  0.00000000000E+00  0.98756740172E+03  0.98756740173E+03  0.50400001928E-02 0. -1.
       -1   -1    0    0    0  501  0.00000000000E+00  0.00000000000E+00 -0.22784682009E+04  0.22784682009E+04  0.50400001928E-02 0.  1.
    10030    2    1    2    0    0  0.00000000000E+00  0.00000000000E+00 -0.12909007992E+04  0.32660356027E+04  0.30000939460E+04 0.  0.
        2    1    3    3  502    0 -0.14691422846E+04 -0.13703136051E+03 -0.35134655026E+03  0.15167732344E+04  0.25500000920E-02 0. -1.
       -2    1    3    3    0  502  0.14691422846E+04  0.13703136051E+03 -0.93955424896E+03  0.17492623683E+04  0.25500000920E-02 0.  1.
</event>
<event>
 5   0  0.1709858E-06  0.3002880E+04  0.7818609E-02  0.8242909E-01
       -1   -1    0    0    0  501  0.00000000000E+00  0.00000000000E+00  0.12363210709E+04  0.12363210709E+04  0.50400001928E-02 0. -1.
        1   -1    0    0  501    0  0.00000000000E+00  0.00000000000E+00 -0.18234116597E+04  0.18234116597E+04  0.50400001928E-02 0.  1.
    10030    2    1    2    0    0  0.00000000000E+00  0.00000000000E+00 -0.58709058887E+03  0.30597327306E+04  0.30028801214E+04 0.  0.
        3    1    3    3  502    0 -0.32914132386E+03  0.14461883810E+04 -0.53147731742E+03  0.15755199121E+04  0.10100000352E+00 0.  1.
       -3    1    3    3    0  502  0.32914132386E+03 -0.14461883810E+04 -0.55613271454E+02  0.14842128185E+04  0.10100000352E+00 0. -1.
</event>
<event>
 5   0  0.1700885E-06  0.3006839E+04  0.7818609E-02  0.8241781E-01
        1   -1    0    0  501    0  0.00000000000E+00  0.00000000000E+00  0.12205535446E+04  0.12205535446E+04  0.50400001928E-02 0.  1.
       -1   -1    0    0    0  501  0.00000000000E+00  0.00000000000E+00 -0.18518402448E+04  0.18518402448E+04  0.50400001928E-02 0. -1.
    10030    2    1    2    0    0  0.00000000000E+00  0.00000000000E+00 -0.63128670023E+03  0.30723937894E+04  0.30068389880E+04 0.  0.
        1    1    3    3  502    0  0.45667327628E+03 -0.14260196890E+04 -0.45344476861E+03  0.15645110396E+04  0.50400001928E-02 0.  1.
       -1    1    3    3    0  502 -0.45667327628E+03  0.14260196890E+04 -0.17784193162E+03  0.15078827499E+04  0.50400001928E-02 0. -1.
</event>
<event>
 5   0  0.1734885E-06  0.2942198E+04  0.7818609E-02  0.8260432E-01
       -1   -1    0    0    0  501  0.00000000000E+00  0.00000000000E+00  0.99998152246E+03  0.99998152247E+03  0.50400001928E-02 0.  1.
        1   -1    0    0  501    0  0.00000000000E+00  0.00000000000E+00 -0.21641719262E+04  0.21641719262E+04  0.50400001928E-02 0. -1.
    10030    2    1    2    0    0  0.00000000000E+00  0.00000000000E+00 -0.11641904037E+04  0.31641534486E+04  0.29421977756E+04 0.  0.
        2    1    3    3  502    0  0.10089706978E+04 -0.37132351690E+03  0.49775931235E+03  0.11847646839E+04  0.25500000920E-02 0.  1.
       -2    1    3    3    0  502 -0.10089706978E+04  0.37132351690E+03 -0.16619497161E+04  0.19793887647E+04  0.25500000920E-02 0. -1.
</event>
<event>
 5   0  0.5003556E-06  0.2983474E+04  0.7818609E-02  0.8248466E-01
        2   -1    0    0  501    0  0.00000000000E+00  0.00000000000E+00  0.25806722747E+04  0.25806722747E+04  0.25500000920E-02 0. -1.
       -2   -1    0    0    0  501  0.00000000000E+00  0.00000000000E+00 -0.86228686715E+03  0.86228686715E+03  0.25500000920E-02 0.  1.
    10030    2    1    2    0    0  0.00000000000E+00  0.00000000000E+00  0.17183854076E+04  0.34429591419E+04  0.29834743578E+04 0.  0.
        3    1    3    3  502    0  0.90177637013E+03 -0.10885212702E+04  0.30912731570E+03  0.14469412168E+04  0.10100000352E+00 0.  1.
       -3    1    3    3    0  502 -0.90177637013E+03  0.10885212702E+04  0.14092580919E+04  0.19960179251E+04  0.10100000352E+00 0. -1.
</event>
<event>
 5   0  0.1734885E-06  0.2433208E+04  0.7818609E-02  0.8427175E-01
       -1   -1    0    0    0  501  0.00000000000E+00  0.00000000000E+00  0.16713583510E+04  0.16713583510E+04  0.50400001928E-02 0. -1.
        1   -1    0    0  501    0  0.00000000000E+00  0.00000000000E+00 -0.88558189000E+03  0.88558189002E+03  0.50400001928E-02 0.  1.
    10030    2    1    2    0    0  0.00000000000E+00  0.00000000000E+00  0.78577646102E+03  0.25569402411E+04  0.24332075024E+04 0.  0.
        2    1    3    3  502    0  0.75507093823E+03 -0.31304980472E+03 -0.55404075291E+03  0.98746820602E+03  0.25500000920E-02 0.  1.
       -2    1    3    3    0  502 -0.75507093823E+03  0.31304980472E+03  0.13398172139E+04  0.15694720350E+04  0.25500000920E-02 0. -1.
</event>
<event>
 5   0  0.4935331E-06  0.2970295E+04  0.7818609E-02  0.8252265E-01
       -2   -1    0    0    0  501  0.00000000000E+00  0.00000000000E+00  0.10687351348E+04  0.10687351348E+04  0.25500000920E-02 0.  1.
        2   -1    0    0  501    0  0.00000000000E+00  0.00000000000E+00 -0.20638068477E+04  0.20638068477E+04  0.25500000920E-02 0. -1.
    10030    2    1    2    0    0  0.00000000000E+00  0.00000000000E+00 -0.99507171288E+03  0.31325419826E+04  0.29702948606E+04 0.  0.
        5    1    3    3  502    0 -0.22126549820E+02 -0.44054745865E+03  0.99804824073E+03  0.10911892725E+04  0.46999998093E+01 0.  1.
       -5    1    3    3    0  502  0.22126549820E+02  0.44054745865E+03 -0.19931199536E+04  0.20413527101E+04  0.46999998093E+01 0. -1.
</event>
<event>
 5   0  0.4532420E-06  0.3005092E+04  0.7818609E-02  0.8242278E-01
        2   -1    0    0  501    0  0.00000000000E+00  0.00000000000E+00  0.20498826815E+04  0.20498826815E+04  0.25500000920E-02 0. -1.
       -2   -1    0    0    0  501  0.00000000000E+00  0.00000000000E+00 -0.11013529448E+04  0.11013529448E+04  0.25500000920E-02 0.  1.
    10030    2    1    2    0    0  0.00000000000E+00  0.00000000000E+00  0.94852973676E+03  0.31512356263E+04  0.30050918973E+04 0.  0.
        4    1    3    3  502    0 -0.83165102960E+03  0.62638636942E+03 -0.66176685700E+03  0.12336694471E+04  0.12699999809E+01 0.  1.
       -4    1    3    3    0  502  0.83165102960E+03 -0.62638636942E+03  0.16102965938E+04  0.19175661792E+04  0.12699999809E+01 0. -1.
</event>
<event>
 5   0  0.1672907E-06  0.2797110E+04  0.7818609E-02  0.8304166E-01
        1   -1    0    0  501    0  0.00000000000E+00  0.00000000000E+00  0.12105218611E+04  0.12105218612E+04  0.50400001928E-02 0. -1.
       -1   -1    0    0    0  501  0.00000000000E+00  0.00000000000E+00 -0.16157961512E+04  0.16157961512E+04  0.50400001928E-02 0.  1.
    10030    2    1    2    0    0  0.00000000000E+00  0.00000000000E+00 -0.40527429009E+03  0.28263180124E+04  0.27971103405E+04 0.  0.
        5    1    3    3  502    0  0.47195007211E+03 -0.60745040598E+03 -0.13828238179E+04  0.15823895436E+04  0.46999998093E+01 0.  1.
       -5    1    3    3    0  502 -0.47195007211E+03  0.60745040598E+03  0.97754952779E+03  0.12439284688E+04  0.46999998093E+01 0. -1.
</event>
<event>
 5   0  0.1709858E-06  0.3032300E+04  0.7818609E-02  0.8234567E-01
        1   -1    0    0  501    0  0.00000000000E+00  0.00000000000E+00  0.25128408731E+04  0.25128408731E+04  0.50400001928E-02 0.  1.
       -1   -1    0    0    0  501  0.00000000000E+00  0.00000000000E+00 -0.91478591171E+03  0.91478591173E+03  0.50400001928E-02 0. -1.
    10030    2    1    2    0    0  0.00000000000E+00  0.00000000000E+00  0.15980549614E+04  0.34276267848E+04  0.30323004001E+04 0.  0.
        3    1    3    3  502    0  0.66711252913E+03  0.12854007718E+04  0.29172203296E+03  0.14772934798E+04  0.10100000352E+00 0. -1.
       -3    1    3    3    0  502 -0.66711252913E+03 -0.12854007718E+04  0.13063329284E+04  0.19503333050E+04  0.10100000352E+00 0.  1.
</event>
<event>
 5   0  0.1700885E-06  0.2962126E+04  0.7818609E-02  0.8254629E-01
        1   -1    0    0  501    0  0.00000000000E+00  0.00000000000E+00  0.17762972723E+04  0.17762972723E+04  0.50400001928E-02 0. -1.
       -1   -1    0    0    0  501  0.00000000000E+00  0.00000000000E+00 -0.12348990852E+04  0.12348990852E+04  0.50400001928E-02 0.  1.
    10030    2    1    2    0    0  0.00000000000E+00  0.00000000000E+00  0.54139818714E+03  0.30111963575E+04  0.29621261800E+04 0.  0.
        1    1    3    3  502    0 -0.13082307701E+04 -0.21315049621E+03  0.94243839683E+03  0.16263735776E+04  0.50400001928E-02 0. -1.
       -1    1    3    3    0  502  0.13082307701E+04  0.21315049621E+03 -0.40104020969E+03  0.13848227799E+04  0.50400001928E-02 0.  1.
</event>
<event>
 5   0  0.1672907E-06  0.3013502E+04  0.7818609E-02  0.8239886E-01
        1   -1    0    0  501    0  0.00000000000E+00  0.00000000000E+00  0.28915865424E+04  0.28915865424E+04  0.50400001928E-02 0. -1.
       -1   -1    0    0    0  501  0.00000000000E+00  0.00000000000E+00 -0.78513962493E+03  0.78513962495E+03  0.50400001928E-02 0.  1.
    10030    2    1    2    0    0  0.00000000000E+00  0.00000000000E+00  0.21064469174E+04  0.36767261673E+04  0.30135023965E+04 0.  0.
        5    1    3    3  502    0 -0.62433302851E+03 -0.23034908267E+03 -0.59611385588E+03  0.89343508412E+03  0.46999998093E+01 0.  1.
       -5    1    3    3    0  502  0.62433302851E+03  0.23034908267E+03  0.27025607733E+04  0.27832910832E+04  0.46999998093E+01 0. -1.
</event>
<event>
 5   0  0.4702748E-06  0.3003091E+04  0.7818609E-02  0.8242849E-01
        2   -1    0    0  501    0  0.00000000000E+00  0.00000000000E+00  0.19210441665E+04  0.19210441665E+04  0.25500000920E-02 0. -1.
       -2   -1    0    0    0  501  0.00000000000E+00  0.00000000000E+00 -0.11736528497E+04  0.11736528497E+04  0.25500000920E-02 0.  1.
    10030    2    1    2    0    0  0.00000000000E+00  0.00000000000E+00  0.74739131679E+03  0.30946970163E+04  0.30030910479E+04 0.  0.
        2    1    3    3  502    0 -0.45682209245E+03 -0.66225123752E+03 -0.93280115339E+03  0.12318202456E+04  0.25500000920E-02 0.  1.
       -2    1    3    3    0  502  0.45682209245E+03  0.66225123752E+03  0.16801924702E+04  0.18628767706E+04  0.25500000920E-02 0. -1.
</event>
<event>
 5   0  0.1734885E-06  0.2979590E+04  0.7818609E-02  0.8249583E-01
       -1   -1    0    0    0  501  0.00000000000E+00  0.00000000000E+00  0.25407524712E+04  0.25407524712E+04  0.50400001928E-02 0. -1.
        1   -1    0    0  501    0  0.00000000000E+00  0.00000000000E+00 -0.87355603568E+03  0.87355603569E+03  0.50400001928E-02 0.  1.
    10030    2    1    2    0    0  0.00000000000E+00  0.00000000000E+00  0.16671964355E+04  0.34143085069E+04  0.29795903453E+04 0.  0.
        2    1    3    3  502    0 -0.29975624950E+03  0.14503829792E+03 -0.83036329166E+03  0.89464692093E+03  0.25500000920E-02 0.  1.
       -2    1    3    3    0  502  0.29975624950E+03 -0.14503829792E+03  0.24975597271E+04  0.25196615859E+04  0.25500000920E-02 0. -1.
</event>
<event>
 5   0  0.4935331E-06  0.2981180E+04  0.7818609E-02  0.8249126E-01
       -2   -1    0    0    0  501  0.00000000000E+00  0.00000000000E+00  0.20136938132E+04  0.20136938132E+04  0.25500000920E-02 0. -1.
        2   -1    0    0  501    0  0.00000000000E+00  0.00000000000E+00 -0.11033745514E+04  0.11033745514E+04  0.25500000920E-02 0.  1.
    10030    2    1    2    0    0  0.00000000000E+00  0.00000000000E+00  0.91031926177E+03  0.31170683646E+04  0.29811799730E+04 0.  0.
        5    1    3    3  502    0  0.18323108907E+03  0.14159619747E+04  0.74911598458E+01  0.14277955573E+04  0.46999998093E+01 0.  1.
       -5    1    3    3    0  502 -0.18323108907E+03 -0.14159619747E+04  0.90282810192E+03  0.16892728073E+04  0.46999998093E+01 0. -1.
</event>
<event>
 5   0  0.1700885E-06  0.2936018E+04  0.7818609E-02  0.8262241E-01
       -1   -1    0    0    0  501  0.00000000000E+00  0.00000000000E+00  0.17977067827E+04  0.17977067827E+04  0.50400001928E-02 0. -1.
        1   -1    0    0  501    0  0.00000000000E+00  0.00000000000E+00 -0.11987777063E+04  0.11987777063E+04  0.50400001928E-02 0.  1.
    10030    2    1    2    0    0  0.00000000000E+00  0.00000000000E+00  0.59892907636E+03  0.29964844890E+04  0.29360182653E+04 0.  0.
        1    1    3    3  502    0  0.96596841399E+03 -0.57211771861E+03  0.12647966333E+04  0.16911901681E+04  0.50400001928E-02 0. -1.
       -1    1    3    3    0  502 -0.96596841399E+03  0.57211771861E+03 -0.66586755699E+03  0.13052943209E+04  0.50400001928E-02 0.  1.
</event>
<event>
 5   0  0.5003556E-06  0.2990406E+04  0.7818609E-02  0.8246476E-01
       -2   -1    0    0    0  501  0.00000000000E+00  0.00000000000E+00  0.10977961916E+04  0.10977961916E+04  0.25500000920E-02 0. -1.
        2   -1    0    0  501    0  0.00000000000E+00  0.00000000000E+00 -0.20364731918E+04  0.20364731918E+04  0.25500000920E-02 0.  1.
    10030    2    1    2    0    0  0.00000000000E+00  0.00000000000E+00 -0.93867700013E+03  0.31342693834E+04  0.29904063365E+04 0.  0.
        3    1    3    3  502    0  0.39307264004E+03  0.83288105157E+03  0.76522242310E+03  0.11973981432E+04  0.10100000352E+00 0. -1.
       -3    1    3    3    0  502 -0.39307264004E+03 -0.83288105157E+03 -0.17038994232E+04  0.19368712402E+04  0.10100000352E+00 0.  1.
</event>
<event>
 5   0  0.4935331E-06  0.3011656E+04  0.7818609E-02  0.8240410E-01
       -2   -1    0    0    0  501  0.00000000000E+00  0.00000000000E+00  0.13704206466E+04  0.13704206466E+04  0.25500000920E-02 0. -1.
        2   -1    0    0  501    0  0.00000000000E+00  0.00000000000E+00 -0.16546147462E+04  0.16546147462E+04  0.25500000920E-02 0.  1.
    10030    2    1    2    0    0  0.00000000000E+00  0.00000000000E+00 -0.28419409968E+03  0.30250353928E+04  0.30116561625E+04 0.  0.
        5    1    3    3  502    0  0.80793885717E+03  0.10297956402E+04 -0.88988532872E+03  0.15827704337E+04  0.46999998093E+01 0.  1.
       -5    1    3    3    0  502 -0.80793885717E+03 -0.10297956402E+04  0.60569122905E+03  0.14422649591E+04  0.46999998093E+01 0. -1.
</event>
<event>
 5   0  0.4935331E-06  0.2948796E+04  0.7818609E-02  0.8258506E-01
       -2   -1    0    0    0  501  0.00000000000E+00  0.00000000000E+00  0.13341303670E+04  0.13341303670E+04  0.25500000920E-02 0.  1.
        2   -1    0    0  501    0  0.00000000000E+00  0.00000000000E+00 -0.16294128522E+04  0.16294128522E+04  0.25500000920E-02 0. -1.
    10030    2    1    2    0    0  0.00000000000E+00  0.00000000000E+00 -0.29528248522E+03  0.29635432193E+04  0.29487957994E+04 0.  0.
        5    1    3    3  502    0 -0.14308772445E+04 -0.20938381769E+03 -0.43643843902E+03  0.15105468788E+04  0.46999998093E+01 0. -1.
       -5    1    3    3    0  502  0.14308772445E+04  0.20938381769E+03  0.14115595379E+03  0.14529963404E+04  0.46999998093E+01 0.  1.
</event>
<event>
 5   0  0.5003556E-06  0.2992785E+04  0.7818609E-02  0.8245794E-01
       -2   -1    0    0    0  501  0.00000000000E+00  0.00000000000E+00  0.11121413485E+04  0.11121413485E+04  0.25500000920E-02 0.  1.
        2   -1    0    0  501    0  0.00000000000E+00  0.00000000000E+00 -0.20134049735E+04  0.20134049735E+04  0.25500000920E-02 0. -1.
    10030    2    1    2    0    0  0.00000000000E+00  0.00000000000E+00 -0.90126362508E+03  0.31255463220E+04  0.29927852728E+04 0.  0.
        3    1    3    3  502    0 -0.88793681192E+03  0.61927983130E+03  0.62827464664E+03  0.12516662228E+04  0.10100000352E+00 0.  1.
       -3    1    3    3    0  502  0.88793681192E+03 -0.61927983130E+03 -0.15295382717E+04  0.18738800992E+04  0.10100000352E+00 0. -1.
</event>
<event>
 5   0  0.1700885E-06  0.2977372E+04  0.7818609E-02  0.8250222E-01
        1   -1    0    0  501    0  0.00000000000E+00  0.00000000000E+00  0.24754479216E+04  0.24754479216E+04  0.50400001928E-02 0.  1.
       -1   -1    0    0    0  501  0.00000000000E+00  0.00000000000E+00 -0.89526687852E+03  0.89526687853E+03  0.50400001928E-02 0. -1.
    10030    2    1    2    0    0  0.00000000000E+00  0.00000000000E+00  0.15801810431E+04  0.33707148002E+04  0.29773723541E+04 0.  0.
        1    1    3    3  502    0  0.25087503352E+03  0.45688356370E+03 -0.78858713501E+03  0.94527802405E+03  0.50400001928E-02 0. -1.
       -1    1    3    3    0  502 -0.25087503352E+03 -0.45688356370E+03  0.23687681781E+04  0.24254367761E+04  0.50400001928E-02 0.  1.
</event>
<event>
 5   0  0.1686012E-06  0.2960596E+04  0.7818609E-02  0.8255073E-01
        1   -1    0    0  501    0  0.00000000000E+00  0.00000000000E+00  0.16585368253E+04  0.16585368253E+04  0.50400001928E-02 0. -1.
       -1   -1    0    0    0  501  0.00000000000E+00  0.00000000000E+00 -0.13212142098E+04  0.13212142098E+04  0.50400001928E-02 0.  1.
    10030    2    1    2    0    0  0.00000000000E+00  0.00000000000E+00  0.33732261557E+03  0.29797510351E+04  0.29605961704E+04 0.  0.
        4    1    3    3  502    0 -0.13565257439E+04 -0.31405397117E+03  0.67439499191E+03  0.15471270822E+04  0.12699999809E+01 0. -1.
       -4    1    3    3    0  502  0.13565257439E+04  0.31405397117E+03 -0.33707237634E+03  0.14326239529E+04  0.12699999809E+01 0.  1.
</event>
<event>
 5   0  0.1672907E-06  0.3001949E+04  0.7818609E-02  0.8243175E-01
        1   -1    0    0  501    0  0.00000000000E+00  0.00000000000E+00  0.18278660106E+04  0.18278660106E+04  0.50400001928E-02 0. -1.
       -1   -1    0    0    0  501  0.00000000000E+00  0.00000000000E+00 -0.12325431410E+04  0.12325431410E+04  0.50400001928E-02 0.  1.
    10030    2    1    2    0    0  0.00000000000E+00  0.00000000000E+00  0.59532286955E+03  0.30604091516E+04  0.30019485099E+04 0.  0.
        5    1    3    3  502    0 -0.86545440970E+03 -0.77013484519E+03  0.12705959665E+04  0.17194636417E+04  0.46999998093E+01 0. -1.
       -5    1    3    3    0  502  0.86545440970E+03  0.77013484519E+03 -0.67527309695E+03  0.13409455099E+04  0.46999998093E+01 0.  1.
</event>
<event>
 5   0  0.4702748E-06  0.2996300E+04  0.7818609E-02  0.8244788E-01
       -2   -1    0    0    0  501  0.00000000000E+00  0.00000000000E+00  0.13901587306E+04  0.13901587307E+04  0.25500000920E-02 0. -1.
        2   -1    0    0  501    0  0.00000000000E+00  0.00000000000E+00 -0.16145308335E+04  0.16145308335E+04  0.25500000920E-02 0.  1.
    10030    2    1    2    0    0  0.00000000000E+00  0.00000000000E+00 -0.22437210284E+03  0.30046895641E+04  0.29963004750E+04 0.  0.
        2    1    3    3  502    0 -0.13094290782E+04 -0.65055462020E+03 -0.43964020777E+03  0.15267970844E+04  0.25500000920E-02 0.  1.
       -2    1    3    3    0  502  0.13094290782E+04  0.65055462020E+03  0.21526810493E+03  0.14778924797E+04  0.25500000920E-02 0. -1.
</event>
<event>
 5   0  0.1709858E-06  0.3052867E+04  0.7818609E-02  0.8228793E-01
        1   -1    0    0  501    0  0.00000000000E+00  0.00000000000E+00  0.25908181806E+04  0.25908181806E+04  0.50400001928E-02 0. -1.
       -1   -1    0    0    0  501  0.00000000000E+00  0.00000000000E+00 -0.89932976335E+03  0.89932976336E+03  0.50400001928E-02 0.  1.
    10030    2    1    2    0    0  0.00000000000E+00  0.00000000000E+00  0.16914884172E+04  0.34901479439E+04  0.30528674398E+04 0.  0.
        3    1    3    3  502    0  0.10498453465E+04  0.36178966319E+03  0.20431074373E+04  0.23253720181E+04  0.10100000352E+00 0. -1.
       -3    1    3    3    0  502 -0.10498453465E+04 -0.36178966319E+03 -0.35161902004E+03  0.11647759259E+04  0.10100000352E+00 0.  1.
</event>
<event>
 5   0  0.1686012E-06  0.3000689E+04  0.7818609E-02  0.8243534E-01
        1   -1    0    0  501    0  0.00000000000E+00  0.00000000000E+00  0.11007335705E+04  0.11007335705E+04  0.50400001928E-02 0.  1.
       -1   -1    0    0    0  501  0.00000000000E+00  0.00000000000E+00 -0.20450305504E+04  0.20450305504E+04  0.50400001928E-02 0. -1.
    10030    2    1    2    0    0  0.00000000000E+00  0.00000000000E+00 -0.94429697988E+03  0.31457641209E+04  0.30006891073E+04 0.  0.
        4    1    3    3  502    0 -0.90312399096E+03 -0.64423430196E+02 -0.17263367398E+04  0.19493648898E+04  0.12699999809E+01 0. -1.
       -4    1    3    3    0  502  0.90312399096E+03  0.64423430196E+02  0.78203975991E+03  0.11963992312E+04  0.12699999809E+01 0.  1.
</event>
<event>
 5   0  0.4532420E-06  0.2989225E+04  0.7818609E-02  0.8246815E-01
        2   -1    0    0  501    0  0.00000000000E+00  0.00000000000E+00  0.30720947725E+04  0.30720947725E+04  0.25500000920E-02 0.  1.
       -2   -1    0    0    0  501  0.00000000000E+00  0.00000000000E+00 -0.72714750898E+03  0.72714750899E+03  0.25500000920E-02 0. -1.
    10030    2    1    2    0    0  0.00000000000E+00  0.00000000000E+00  0.23449472635E+04  0.37992422814E+04  0.29892246896E+04 0.  0.
        4    1    3    3  502    0  0.75176121624E+03 -0.94057924787E+03  0.22978682269E+04  0.25942309552E+04  0.12699999809E+01 0.  1.
       -4    1    3    3    0  502 -0.75176121624E+03  0.94057924787E+03  0.47079036540E+02  0.12050113262E+04  0.12699999809E+01 0. -1.
</event>
<event>
 5   0  0.1686012E-06  0.2983657E+04  0.7818609E-02  0.8248413E-01
        1   -1    0    0  501    0  0.00000000000E+00  0.00000000000E+00  0.15571707979E+04  0.15571707979E+04  0.50400001928E-02 0.  1.
       -1   -1    0    0    0  501  0.00000000000E+00  0.00000000000E+00 -0.14292282898E+04  0.14292282898E+04  0.50400001928E-02 0. -1.
    10030    2    1    2    0    0  0.00000000000E+00  0.00000000000E+00  0.12794250804E+03  0.29863990877E+04  0.29836571897E+04 0.  0.
        4    1    3    3  502    0 -0.81844840946E+03 -0.55249835761E+03  0.11832290448E+04  0.15411504857E+04  0.12699999809E+01 0.  1.
       -4    1    3    3    0  502  0.81844840946E+03  0.55249835761E+03 -0.10552865368E+04  0.14452486020E+04  0.12699999809E+01 0. -1.
</event>
<event>
 5   0  0.1686012E-06  0.2942372E+04  0.7818609E-02  0.8260381E-01
        1   -1    0    0  501    0  0.00000000000E+00  0.00000000000E+00  0.13322718634E+04  0.13322718635E+04  0.50400001928E-02 0. -1.
       -1   -1    0    0    0  501  0.00000000000E+00  0.00000000000E+00 -0.16245848126E+04  0.16245848126E+04  0.50400001928E-02 0.  1.
    10030    2    1    2    0    0  0.00000000000E+00  0.00000000000E+00 -0.29231294920E+03  0.29568566761E+04  0.29423722645E+04 0.  0.
        4    1    3    3  502    0 -0.90277676237E+03 -0.68856116569E+03  0.79400478795E+03  0.13854846003E+04  0.12699999809E+01 0. -1.
       -4    1    3    3    0  502  0.90277676237E+03  0.68856116569E+03 -0.10863177371E+04  0.15713720758E+04  0.12699999809E+01 0.  1.
</event>
<event>
 5   0  0.1700885E-06  0.2963636E+04  0.7818609E-02  0.8254192E-01
        1   -1    0    0  501    0  0.00000000000E+00  0.00000000000E+00  0.94784651098E+03  0.94784651099E+03  0.50400001928E-02 0. -1.
       -1   -1    0    0    0  501  0.00000000000E+00  0.00000000000E+00 -0.23166043049E+04  0.23166043049E+04  0.50400001928E-02 0.  1.
    10030    2    1    2    0    0  0.00000000000E+00  0.00000000000E+00 -0.13687577940E+04  0.32644508159E+04  0.29636364877E+04 0.  0.
        1    1    3    3  502    0  0.46006904868E+02  0.11299096066E+04  0.37040492387E+03  0.11899630928E+04  0.50400001928E-02 0. -1.
       -1    1    3    3    0  502 -0.46006904868E+02 -0.11299096066E+04 -0.17391627178E+04  0.20744877232E+04  0.50400001928E-02 0.  1.
</event>
<event>
 5   0  0.4768570E-06  0.2986105E+04  0.7818609E-02  0.8247710E-01
       -2   -1    0    0    0  501  0.00000000000E+00  0.00000000000E+00  0.89195150652E+03  0.89195150652E+03  0.25500000920E-02 0. -1.
        2   -1    0    0  501    0  0.00000000000E+00  0.00000000000E+00 -0.24992450480E+04  0.24992450480E+04  0.25500000920E-02 0.  1.
    10030    2    1    2    0    0  0.00000000000E+00  0.00000000000E+00 -0.16072935414E+04  0.33911965545E+04  0.29861047441E+04 0.  0.
        1    1    3    3  502    0 -0.31026232297E+03  0.11213274810E+04  0.25900924640E+03  0.11919411976E+04  0.50400001928E-02 0. -1.
       -1    1    3    3    0  502  0.31026232297E+03 -0.11213274810E+04 -0.18663027878E+04  0.21992553569E+04  0.50400001928E-02 0.  1.
</event>
<event>
 5   0  0.1709858E-06  0.3000116E+04  0.7818609E-02  0.8243698E-01
       -1   -1    0    0    0  501  0.00000000000E+00  0.00000000000E+00  0.26377313226E+04  0.26377313226E+04  0.50400001928E-02 0.  1.
        1   -1    0    0  501    0  0.00000000000E+00  0.00000000000E+00 -0.85307147357E+03  0.85307147358E+03  0.50400001928E-02 0. -1.
    10030    2    1    2    0    0  0.00000000000E+00  0.00000000000E+00  0.17846598491E+04  0.34908027962E+04  0.30001155620E+04 0.  0.
        3    1    3    3  502    0  0.11582481645E+04 -0.93847142290E+03  0.10867027092E+04  0.18447737560E+04  0.10100000352E+00 0. -1.
       -3    1    3    3    0  502 -0.11582481645E+04  0.93847142290E+03  0.69795713981E+03  0.16460290403E+04  0.10100000352E+00 0.  1.
</event>
<event>
 5   0  0.4702748E-06  0.3028755E+04  0.7818609E-02  0.8235567E-01
       -2   -1    0    0    0  501  0.00000000000E+00  0.00000000000E+00  0.12628683976E+04  0.12628683976E+04  0.25500000920E-02 0. -1.
        2   -1    0    0  501    0  0.00000000000E+00  0.00000000000E+00 -0.18159759713E+04  0.18159759713E+04  0.25500000920E-02 0.  1.
    10030    2    1    2    0    0  0.00000000000E+00  0.00000000000E+00 -0.55310757375E+03  0.30788443689E+04  0.30287546384E+04 0.  0.
        2    1    3    3  502    0 -0.13010999026E+04 -0.52102651424E+03  0.30652546244E+03  0.14346732884E+04  0.25500000920E-02 0. -1.
       -2    1    3    3    0  502  0.13010999026E+04  0.52102651424E+03 -0.85963303619E+03  0.16441710805E+04  0.25500000920E-02 0.  1.
</event>
<event>
 5   0  0.5003556E-06  0.2924719E+04  0.7818609E-02  0.8265561E-01
        2   -1    0    0  501    0  0.00000000000E+00  0.00000000000E+00  0.13260186991E+04  0.13260186991E+04  0.25500000920E-02 0. -1.
       -2   -1    0    0    0  501  0.00000000000E+00  0.00000000000E+00 -0.16127183045E+04  0.16127183045E+04  0.25500000920E-02 0.  1.
    10030    2    1    2    0    0  0.00000000000E+00  0.00000000000E+00 -0.28669960541E+03  0.29387370036E+04  0.29247185356E+04 0.  0.
        3    1    3    3  502    0 -0.93857186420E+03 -0.36886451062E+02 -0.12695327671E+04  0.15792375412E+04  0.10100000352E+00 0.  1.
       -3    1    3    3    0  502  0.93857186420E+03  0.36886451062E+02  0.98283316168E+03  0.13594994625E+04  0.10100000352E+00 0. -1.
</event>
<event>
 5   0  0.1672907E-06  0.2990446E+04  0.7818609E-02  0.8246464E-01
        1   -1    0    0  501    0  0.00000000000E+00  0.00000000000E+00  0.15974141859E+04  0.15974141859E+04  0.50400001928E-02 0.  1.
       -1   -1    0    0    0  501  0.00000000000E+00  0.00000000000E+00 -0.13995689397E+04  0.13995689397E+04  0.50400001928E-02 0. -1.
    10030    2    1    2    0    0  0.00000000000E+00  0.00000000000E+00  0.19784524615E+03  0.29969831256E+04  0.29904456380E+04 0.  0.
        5    1    3    3  502    0 -0.11880418454E+04 -0.90704339605E+03  0.13771175409E+03  0.15010522196E+04  0.46999998093E+01 0.  1.
       -5    1    3    3    0  502  0.11880418454E+04  0.90704339605E+03  0.60133492065E+02  0.14959309060E+04  0.46999998093E+01 0. -1.
</event>
<event>
 5   0  0.4532420E-06  0.3027079E+04  0.7818609E-02  0.8236040E-01
        2   -1    0    0  501    0  0.00000000000E+00  0.00000000000E+00  0.20697107968E+04  0.20697107968E+04  0.25500000920E-02 0. -1.
       -2   -1    0    0    0  501  0.00000000000E+00  0.00000000000E+00 -0.11068219364E+04  0.11068219364E+04  0.25500000920E-02 0.  1.
    10030    2    1    2    0    0  0.00000000000E+00  0.00000000000E+00  0.96288886036E+03  0.31765327332E+04  0.30270786656E+04 0.  0.
        4    1    3    3  502    0 -0.58530063144E+03 -0.11059454433E+03 -0.97865144853E+03  0.11456737114E+04  0.12699999809E+01 0.  1.
       -4    1    3    3    0  502  0.58530063144E+03  0.11059454433E+03  0.19415403089E+04  0.20308590218E+04  0.12699999809E+01 0. -1.
</event>
<event>
 5   0  0.4532420E-06  0.2967623E+04  0.7818609E-02  0.8253037E-01
        2   -1    0    0  501    0  0.00000000000E+00  0.00000000000E+00  0.17582411016E+04  0.17582411016E+04  0.25500000920E-02 0.  1.
       -2   -1    0    0    0  501  0.00000000000E+00  0.00000000000E+00 -0.12522155231E+04  0.12522155231E+04  0.25500000920E-02 0. -1.
    10030    2    1    2    0    0  0.00000000000E+00  0.00000000000E+00  0.50602557852E+03  0.30104566247E+04  0.29676231572E+04 0.  0.
        4    1    3    3  502    0 -0.80143205596E+03 -0.11292069639E+04  0.79390044871E+03  0.15961457461E+04  0.12699999809E+01 0.  1.
       -4    1    3    3    0  502  0.80143205596E+03  0.11292069639E+04 -0.28787487019E+03  0.14143108786E+04  0.12699999809E+01 0. -1.
</event>
<event>
 5   0  0.4702748E-06  0.2962315E+04  0.7818609E-02  0.8254575E-01
        2   -1    0    0  501    0  0.00000000000E+00  0.00000000000E+00  0.15752868181E+04  0.15752868181E+04  0.25500000920E-02 0.  1.
       -2   -1    0    0    0  501  0.00000000000E+00  0.00000000000E+00 -0.13926531825E+04  0.13926531825E+04  0.25500000920E-02 0. -1.
    10030    2    1    2    0    0  0.00000000000E+00  0.00000000000E+00  0.18263363560E+03  0.29679400007E+04  0.29623154462E+04 0.  0.
        2    1    3    3  502    0  0.24843213247E+03 -0.62000365863E+03 -0.12332012768E+04  0.14024651333E+04  0.25500000920E-02 0. -1.
       -2    1    3    3    0  502 -0.24843213247E+03  0.62000365863E+03  0.14158349124E+04  0.15654748673E+04  0.25500000920E-02 0.  1.
</event>
<event>
 5   0  0.1672907E-06  0.3015094E+04  0.7818609E-02  0.8239434E-01
        1   -1    0    0  501    0  0.00000000000E+00  0.00000000000E+00  0.25671256569E+04  0.25671256569E+04  0.50400001928E-02 0. -1.
       -1   -1    0    0    0  501  0.00000000000E+00  0.00000000000E+00 -0.88530853988E+03  0.88530853990E+03  0.50400001928E-02 0.  1.
    10030    2    1    2    0    0  0.00000000000E+00  0.00000000000E+00  0.16818171170E+04  0.34524341968E+04  0.30150942055E+04 0.  0.
        5    1    3    3  502    0 -0.97208863863E+03 -0.11442609675E+04  0.99617455220E+03  0.18018532991E+04  0.46999998093E+01 0. -1.
       -5    1    3    3    0  502  0.97208863863E+03  0.11442609675E+04  0.68564256479E+03  0.16505808977E+04  0.46999998093E+01 0.  1.
</event>
<event>
 5   0  0.5003556E-06  0.3004480E+04  0.7818609E-02  0.8242453E-01
        2   -1    0    0  501    0  0.00000000000E+00  0.00000000000E+00  0.17534170333E+04  0.17534170333E+04  0.25500000920E-02 0. -1.
       -2   -1    0    0    0  501  0.00000000000E+00  0.00000000000E+00 -0.12870437688E+04  0.12870437688E+04  0.25500000920E-02 0.  1.
    10030    2    1    2    0    0  0.00000000000E+00  0.00000000000E+00  0.46637326454E+03  0.30404608021E+04  0.30044796334E+04 0.  0.
        3    1    3    3  502    0  0.92564068037E+03  0.73432242820E+03  0.11720277456E+04  0.16642383076E+04  0.10100000352E+00 0. -1.
       -3    1    3    3    0  502 -0.92564068037E+03 -0.73432242820E+03 -0.70565448105E+03  0.13762224946E+04  0.10100000352E+00 0.  1.
</event>
<event>
 5   0  0.1545375E-06  0.3017720E+04  0.7818609E-02  0.8238689E-01
        3   -1    0    0  501    0  0.00000000000E+00  0.00000000000E+00  0.13613499480E+04  0.13613499517E+04  0.10100000352E+00 0. -1.
       -3   -1    0    0    0  501  0.00000000000E+00  0.00000000000E+00 -0.16723536342E+04  0.16723536372E+04  0.10100000352E+00 0.  1.
    10030    2    1    2    0    0  0.00000000000E+00  0.00000000000E+00 -0.31100368622E+03  0.30337035889E+04  0.30177200289E+04 0.  0.
        5    1    3    3  502    0  0.54595238248E+03 -0.11276877602E+04 -0.10007241849E+04  0.16035007555E+04  0.46999998093E+01 0.  1.
       -5    1    3    3    0  502 -0.54595238248E+03  0.11276877602E+04  0.68972049869E+03  0.14302028335E+04  0.46999998093E+01 0. -1.
</event>
<event>
 5   0  0.1709858E-06  0.2878202E+04  0.7818609E-02  0.8279393E-01
       -1   -1    0    0    0  501  0.00000000000E+00  0.00000000000E+00  0.13684604260E+04  0.13684604260E+04  0.50400001928E-02 0.  1.
        1   -1    0    0  501    0  0.00000000000E+00  0.00000000000E+00 -0.15133878701E+04  0.15133878701E+04  0.50400001928E-02 0. -1.
    10030    2    1    2    0    0  0.00000000000E+00  0.00000000000E+00 -0.14492744413E+03  0.28818482961E+04  0.28782018063E+04 0.  0.
        3    1    3    3  502    0  0.13711726612E+04  0.43545782226E+03 -0.36733538676E+02  0.14391272859E+04  0.10100000352E+00 0.  1.
       -3    1    3    3    0  502 -0.13711726612E+04 -0.43545782226E+03 -0.10819390546E+03  0.14427210102E+04  0.10100000352E+00 0. -1.
</event>
<event>
 5   0  0.4532420E-06  0.2957591E+04  0.7818609E-02  0.8255946E-01
       -2   -1    0    0    0  501  0.00000000000E+00  0.00000000000E+00  0.10447480861E+04  0.10447480861E+04  0.25500000920E-02 0. -1.
        2   -1    0    0  501    0  0.00000000000E+00  0.00000000000E+00 -0.20931709866E+04  0.20931709866E+04  0.25500000920E-02 0.  1.
    10030    2    1    2    0    0  0.00000000000E+00  0.00000000000E+00 -0.10484229005E+04  0.31379190727E+04  0.29575911699E+04 0.  0.
        4    1    3    3  502    0 -0.65402833090E+03  0.87191367049E+03  0.53614860043E+03  0.12146783282E+04  0.12699999809E+01 0. -1.
       -4    1    3    3    0  502  0.65402833090E+03 -0.87191367049E+03 -0.15845715010E+04  0.19232407444E+04  0.12699999809E+01 0.  1.
</event>
<event>
 5   0  0.1686012E-06  0.3138018E+04  0.7818609E-02  0.8205381E-01
        1   -1    0    0  501    0  0.00000000000E+00  0.00000000000E+00  0.16463283716E+04  0.16463283716E+04  0.50400001928E-02 0. -1.
       -1   -1    0    0    0  501  0.00000000000E+00  0.00000000000E+00 -0.14953206140E+04  0.14953206140E+04  0.50400001928E-02 0.  1.
    10030    2    1    2    0    0  0.00000000000E+00  0.00000000000E+00  0.15100775760E+03  0.31416489856E+04  0.31380176873E+04 0.  0.
        4    1    3    3  502    0 -0.11945959147E+04  0.10046822440E+04  0.23487768921E+03  0.15784850182E+04  0.12699999809E+01 0. -1.
       -4    1    3    3    0  502  0.11945959147E+04 -0.10046822440E+04 -0.83869931610E+02  0.15631639674E+04  0.12699999809E+01 0.  1.
</event>
<event>
 5   0  0.1709858E-06  0.3042503E+04  0.7818609E-02  0.8231697E-01
       -1   -1    0    0    0  501  0.00000000000E+00  0.00000000000E+00  0.79450728990E+03  0.79450728992E+03  0.50400001928E-02 0.  1.
        1   -1    0    0  501    0  0.00000000000E+00  0.00000000000E+00 -0.29127558712E+04  0.29127558712E+04  0.50400001928E-02 0. -1.
    10030    2    1    2    0    0  0.00000000000E+00  0.00000000000E+00 -0.21182485813E+04  0.37072631611E+04  0.30425027680E+04 0.  0.
        3    1    3    3  502    0  0.14459350692E+04 -0.43806216600E+03 -0.84259225724E+03  0.17299099421E+04  0.10100000352E+00 0.  1.
       -3    1    3    3    0  502 -0.14459350692E+04  0.43806216600E+03 -0.12756563240E+04  0.19773532190E+04  0.10100000352E+00 0. -1.
</event>
<event>
 5   0  0.4702748E-06  0.2973715E+04  0.7818609E-02  0.8251277E-01
        2   -1    0    0  501    0  0.00000000000E+00  0.00000000000E+00  0.17712800460E+04  0.17712800460E+04  0.25500000920E-02 0. -1.
       -2   -1    0    0    0  501  0.00000000000E+00  0.00000000000E+00 -0.12481062924E+04  0.12481062924E+04  0.25500000920E-02 0.  1.
    10030    2    1    2    0    0  0.00000000000E+00  0.00000000000E+00  0.52317375354E+03  0.30193863384E+04  0.29737153670E+04 0.  0.
        2    1    3    3  502    0  0.43051594310E+03  0.11253146682E+04  0.11462131383E+04  0.16629737335E+04  0.25500000920E-02 0. -1.
       -2    1    3    3    0  502 -0.43051594310E+03 -0.11253146682E+04 -0.62303938479E+03  0.13564126049E+04  0.25500000920E-02 0.  1.
</event>
<event>
 5   0  0.1709858E-06  0.3017584E+04  0.7818609E-02  0.8238727E-01
        1   -1    0    0  501    0  0.00000000000E+00  0.00000000000E+00  0.18966646238E+04  0.18966646238E+04  0.50400001928E-02 0.  1.
       -1   -1    0    0    0  501  0.00000000000E+00  0.00000000000E+00 -0.12002404740E+04  0.12002404740E+04  0.50400001928E-02 0. -1.
    10030    2    1    2    0    0  0.00000000000E+00  0.00000000000E+00  0.69642414973E+03  0.30969050978E+04  0.30175842305E+04 0.  0.
        3    1    3    3  502    0  0.36083478253E+02  0.16786100889E+02 -0.11997017266E+04  0.12003616262E+04  0.10100000352E+00 0. -1.
       -3    1    3    3    0  502 -0.36083478253E+02 -0.16786100889E+02  0.18961258763E+04  0.18965434716E+04  0.10100000352E+00 0.  1.
</event>
<event>
 5   0  0.4532420E-06  0.3037867E+04  0.7818609E-02  0.8233000E-01
        2   -1    0    0  501    0  0.00000000000E+00  0.00000000000E+00  0.13663071654E+04  0.13663071654E+04  0.25500000920E-02 0.  1.
       -2   -1    0    0    0  501  0.00000000000E+00  0.00000000000E+00 -0.16886089346E+04  0.16886089346E+04  0.25500000920E-02 0. -1.
    10030    2    1    2    0    0  0.00000000000E+00  0.00000000000E+00 -0.32230176920E+03  0.30549161000E+04  0.30378666771E+04 0.  0.
        4    1    3    3  502    0 -0.48848061052E+02  0.43609551538E+03  0.13011738044E+04  0.13731789081E+04  0.12699999809E+01 0.  1.
       -4    1    3    3    0  502  0.48848061052E+02 -0.43609551538E+03 -0.16234755736E+04  0.16817371919E+04  0.12699999809E+01 0. -1.
</event>
<event>
 5   0  0.4768570E-06  0.2943425E+04  0.7818609E-02  0.8260073E-01
       -2   -1    0    0    0  501  0.00000000000E+00  0.00000000000E+00  0.10570688874E+04  0.10570688874E+04  0.25500000920E-02 0. -1.
        2   -1    0    0  501    0  0.00000000000E+00  0.00000000000E+00 -0.20490031930E+04  0.20490031930E+04  0.25500000920E-02 0.  1.
    10030    2    1    2    0    0  0.00000000000E+00  0.00000000000E+00 -0.99193430561E+03  0.31060720804E+04  0.29434248932E+04 0.  0.
        1    1    3    3  502    0 -0.63132885538E+03 -0.11259270456E+04 -0.12418856596E+04  0.17912475616E+04  0.50400001928E-02 0.  1.
       -1    1    3    3    0  502  0.63132885538E+03  0.11259270456E+04  0.24995135397E+03  0.13148245187E+04  0.50400001928E-02 0. -1.
</event>
<event>
 5   0  0.4768570E-06  0.3041324E+04  0.7818609E-02  0.8232028E-01
        2   -1    0    0  501    0  0.00000000000E+00  0.00000000000E+00  0.23733548837E+04  0.23733548837E+04  0.25500000920E-02 0. -1.
       -2   -1    0    0    0  501  0.00000000000E+00  0.00000000000E+00 -0.97432238555E+03  0.97432238555E+03  0.25500000920E-02 0.  1.
    10030    2    1    2    0    0  0.00000000000E+00  0.00000000000E+00  0.13990324981E+04  0.33476772692E+04  0.30413239170E+04 0.  0.
        1    1    3    3  502    0 -0.64890826710E+03 -0.19713233793E+02 -0.81411483538E+03  0.10412749473E+04  0.50400001928E-02 0.  1.
       -1    1    3    3    0  502  0.64890826710E+03  0.19713233793E+02  0.22131473335E+04  0.23064023219E+04  0.50400001928E-02 0. -1.
</event>
<event>
 5   0  0.5003556E-06  0.2963297E+04  0.7818609E-02  0.8254290E-01
        2   -1    0    0  501    0  0.00000000000E+00  0.00000000000E+00  0.26098351664E+04  0.26098351664E+04  0.25500000920E-02 0.  1.
       -2   -1    0    0    0  501  0.00000000000E+00  0.00000000000E+00 -0.84115727906E+03  0.84115727907E+03  0.25500000920E-02 0. -1.
    10030    2    1    2    0    0  0.00000000000E+00  0.00000000000E+00  0.17686778873E+04  0.34509924455E+04  0.29632967097E+04 0.  0.
        3    1    3    3  502    0  0.46948719582E+03 -0.64405393532E+03  0.23389244688E+04  0.24709899595E+04  0.10100000352E+00 0.  1.
       -3    1    3    3    0  502 -0.46948719582E+03  0.64405393532E+03 -0.57024658151E+03  0.98000248600E+03  0.10100000352E+00 0. -1.
</event>
<event>
 5   0  0.4935331E-06  0.2868922E+04  0.7818609E-02  0.8282185E-01
        2   -1    0    0  501    0  0.00000000000E+00  0.00000000000E+00  0.17530505697E+04  0.17530505697E+04  0.25500000920E-02 0.  1.
       -2   -1    0    0    0  501  0.00000000000E+00  0.00000000000E+00 -0.11737699905E+04  0.11737699905E+04  0.25500000920E-02 0. -1.
    10030    2    1    2    0    0  0.00000000000E+00  0.00000000000E+00  0.57928057919E+03  0.29268205601E+04  0.28689218535E+04 0.  0.
        5    1    3    3  502    0 -0.98943732394E+03  0.81535115245E+03 -0.36667206572E+03  0.13335119848E+04  0.46999998093E+01 0. -1.
       -5    1    3    3    0  502  0.98943732394E+03 -0.81535115245E+03  0.94595264491E+03  0.15933085753E+04  0.46999998093E+01 0.  1.
</event>
<event>
 5   0  0.1709858E-06  0.3013589E+04  0.7818609E-02  0.8239861E-01
        1   -1    0    0  501    0  0.00000000000E+00  0.00000000000E+00  0.10728360718E+04  0.10728360718E+04  0.50400001928E-02 0.  1.
       -1   -1    0    0    0  501  0.00000000000E+00  0.00000000000E+00 -0.21162871804E+04  0.21162871804E+04  0.50400001928E-02 0. -1.
    10030    2    1    2    0    0  0.00000000000E+00  0.00000000000E+00 -0.10434511086E+04  0.31891232522E+04  0.30135887082E+04 0.  0.
        3    1    3    3  502    0 -0.96710178855E+03 -0.11694271962E+03  0.69478423454E+03  0.11965310743E+04  0.10100000352E+00 0.  1.
       -3    1    3    3    0  502  0.96710178855E+03  0.11694271962E+03 -0.17382353431E+04  0.19925921779E+04  0.10100000352E+00 0. -1.
</event>
<event>
 5   0  0.1686012E-06  0.2952713E+04  0.7818609E-02  0.8257364E-01
        1   -1    0    0  501    0  0.00000000000E+00  0.00000000000E+00  0.17285253009E+04  0.17285253010E+04  0.50400001928E-02 0.  1.
       -1   -1    0    0    0  501  0.00000000000E+00  0.00000000000E+00 -0.12609761739E+04  0.12609761739E+04  0.50400001928E-02 0. -1.
    10030    2    1    2    0    0  0.00000000000E+00  0.00000000000E+00  0.46754912705E+03  0.29895014749E+04  0.29527134778E+04 0.  0.
        4    1    3    3  502    0  0.51446875146E+03 -0.28186995250E+03 -0.11379108581E+04  0.12802232228E+04  0.12699999809E+01 0. -1.
       -4    1    3    3    0  502 -0.51446875146E+03  0.28186995250E+03  0.16054599851E+04  0.17092782521E+04  0.12699999809E+01 0.  1.
</event>
<event>
 5   0  0.4532420E-06  0.2955345E+04  0.7818609E-02  0.8256598E-01
        2   -1    0    0  501    0  0.00000000000E+00  0.00000000000E+00  0.21409165182E+04  0.21409165182E+04  0.25500000920E-02 0.  1.
       -2   -1    0    0    0  501  0.00000000000E+00  0.00000000000E+00 -0.10198980750E+04  0.10198980750E+04  0.25500000920E-02 0. -1.
    10030    2    1    2    0    0  0.00000000000E+00  0.00000000000E+00  0.11210184432E+04  0.31608145932E+04  0.29553454185E+04 0.  0.
        4    1    3    3  502    0  0.91012407654E+03 -0.55509970761E+03  0.16549070196E+04  0.19685477837E+04  0.12699999809E+01 0.  1.
       -4    1    3    3    0  502 -0.91012407654E+03  0.55509970761E+03 -0.53388857642E+03  0.11922668095E+04  0.12699999809E+01 0. -1.
</event>
<event>
 5   0  0.1709858E-06  0.2998188E+04  0.7818609E-02  0.8244248E-01
       -1   -1    0    0    0  501  0.00000000000E+00  0.00000000000E+00  0.15945298117E+04  0.15945298117E+04  0.50400001928E-02 0. -1.
        1   -1    0    0  501    0  0.00000000000E+00  0.00000000000E+00 -0.14093702771E+04  0.14093702771E+04  0.50400001928E-02 0.  1.
    10030    2    1    2    0    0  0.00000000000E+00  0.00000000000E+00  0.18515953457E+03  0.30039000888E+04  0.29981880679E+04 0.  0.
        3    1    3    3  502    0  0.19618931815E+03 -0.13681634957E+04  0.67413484833E+03  0.15377969318E+04  0.10100000352E+00 0. -1.
       -3    1    3    3    0  502 -0.19618931815E+03  0.13681634957E+04 -0.48897531376E+03  0.14661031571E+04  0.10100000352E+00 0.  1.
</event>
<event>
 5   0  0.1686012E-06  0.3007323E+04  0.7818609E-02  0.8241643E-01
        1   -1    0    0  501    0  0.00000000000E+00  0.00000000000E+00  0.77887302962E+03  0.77887302963E+03  0.50400001928E-02 0. -1.
       -1   -1    0    0    0  501  0.00000000000E+00  0.00000000000E+00 -0.29029092660E+04  0.29029092660E+04  0.50400001928E-02 0.  1.
    10030    2    1    2    0    0  0.00000000000E+00  0.00000000000E+00 -0.21240362364E+04  0.36817822957E+04  0.30073228857E+04 0.  0.
        4    1    3    3  502    0  0.72570312920E+03  0.11551183350E+04 -0.28766926270E+03  0.13941659217E+04  0.12699999809E+01 0. -1.
       -4    1    3    3    0  502 -0.72570312920E+03 -0.11551183350E+04 -0.18363669737E+04  0.22876163740E+04  0.12699999809E+01 0.  1.
</event>
<event>
 5   0  0.1672907E-06  0.2980198E+04  0.7818609E-02  0.8249408E-01
       -1   -1    0    0    0  501  0.00000000000E+00  0.00000000000E+00  0.13060642636E+04  0.13060642636E+04  0.50400001928E-02 0.  1.
        1   -1    0    0  501    0  0.00000000000E+00  0.00000000000E+00 -0.17000655301E+04  0.17000655301E+04  0.50400001928E-02 0. -1.
    10030    2    1    2    0    0  0.00000000000E+00  0.00000000000E+00 -0.39400126656E+03  0.30061297937E+04  0.29801978691E+04 0.  0.
        5    1    3    3  502    0 -0.31952280105E+03  0.52467312210E+03 -0.15663833083E+04  0.16825443423E+04  0.46999998093E+01 0. -1.
       -5    1    3    3    0  502  0.31952280105E+03 -0.52467312210E+03  0.11723820417E+04  0.13235854514E+04  0.46999998093E+01 0.  1.
</event>
<event>
 5   0  0.1709858E-06  0.2985976E+04  0.7818609E-02  0.8247747E-01
        1   -1    0    0  501    0  0.00000000000E+00  0.00000000000E+00  0.23770003388E+04  0.23770003388E+04  0.50400001928E-02 0. -1.
       -1   -1    0    0    0  501  0.00000000000E+00  0.00000000000E+00 -0.93774175378E+03  0.93774175380E+03  0.50400001928E-02 0.  1.
    10030    2    1    2    0    0  0.00000000000E+00  0.00000000000E+00  0.14392585850E+04  0.33147420926E+04  0.29859755300E+04 0.  0.
        3    1    3    3  502    0 -0.13667864416E+04  0.59859744444E+03  0.77610704570E+03  0.16818936453E+04  0.10100000352E+00 0.  1.
       -3    1    3    3    0  502  0.13667864416E+04 -0.59859744444E+03  0.66315153935E+03  0.16328484473E+04  0.10100000352E+00 0. -1.
</event>
<event>
 5   0  0.1672907E-06  0.3003875E+04  0.7818609E-02  0.8242625E-01
        1   -1    0    0  501    0  0.00000000000E+00  0.00000000000E+00  0.81481965127E+03  0.81481965128E+03  0.50400001928E-02 0. -1.
       -1   -1    0    0    0  501  0.00000000000E+00  0.00000000000E+00 -0.27684850053E+04  0.27684850053E+04  0.50400001928E-02 0.  1.
    10030    2    1    2    0    0  0.00000000000E+00  0.00000000000E+00 -0.19536653540E+04  0.35833046566E+04  0.30038748220E+04 0.  0.
        5    1    3    3  502    0  0.10243585180E+04 -0.85105987157E+01 -0.22870687863E+04  0.25060104802E+04  0.46999998093E+01 0.  1.
       -5    1    3    3    0  502 -0.10243585180E+04  0.85105987157E+01  0.33340343226E+03  0.10772941764E+04  0.46999998093E+01 0. -1.
</event>
<event>
 5   0  0.1734885E-06  0.3018229E+04  0.7818609E-02  0.8238545E-01
        1   -1    0    0  501    0  0.00000000000E+00  0.00000000000E+00  0.14300185009E+04  0.14300185009E+04  0.50400001928E-02 0.  1.
       -1   -1    0    0    0  501  0.00000000000E+00  0.00000000000E+00 -0.15925854271E+04  0.15925854271E+04  0.50400001928E-02 0. -1.
    10030    2    1    2    0    0  0.00000000000E+00  0.00000000000E+00 -0.16256692624E+03  0.30226039280E+04  0.30182290337E+04 0.  0.
        2    1    3    3  502    0  0.13363596289E+04 -0.21457812972E+03  0.58716122456E+03  0.14753505126E+04  0.25500000920E-02 0.  1.
       -2    1    3    3    0  502 -0.13363596289E+04  0.21457812972E+03 -0.74972815079E+03  0.15472534154E+04  0.25500000920E-02 0. -1.
</event>
<event>
 5   0  0.1734885E-06  0.3003394E+04  0.7818609E-02  0.8242762E-01
        1   -1    0    0  501    0  0.00000000000E+00  0.00000000000E+00  0.28676230429E+04  0.28676230429E+04  0.50400001928E-02 0. -1.
       -1   -1    0    0    0  501  0.00000000000E+00  0.00000000000E+00 -0.78639840903E+03  0.78639840905E+03  0.50400001928E-02 0.  1.
    10030    2    1    2    0    0  0.00000000000E+00  0.00000000000E+00  0.20812246339E+04  0.36540214519E+04  0.30033942123E+04 0.  0.
        2    1    3    3  502    0 -0.41118128360E+02 -0.88542290749E+03  0.25154124588E+04  0.26670141101E+04  0.25500000920E-02 0. -1.
       -2    1    3    3    0  502  0.41118128360E+02  0.88542290749E+03 -0.43418782492E+03  0.98700734186E+03  0.25500000920E-02 0.  1.
</event>
<event>
 5   0  0.4935331E-06  0.3006382E+04  0.7818609E-02  0.8241911E-01
       -2   -1    0    0    0  501  0.00000000000E+00  0.00000000000E+00  0.97505958324E+03  0.97505958325E+03  0.25500000920E-02 0. -1.
        2   -1    0    0  501    0  0.00000000000E+00  0.00000000000E+00 -0.23173801534E+04  0.23173801534E+04  0.25500000920E-02 0.  1.
    10030    2    1    2    0    0  0.00000000000E+00  0.00000000000E+00 -0.13423205701E+04  0.32924397366E+04  0.30063823619E+04 0.  0.
        5    1    3    3  502    0  0.79051382021E+03  0.71615902258E+03  0.48875084464E+03  0.11733266057E+04  0.46999998093E+01 0. -1.
       -5    1    3    3    0  502 -0.79051382021E+03 -0.71615902258E+03 -0.18310714148E+04  0.21191131309E+04  0.46999998093E+01 0.  1.
</event>
<event>
 5   0  0.1709858E-06  0.2994686E+04  0.7818609E-02  0.8245250E-01
        1   -1    0    0  501    0  0.00000000000E+00  0.00000000000E+00  0.20708681165E+04  0.20708681165E+04  0.50400001928E-02 0. -1.
       -1   -1    0    0    0  501  0.00000000000E+00  0.00000000000E+00 -0.10826550533E+04  0.10826550533E+04  0.50400001928E-02 0.  1.
    10030    2    1    2    0    0  0.00000000000E+00  0.00000000000E+00  0.98821306319E+03  0.31535231698E+04  0.29946858474E+04 0.  0.
        3    1    3    3  502    0 -0.45051146659E+03  0.10061389806E+04  0.15611426992E+04  0.19111365119E+04  0.10100000352E+00 0. -1.
       -3    1    3    3    0  502  0.45051146659E+03 -0.10061389806E+04 -0.57292963596E+03  0.12423866579E+04  0.10100000352E+00 0.  1.
</event>
<event>
 5   0  0.4935331E-06  0.2579109E+04  0.7818609E-02  0.8375332E-01
        2   -1    0    0  501    0  0.00000000000E+00  0.00000000000E+00  0.18615800944E+04  0.18615800944E+04  0.25500000920E-02 0.  1.
       -2   -1    0    0    0  501  0.00000000000E+00  0.00000000000E+00 -0.89330068870E+03  0.89330068870E+03  0.25500000920E-02 0. -1.
    10030    2    1    2    0    0  0.00000000000E+00  0.00000000000E+00  0.96827940568E+03  0.27548807831E+04  0.25791089782E+04 0.  0.
        5    1    3    3  502    0 -0.71974853526E+03 -0.57564249642E+03 -0.47928761346E+03  0.10388170889E+04  0.46999998093E+01 0. -1.
       -5    1    3    3    0  502  0.71974853526E+03  0.57564249642E+03  0.14475670191E+04  0.17160636942E+04  0.46999998093E+01 0.  1.
</event>
<event>
 5   0  0.1709858E-06  0.2976221E+04  0.7818609E-02  0.8250554E-01
       -1   -1    0    0    0  501  0.00000000000E+00  0.00000000000E+00  0.96995021143E+03  0.96995021144E+03  0.50400001928E-02 0. -1.
        1   -1    0    0  501    0  0.00000000000E+00  0.00000000000E+00 -0.22830781586E+04  0.22830781586E+04  0.50400001928E-02 0.  1.
    10030    2    1    2    0    0  0.00000000000E+00  0.00000000000E+00 -0.13131279472E+04  0.32530283701E+04  0.29762205178E+04 0.  0.
        3    1    3    3  502    0  0.10419647531E+04 -0.48846597238E+03 -0.16878100045E+04  0.20427902913E+04  0.10100000352E+00 0.  1.
       -3    1    3    3    0  502 -0.10419647531E+04  0.48846597238E+03  0.37468205732E+03  0.12102380787E+04  0.10100000352E+00 0. -1.
</event>
<event>
 5   0  0.4532420E-06  0.3010242E+04  0.7818609E-02  0.8240812E-01
        2   -1    0    0  501    0  0.00000000000E+00  0.00000000000E+00  0.13154441153E+04  0.13154441153E+04  0.25500000920E-02 0. -1.
       -2   -1    0    0    0  501  0.00000000000E+00  0.00000000000E+00 -0.17221479177E+04  0.17221479177E+04  0.25500000920E-02 0.  1.
    10030    2    1    2    0    0  0.00000000000E+00  0.00000000000E+00 -0.40670380242E+03  0.30375920329E+04  0.30102420792E+04 0.  0.
        4    1    3    3  502    0 -0.76772212066E+03  0.69508505857E+03  0.89874666491E+03  0.13712358199E+04  0.12699999809E+01 0. -1.
       -4    1    3    3    0  502  0.76772212066E+03 -0.69508505857E+03 -0.13054504673E+04  0.16663562130E+04  0.12699999809E+01 0.  1.
</event>
<event>
 5   0  0.1686012E-06  0.2991961E+04  0.7818609E-02  0.8246030E-01
       -1   -1    0    0    0  501  0.00000000000E+00  0.00000000000E+00  0.13961032744E+04  0.13961032744E+04  0.50400001928E-02 0.  1.
        1   -1    0    0  501    0  0.00000000000E+00  0.00000000000E+00 -0.16030028256E+04  0.16030028256E+04  0.50400001928E-02 0. -1.
    10030    2    1    2    0    0  0.00000000000E+00  0.00000000000E+00 -0.20689955124E+03  0.29991061000E+04  0.29919608912E+04 0.  0.
        4    1    3    3  502    0  0.13385992111E+04 -0.57067331141E+03  0.24442368634E+03  0.14755542781E+04  0.12699999809E+01 0.  1.
       -4    1    3    3    0  502 -0.13385992111E+04  0.57067331141E+03 -0.45132323758E+03  0.15235518219E+04  0.12699999809E+01 0. -1.
</event>
<event>
 5   0  0.4532420E-06  0.3008090E+04  0.7818609E-02  0.8241424E-01
       -2   -1    0    0    0  501  0.00000000000E+00  0.00000000000E+00  0.12529730734E+04  0.12529730734E+04  0.25500000920E-02 0.  1.
        2   -1    0    0  501    0  0.00000000000E+00  0.00000000000E+00 -0.18054271852E+04  0.18054271852E+04  0.25500000920E-02 0. -1.
    10030    2    1    2    0    0  0.00000000000E+00  0.00000000000E+00 -0.55245411187E+03  0.30584002586E+04  0.30080901908E+04 0.  0.
        4    1    3    3  502    0 -0.48020273447E+03  0.67580958496E+03  0.99968647207E+03  0.12987254970E+04  0.12699999809E+01 0.  1.
       -4    1    3    3    0  502  0.48020273447E+03 -0.67580958496E+03 -0.15521405839E+04  0.17596747616E+04  0.12699999809E+01 0. -1.
</event>
<event>
 5   0  0.4702748E-06  0.3014227E+04  0.7818609E-02  0.8239680E-01
        2   -1    0    0  501    0  0.00000000000E+00  0.00000000000E+00  0.18335397825E+04  0.18335397825E+04  0.25500000920E-02 0. -1.
       -2   -1    0    0    0  501  0.00000000000E+00  0.00000000000E+00 -0.12388014736E+04  0.12388014736E+04  0.25500000920E-02 0.  1.
    10030    2    1    2    0    0  0.00000000000E+00  0.00000000000E+00  0.59473830889E+03  0.30723412561E+04  0.30142274529E+04 0.  0.
        2    1    3    3  502    0  0.89807471556E+03 -0.90109460764E+03 -0.52622036594E+03  0.13767416461E+04  0.25500000920E-02 0.  1.
       -2    1    3    3    0  502 -0.89807471556E+03  0.90109460764E+03  0.11209586748E+04  0.16955996100E+04  0.25500000920E-02 0. -1.
</event>
<event>
 5   0  0.1700885E-06  0.3006326E+04  0.7818609E-02  0.8241927E-01
        1   -1    0    0  501    0  0.00000000000E+00  0.00000000000E+00  0.24193041714E+04  0.24193041715E+04  0.50400001928E-02 0. -1.
       -1   -1    0    0    0  501  0.00000000000E+00  0.00000000000E+00 -0.93394608819E+03  0.93394608820E+03  0.50400001928E-02 0.  1.
    10030    2    1    2    0    0  0.00000000000E+00  0.00000000000E+00  0.14853580833E+04  0.33532502597E+04  0.30063264408E+04 0.  0.
        1    1    3    3  502    0 -0.73446070520E+03  0.12239065892E+04  0.21699660438E+03  0.14437684693E+04  0.50400001928E-02 0. -1.
       -1    1    3    3    0  502  0.73446070520E+03 -0.12239065892E+04  0.12683614789E+04  0.19094817904E+04  0.50400001928E-02 0.  1.
</event>
<event>
 5   0  0.1700885E-06  0.3013325E+04  0.7818609E-02  0.8239936E-01
        1   -1    0    0  501    0  0.00000000000E+00  0.00000000000E+00  0.17107183154E+04  0.17107183154E+04  0.50400001928E-02 0.  1.
       -1   -1    0    0    0  501  0.00000000000E+00  0.00000000000E+00 -0.13269464870E+04  0.13269464870E+04  0.50400001928E-02 0. -1.
    10030    2    1    2    0    0  0.00000000000E+00  0.00000000000E+00  0.38377182847E+03  0.30376648024E+04  0.30133248473E+04 0.  0.
        1    1    3    3  502    0 -0.13661310857E+04  0.23557929759E+02 -0.44819368033E+03  0.14379661660E+04  0.50400001928E-02 0. -1.
       -1    1    3    3    0  502  0.13661310857E+04 -0.23557929759E+02  0.83196550880E+03  0.15996986364E+04  0.50400001928E-02 0.  1.
</event>
<event>
 5   0  0.4935331E-06  0.2999870E+04  0.7818609E-02  0.8243768E-01
        2   -1    0    0  501    0  0.00000000000E+00  0.00000000000E+00  0.15976778217E+04  0.15976778217E+04  0.25500000920E-02 0. -1.
       -2   -1    0    0    0  501  0.00000000000E+00  0.00000000000E+00 -0.14081721992E+04  0.14081721992E+04  0.25500000920E-02 0.  1.
    10030    2    1    2    0    0  0.00000000000E+00  0.00000000000E+00  0.18950562258E+03  0.30058500209E+04  0.29998703251E+04 0.  0.
        5    1    3    3  502    0  0.10932833991E+04  0.16794401738E+03 -0.92033596265E+03  0.14389281281E+04  0.46999998093E+01 0.  1.
       -5    1    3    3    0  502 -0.10932833991E+04 -0.16794401738E+03  0.11098415852E+04  0.15669218928E+04  0.46999998093E+01 0. -1.
</event>
<event>
 5   0  0.5003556E-06  0.2999631E+04  0.7818609E-02  0.8243836E-01
       -2   -1    0    0    0  501  0.00000000000E+00  0.00000000000E+00  0.13803814465E+04  0.13803814465E+04  0.25500000920E-02 0. -1.
        2   -1    0    0  501    0  0.00000000000E+00  0.00000000000E+00 -0.16295830385E+04  0.16295830385E+04  0.25500000920E-02 0.  1.
    10030    2    1    2    0    0  0.00000000000E+00  0.00000000000E+00 -0.24920159193E+03  0.30099644850E+04  0.29996307719E+04 0.  0.
        3    1    3    3  502    0  0.25726982518E+03 -0.14755112302E+04 -0.20313296947E+03  0.15114840942E+04  0.10100000352E+00 0.  1.
       -3    1    3    3    0  502 -0.25726982518E+03  0.14755112302E+04 -0.46068622466E+02  0.14984803908E+04  0.10100000352E+00 0. -1.
</event>
<event>
 5   0  0.4935331E-06  0.3007424E+04  0.7818609E-02  0.8241614E-01
       -2   -1    0    0    0  501  0.00000000000E+00  0.00000000000E+00  0.11171486598E+04  0.11171486598E+04  0.25500000920E-02 0.  1.
        2   -1    0    0  501    0  0.00000000000E+00  0.00000000000E+00 -0.20240361195E+04  0.20240361195E+04  0.25500000920E-02 0. -1.
    10030    2    1    2    0    0  0.00000000000E+00  0.00000000000E+00 -0.90688745976E+03  0.31411847793E+04  0.30074236404E+04 0.  0.
        5    1    3    3  502    0 -0.11113102019E+04  0.10128274754E+04 -0.47145266222E+03  0.15757917256E+04  0.46999998093E+01 0. -1.
       -5    1    3    3    0  502  0.11113102019E+04 -0.10128274754E+04 -0.43543479754E+03  0.15653930537E+04  0.46999998093E+01 0.  1.
</event>
<event>
 5   0  0.1734885E-06  0.3012332E+04  0.7818609E-02  0.8240218E-01
       -1   -1    0    0    0  501  0.00000000000E+00  0.00000000000E+00  0.12870125319E+04  0.12870125319E+04  0.50400001928E-02 0.  1.
        1   -1    0    0  501    0  0.00000000000E+00  0.00000000000E+00 -0.17626371640E+04  0.17626371640E+04  0.50400001928E-02 0. -1.
    10030    2    1    2    0    0  0.00000000000E+00  0.00000000000E+00 -0.47562463205E+03  0.30496496959E+04  0.30123320662E+04 0.  0.
        2    1    3    3  502    0 -0.18461666294E+03  0.13225659201E+04 -0.94305698961E+03  0.16348150999E+04  0.25500000920E-02 0. -1.
       -2    1    3    3    0  502  0.18461666294E+03 -0.13225659201E+04  0.46743235756E+03  0.14148345960E+04  0.25500000920E-02 0.  1.
</event>
<event>
 5   0  0.4532420E-06  0.2689410E+04  0.7818609E-02  0.8338449E-01
       -2   -1    0    0    0  501  0.00000000000E+00  0.00000000000E+00  0.16431259563E+04  0.16431259563E+04  0.25500000920E-02 0.  1.
        2   -1    0    0  501    0  0.00000000000E+00  0.00000000000E+00 -0.11004829143E+04  0.11004829143E+04  0.25500000920E-02 0. -1.
    10030    2    1    2    0    0  0.00000000000E+00  0.00000000000E+00  0.54264304196E+03  0.27436088706E+04  0.26894103747E+04 0.  0.
        4    1    3    3  502    0 -0.47695393787E+03 -0.68814392056E+03 -0.80212104063E+03  0.11594942393E+04  0.12699999809E+01 0. -1.
       -4    1    3    3    0  502  0.47695393787E+03  0.68814392056E+03  0.13447640826E+04  0.15841146313E+04  0.12699999809E+01 0.  1.
</event>
<event>
 5   0  0.1709858E-06  0.2990245E+04  0.7818609E-02  0.8246522E-01
       -1   -1    0    0    0  501  0.00000000000E+00  0.00000000000E+00  0.22786614031E+04  0.22786614031E+04  0.50400001928E-02 0. -1.
        1   -1    0    0  501    0  0.00000000000E+00  0.00000000000E+00 -0.98101068143E+03  0.98101068145E+03  0.50400001928E-02 0.  1.
    10030    2    1    2    0    0  0.00000000000E+00  0.00000000000E+00  0.12976507217E+04  0.32596720845E+04  0.29902449236E+04 0.  0.
        3    1    3    3  502    0  0.14346747999E+04  0.36175024204E+03  0.41442516631E+03  0.15365231035E+04  0.10100000352E+00 0.  1.
       -3    1    3    3    0  502 -0.14346747999E+04 -0.36175024204E+03  0.88322555534E+03  0.17231489810E+04  0.10100000352E+00 0. -1.
</event>
<event>
 5   0  0.5003556E-06  0.2894176E+04  0.7818609E-02  0.8274612E-01
        2   -1    0    0  501    0  0.00000000000E+00  0.00000000000E+00  0.11855588572E+04  0.11855588572E+04  0.25500000920E-02 0.  1.
       -2   -1    0    0    0  501  0.00000000000E+00  0.00000000000E+00 -0.17663094469E+04  0.17663094469E+04  0.25500000920E-02 0. -1.
    10030    2    1    2    0    0  0.00000000000E+00  0.00000000000E+00 -0.58075058974E+03  0.29518683041E+04  0.28941760896E+04 0.  0.
        3    1    3    3  502    0 -0.68335255035E+03  0.59980333672E+03  0.85782253380E+03  0.12500377036E+04  0.10100000352E+00 0.  1.
       -3    1    3    3    0  502  0.68335255035E+03 -0.59980333672E+03 -0.14385731235E+04  0.17018306005E+04  0.10100000352E+00 0. -1.
</event>
<event>
 5   0  0.1700885E-06  0.2987611E+04  0.7818609E-02  0.8247277E-01
       -1   -1    0    0    0  501  0.00000000000E+00  0.00000000000E+00  0.13589330865E+04  0.13589330865E+04  0.50400001928E-02 0. -1.
        1   -1    0    0  501    0  0.00000000000E+00  0.00000000000E+00 -0.16420638372E+04  0.16420638373E+04  0.50400001928E-02 0.  1.
    10030    2    1    2    0    0  0.00000000000E+00  0.00000000000E+00 -0.28313075077E+03  0.30009969237E+04  0.29876110045E+04 0.  0.
        1    1    3    3  502    0 -0.24183066491E+03  0.10140655785E+04 -0.12162392269E+04  0.16018891737E+04  0.50400001928E-02 0.  1.
       -1    1    3    3    0  502  0.24183066491E+03 -0.10140655785E+04  0.93310847609E+03  0.13991077500E+04  0.50400001928E-02 0. -1.
</event>
<event>
 5   0  0.4935331E-06  0.3031343E+04  0.7818609E-02  0.8234837E-01
        2   -1    0    0  501    0  0.00000000000E+00  0.00000000000E+00  0.19793060956E+04  0.19793060956E+04  0.25500000920E-02 0.  1.
       -2   -1    0    0    0  501  0.00000000000E+00  0.00000000000E+00 -0.11606392359E+04  0.11606392359E+04  0.25500000920E-02 0. -1.
    10030    2    1    2    0    0  0.00000000000E+00  0.00000000000E+00  0.81866685968E+03  0.31399453315E+04  0.30313431441E+04 0.  0.
        5    1    3    3  502    0 -0.11364779467E+04 -0.37066300360E+03  0.13745241621E+04  0.18216234374E+04  0.46999998093E+01 0.  1.
       -5    1    3    3    0  502  0.11364779467E+04  0.37066300360E+03 -0.55585730247E+03  0.13183218940E+04  0.46999998093E+01 0. -1.
</event>
<event>
 5   0  0.1686012E-06  0.3010970E+04  0.7818609E-02  0.8240605E-01
        1   -1    0    0  501    0  0.00000000000E+00  0.00000000000E+00  0.14909499892E+04  0.14909499892E+04  0.50400001928E-02 0.  1.
       -1   -1    0    0    0  501  0.00000000000E+00  0.00000000000E+00 -0.15201615943E+04  0.15201615943E+04  0.50400001928E-02 0. -1.
    10030    2    1    2    0    0  0.00000000000E+00  0.00000000000E+00 -0.29211605090E+02  0.30111115836E+04  0.30109698854E+04 0.  0.
        4    1    3    3  502    0 -0.10834047748E+04  0.66730511223E+03  0.79005699539E+03  0.14977495411E+04  0.12699999809E+01 0.  1.
       -4    1    3    3    0  502  0.10834047748E+04 -0.66730511223E+03 -0.81926860048E+03  0.15133620425E+04  0.12699999809E+01 0. -1.
</event>
<event>
 5   0  0.4702748E-06  0.2988590E+04  0.7818609E-02  0.8246997E-01
        2   -1    0    0  501    0  0.00000000000E+00  0.00000000000E+00  0.16093504904E+04  0.16093504904E+04  0.25500000920E-02 0.  1.
       -2   -1    0    0    0  501  0.00000000000E+00  0.00000000000E+00 -0.13874649261E+04  0.13874649261E+04  0.25500000920E-02 0. -1.
    10030    2    1    2    0    0  0.00000000000E+00  0.00000000000E+00  0.22188556433E+03  0.29968154165E+04  0.29885898743E+04 0.  0.
        2    1    3    3  502    0  0.24109198030E+03  0.78118219030E+03 -0.11433181573E+04  0.14055416629E+04  0.25500000920E-02 0. -1.
       -2    1    3    3    0  502 -0.24109198030E+03 -0.78118219030E+03  0.13652037216E+04  0.15912737536E+04  0.25500000920E-02 0.  1.
</event>
<event>
 5   0  0.5003556E-06  0.2953902E+04  0.7818609E-02  0.8257018E-01
        2   -1    0    0  501    0  0.00000000000E+00  0.00000000000E+00  0.13389828583E+04  0.13389828583E+04  0.25500000920E-02 0. -1.
       -2   -1    0    0    0  501  0.00000000000E+00  0.00000000000E+00 -0.16291350751E+04  0.16291350751E+04  0.25500000920E-02 0.  1.
    10030    2    1    2    0    0  0.00000000000E+00  0.00000000000E+00 -0.29015221680E+03  0.29681179334E+04  0.29539017853E+04 0.  0.
        3    1    3    3  502    0  0.11530845997E+04  0.54279839132E+03  0.60494082421E+03  0.14107400890E+04  0.10100000352E+00 0. -1.
       -3    1    3    3    0  502 -0.11530845997E+04 -0.54279839132E+03 -0.89509304101E+03  0.15573778443E+04  0.10100000352E+00 0.  1.
</event>
<event>
 5   0  0.1672907E-06  0.2864746E+04  0.7818609E-02  0.8283444E-01
        1   -1    0    0  501    0  0.00000000000E+00  0.00000000000E+00  0.18346715570E+04  0.18346715570E+04  0.50400001928E-02 0. -1.
       -1   -1    0    0    0  501  0.00000000000E+00  0.00000000000E+00 -0.11182890315E+04  0.11182890315E+04  0.50400001928E-02 0.  1.
    10030    2    1    2    0    0  0.00000000000E+00  0.00000000000E+00  0.71638252548E+03  0.29529605886E+04  0.28647464661E+04 0.  0.
        5    1    3    3  502    0 -0.57320155936E+03 -0.42824771901E+03  0.16372532961E+04  0.17867782689E+04  0.46999998093E+01 0. -1.
       -5    1    3    3    0  502  0.57320155936E+03  0.42824771901E+03 -0.92087077064E+03  0.11661823197E+04  0.46999998093E+01 0.  1.
</event>
<event>
 5   0  0.1734885E-06  0.3022285E+04  0.7818609E-02  0.8237396E-01
        1   -1    0    0  501    0  0.00000000000E+00  0.00000000000E+00  0.81399328721E+03  0.81399328722E+03  0.50400001928E-02 0.  1.
       -1   -1    0    0    0  501  0.00000000000E+00  0.00000000000E+00 -0.28053698366E+04  0.28053698366E+04  0.50400001928E-02 0. -1.
    10030    2    1    2    0    0  0.00000000000E+00  0.00000000000E+00 -0.19913765493E+04  0.36193631238E+04  0.30222853705E+04 0.  0.
        2    1    3    3  502    0 -0.12425520826E+03 -0.17896974810E+03 -0.27864616050E+04  0.27949665121E+04  0.25500000920E-02 0. -1.
       -2    1    3    3    0  502  0.12425520826E+03  0.17896974810E+03  0.79508505569E+03  0.82439661166E+03  0.25500000920E-02 0.  1.
</event>
<event>
 5   0  0.4532420E-06  0.2988534E+04  0.7818609E-02  0.8247013E-01
        2   -1    0    0  501    0  0.00000000000E+00  0.00000000000E+00  0.16548460542E+04  0.16548460542E+04  0.25500000920E-02 0. -1.
       -2   -1    0    0    0  501  0.00000000000E+00  0.00000000000E+00 -0.13492695300E+04  0.13492695300E+04  0.25500000920E-02 0.  1.
    10030    2    1    2    0    0  0.00000000000E+00  0.00000000000E+00  0.30557652422E+03  0.30041155842E+04  0.29885336590E+04 0.  0.
        4    1    3    3  502    0 -0.15672664882E+03 -0.79655634044E+03  0.14138276008E+04  0.16303298266E+04  0.12699999809E+01 0. -1.
       -4    1    3    3    0  502  0.15672664882E+03  0.79655634044E+03 -0.11082510766E+04  0.13737857575E+04  0.12699999809E+01 0.  1.
</event>
<event>
 5   0  0.4702748E-06  0.2999797E+04  0.7818609E-02  0.8243789E-01
        2   -1    0    0  501    0  0.00000000000E+00  0.00000000000E+00  0.15710567403E+04  0.15710567403E+04  0.25500000920E-02 0.  1.
       -2   -1    0    0    0  501  0.00000000000E+00  0.00000000000E+00 -0.14319636017E+04  0.14319636017E+04  0.25500000920E-02 0. -1.
    10030    2    1    2    0    0  0.00000000000E+00  0.00000000000E+00  0.13909313853E+03  0.30030203420E+04  0.29997973720E+04 0.  0.
        2    1    3    3  502    0  0.76560468540E+02  0.12217582725E+04 -0.79806866800E+03  0.14613241873E+04  0.25500000920E-02 0. -1.
       -2    1    3    3    0  502 -0.76560468540E+02 -0.12217582725E+04  0.93716180653E+03  0.15416961547E+04  0.25500000920E-02 0.  1.
</event>
<event>
 5   0  0.1734885E-06  0.2988761E+04  0.7818609E-02  0.8246947E-01
       -1   -1    0    0    0  501  0.00000000000E+00  0.00000000000E+00  0.11992411694E+04  0.11992411694E+04  0.50400001928E-02 0.  1.
        1   -1    0    0  501    0  0.00000000000E+00  0.00000000000E+00 -0.18621555850E+04  0.18621555850E+04  0.50400001928E-02 0. -1.
    10030    2    1    2    0    0  0.00000000000E+00  0.00000000000E+00 -0.66291441555E+03  0.30613967544E+04  0.29887613765E+04 0.  0.
        2    1    3    3  502    0 -0.68130691495E+03 -0.34665457409E+03  0.98381509536E+03  0.12458895007E+04  0.25500000920E-02 0.  1.
       -2    1    3    3    0  502  0.68130691495E+03  0.34665457409E+03 -0.16467295109E+04  0.18155072537E+04  0.25500000920E-02 0. -1.
</event>
<event>
 5   0  0.4702748E-06  0.2995271E+04  0.7818609E-02  0.8245083E-01
        2   -1    0    0  501    0  0.00000000000E+00  0.00000000000E+00  0.16219148827E+04  0.16219148827E+04  0.25500000920E-02 0. -1.
       -2   -1    0    0    0  501  0.00000000000E+00  0.00000000000E+00 -0.13828789444E+04  0.13828789444E+04  0.25500000920E-02 0.  1.
    10030    2    1    2    0    0  0.00000000000E+00  0.00000000000E+00  0.23903593827E+03  0.30047938271E+04  0.29952708999E+04 0.  0.
        2    1    3    3  502    0 -0.13405092071E+04  0.77048957451E+01  0.78938914192E+03  0.15556861885E+04  0.25500000920E-02 0. -1.
       -2    1    3    3    0  502  0.13405092071E+04 -0.77048957451E+01 -0.55035320366E+03  0.14491076387E+04  0.25500000920E-02 0.  1.
</event>
<event>
 5   0  0.4935331E-06  0.2972009E+04  0.7818609E-02  0.8251769E-01
       -2   -1    0    0    0  501  0.00000000000E+00  0.00000000000E+00  0.86298093646E+03  0.86298093646E+03  0.25500000920E-02 0.  1.
        2   -1    0    0  501    0  0.00000000000E+00  0.00000000000E+00 -0.25588156326E+04  0.25588156326E+04  0.25500000920E-02 0. -1.
    10030    2    1    2    0    0  0.00000000000E+00  0.00000000000E+00 -0.16958346961E+04  0.34217965690E+04  0.29720088229E+04 0.  0.
        5    1    3    3  502    0 -0.55522417103E+03  0.11819571260E+03 -0.24290502047E+04  0.24945041779E+04  0.46999998093E+01 0. -1.
       -5    1    3    3    0  502  0.55522417103E+03 -0.11819571260E+03  0.73321550861E+03  0.92729239112E+03  0.46999998093E+01 0.  1.
</event>
<event>
 5   0  0.4532420E-06  0.2962414E+04  0.7818609E-02  0.8254546E-01
        2   -1    0    0  501    0  0.00000000000E+00  0.00000000000E+00  0.13131602755E+04  0.13131602755E+04  0.25500000920E-02 0. -1.
       -2   -1    0    0    0  501  0.00000000000E+00  0.00000000000E+00 -0.16707588018E+04  0.16707588018E+04  0.25500000920E-02 0.  1.
    10030    2    1    2    0    0  0.00000000000E+00  0.00000000000E+00 -0.35759852623E+03  0.29839190773E+04  0.29624139403E+04 0.  0.
        4    1    3    3  502    0 -0.14207111446E+04  0.31314646604E+03 -0.45919321430E+03  0.15255624820E+04  0.12699999809E+01 0. -1.
       -4    1    3    3    0  502  0.14207111446E+04 -0.31314646604E+03  0.10159468807E+03  0.14583565953E+04  0.12699999809E+01 0.  1.
</event>
<event>
 5   0  0.4702748E-06  0.3005477E+04  0.7818609E-02  0.8242169E-01
       -2   -1    0    0    0  501  0.00000000000E+00  0.00000000000E+00  0.16960151304E+04  0.16960151304E+04  0.25500000920E-02 0.  1.
        2   -1    0    0  501    0  0.00000000000E+00  0.00000000000E+00 -0.13314873380E+04  0.13314873380E+04  0.25500000920E-02 0. -1.
    10030    2    1    2    0    0  0.00000000000E+00  0.00000000000E+00  0.36452779234E+03  0.30275024684E+04  0.30054767816E+04 0.  0.
        2    1    3    3  502    0  0.98826819664E+03  0.10495949290E+04 -0.24498963185E+03  0.14623075816E+04  0.25500000920E-02 0. -1.
       -2    1    3    3    0  502 -0.98826819664E+03 -0.10495949290E+04  0.60951742418E+03  0.15651948868E+04  0.25500000920E-02 0.  1.
</event>
<event>
 5   0  0.1545375E-06  0.2626451E+04  0.7818609E-02  0.8359271E-01
       -4   -1    0    0    0  501  0.00000000000E+00  0.00000000000E+00  0.16703886779E+04  0.16703891607E+04  0.12699999809E+01 0.  1.
        4   -1    0    0  501    0  0.00000000000E+00  0.00000000000E+00 -0.10324302537E+04  0.10324310348E+04  0.12699999809E+01 0. -1.
    10030    2    1    2    0    0  0.00000000000E+00  0.00000000000E+00  0.63795842425E+03  0.27028201955E+04  0.26264512290E+04 0.  0.
        3    1    3    3  502    0 -0.10566834506E+04  0.49512842484E+03 -0.30088857719E+03  0.12051000033E+04  0.10100000352E+00 0. -1.
       -3    1    3    3    0  502  0.10566834506E+04 -0.49512842484E+03  0.93884700144E+03  0.14977201922E+04  0.10100000352E+00 0.  1.
</event>
<event>
 5   0  0.1700885E-06  0.2979731E+04  0.7818609E-02  0.8249543E-01
        1   -1    0    0  501    0  0.00000000000E+00  0.00000000000E+00  0.85154215214E+03  0.85154215215E+03  0.50400001928E-02 0. -1.
       -1   -1    0    0    0  501  0.00000000000E+00  0.00000000000E+00 -0.26066812819E+04  0.26066812819E+04  0.50400001928E-02 0.  1.
    10030    2    1    2    0    0  0.00000000000E+00  0.00000000000E+00 -0.17551391298E+04  0.34582234341E+04  0.29797308528E+04 0.  0.
        1    1    3    3  502    0 -0.56383396667E+03 -0.78309711807E+03  0.43985727210E+03  0.10604830306E+04  0.50400001928E-02 0. -1.
       -1    1    3    3    0  502  0.56383396667E+03  0.78309711807E+03 -0.21949964019E+04  0.23977404035E+04  0.50400001928E-02 0.  1.
</event>
<event>
 5   0  0.5003556E-06  0.2985812E+04  0.7818609E-02  0.8247794E-01
        2   -1    0    0  501    0  0.00000000000E+00  0.00000000000E+00  0.20079700575E+04  0.20079700575E+04  0.25500000920E-02 0.  1.
       -2   -1    0    0    0  501  0.00000000000E+00  0.00000000000E+00 -0.11099606435E+04  0.11099606435E+04  0.25500000920E-02 0. -1.
    10030    2    1    2    0    0  0.00000000000E+00  0.00000000000E+00  0.89800941406E+03  0.31179307010E+04  0.29858116064E+04 0.  0.
        3    1    3    3  502    0 -0.34411917717E+03 -0.26417016922E+03  0.19406966698E+04  0.19885943429E+04  0.10100000352E+00 0.  1.
       -3    1    3    3    0  502  0.34411917717E+03  0.26417016922E+03 -0.10426872557E+04  0.11293363581E+04  0.10100000352E+00 0. -1.
</event>
<event>
 5   0  0.1700885E-06  0.2975925E+04  0.7818609E-02  0.8250639E-01
       -1   -1    0    0    0  501  0.00000000000E+00  0.00000000000E+00  0.90541885377E+03  0.90541885378E+03  0.50400001928E-02 0.  1.
        1   -1    0    0  501    0  0.00000000000E+00  0.00000000000E+00 -0.24453120998E+04  0.24453120998E+04  0.50400001928E-02 0. -1.
    10030    2    1    2    0    0  0.00000000000E+00  0.00000000000E+00 -0.15398932460E+04  0.33507309536E+04  0.29759245142E+04 0.  0.
        1    1    3    3  502    0  0.40988344703E+03  0.12074545717E+04 -0.16333944650E+04  0.20721796402E+04  0.50400001928E-02 0. -1.
       -1    1    3    3    0  502 -0.40988344703E+03 -0.12074545717E+04  0.93501218980E+02  0.12785513134E+04  0.50400001928E-02 0.  1.
</event>
<event>
 5   0  0.4702748E-06  0.2957741E+04  0.7818609E-02  0.8255902E-01
        2   -1    0    0  501    0  0.00000000000E+00  0.00000000000E+00  0.15358512713E+04  0.15358512713E+04  0.25500000920E-02 0.  1.
       -2   -1    0    0    0  501  0.00000000000E+00  0.00000000000E+00 -0.14240038028E+04  0.14240038028E+04  0.25500000920E-02 0. -1.
    10030    2    1    2    0    0  0.00000000000E+00  0.00000000000E+00  0.11184746853E+03  0.29598550741E+04  0.29577410643E+04 0.  0.
        2    1    3    3  502    0 -0.10525318415E+04 -0.39343701998E+03  0.10180900529E+04  0.15162860290E+04  0.25500000920E-02 0.  1.
       -2    1    3    3    0  502  0.10525318415E+04  0.39343701998E+03 -0.90624258440E+03  0.14435690450E+04  0.25500000920E-02 0. -1.
</event>
<event>
 5   0  0.4935331E-06  0.2998621E+04  0.7818609E-02  0.8244125E-01
        2   -1    0    0  501    0  0.00000000000E+00  0.00000000000E+00  0.18517036868E+04  0.18517036868E+04  0.25500000920E-02 0.  1.
       -2   -1    0    0    0  501  0.00000000000E+00  0.00000000000E+00 -0.12139803914E+04  0.12139803914E+04  0.25500000920E-02 0. -1.
    10030    2    1    2    0    0  0.00000000000E+00  0.00000000000E+00  0.63772329545E+03  0.30656840782E+04  0.29986209940E+04 0.  0.
        5    1    3    3  502    0  0.27038755218E+02  0.11471951628E+03 -0.12092292048E+04  0.12149687327E+04  0.46999998093E+01 0. -1.
       -5    1    3    3    0  502 -0.27038755218E+02 -0.11471951628E+03  0.18469525003E+04  0.18507153455E+04  0.46999998093E+01 0.  1.
</event>
<event>
 5   0  0.1709858E-06  0.3005887E+04  0.7818609E-02  0.8242052E-01
       -1   -1    0    0    0  501  0.00000000000E+00  0.00000000000E+00  0.12109896379E+04  0.12109896379E+04  0.50400001928E-02 0. -1.
        1   -1    0    0  501    0  0.00000000000E+00  0.00000000000E+00 -0.18652830919E+04  0.18652830919E+04  0.50400001928E-02 0.  1.
    10030    2    1    2    0    0  0.00000000000E+00  0.00000000000E+00 -0.65429345408E+03  0.30762727298E+04  0.30058865554E+04 0.  0.
        3    1    3    3  502    0  0.72625850964E+03  0.58920172450E+03 -0.15312288984E+04  0.17942329962E+04  0.10100000352E+00 0.  1.
       -3    1    3    3    0  502 -0.72625850964E+03 -0.58920172450E+03  0.87693544433E+03  0.12820397337E+04  0.10100000352E+00 0. -1.
</event>
<event>
 5   0  0.1700885E-06  0.3000797E+04  0.7818609E-02  0.8243503E-01
       -1   -1    0    0    0  501  0.00000000000E+00  0.00000000000E+00  0.13578863006E+04  0.13578863006E+04  0.50400001928E-02 0.  1.
        1   -1    0    0  501    0  0.00000000000E+00  0.00000000000E+00 -0.16578677169E+04  0.16578677169E+04  0.50400001928E-02 0. -1.
    10030    2    1    2    0    0  0.00000000000E+00  0.00000000000E+00 -0.29998141622E+03  0.30157540175E+04  0.30007971348E+04 0.  0.
        1    1    3    3  502    0  0.13446157346E+03 -0.25029431414E+03  0.13306034876E+04  0.13606001615E+04  0.50400001928E-02 0.  1.
       -1    1    3    3    0  502 -0.13446157346E+03  0.25029431414E+03 -0.16305849038E+04  0.16551538560E+04  0.50400001928E-02 0. -1.
</event>
<event>
 5   0  0.1672907E-06  0.3043076E+04  0.7818609E-02  0.8231536E-01
        1   -1    0    0  501    0  0.00000000000E+00  0.00000000000E+00  0.18636484164E+04  0.18636484164E+04  0.50400001928E-02 0.  1.
       -1   -1    0    0    0  501  0.00000000000E+00  0.00000000000E+00 -0.12422284803E+04  0.12422284803E+04  0.50400001928E-02 0. -1.
    10030    2    1    2    0    0  0.00000000000E+00  0.00000000000E+00  0.62141993613E+03  0.31058768967E+04  0.30430755102E+04 0.  0.
        5    1    3    3  502    0 -0.12344528973E+04 -0.21812187171E+03  0.11908309029E+04  0.17290319361E+04  0.46999998093E+01 0.  1.
       -5    1    3    3    0  502  0.12344528973E+04  0.21812187171E+03 -0.56941096678E+03  0.13768449607E+04  0.46999998093E+01 0. -1.
</event>
<event>
 5   0  0.1545375E-06  0.3077401E+04  0.7818609E-02  0.8221968E-01
       -3   -1    0    0    0  501  0.00000000000E+00  0.00000000000E+00  0.81870372022E+03  0.81870372645E+03  0.10100000352E+00 0.  1.
        3   -1    0    0  501    0  0.00000000000E+00  0.00000000000E+00 -0.28918872821E+04  0.28918872838E+04  0.10100000352E+00 0. -1.
    10030    2    1    2    0    0  0.00000000000E+00  0.00000000000E+00 -0.20731835618E+04  0.37105910103E+04  0.30774007806E+04 0.  0.
        5    1    3    3  502    0 -0.11400443872E+04  0.66005944796E+03 -0.19952974281E+04  0.23909440805E+04  0.46999998093E+01 0. -1.
       -5    1    3    3    0  502  0.11400443872E+04 -0.66005944796E+03 -0.77886133780E+02  0.13196469298E+04  0.46999998093E+01 0.  1.
</event>
<event>
 5   0  0.1709858E-06  0.2929096E+04  0.7818609E-02  0.8264273E-01
        1   -1    0    0  501    0  0.00000000000E+00  0.00000000000E+00  0.14385887732E+04  0.14385887732E+04  0.50400001928E-02 0. -1.
       -1   -1    0    0    0  501  0.00000000000E+00  0.00000000000E+00 -0.14909756239E+04  0.14909756240E+04  0.50400001928E-02 0.  1.
    10030    2    1    2    0    0  0.00000000000E+00  0.00000000000E+00 -0.52386850788E+02  0.29295643971E+04  0.29290959654E+04 0.  0.
        3    1    3    3  502    0  0.86478997865E+03 -0.36006876934E+03 -0.11521574396E+04  0.14849168332E+04  0.10100000352E+00 0.  1.
       -3    1    3    3    0  502 -0.86478997865E+03  0.36006876934E+03  0.10997705888E+04  0.14446475639E+04  0.10100000352E+00 0. -1.
</event>
<event>
 5   0  0.4935331E-06  0.2985012E+04  0.7818609E-02  0.8248024E-01
       -2   -1    0    0    0  501  0.00000000000E+00  0.00000000000E+00  0.88473786388E+03  0.88473786388E+03  0.25500000920E-02 0.  1.
        2   -1    0    0  501    0  0.00000000000E+00  0.00000000000E+00 -0.25177782555E+04  0.25177782555E+04  0.25500000920E-02 0. -1.
    10030    2    1    2    0    0  0.00000000000E+00  0.00000000000E+00 -0.16330403916E+04  0.34025161194E+04  0.29850117289E+04 0.  0.
        5    1    3    3  502    0  0.73276390620E+03  0.93147983609E+03 -0.18505711501E+04  0.21975516601E+04  0.46999998093E+01 0. -1.
       -5    1    3    3    0  502 -0.73276390620E+03 -0.93147983609E+03  0.21753075846E+03  0.12049644593E+04  0.46999998093E+01 0.  1.
</event>
<event>
 5   0  0.1545375E-06  0.2993288E+04  0.7818609E-02  0.8245650E-01
       -3   -1    0    0    0  501  0.00000000000E+00  0.00000000000E+00  0.24986662109E+04  0.24986662129E+04  0.10100000352E+00 0. -1.
        3   -1    0    0  501    0  0.00000000000E+00  0.00000000000E+00 -0.89645539016E+03  0.89645539585E+03  0.10100000352E+00 0.  1.
    10030    2    1    2    0    0  0.00000000000E+00  0.00000000000E+00  0.16022108208E+04  0.33951216088E+04  0.29932876949E+04 0.  0.
        5    1    3    3  502    0  0.75752478907E+03 -0.12489464240E+04  0.11707539948E+04  0.18720037346E+04  0.46999998093E+01 0.  1.
       -5    1    3    3    0  502 -0.75752478907E+03  0.12489464240E+04  0.43145682596E+03  0.15231178742E+04  0.46999998093E+01 0. -1.
</event>
<event>
 5   0  0.4935331E-06  0.2984945E+04  0.7818609E-02  0.8248043E-01
        2   -1    0    0  501    0  0.00000000000E+00  0.00000000000E+00  0.11252482740E+04  0.11252482740E+04  0.25500000920E-02 0.  1.
       -2   -1    0    0    0  501  0.00000000000E+00  0.00000000000E+00 -0.19795402084E+04  0.19795402084E+04  0.25500000920E-02 0. -1.
    10030    2    1    2    0    0  0.00000000000E+00  0.00000000000E+00 -0.85429193442E+03  0.31047884824E+04  0.29849450265E+04 0.  0.
        5    1    3    3  502    0  0.79373119620E+03 -0.69070026395E+03  0.67382936619E+03  0.12494575508E+04  0.46999998093E+01 0.  1.
       -5    1    3    3    0  502 -0.79373119620E+03  0.69070026395E+03 -0.15281213006E+04  0.18553309316E+04  0.46999998093E+01 0. -1.
</event>
<event>
 5   0  0.1700885E-06  0.2977451E+04  0.7818609E-02  0.8250199E-01
       -1   -1    0    0    0  501  0.00000000000E+00  0.00000000000E+00  0.15005960979E+04  0.15005960979E+04  0.50400001928E-02 0. -1.
        1   -1    0    0  501    0  0.00000000000E+00  0.00000000000E+00 -0.14769488992E+04  0.14769488992E+04  0.50400001928E-02 0.  1.
    10030    2    1    2    0    0  0.00000000000E+00  0.00000000000E+00  0.23647198753E+02  0.29775449971E+04  0.29774510945E+04 0.  0.
        1    1    3    3  502    0 -0.60911165139E+03 -0.23546681300E+03 -0.13260684100E+04  0.14781471685E+04  0.50400001928E-02 0.  1.
       -1    1    3    3    0  502  0.60911165139E+03  0.23546681300E+03  0.13497156087E+04  0.14993978286E+04  0.50400001928E-02 0. -1.
</event>
<event>
 5   0  0.1672907E-06  0.2795599E+04  0.7818609E-02  0.8304636E-01
        1   -1    0    0  501    0  0.00000000000E+00  0.00000000000E+00  0.15673927615E+04  0.15673927615E+04  0.50400001928E-02 0.  1.
       -1   -1    0    0    0  501  0.00000000000E+00  0.00000000000E+00 -0.12465564732E+04  0.12465564732E+04  0.50400001928E-02 0. -1.
    10030    2    1    2    0    0  0.00000000000E+00  0.00000000000E+00  0.32083628833E+03  0.28139492347E+04  0.27955991078E+04 0.  0.
        5    1    3    3  502    0 -0.27375839474E+03  0.23803700007E+03  0.15191736608E+04  0.15618949945E+04  0.46999998093E+01 0.  1.
       -5    1    3    3    0  502  0.27375839474E+03 -0.23803700007E+03 -0.11983373725E+04  0.12520542402E+04  0.46999998093E+01 0. -1.
</event>
<event>
 5   0  0.5003556E-06  0.2986620E+04  0.7818609E-02  0.8247562E-01
        2   -1    0    0  501    0  0.00000000000E+00  0.00000000000E+00  0.23724140993E+04  0.23724140993E+04  0.25500000920E-02 0. -1.
       -2   -1    0    0    0  501  0.00000000000E+00  0.00000000000E+00 -0.93996042038E+03  0.93996042038E+03  0.25500000920E-02 0.  1.
    10030    2    1    2    0    0  0.00000000000E+00  0.00000000000E+00  0.14324536789E+04  0.33123745197E+04  0.29866204005E+04 0.  0.
        3    1    3    3  502    0 -0.33906035331E+03 -0.12687728504E+04  0.15045485543E+04  0.19971011070E+04  0.10100000352E+00 0. -1.
       -3    1    3    3    0  502  0.33906035331E+03  0.12687728504E+04 -0.72094875332E+02  0.13152734127E+04  0.10100000352E+00 0.  1.
</event>
<event>
 5   0  0.4935331E-06  0.3023243E+04  0.7818609E-02  0.8237125E-01
        2   -1    0    0  501    0  0.00000000000E+00  0.00000000000E+00  0.21649856969E+04  0.21649856969E+04  0.25500000920E-02 0.  1.
       -2   -1    0    0    0  501  0.00000000000E+00  0.00000000000E+00 -0.10554338544E+04  0.10554338544E+04  0.25500000920E-02 0. -1.
    10030    2    1    2    0    0  0.00000000000E+00  0.00000000000E+00  0.11095518424E+04  0.32204195513E+04  0.30232427616E+04 0.  0.
        5    1    3    3  502    0  0.14580478444E+04  0.13614505263E+03  0.95411011388E+03  0.17477949512E+04  0.46999998093E+01 0.  1.
       -5    1    3    3    0  502 -0.14580478444E+04 -0.13614505263E+03  0.15544172856E+03  0.14726246001E+04  0.46999998093E+01 0. -1.
</event>
<event>
 5   0  0.4532420E-06  0.3012478E+04  0.7818609E-02  0.8240177E-01
        2   -1    0    0  501    0  0.00000000000E+00  0.00000000000E+00  0.18383888484E+04  0.18383888484E+04  0.25500000920E-02 0.  1.
       -2   -1    0    0    0  501  0.00000000000E+00  0.00000000000E+00 -0.12341000993E+04  0.12341000993E+04  0.25500000920E-02 0. -1.
    10030    2    1    2    0    0  0.00000000000E+00  0.00000000000E+00  0.60428874906E+03  0.30724889477E+04  0.30124779570E+04 0.  0.
        4    1    3    3  502    0 -0.48933766424E+03 -0.94920325065E+03  0.13855269381E+04  0.17493212026E+04  0.12699999809E+01 0.  1.
       -4    1    3    3    0  502  0.48933766424E+03  0.94920325065E+03 -0.78123818905E+03  0.13231677451E+04  0.12699999809E+01 0. -1.
</event>
<event>
 5   0  0.1709858E-06  0.3083693E+04  0.7818609E-02  0.8220228E-01
        1   -1    0    0  501    0  0.00000000000E+00  0.00000000000E+00  0.14448516215E+04  0.14448516215E+04  0.50400001928E-02 0.  1.
       -1   -1    0    0    0  501  0.00000000000E+00  0.00000000000E+00 -0.16453524220E+04  0.16453524220E+04  0.50400001928E-02 0. -1.
    10030    2    1    2    0    0  0.00000000000E+00  0.00000000000E+00 -0.20050080052E+03  0.30902040435E+04  0.30836926662E+04 0.  0.
        3    1    3    3  502    0 -0.13346732532E+04 -0.38196689172E+03  0.57201537481E+03  0.15014835991E+04  0.10100000352E+00 0.  1.
       -3    1    3    3    0  502  0.13346732532E+04  0.38196689172E+03 -0.77251617533E+03  0.15887204444E+04  0.10100000352E+00 0. -1.
</event>
<event>
 5   0  0.1686012E-06  0.2864403E+04  0.7818609E-02  0.8283548E-01
        1   -1    0    0  501    0  0.00000000000E+00  0.00000000000E+00  0.98571596874E+03  0.98571596875E+03  0.50400001928E-02 0. -1.
       -1   -1    0    0    0  501  0.00000000000E+00  0.00000000000E+00 -0.20809245692E+04  0.20809245692E+04  0.50400001928E-02 0.  1.
    10030    2    1    2    0    0  0.00000000000E+00  0.00000000000E+00 -0.10952086005E+04  0.30666405380E+04  0.28644026097E+04 0.  0.
        4    1    3    3  502    0  0.43571995201E+03 -0.28083491064E+03 -0.19769622558E+04  0.20437958551E+04  0.12699999809E+01 0.  1.
       -4    1    3    3    0  502 -0.43571995201E+03  0.28083491064E+03  0.88175365534E+03  0.10228446828E+04  0.12699999809E+01 0. -1.
</event>
<event>
 5   0  0.1686012E-06  0.3021672E+04  0.7818609E-02  0.8237569E-01
       -1   -1    0    0    0  501  0.00000000000E+00  0.00000000000E+00  0.11999112279E+04  0.11999112279E+04  0.50400001928E-02 0. -1.
        1   -1    0    0  501    0  0.00000000000E+00  0.00000000000E+00 -0.19023290132E+04  0.19023290133E+04  0.50400001928E-02 0.  1.
    10030    2    1    2    0    0  0.00000000000E+00  0.00000000000E+00 -0.70241778531E+03  0.31022402412E+04  0.30216723464E+04 0.  0.
        4    1    3    3  502    0 -0.10248731476E+04 -0.37075042049E+03 -0.14254360881E+04  0.17943496028E+04  0.12699999809E+01 0.  1.
       -4    1    3    3    0  502  0.10248731476E+04  0.37075042049E+03  0.72301830275E+03  0.13078906384E+04  0.12699999809E+01 0. -1.
</event>
<event>
 5   0  0.1686012E-06  0.2993268E+04  0.7818609E-02  0.8245656E-01
        1   -1    0    0  501    0  0.00000000000E+00  0.00000000000E+00  0.19979844179E+04  0.19979844179E+04  0.50400001928E-02 0. -1.
       -1   -1    0    0    0  501  0.00000000000E+00  0.00000000000E+00 -0.11210862080E+04  0.11210862080E+04  0.50400001928E-02 0.  1.
    10030    2    1    2    0    0  0.00000000000E+00  0.00000000000E+00  0.87689820988E+03  0.31190706259E+04  0.29932676290E+04 0.  0.
        4    1    3    3  502    0 -0.67767584385E+03 -0.80304551973E+03  0.15489722890E+04  0.18717487601E+04  0.12699999809E+01 0. -1.
       -4    1    3    3    0  502  0.67767584385E+03  0.80304551973E+03 -0.67207407913E+03  0.12473218658E+04  0.12699999809E+01 0.  1.
</event>
<event>
 5   0  0.1700885E-06  0.3050730E+04  0.7818609E-02  0.8229391E-01
       -1   -1    0    0    0  501  0.00000000000E+00  0.00000000000E+00  0.17122028910E+04  0.17122028910E+04  0.50400001928E-02 0.  1.
        1   -1    0    0  501    0  0.00000000000E+00  0.00000000000E+00 -0.13589147197E+04  0.13589147197E+04  0.50400001928E-02 0. -1.
    10030    2    1    2    0    0  0.00000000000E+00  0.00000000000E+00  0.35328817134E+03  0.30711176107E+04  0.30507295597E+04 0.  0.
        1    1    3    3  502    0 -0.40028241082E+03  0.54238255479E+03 -0.12008326375E+04  0.13770998030E+04  0.50400001928E-02 0. -1.
       -1    1    3    3    0  502  0.40028241082E+03 -0.54238255479E+03  0.15541208088E+04  0.16940178077E+04  0.50400001928E-02 0.  1.
</event>
<event>
 5   0  0.1672907E-06  0.3001862E+04  0.7818609E-02  0.8243199E-01
        1   -1    0    0  501    0  0.00000000000E+00  0.00000000000E+00  0.18107488745E+04  0.18107488745E+04  0.50400001928E-02 0. -1.
       -1   -1    0    0    0  501  0.00000000000E+00  0.00000000000E+00 -0.12441227103E+04  0.12441227103E+04  0.50400001928E-02 0.  1.
    10030    2    1    2    0    0  0.00000000000E+00  0.00000000000E+00  0.56662616418E+03  0.30548715847E+04  0.30018619537E+04 0.  0.
        5    1    3    3  502    0 -0.61888386929E+02 -0.12820330742E+04 -0.50845742626E+03  0.13805759740E+04  0.46999998093E+01 0.  1.
       -5    1    3    3    0  502  0.61888386929E+02  0.12820330742E+04  0.10750835904E+04  0.16742956107E+04  0.46999998093E+01 0. -1.
</event>
<event>
 5   0  0.4532420E-06  0.2990805E+04  0.7818609E-02  0.8246362E-01
        2   -1    0    0  501    0  0.00000000000E+00  0.00000000000E+00  0.13123618345E+04  0.13123618345E+04  0.25500000920E-02 0.  1.
       -2   -1    0    0    0  501  0.00000000000E+00  0.00000000000E+00 -0.17039723476E+04  0.17039723476E+04  0.25500000920E-02 0. -1.
    10030    2    1    2    0    0  0.00000000000E+00  0.00000000000E+00 -0.39161051312E+03  0.30163341821E+04  0.29908047586E+04 0.  0.
        4    1    3    3  502    0  0.56266540020E+03 -0.80759711210E+03 -0.13312130710E+04  0.16555770297E+04  0.12699999809E+01 0. -1.
       -4    1    3    3    0  502 -0.56266540020E+03  0.80759711210E+03  0.93960255787E+03  0.13607571524E+04  0.12699999809E+01 0.  1.
</event>
<event>
 5   0  0.1672907E-06  0.3022600E+04  0.7818609E-02  0.8237307E-01
       -1   -1    0    0    0  501  0.00000000000E+00  0.00000000000E+00  0.16367770386E+04  0.16367770386E+04  0.50400001928E-02 0.  1.
        1   -1    0    0  501    0  0.00000000000E+00  0.00000000000E+00 -0.13954423739E+04  0.13954423739E+04  0.50400001928E-02 0. -1.
    10030    2    1    2    0    0  0.00000000000E+00  0.00000000000E+00  0.24133466462E+03  0.30322194125E+04  0.30226002291E+04 0.  0.
        5    1    3    3  502    0 -0.83832869308E+03 -0.28340621336E+03  0.13496750638E+04  0.16139265619E+04  0.46999998093E+01 0.  1.
       -5    1    3    3    0  502  0.83832869308E+03  0.28340621336E+03 -0.11083403992E+04  0.14182928506E+04  0.46999998093E+01 0. -1.
</event>
<event>
 5   0  0.4532420E-06  0.3014185E+04  0.7818609E-02  0.8239692E-01
       -2   -1    0    0    0  501  0.00000000000E+00  0.00000000000E+00  0.12076412934E+04  0.12076412934E+04  0.25500000920E-02 0. -1.
        2   -1    0    0  501    0  0.00000000000E+00  0.00000000000E+00 -0.18807962022E+04  0.18807962022E+04  0.25500000920E-02 0.  1.
    10030    2    1    2    0    0  0.00000000000E+00  0.00000000000E+00 -0.67315490877E+03  0.30884374956E+04  0.30141845718E+04 0.  0.
        4    1    3    3  502    0  0.14584325155E+04 -0.37146739035E+03 -0.41798349531E+03  0.15619619840E+04  0.12699999809E+01 0. -1.
       -4    1    3    3    0  502 -0.14584325155E+04  0.37146739035E+03 -0.25517141347E+03  0.15264755116E+04  0.12699999809E+01 0.  1.
</event>
<event>
 5   0  0.1700885E-06  0.2989772E+04  0.7818609E-02  0.8246657E-01
        1   -1    0    0  501    0  0.00000000000E+00  0.00000000000E+00  0.10772378868E+04  0.10772378868E+04  0.50400001928E-02 0.  1.
       -1   -1    0    0    0  501  0.00000000000E+00  0.00000000000E+00 -0.20744580671E+04  0.20744580671E+04  0.50400001928E-02 0. -1.
    10030    2    1    2    0    0  0.00000000000E+00  0.00000000000E+00 -0.99722018034E+03  0.31516959539E+04  0.29897724492E+04 0.  0.
        1    1    3    3  502    0 -0.50566760581E+02  0.24805189531E+03  0.10544772741E+04  0.10844395149E+04  0.50400001928E-02 0.  1.
       -1    1    3    3    0  502  0.50566760581E+02 -0.24805189531E+03 -0.20516974544E+04  0.20672564390E+04  0.50400001928E-02 0. -1.
</event>
<event>
 5   0  0.4768570E-06  0.2991381E+04  0.7818609E-02  0.8246196E-01
       -2   -1    0    0    0  501  0.00000000000E+00  0.00000000000E+00  0.67601870842E+03  0.67601870843E+03  0.25500000920E-02 0. -1.
        2   -1    0    0  501    0  0.00000000000E+00  0.00000000000E+00 -0.33092134917E+04  0.33092134917E+04  0.25500000920E-02 0.  1.
    10030    2    1    2    0    0  0.00000000000E+00  0.00000000000E+00 -0.26331947833E+04  0.39852322001E+04  0.29913811062E+04 0.  0.
        1    1    3    3  502    0  0.69907047022E+03 -0.86522886760E+03  0.15487408805E+02  0.11124569095E+04  0.50400001928E-02 0. -1.
       -1    1    3    3    0  502 -0.69907047022E+03  0.86522886760E+03 -0.26486821921E+04  0.28727752906E+04  0.50400001928E-02 0.  1.
</event>
<event>
 5   0  0.1709858E-06  0.2977868E+04  0.7818609E-02  0.8250079E-01
        1   -1    0    0  501    0  0.00000000000E+00  0.00000000000E+00  0.11783232110E+04  0.11783232110E+04  0.50400001928E-02 0. -1.
       -1   -1    0    0    0  501  0.00000000000E+00  0.00000000000E+00 -0.18814236725E+04  0.18814236726E+04  0.50400001928E-02 0.  1.
    10030    2    1    2    0    0  0.00000000000E+00  0.00000000000E+00 -0.70310046158E+03  0.30597468835E+04  0.29778684881E+04 0.  0.
        3    1    3    3  502    0  0.32741373974E+03  0.14489018946E+04 -0.24672192721E+03  0.15057849039E+04  0.10100000352E+00 0. -1.
       -3    1    3    3    0  502 -0.32741373974E+03 -0.14489018946E+04 -0.45637853437E+03  0.15539619796E+04  0.10100000352E+00 0.  1.
</event>
<event>
 5   0  0.4702748E-06  0.2994157E+04  0.7818609E-02  0.8245401E-01
        2   -1    0    0  501    0  0.00000000000E+00  0.00000000000E+00  0.28351101380E+04  0.28351101380E+04  0.25500000920E-02 0. -1.
       -2   -1    0    0    0  501  0.00000000000E+00  0.00000000000E+00 -0.79053176587E+03  0.79053176588E+03  0.25500000920E-02 0.  1.
    10030    2    1    2    0    0  0.00000000000E+00  0.00000000000E+00  0.20445783721E+04  0.36256419039E+04  0.29941573932E+04 0.  0.
        2    1    3    3  502    0  0.33355948407E+03 -0.12941279183E+04  0.18392831766E+04  0.22735416429E+04  0.25500000920E-02 0. -1.
       -2    1    3    3    0  502 -0.33355948407E+03  0.12941279183E+04  0.20529519553E+03  0.13521002610E+04  0.25500000920E-02 0.  1.
</event>
<event>
 5   0  0.1700885E-06  0.3028919E+04  0.7818609E-02  0.8235521E-01
       -1   -1    0    0    0  501  0.00000000000E+00  0.00000000000E+00  0.14549271199E+04  0.14549271199E+04  0.50400001928E-02 0.  1.
        1   -1    0    0  501    0  0.00000000000E+00  0.00000000000E+00 -0.15764278495E+04  0.15764278495E+04  0.50400001928E-02 0. -1.
    10030    2    1    2    0    0  0.00000000000E+00  0.00000000000E+00 -0.12150072960E+03  0.30313549695E+04  0.30289190355E+04 0.  0.
        1    1    3    3  502    0  0.73203906354E+03 -0.12752501503E+03 -0.13814494086E+04  0.15686128549E+04  0.50400001928E-02 0. -1.
       -1    1    3    3    0  502 -0.73203906354E+03  0.12752501503E+03  0.12599486790E+04  0.14627421146E+04  0.50400001928E-02 0.  1.
</event>
<event>
 5   0  0.1672907E-06  0.2998855E+04  0.7818609E-02  0.8244058E-01
       -1   -1    0    0    0  501  0.00000000000E+00  0.00000000000E+00  0.15429215035E+04  0.15429215035E+04  0.50400001928E-02 0.  1.
        1   -1    0    0  501    0  0.00000000000E+00  0.00000000000E+00 -0.14571595126E+04  0.14571595126E+04  0.50400001928E-02 0. -1.
    10030    2    1    2    0    0  0.00000000000E+00  0.00000000000E+00  0.85761990895E+02  0.30000810161E+04  0.29988549455E+04 0.  0.
        5    1    3    3  502    0 -0.49428207184E+03  0.80150225568E+03  0.12102085297E+04  0.15334103847E+04  0.46999998093E+01 0.  1.
       -5    1    3    3    0  502  0.49428207184E+03 -0.80150225568E+03 -0.11244465388E+04  0.14666706314E+04  0.46999998093E+01 0. -1.
</event>
<event>
 5   0  0.1700885E-06  0.2983093E+04  0.7818609E-02  0.8248575E-01
        1   -1    0    0  501    0  0.00000000000E+00  0.00000000000E+00  0.12957776770E+04  0.12957776770E+04  0.50400001928E-02 0. -1.
       -1   -1    0    0    0  501  0.00000000000E+00  0.00000000000E+00 -0.17168929313E+04  0.17168929313E+04  0.50400001928E-02 0.  1.
    10030    2    1    2    0    0  0.00000000000E+00  0.00000000000E+00 -0.42111525423E+03  0.30126706083E+04  0.29830933838E+04 0.  0.
        1    1    3    3  502    0  0.11855870998E+04  0.86527176128E+03 -0.47851747251E+03  0.15437911010E+04  0.50400001928E-02 0.  1.
       -1    1    3    3    0  502 -0.11855870998E+04 -0.86527176128E+03  0.57402218281E+02  0.14688795073E+04  0.50400001928E-02 0. -1.
</event>
<event>
 5   0  0.4935331E-06  0.2948132E+04  0.7818609E-02  0.8258699E-01
        2   -1    0    0  501    0  0.00000000000E+00  0.00000000000E+00  0.16423733082E+04  0.16423733082E+04  0.25500000920E-02 0.  1.
       -2   -1    0    0    0  501  0.00000000000E+00  0.00000000000E+00 -0.13230061659E+04  0.13230061659E+04  0.25500000920E-02 0. -1.
    10030    2    1    2    0    0  0.00000000000E+00  0.00000000000E+00  0.31936714224E+03  0.29653794741E+04  0.29481316209E+04 0.  0.
        5    1    3    3  502    0 -0.64175801859E+03  0.13261767394E+04  0.20739338981E+03  0.14878280165E+04  0.46999998093E+01 0.  1.
       -5    1    3    3    0  502  0.64175801859E+03 -0.13261767394E+04  0.11197375243E+03  0.14775514576E+04  0.46999998093E+01 0. -1.
</event>
<event>
 5   0  0.5003556E-06  0.2976089E+04  0.7818609E-02  0.8250592E-01
       -2   -1    0    0    0  501  0.00000000000E+00  0.00000000000E+00  0.13748776909E+04  0.13748776909E+04  0.25500000920E-02 0.  1.
        2   -1    0    0  501    0  0.00000000000E+00  0.00000000000E+00 -0.16105256438E+04  0.16105256438E+04  0.25500000920E-02 0. -1.
    10030    2    1    2    0    0  0.00000000000E+00  0.00000000000E+00 -0.23564795294E+03  0.29854033347E+04  0.29760885593E+04 0.  0.
        3    1    3    3  502    0  0.22991955566E+03 -0.76084599242E+03 -0.13797462609E+04  0.15923094489E+04  0.10100000352E+00 0. -1.
       -3    1    3    3    0  502 -0.22991955566E+03  0.76084599242E+03  0.11440983080E+04  0.13930938858E+04  0.10100000352E+00 0.  1.
</event>
<event>
 5   0  0.4768570E-06  0.2997024E+04  0.7818609E-02  0.8244581E-01
       -2   -1    0    0    0  501  0.00000000000E+00  0.00000000000E+00  0.10016222368E+04  0.10016222368E+04  0.25500000920E-02 0.  1.
        2   -1    0    0  501    0  0.00000000000E+00  0.00000000000E+00 -0.22419019319E+04  0.22419019319E+04  0.25500000920E-02 0. -1.
    10030    2    1    2    0    0  0.00000000000E+00  0.00000000000E+00 -0.12402796950E+04  0.32435241687E+04  0.29970244095E+04 0.  0.
        1    1    3    3  502    0 -0.14279745693E+04 -0.30024661497E+03 -0.98918397630E+03  0.17628795590E+04  0.50400001928E-02 0. -1.
       -1    1    3    3    0  502  0.14279745693E+04  0.30024661497E+03 -0.25109571874E+03  0.14806446097E+04  0.50400001928E-02 0.  1.
</event>
<event>
 5   0  0.1734885E-06  0.2989491E+04  0.7818609E-02  0.8246738E-01
       -1   -1    0    0    0  501  0.00000000000E+00  0.00000000000E+00  0.11542471755E+04  0.11542471755E+04  0.50400001928E-02 0.  1.
        1   -1    0    0  501    0  0.00000000000E+00  0.00000000000E+00 -0.19356888948E+04  0.19356888948E+04  0.50400001928E-02 0. -1.
    10030    2    1    2    0    0  0.00000000000E+00  0.00000000000E+00 -0.78144171927E+03  0.30899360703E+04  0.29894905515E+04 0.  0.
        2    1    3    3  502    0  0.13439159404E+03 -0.91156594351E+03 -0.16072327774E+04  0.18526226736E+04  0.25500000920E-02 0. -1.
       -2    1    3    3    0  502 -0.13439159404E+03  0.91156594351E+03  0.82579105813E+03  0.12373133967E+04  0.25500000920E-02 0.  1.
</event>
<event>
 5   0  0.1700885E-06  0.3005392E+04  0.7818609E-02  0.8242193E-01
        1   -1    0    0  501    0  0.00000000000E+00  0.00000000000E+00  0.21834475166E+04  0.21834475166E+04  0.50400001928E-02 0. -1.
       -1   -1    0    0    0  501  0.00000000000E+00  0.00000000000E+00 -0.10341877151E+04  0.10341877151E+04  0.50400001928E-02 0.  1.
    10030    2    1    2    0    0  0.00000000000E+00  0.00000000000E+00  0.11492598015E+04  0.32176352317E+04  0.30053915540E+04 0.  0.
        1    1    3    3  502    0 -0.79467731232E+03  0.11177164553E+04 -0.82989821146E+02  0.13739321000E+04  0.50400001928E-02 0.  1.
       -1    1    3    3    0  502  0.79467731232E+03 -0.11177164553E+04  0.12322496227E+04  0.18437031317E+04  0.50400001928E-02 0. -1.
</event>
<event>
 5   0  0.4935331E-06  0.2994957E+04  0.7818609E-02  0.8245172E-01
       -2   -1    0    0    0  501  0.00000000000E+00  0.00000000000E+00  0.13122753426E+04  0.13122753426E+04  0.25500000920E-02 0. -1.
        2   -1    0    0  501    0  0.00000000000E+00  0.00000000000E+00 -0.17088197983E+04  0.17088197983E+04  0.25500000920E-02 0.  1.
    10030    2    1    2    0    0  0.00000000000E+00  0.00000000000E+00 -0.39654445564E+03  0.30210951409E+04  0.29949571524E+04 0.  0.
        5    1    3    3  502    0  0.97904233648E+03 -0.11297524746E+04 -0.28595289236E+03  0.15220564041E+04  0.46999998093E+01 0.  1.
       -5    1    3    3    0  502 -0.97904233648E+03  0.11297524746E+04 -0.11059156329E+03  0.14990387368E+04  0.46999998093E+01 0. -1.
</event>
<event>
 5   0  0.1672907E-06  0.3005500E+04  0.7818609E-02  0.8242162E-01
        1   -1    0    0  501    0  0.00000000000E+00  0.00000000000E+00  0.10607731663E+04  0.10607731663E+04  0.50400001928E-02 0.  1.
       -1   -1    0    0    0  501  0.00000000000E+00  0.00000000000E+00 -0.21288794168E+04  0.21288794168E+04  0.50400001928E-02 0. -1.
    10030    2    1    2    0    0  0.00000000000E+00  0.00000000000E+00 -0.10681062505E+04  0.31896525831E+04  0.30055003973E+04 0.  0.
        5    1    3    3  502    0 -0.14748380073E+04  0.18198069578E+03 -0.77129411805E+03  0.16742702375E+04  0.46999998093E+01 0. -1.
       -5    1    3    3    0  502  0.14748380073E+04 -0.18198069578E+03 -0.29681213243E+03  0.15153823456E+04  0.46999998093E+01 0.  1.
</event>
<event>
 5   0  0.1686012E-06  0.3048762E+04  0.7818609E-02  0.8229942E-01
       -1   -1    0    0    0  501  0.00000000000E+00  0.00000000000E+00  0.15164553330E+04  0.15164553330E+04  0.50400001928E-02 0.  1.
        1   -1    0    0  501    0  0.00000000000E+00  0.00000000000E+00 -0.15323482634E+04  0.15323482634E+04  0.50400001928E-02 0. -1.
    10030    2    1    2    0    0  0.00000000000E+00  0.00000000000E+00 -0.15892930351E+02  0.30488035964E+04  0.30487621725E+04 0.  0.
        4    1    3    3  502    0 -0.10158111851E+04  0.78574646839E+03  0.81332360922E+03  0.15201206474E+04  0.12699999809E+01 0.  1.
       -4    1    3    3    0  502  0.10158111851E+04 -0.78574646839E+03 -0.82921653957E+03  0.15286829491E+04  0.12699999809E+01 0. -1.
</event>
<event>
 5   0  0.4935331E-06  0.2957277E+04  0.7818609E-02  0.8256037E-01
        2   -1    0    0  501    0  0.00000000000E+00  0.00000000000E+00  0.24809725346E+04  0.24809725346E+04  0.25500000920E-02 0.  1.
       -2   -1    0    0    0  501  0.00000000000E+00  0.00000000000E+00 -0.88125624170E+03  0.88125624170E+03  0.25500000920E-02 0. -1.
    10030    2    1    2    0    0  0.00000000000E+00  0.00000000000E+00  0.15997162929E+04  0.33622287763E+04  0.29572774855E+04 0.  0.
        5    1    3    3  502    0  0.14729659563E+04  0.56654892601E+02  0.93201640347E+03  0.17439940228E+04  0.46999998093E+01 0. -1.
       -5    1    3    3    0  502 -0.14729659563E+04 -0.56654892601E+02  0.66769988944E+03  0.16182347535E+04  0.46999998093E+01 0.  1.
</event>
<event>
 5   0  0.1545375E-06  0.3011609E+04  0.7818609E-02  0.8240424E-01
        3   -1    0    0  501    0  0.00000000000E+00  0.00000000000E+00  0.15443426617E+04  0.15443426650E+04  0.10100000352E+00 0. -1.
       -3   -1    0    0    0  501  0.00000000000E+00  0.00000000000E+00 -0.14682284331E+04  0.14682284365E+04  0.10100000352E+00 0.  1.
    10030    2    1    2    0    0  0.00000000000E+00  0.00000000000E+00  0.76114228621E+02  0.30125711015E+04  0.30116094146E+04 0.  0.
        1    1    3    3  502    0  0.13045811574E+04 -0.64004083898E+03 -0.35686452774E+03  0.14963076431E+04  0.50400001928E-02 0. -1.
       -1    1    3    3    0  502 -0.13045811574E+04  0.64004083898E+03  0.43297875636E+03  0.15162634584E+04  0.50400001928E-02 0.  1.
</event>
<event>
 5   0  0.4935331E-06  0.2870566E+04  0.7818609E-02  0.8281689E-01
        2   -1    0    0  501    0  0.00000000000E+00  0.00000000000E+00  0.15528166359E+04  0.15528166359E+04  0.25500000920E-02 0. -1.
       -2   -1    0    0    0  501  0.00000000000E+00  0.00000000000E+00 -0.13266457469E+04  0.13266457470E+04  0.25500000920E-02 0.  1.
    10030    2    1    2    0    0  0.00000000000E+00  0.00000000000E+00  0.22617088893E+03  0.28794623828E+04  0.28705662060E+04 0.  0.
        5    1    3    3  502    0  0.79713972335E+03  0.11343643182E+04  0.48545192398E+03  0.14689791712E+04  0.46999998093E+01 0. -1.
       -5    1    3    3    0  502 -0.79713972335E+03 -0.11343643182E+04 -0.25928103505E+03  0.14104832116E+04  0.46999998093E+01 0.  1.
</event>
<event>
 5   0  0.4532420E-06  0.3013130E+04  0.7818609E-02  0.8239991E-01
        2   -1    0    0  501    0  0.00000000000E+00  0.00000000000E+00  0.18158775750E+04  0.18158775750E+04  0.25500000920E-02 0. -1.
       -2   -1    0    0    0  501  0.00000000000E+00  0.00000000000E+00 -0.12499404346E+04  0.12499404346E+04  0.25500000920E-02 0.  1.
    10030    2    1    2    0    0  0.00000000000E+00  0.00000000000E+00  0.56593714039E+03  0.30658180095E+04  0.30131304686E+04 0.  0.
        4    1    3    3  502    0  0.52573322714E+03 -0.30865788480E+03 -0.11188273254E+04  0.12741433644E+04  0.12699999809E+01 0.  1.
       -4    1    3    3    0  502 -0.52573322714E+03  0.30865788480E+03  0.16847644658E+04  0.17916746452E+04  0.12699999809E+01 0. -1.
</event>
<event>
 5   0  0.4768570E-06  0.3038192E+04  0.7818609E-02  0.8232908E-01
       -2   -1    0    0    0  501  0.00000000000E+00  0.00000000000E+00  0.10706986082E+04  0.10706986083E+04  0.25500000920E-02 0.  1.
        2   -1    0    0  501    0  0.00000000000E+00  0.00000000000E+00 -0.21552776243E+04  0.21552776243E+04  0.25500000920E-02 0. -1.
    10030    2    1    2    0    0  0.00000000000E+00  0.00000000000E+00 -0.10845790161E+04  0.32259762326E+04  0.30381920629E+04 0.  0.
        1    1    3    3  502    0  0.14182105151E+04 -0.45019974954E+03 -0.21734876252E+03  0.15037424528E+04  0.50400001928E-02 0.  1.
       -1    1    3    3    0  502 -0.14182105151E+04  0.45019974954E+03 -0.86723025354E+03  0.17222337798E+04  0.50400001928E-02 0. -1.
</event>
<event>
 5   0  0.4768570E-06  0.2987257E+04  0.7818609E-02  0.8247379E-01
       -2   -1    0    0    0  501  0.00000000000E+00  0.00000000000E+00  0.10569101246E+04  0.10569101246E+04  0.25500000920E-02 0. -1.
        2   -1    0    0  501    0  0.00000000000E+00  0.00000000000E+00 -0.21108003622E+04  0.21108003622E+04  0.25500000920E-02 0.  1.
    10030    2    1    2    0    0  0.00000000000E+00  0.00000000000E+00 -0.10538902376E+04  0.31677104868E+04  0.29872571190E+04 0.  0.
        1    1    3    3  502    0  0.81143430521E+03 -0.11128044213E+04 -0.11399368733E+04  0.17877962375E+04  0.50400001928E-02 0.  1.
       -1    1    3    3    0  502 -0.81143430521E+03  0.11128044213E+04  0.86046635703E+02  0.13799142493E+04  0.50400001928E-02 0. -1.
</event>
<event>
 5   0  0.1734885E-06  0.3018959E+04  0.7818609E-02  0.8238338E-01
        1   -1    0    0  501    0  0.00000000000E+00  0.00000000000E+00  0.13313439461E+04  0.13313439462E+04  0.50400001928E-02 0. -1.
       -1   -1    0    0    0  501  0.00000000000E+00  0.00000000000E+00 -0.17114502236E+04  0.17114502236E+04  0.50400001928E-02 0.  1.
    10030    2    1    2    0    0  0.00000000000E+00  0.00000000000E+00 -0.38010627746E+03  0.30427941698E+04  0.30189593534E+04 0.  0.
        2    1    3    3  502    0  0.14750601005E+04 -0.31991547026E+03 -0.20971835774E+03  0.15238536668E+04  0.25500000920E-02 0.  1.
       -2    1    3    3    0  502 -0.14750601005E+04  0.31991547026E+03 -0.17038791973E+03  0.15189405029E+04  0.25500000920E-02 0. -1.
</event>
<event>
 5   0  0.4768570E-06  0.3000154E+04  0.7818609E-02  0.8243687E-01
       -2   -1    0    0    0  501  0.00000000000E+00  0.00000000000E+00  0.12935405547E+04  0.12935405547E+04  0.25500000920E-02 0. -1.
        2   -1    0    0  501    0  0.00000000000E+00  0.00000000000E+00 -0.17395909308E+04  0.17395909308E+04  0.25500000920E-02 0.  1.
    10030    2    1    2    0    0  0.00000000000E+00  0.00000000000E+00 -0.44605037611E+03  0.30331314855E+04  0.30001542744E+04 0.  0.
        1    1    3    3  502    0  0.62532624402E+03 -0.41081353734E+03  0.10914316829E+04  0.13232625561E+04  0.50400001928E-02 0. -1.
       -1    1    3    3    0  502 -0.62532624402E+03  0.41081353734E+03 -0.15374820590E+04  0.17098689294E+04  0.50400001928E-02 0.  1.
</event>
<event>
 5   0  0.1672907E-06  0.3018465E+04  0.7818609E-02  0.8238478E-01
        1   -1    0    0  501    0  0.00000000000E+00  0.00000000000E+00  0.14844313881E+04  0.14844313881E+04  0.50400001928E-02 0.  1.
       -1   -1    0    0    0  501  0.00000000000E+00  0.00000000000E+00 -0.15344480132E+04  0.15344480132E+04  0.50400001928E-02 0. -1.
    10030    2    1    2    0    0  0.00000000000E+00  0.00000000000E+00 -0.50016625085E+02  0.30188794013E+04  0.30184650366E+04 0.  0.
        5    1    3    3  502    0  0.97444988895E+03 -0.71546522334E+03 -0.92863532101E+03  0.15244109424E+04  0.46999998093E+01 0. -1.
       -5    1    3    3    0  502 -0.97444988895E+03  0.71546522334E+03  0.87861869593E+03  0.14944684589E+04  0.46999998093E+01 0.  1.
</event>
<event>
 5   0  0.1709858E-06  0.2430489E+04  0.7818609E-02  0.8428176E-01
       -1   -1    0    0    0  501  0.00000000000E+00  0.00000000000E+00  0.10660564553E+04  0.10660564553E+04  0.50400001928E-02 0.  1.
        1   -1    0    0  501    0  0.00000000000E+00  0.00000000000E+00 -0.13853104732E+04  0.13853104732E+04  0.50400001928E-02 0. -1.
    10030    2    1    2    0    0  0.00000000000E+00  0.00000000000E+00 -0.31925401785E+03  0.24513669285E+04  0.24304889817E+04 0.  0.
        3    1    3    3  502    0  0.56370229638E+03  0.10739919946E+04 -0.84150511443E+02  0.12158537750E+04  0.10100000352E+00 0. -1.
       -3    1    3    3    0  502 -0.56370229638E+03 -0.10739919946E+04 -0.23510350641E+03  0.12355131535E+04  0.10100000352E+00 0.  1.
</event>
<event>
 5   0  0.4532420E-06  0.3007345E+04  0.7818609E-02  0.8241637E-01
       -2   -1    0    0    0  501  0.00000000000E+00  0.00000000000E+00  0.91887645974E+03  0.91887645974E+03  0.25500000920E-02 0.  1.
        2   -1    0    0  501    0  0.00000000000E+00  0.00000000000E+00 -0.24606478643E+04  0.24606478643E+04  0.25500000920E-02 0. -1.
    10030    2    1    2    0    0  0.00000000000E+00  0.00000000000E+00 -0.15417714045E+04  0.33795243240E+04  0.30073452733E+04 0.  0.
        4    1    3    3  502    0  0.32824079168E+03 -0.10919611629E+04  0.33068739611E+03  0.11872139510E+04  0.12699999809E+01 0.  1.
       -4    1    3    3    0  502 -0.32824079168E+03  0.10919611629E+04 -0.18724588006E+04  0.21923103730E+04  0.12699999809E+01 0. -1.
</event>
<event>
 5   0  0.1700885E-06  0.3117647E+04  0.7818609E-02  0.8210911E-01
       -1   -1    0    0    0  501  0.00000000000E+00  0.00000000000E+00  0.12286224076E+04  0.12286224076E+04  0.50400001928E-02 0.  1.
        1   -1    0    0  501    0  0.00000000000E+00  0.00000000000E+00 -0.19777688031E+04  0.19777688031E+04  0.50400001928E-02 0. -1.
    10030    2    1    2    0    0  0.00000000000E+00  0.00000000000E+00 -0.74914639552E+03  0.32063912107E+04  0.31176472337E+04 0.  0.
        1    1    3    3  502    0 -0.95232920070E+01  0.44324233456E+03 -0.19115613449E+04  0.19622999862E+04  0.50400001928E-02 0. -1.
       -1    1    3    3    0  502  0.95232920070E+01 -0.44324233456E+03  0.11624149494E+04  0.12440912245E+04  0.50400001928E-02 0.  1.
</event>
<event>
 5   0  0.5003556E-06  0.2977965E+04  0.7818609E-02  0.8250051E-01
        2   -1    0    0  501    0  0.00000000000E+00  0.00000000000E+00  0.19910474183E+04  0.19910474183E+04  0.25500000920E-02 0.  1.
       -2   -1    0    0    0  501  0.00000000000E+00  0.00000000000E+00 -0.11135188603E+04  0.11135188603E+04  0.25500000920E-02 0. -1.
    10030    2    1    2    0    0  0.00000000000E+00  0.00000000000E+00  0.87752855803E+03  0.31045662787E+04  0.29779649777E+04 0.  0.
        3    1    3    3  502    0  0.62868481064E+03 -0.13465634771E+04  0.34213593278E+03  0.15249704245E+04  0.10100000352E+00 0.  1.
       -3    1    3    3    0  502 -0.62868481064E+03  0.13465634771E+04  0.53539262525E+03  0.15795958541E+04  0.10100000352E+00 0. -1.
</event>
<event>
 5   0  0.5003556E-06  0.2985751E+04  0.7818609E-02  0.8247812E-01
        2   -1    0    0  501    0  0.00000000000E+00  0.00000000000E+00  0.13631892106E+04  0.13631892106E+04  0.25500000920E-02 0. -1.
       -2   -1    0    0    0  501  0.00000000000E+00  0.00000000000E+00 -0.16348989054E+04  0.16348989054E+04  0.25500000920E-02 0.  1.
    10030    2    1    2    0    0  0.00000000000E+00  0.00000000000E+00 -0.27170969484E+03  0.29980881160E+04  0.29857505243E+04 0.  0.
        3    1    3    3  502    0  0.94555194715E+03 -0.33743558421E+03 -0.12452937811E+04  0.15995899067E+04  0.10100000352E+00 0.  1.
       -3    1    3    3    0  502 -0.94555194715E+03  0.33743558421E+03  0.97358408623E+03  0.13984982093E+04  0.10100000352E+00 0. -1.
</event>
<event>
 5   0  0.5003556E-06  0.2891375E+04  0.7818609E-02  0.8275448E-01
       -2   -1    0    0    0  501  0.00000000000E+00  0.00000000000E+00  0.95145935427E+03  0.95145935427E+03  0.25500000920E-02 0. -1.
        2   -1    0    0  501    0  0.00000000000E+00  0.00000000000E+00 -0.21966380885E+04  0.21966380885E+04  0.25500000920E-02 0.  1.
    10030    2    1    2    0    0  0.00000000000E+00  0.00000000000E+00 -0.12451787342E+04  0.31480974427E+04  0.28913746608E+04 0.  0.
        3    1    3    3  502    0  0.28421427041E+03 -0.70375446563E+03  0.71709205195E+03  0.10441595283E+04  0.10100000352E+00 0. -1.
       -3    1    3    3    0  502 -0.28421427041E+03  0.70375446563E+03 -0.19622707861E+04  0.21039379144E+04  0.10100000352E+00 0.  1.
</event>
<event>
 5   0  0.1734885E-06  0.2974178E+04  0.7818609E-02  0.8251143E-01
        1   -1    0    0  501    0  0.00000000000E+00  0.00000000000E+00  0.19832420529E+04  0.19832420529E+04  0.50400001928E-02 0. -1.
       -1   -1    0    0    0  501  0.00000000000E+00  0.00000000000E+00 -0.11150600801E+04  0.11150600801E+04  0.50400001928E-02 0.  1.
    10030    2    1    2    0    0  0.00000000000E+00  0.00000000000E+00  0.86818197278E+03  0.30983021330E+04  0.29741782344E+04 0.  0.
        2    1    3    3  502    0 -0.14038793421E+04 -0.16643886134E+03 -0.46525476220E+02  0.14144764832E+04  0.25500000920E-02 0.  1.
       -2    1    3    3    0  502  0.14038793421E+04  0.16643886134E+03  0.91470744899E+03  0.16838256498E+04  0.25500000920E-02 0. -1.
</event>
<event>
 5   0  0.4935331E-06  0.2999391E+04  0.7818609E-02  0.8243905E-01
        2   -1    0    0  501    0  0.00000000000E+00  0.00000000000E+00  0.21300927726E+04  0.21300927726E+04  0.25500000920E-02 0. -1.
       -2   -1    0    0    0  501  0.00000000000E+00  0.00000000000E+00 -0.10558630315E+04  0.10558630315E+04  0.25500000920E-02 0.  1.
    10030    2    1    2    0    0  0.00000000000E+00  0.00000000000E+00  0.10742297411E+04  0.31859558041E+04  0.29993907463E+04 0.  0.
        5    1    3    3  502    0  0.89418509563E+02 -0.11195709256E+04 -0.51849563417E+03  0.12370507427E+04  0.46999998093E+01 0.  1.
       -5    1    3    3    0  502 -0.89418509563E+02  0.11195709256E+04  0.15927253753E+04  0.19489050614E+04  0.46999998093E+01 0. -1.
</event>
<event>
 5   0  0.4935331E-06  0.2993834E+04  0.7818609E-02  0.8245494E-01
       -2   -1    0    0    0  501  0.00000000000E+00  0.00000000000E+00  0.11258944164E+04  0.11258944164E+04  0.25500000920E-02 0. -1.
        2   -1    0    0  501    0  0.00000000000E+00  0.00000000000E+00 -0.19902050330E+04  0.19902050330E+04  0.25500000920E-02 0.  1.
    10030    2    1    2    0    0  0.00000000000E+00  0.00000000000E+00 -0.86431061665E+03  0.31160994494E+04  0.29938341531E+04 0.  0.
        5    1    3    3  502    0  0.86982447595E+03 -0.12019662038E+04 -0.63881171699E+03  0.16153698876E+04  0.46999998093E+01 0.  1.
       -5    1    3    3    0  502 -0.86982447595E+03  0.12019662038E+04 -0.22549889966E+03  0.15007295618E+04  0.46999998093E+01 0. -1.
</event>
<event>
 5   0  0.4532420E-06  0.2924225E+04  0.7818609E-02  0.8265706E-01
       -2   -1    0    0    0  501  0.00000000000E+00  0.00000000000E+00  0.10211854573E+04  0.10211854573E+04  0.25500000920E-02 0. -1.
        2   -1    0    0  501    0  0.00000000000E+00  0.00000000000E+00 -0.20934230379E+04  0.20934230379E+04  0.25500000920E-02 0.  1.
    10030    2    1    2    0    0  0.00000000000E+00  0.00000000000E+00 -0.10722375806E+04  0.31146084952E+04  0.29242251365E+04 0.  0.
        4    1    3    3  502    0  0.12921850664E+04 -0.61938466466E+03 -0.22670252138E+03  0.14507843585E+04  0.12699999809E+01 0. -1.
       -4    1    3    3    0  502 -0.12921850664E+04  0.61938466466E+03 -0.84553505922E+03  0.16638241367E+04  0.12699999809E+01 0.  1.
</event>
<event>
 5   0  0.4532420E-06  0.3014132E+04  0.7818609E-02  0.8239707E-01
        2   -1    0    0  501    0  0.00000000000E+00  0.00000000000E+00  0.15373783636E+04  0.15373783636E+04  0.25500000920E-02 0. -1.
       -2   -1    0    0    0  501  0.00000000000E+00  0.00000000000E+00 -0.14773512408E+04  0.14773512409E+04  0.25500000920E-02 0.  1.
    10030    2    1    2    0    0  0.00000000000E+00  0.00000000000E+00  0.60027122743E+02  0.30147296044E+04  0.30141319368E+04 0.  0.
        4    1    3    3  502    0  0.21182838945E+03  0.75225710605E+03 -0.12588397177E+04  0.14817020848E+04  0.12699999809E+01 0.  1.
       -4    1    3    3    0  502 -0.21182838945E+03 -0.75225710605E+03  0.13188668405E+04  0.15330275197E+04  0.12699999809E+01 0. -1.
</event>
<event>
 5   0  0.1686012E-06  0.2952653E+04  0.7818609E-02  0.8257382E-01
       -1   -1    0    0    0  501  0.00000000000E+00  0.00000000000E+00  0.15360024728E+04  0.15360024728E+04  0.50400001928E-02 0. -1.
        1   -1    0    0  501    0  0.00000000000E+00  0.00000000000E+00 -0.14189694776E+04  0.14189694776E+04  0.50400001928E-02 0.  1.
    10030    2    1    2    0    0  0.00000000000E+00  0.00000000000E+00  0.11703299515E+03  0.29549719504E+04  0.29526534686E+04 0.  0.
        4    1    3    3  502    0  0.43002742318E+03 -0.28038435825E+03 -0.13267669333E+04  0.14226212009E+04  0.12699999809E+01 0.  1.
       -4    1    3    3    0  502 -0.43002742318E+03  0.28038435825E+03  0.14437999285E+04  0.15323507495E+04  0.12699999809E+01 0. -1.
</event>
<event>
 5   0  0.5003556E-06  0.2987006E+04  0.7818609E-02  0.8247451E-01
        2   -1    0    0  501    0  0.00000000000E+00  0.00000000000E+00  0.13763568521E+04  0.13763568521E+04  0.25500000920E-02 0. -1.
       -2   -1    0    0    0  501  0.00000000000E+00  0.00000000000E+00 -0.16206194237E+04  0.16206194237E+04  0.25500000920E-02 0.  1.
    10030    2    1    2    0    0  0.00000000000E+00  0.00000000000E+00 -0.24426257155E+03  0.29969762758E+04  0.29870056233E+04 0.  0.
        3    1    3    3  502    0 -0.84476239324E+03 -0.39484968911E+03 -0.12926534879E+04  0.15938892144E+04  0.10100000352E+00 0.  1.
       -3    1    3    3    0  502  0.84476239324E+03  0.39484968911E+03  0.10483909163E+04  0.14030870613E+04  0.10100000352E+00 0. -1.
</event>
<event>
 5   0  0.1686012E-06  0.2976728E+04  0.7818609E-02  0.8250408E-01
        1   -1    0    0  501    0  0.00000000000E+00  0.00000000000E+00  0.14116468459E+04  0.14116468459E+04  0.50400001928E-02 0. -1.
       -1   -1    0    0    0  501  0.00000000000E+00  0.00000000000E+00 -0.15692506434E+04  0.15692506434E+04  0.50400001928E-02 0.  1.
    10030    2    1    2    0    0  0.00000000000E+00  0.00000000000E+00 -0.15760379753E+03  0.29808974893E+04  0.29767282181E+04 0.  0.
        4    1    3    3  502    0 -0.12294285813E+04 -0.34963408638E+03 -0.84242320968E+03  0.15308223633E+04  0.12699999809E+01 0.  1.
       -4    1    3    3    0  502  0.12294285813E+04  0.34963408638E+03  0.68481941215E+03  0.14500751260E+04  0.12699999809E+01 0. -1.
</event>
<event>
 5   0  0.4768570E-06  0.3040709E+04  0.7818609E-02  0.8232201E-01
       -2   -1    0    0    0  501  0.00000000000E+00  0.00000000000E+00  0.12268160850E+04  0.12268160850E+04  0.25500000920E-02 0.  1.
        2   -1    0    0  501    0  0.00000000000E+00  0.00000000000E+00 -0.18841277583E+04  0.18841277583E+04  0.25500000920E-02 0. -1.
    10030    2    1    2    0    0  0.00000000000E+00  0.00000000000E+00 -0.65731167331E+03  0.31109438434E+04  0.30407092858E+04 0.  0.
        1    1    3    3  502    0  0.74274779985E+03  0.73624221174E+03  0.80035102487E+03  0.13169239354E+04  0.50400001928E-02 0.  1.
       -1    1    3    3    0  502 -0.74274779985E+03 -0.73624221174E+03 -0.14576626982E+04  0.17940199080E+04  0.50400001928E-02 0. -1.
</event>
<event>
 5   0  0.4702748E-06  0.2979780E+04  0.7818609E-02  0.8249528E-01
       -2   -1    0    0    0  501  0.00000000000E+00  0.00000000000E+00  0.11852024396E+04  0.11852024396E+04  0.25500000920E-02 0.  1.
        2   -1    0    0  501    0  0.00000000000E+00  0.00000000000E+00 -0.18729057491E+04  0.18729057491E+04  0.25500000920E-02 0. -1.
    10030    2    1    2    0    0  0.00000000000E+00  0.00000000000E+00 -0.68770330948E+03  0.30581081886E+04  0.29797801683E+04 0.  0.
        2    1    3    3  502    0 -0.28058501729E+03  0.14136685895E+04  0.43679390384E+02  0.14419066274E+04  0.25500000920E-02 0. -1.
       -2    1    3    3    0  502  0.28058501729E+03 -0.14136685895E+04 -0.73138269986E+03  0.16162015613E+04  0.25500000920E-02 0.  1.
</event>
<event>
 5   0  0.1700885E-06  0.2980627E+04  0.7818609E-02  0.8249285E-01
       -1   -1    0    0    0  501  0.00000000000E+00  0.00000000000E+00  0.10351651607E+04  0.10351651607E+04  0.50400001928E-02 0. -1.
        1   -1    0    0  501    0  0.00000000000E+00  0.00000000000E+00 -0.21455843266E+04  0.21455843266E+04  0.50400001928E-02 0.  1.
    10030    2    1    2    0    0  0.00000000000E+00  0.00000000000E+00 -0.11104191659E+04  0.31807494872E+04  0.29806268765E+04 0.  0.
        1    1    3    3  502    0 -0.39852525094E+03 -0.14268124327E+04 -0.38176040914E+03  0.15298225726E+04  0.50400001928E-02 0. -1.
       -1    1    3    3    0  502  0.39852525094E+03  0.14268124327E+04 -0.72865875676E+03  0.16509269146E+04  0.50400001928E-02 0.  1.
</event>
<event>
 5   0  0.1734885E-06  0.3000201E+04  0.7818609E-02  0.8243674E-01
       -1   -1    0    0    0  501  0.00000000000E+00  0.00000000000E+00  0.12579824214E+04  0.12579824215E+04  0.50400001928E-02 0. -1.
        1   -1    0    0  501    0  0.00000000000E+00  0.00000000000E+00 -0.17888176548E+04  0.17888176548E+04  0.50400001928E-02 0.  1.
    10030    2    1    2    0    0  0.00000000000E+00  0.00000000000E+00 -0.53083523339E+03  0.30468000763E+04  0.30002007699E+04 0.  0.
        2    1    3    3  502    0  0.31425029688E+03 -0.10973397371E+04  0.72304174973E+03  0.13511835995E+04  0.25500000920E-02 0. -1.
       -2    1    3    3    0  502 -0.31425029688E+03  0.10973397371E+04 -0.12538769831E+04  0.16956164768E+04  0.25500000920E-02 0.  1.
</event>
<event>
 5   0  0.4532420E-06  0.2711894E+04  0.7818609E-02  0.8331156E-01
       -2   -1    0    0    0  501  0.00000000000E+00  0.00000000000E+00  0.10786771432E+04  0.10786771432E+04  0.25500000920E-02 0.  1.
        2   -1    0    0  501    0  0.00000000000E+00  0.00000000000E+00 -0.17044879776E+04  0.17044879776E+04  0.25500000920E-02 0. -1.
    10030    2    1    2    0    0  0.00000000000E+00  0.00000000000E+00 -0.62581083438E+03  0.27831651209E+04  0.27118939672E+04 0.  0.
        4    1    3    3  502    0  0.22107209501E+03 -0.16376855991E+03 -0.16755412681E+04  0.16979791420E+04  0.12699999809E+01 0. -1.
       -4    1    3    3    0  502 -0.22107209501E+03  0.16376855991E+03  0.10497304337E+04  0.10851859789E+04  0.12699999809E+01 0.  1.
</event>
<event>
 5   0  0.4532420E-06  0.2988699E+04  0.7818609E-02  0.8246965E-01
        2   -1    0    0  501    0  0.00000000000E+00  0.00000000000E+00  0.11935913468E+04  0.11935913468E+04  0.25500000920E-02 0. -1.
       -2   -1    0    0    0  501  0.00000000000E+00  0.00000000000E+00 -0.18708913201E+04  0.18708913201E+04  0.25500000920E-02 0.  1.
    10030    2    1    2    0    0  0.00000000000E+00  0.00000000000E+00 -0.67729997333E+03  0.30644826669E+04  0.29886985063E+04 0.  0.
        4    1    3    3  502    0 -0.44990141649E+03 -0.55521585572E+03 -0.16843316721E+04  0.18296586364E+04  0.12699999809E+01 0.  1.
       -4    1    3    3    0  502  0.44990141649E+03  0.55521585572E+03  0.10070316988E+04  0.12348240305E+04  0.12699999809E+01 0. -1.
</event>
<event>
 5   0  0.1686012E-06  0.3056966E+04  0.7818609E-02  0.8227648E-01
       -1   -1    0    0    0  501  0.00000000000E+00  0.00000000000E+00  0.26515942292E+04  0.26515942292E+04  0.50400001928E-02 0. -1.
        1   -1    0    0  501    0  0.00000000000E+00  0.00000000000E+00 -0.88107785784E+03  0.88107785786E+03  0.50400001928E-02 0.  1.
    10030    2    1    2    0    0  0.00000000000E+00  0.00000000000E+00  0.17705163714E+04  0.35326720871E+04  0.30569664463E+04 0.  0.
        4    1    3    3  502    0  0.15155318443E+04 -0.19831882351E+03  0.89635591381E+03  0.17718980399E+04  0.12699999809E+01 0. -1.
       -4    1    3    3    0  502 -0.15155318443E+04  0.19831882351E+03  0.87416045757E+03  0.17607740472E+04  0.12699999809E+01 0.  1.
</event>
<event>
 5   0  0.1734885E-06  0.3011066E+04  0.7818609E-02  0.8240578E-01
        1   -1    0    0  501    0  0.00000000000E+00  0.00000000000E+00  0.12862335708E+04  0.12862335708E+04  0.50400001928E-02 0. -1.
       -1   -1    0    0    0  501  0.00000000000E+00  0.00000000000E+00 -0.17622218271E+04  0.17622218271E+04  0.50400001928E-02 0.  1.
    10030    2    1    2    0    0  0.00000000000E+00  0.00000000000E+00 -0.47598825622E+03  0.30484553979E+04  0.30110655079E+04 0.  0.
        2    1    3    3  502    0 -0.12386828452E+04 -0.84753169729E+03 -0.11827301171E+03  0.15055343484E+04  0.25500000920E-02 0. -1.
       -2    1    3    3    0  502  0.12386828452E+04  0.84753169729E+03 -0.35771524451E+03  0.15429210495E+04  0.25500000920E-02 0.  1.
</event>
<event>
 5   0  0.4935331E-06  0.3428621E+04  0.7818609E-02  0.8130917E-01
       -2   -1    0    0    0  501  0.00000000000E+00  0.00000000000E+00  0.10021677935E+04  0.10021677935E+04  0.25500000920E-02 0. -1.
        2   -1    0    0  501    0  0.00000000000E+00  0.00000000000E+00 -0.29325031098E+04  0.29325031098E+04  0.25500000920E-02 0.  1.
    10030    2    1    2    0    0  0.00000000000E+00  0.00000000000E+00 -0.19303353163E+04  0.39346709033E+04  0.34286208137E+04 0.  0.
        5    1    3    3  502    0 -0.67762207333E+03 -0.82315965493E+03  0.57538070865E+03  0.12115479940E+04  0.46999998093E+01 0. -1.
       -5    1    3    3    0  502  0.67762207333E+03  0.82315965493E+03 -0.25057160250E+04  0.27231229094E+04  0.46999998093E+01 0.  1.
</event>
<event>
 5   0  0.1545375E-06  0.2924984E+04  0.7818609E-02  0.8265483E-01
       -4   -1    0    0    0  501  0.00000000000E+00  0.00000000000E+00  0.98722900238E+03  0.98722981926E+03  0.12699999809E+01 0.  1.
        4   -1    0    0  501    0  0.00000000000E+00  0.00000000000E+00 -0.21665503636E+04  0.21665507359E+04  0.12699999809E+01 0. -1.
    10030    2    1    2    0    0  0.00000000000E+00  0.00000000000E+00 -0.11793213613E+04  0.31537805551E+04  0.29249842592E+04 0.  0.
        5    1    3    3  502    0 -0.29091724081E+03  0.10897671020E+04 -0.15934123744E+04  0.19522321230E+04  0.46999998093E+01 0. -1.
       -5    1    3    3    0  502  0.29091724081E+03 -0.10897671020E+04  0.41409101309E+03  0.12015484321E+04  0.46999998093E+01 0.  1.
</event>
<event>
 5   0  0.1672907E-06  0.2902512E+04  0.7818609E-02  0.8272130E-01
        1   -1    0    0  501    0  0.00000000000E+00  0.00000000000E+00  0.10052760582E+04  0.10052760582E+04  0.50400001928E-02 0.  1.
       -1   -1    0    0    0  501  0.00000000000E+00  0.00000000000E+00 -0.20950904399E+04  0.20950904399E+04  0.50400001928E-02 0. -1.
    10030    2    1    2    0    0  0.00000000000E+00  0.00000000000E+00 -0.10898143817E+04  0.31003664980E+04  0.29025121939E+04 0.  0.
        5    1    3    3  502    0 -0.13828200619E+04  0.41960442727E+03 -0.40214414086E+03  0.15000003996E+04  0.46999998093E+01 0. -1.
       -5    1    3    3    0  502  0.13828200619E+04 -0.41960442727E+03 -0.68767024083E+03  0.16003660984E+04  0.46999998093E+01 0.  1.
</event>
<event>
 5   0  0.4702748E-06  0.3018184E+04  0.7818609E-02  0.8238557E-01
       -2   -1    0    0    0  501  0.00000000000E+00  0.00000000000E+00  0.17637381675E+04  0.17637381675E+04  0.25500000920E-02 0.  1.
        2   -1    0    0  501    0  0.00000000000E+00  0.00000000000E+00 -0.12912116253E+04  0.12912116253E+04  0.25500000920E-02 0. -1.
    10030    2    1    2    0    0  0.00000000000E+00  0.00000000000E+00  0.47252654228E+03  0.30549497928E+04  0.30181843720E+04 0.  0.
        2    1    3    3  502    0  0.52309166046E+03  0.31304819602E+03 -0.11610364915E+04  0.13113465571E+04  0.25500000920E-02 0. -1.
       -2    1    3    3    0  502 -0.52309166046E+03 -0.31304819602E+03  0.16335630338E+04  0.17436032357E+04  0.25500000920E-02 0.  1.
</event>
<event>
 5   0  0.1686012E-06  0.3381979E+04  0.7818609E-02  0.8142344E-01
       -1   -1    0    0    0  501  0.00000000000E+00  0.00000000000E+00  0.98158110706E+03  0.98158110707E+03  0.50400001928E-02 0. -1.
        1   -1    0    0  501    0  0.00000000000E+00  0.00000000000E+00 -0.29131012921E+04  0.29131012921E+04  0.50400001928E-02 0.  1.
    10030    2    1    2    0    0  0.00000000000E+00  0.00000000000E+00 -0.19315201851E+04  0.38946823992E+04  0.33819788239E+04 0.  0.
        4    1    3    3  502    0  0.15235021934E+04 -0.74978733343E+02 -0.18063189413E+04  0.23642060981E+04  0.12699999809E+01 0.  1.
       -4    1    3    3    0  502 -0.15235021934E+04  0.74978733343E+02 -0.12520124373E+03  0.15304763011E+04  0.12699999809E+01 0. -1.
</event>
<event>
 5   0  0.5003556E-06  0.3045933E+04  0.7818609E-02  0.8230735E-01
        2   -1    0    0  501    0  0.00000000000E+00  0.00000000000E+00  0.28258125560E+04  0.28258125560E+04  0.25500000920E-02 0.  1.
       -2   -1    0    0    0  501  0.00000000000E+00  0.00000000000E+00 -0.82080022574E+03  0.82080022575E+03  0.25500000920E-02 0. -1.
    10030    2    1    2    0    0  0.00000000000E+00  0.00000000000E+00  0.20050123302E+04  0.36466127817E+04  0.30459334096E+04 0.  0.
        3    1    3    3  502    0  0.81928107634E+03  0.21378954404E+03 -0.51303689797E+03  0.99001733322E+03  0.10100000352E+00 0. -1.
       -3    1    3    3    0  502 -0.81928107634E+03 -0.21378954404E+03  0.25180492282E+04  0.26565954485E+04  0.10100000352E+00 0.  1.
</event>
<event>
 5   0  0.1734885E-06  0.3006450E+04  0.7818609E-02  0.8241892E-01
       -1   -1    0    0    0  501  0.00000000000E+00  0.00000000000E+00  0.88392767387E+03  0.88392767388E+03  0.50400001928E-02 0.  1.
        1   -1    0    0  501    0  0.00000000000E+00  0.00000000000E+00 -0.25564137408E+04  0.25564137409E+04  0.50400001928E-02 0. -1.
    10030    2    1    2    0    0  0.00000000000E+00  0.00000000000E+00 -0.16724860670E+04  0.34403414147E+04  0.30064496347E+04 0.  0.
        2    1    3    3  502    0  0.46399730814E+03  0.14144645707E+04 -0.59707918936E+03  0.16039037010E+04  0.25500000920E-02 0. -1.
       -2    1    3    3    0  502 -0.46399730814E+03 -0.14144645707E+04 -0.10754068776E+04  0.18364377137E+04  0.25500000920E-02 0.  1.
</event>
<event>
 5   0  0.4702748E-06  0.3010133E+04  0.7818609E-02  0.8240843E-01
       -2   -1    0    0    0  501  0.00000000000E+00  0.00000000000E+00  0.16075130202E+04  0.16075130202E+04  0.25500000920E-02 0. -1.
        2   -1    0    0  501    0  0.00000000000E+00  0.00000000000E+00 -0.14091485692E+04  0.14091485692E+04  0.25500000920E-02 0.  1.
    10030    2    1    2    0    0  0.00000000000E+00  0.00000000000E+00  0.19836445103E+03  0.30166615894E+04  0.30101326698E+04 0.  0.
        2    1    3    3  502    0  0.31165430093E+01  0.16251572310E+03 -0.14003263524E+04  0.14097286854E+04  0.25500000920E-02 0.  1.
       -2    1    3    3    0  502 -0.31165430093E+01 -0.16251572310E+03  0.15986908034E+04  0.16069329040E+04  0.25500000920E-02 0. -1.
</event>
<event>
 5   0  0.1709858E-06  0.3000349E+04  0.7818609E-02  0.8243631E-01
        1   -1    0    0  501    0  0.00000000000E+00  0.00000000000E+00  0.12503683829E+04  0.12503683829E+04  0.50400001928E-02 0. -1.
       -1   -1    0    0    0  501  0.00000000000E+00  0.00000000000E+00 -0.17998887691E+04  0.17998887691E+04  0.50400001928E-02 0.  1.
    10030    2    1    2    0    0  0.00000000000E+00  0.00000000000E+00 -0.54952038614E+03  0.30502571520E+04  0.30003493195E+04 0.  0.
        3    1    3    3  502    0 -0.37731575277E+03  0.24760333279E+03 -0.17292396089E+04  0.17871609393E+04  0.10100000352E+00 0.  1.
       -3    1    3    3    0  502  0.37731575277E+03 -0.24760333279E+03  0.11797192228E+04  0.12630962127E+04  0.10100000352E+00 0. -1.
</event>
<event>
 5   0  0.4702748E-06  0.3069710E+04  0.7818609E-02  0.8224100E-01
        2   -1    0    0  501    0  0.00000000000E+00  0.00000000000E+00  0.16694084538E+04  0.16694084538E+04  0.25500000920E-02 0. -1.
       -2   -1    0    0    0  501  0.00000000000E+00  0.00000000000E+00 -0.14111467608E+04  0.14111467608E+04  0.25500000920E-02 0.  1.
    10030    2    1    2    0    0  0.00000000000E+00  0.00000000000E+00  0.25826169297E+03  0.30805552146E+04  0.30697103004E+04 0.  0.
        2    1    3    3  502    0  0.90863443767E+03 -0.59163716656E+03  0.12193062867E+04  0.16316736496E+04  0.25500000920E-02 0. -1.
       -2    1    3    3    0  502 -0.90863443767E+03  0.59163716656E+03 -0.96104459371E+03  0.14488815650E+04  0.25500000920E-02 0.  1.
</event>
<event>
 5   0  0.1672907E-06  0.2665175E+04  0.7818609E-02  0.8346394E-01
       -1   -1    0    0    0  501  0.00000000000E+00  0.00000000000E+00  0.11615454928E+04  0.11615454928E+04  0.50400001928E-02 0. -1.
        1   -1    0    0  501    0  0.00000000000E+00  0.00000000000E+00 -0.15288165983E+04  0.15288165983E+04  0.50400001928E-02 0.  1.
    10030    2    1    2    0    0  0.00000000000E+00  0.00000000000E+00 -0.36727110549E+03  0.26903620911E+04  0.26651754382E+04 0.  0.
        5    1    3    3  502    0 -0.49127393342E+03 -0.80594004499E+03  0.76593394459E+03  0.12155518628E+04  0.46999998093E+01 0. -1.
       -5    1    3    3    0  502  0.49127393342E+03  0.80594004499E+03 -0.11332050501E+04  0.14748102282E+04  0.46999998093E+01 0.  1.
</event>
<event>
 5   0  0.1686012E-06  0.3020401E+04  0.7818609E-02  0.8237929E-01
       -1   -1    0    0    0  501  0.00000000000E+00  0.00000000000E+00  0.15906743680E+04  0.15906743680E+04  0.50400001928E-02 0. -1.
        1   -1    0    0  501    0  0.00000000000E+00  0.00000000000E+00 -0.14337982777E+04  0.14337982777E+04  0.50400001928E-02 0.  1.
    10030    2    1    2    0    0  0.00000000000E+00  0.00000000000E+00  0.15687609036E+03  0.30244726457E+04  0.30204014099E+04 0.  0.
        4    1    3    3  502    0  0.14700929388E+04 -0.28692139946E+03  0.27159029166E+03  0.15222549188E+04  0.12699999809E+01 0.  1.
       -4    1    3    3    0  502 -0.14700929388E+04  0.28692139946E+03 -0.11471420130E+03  0.15022177270E+04  0.12699999809E+01 0. -1.
</event>
<event>
 5   0  0.5003556E-06  0.2991380E+04  0.7818609E-02  0.8246197E-01
       -2   -1    0    0    0  501  0.00000000000E+00  0.00000000000E+00  0.10621376377E+04  0.10621376377E+04  0.25500000920E-02 0.  1.
        2   -1    0    0  501    0  0.00000000000E+00  0.00000000000E+00 -0.21062138818E+04  0.21062138818E+04  0.25500000920E-02 0. -1.
    10030    2    1    2    0    0  0.00000000000E+00  0.00000000000E+00 -0.10440762442E+04  0.31683515195E+04  0.29913803080E+04 0.  0.
        3    1    3    3  502    0 -0.10669119475E+04  0.48848199793E+03 -0.15043619933E+04  0.19078838495E+04  0.10100000352E+00 0. -1.
       -3    1    3    3    0  502  0.10669119475E+04 -0.48848199793E+03  0.46028574916E+03  0.12604676700E+04  0.10100000352E+00 0.  1.
</event>
<event>
 5   0  0.1709858E-06  0.3002092E+04  0.7818609E-02  0.8243134E-01
        1   -1    0    0  501    0  0.00000000000E+00  0.00000000000E+00  0.18422037872E+04  0.18422037872E+04  0.50400001928E-02 0.  1.
       -1   -1    0    0    0  501  0.00000000000E+00  0.00000000000E+00 -0.12230671407E+04  0.12230671407E+04  0.50400001928E-02 0. -1.
    10030    2    1    2    0    0  0.00000000000E+00  0.00000000000E+00  0.61913664655E+03  0.30652709279E+04  0.30020918831E+04 0.  0.
        3    1    3    3  502    0 -0.33841289092E+03 -0.41796977505E+03  0.17404589495E+04  0.18216529259E+04  0.10100000352E+00 0.  1.
       -3    1    3    3    0  502  0.33841289092E+03  0.41796977505E+03 -0.11213223029E+04  0.12436180020E+04  0.10100000352E+00 0. -1.
</event>
<event>
 5   0  0.1734885E-06  0.3001211E+04  0.7818609E-02  0.8243385E-01
        1   -1    0    0  501    0  0.00000000000E+00  0.00000000000E+00  0.16864495518E+04  0.16864495518E+04  0.50400001928E-02 0.  1.
       -1   -1    0    0    0  501  0.00000000000E+00  0.00000000000E+00 -0.13352411214E+04  0.13352411214E+04  0.50400001928E-02 0. -1.
    10030    2    1    2    0    0  0.00000000000E+00  0.00000000000E+00  0.35120843039E+03  0.30216906733E+04  0.30012109495E+04 0.  0.
        2    1    3    3  502    0  0.49563398504E+03 -0.58798314075E+02  0.16004312135E+04  0.16764517165E+04  0.25500000920E-02 0.  1.
       -2    1    3    3    0  502 -0.49563398504E+03  0.58798314075E+02 -0.12492227831E+04  0.13452389567E+04  0.25500000920E-02 0. -1.
</event>
<event>
 5   0  0.1734885E-06  0.3008521E+04  0.7818609E-02  0.8241302E-01
        1   -1    0    0  501    0  0.00000000000E+00  0.00000000000E+00  0.10512915822E+04  0.10512915822E+04  0.50400001928E-02 0.  1.
       -1   -1    0    0    0  501  0.00000000000E+00  0.00000000000E+00 -0.21523999995E+04  0.21523999995E+04  0.50400001928E-02 0. -1.
    10030    2    1    2    0    0  0.00000000000E+00  0.00000000000E+00 -0.11011084172E+04  0.32036915817E+04  0.30085212321E+04 0.  0.
        2    1    3    3  502    0 -0.24906355193E+03 -0.26132200633E+02 -0.21300457177E+04  0.21447168355E+04  0.25500000920E-02 0. -1.
       -2    1    3    3    0  502  0.24906355193E+03  0.26132200633E+02  0.10289373005E+04  0.10589747462E+04  0.25500000920E-02 0.  1.
</event>
<event>
 5   0  0.4532420E-06  0.2731233E+04  0.7818609E-02  0.8324942E-01
       -2   -1    0    0    0  501  0.00000000000E+00  0.00000000000E+00  0.10219157785E+04  0.10219157785E+04  0.25500000920E-02 0. -1.
        2   -1    0    0  501    0  0.00000000000E+00  0.00000000000E+00 -0.18249140012E+04  0.18249140012E+04  0.25500000920E-02 0.  1.
    10030    2    1    2    0    0  0.00000000000E+00  0.00000000000E+00 -0.80299822263E+03  0.28468297797E+04  0.27312329906E+04 0.  0.
        4    1    3    3  502    0  0.14936641359E+03  0.11146356826E+04 -0.12090034673E+04  0.16511856429E+04  0.12699999809E+01 0. -1.
       -4    1    3    3    0  502 -0.14936641359E+03 -0.11146356826E+04  0.40600524466E+03  0.11956441368E+04  0.12699999809E+01 0.  1.
</event>
<event>
 5   0  0.1700885E-06  0.3011656E+04  0.7818609E-02  0.8240410E-01
       -1   -1    0    0    0  501  0.00000000000E+00  0.00000000000E+00  0.10332657276E+04  0.10332657276E+04  0.50400001928E-02 0.  1.
        1   -1    0    0  501    0  0.00000000000E+00  0.00000000000E+00 -0.21945153265E+04  0.21945153265E+04  0.50400001928E-02 0. -1.
    10030    2    1    2    0    0  0.00000000000E+00  0.00000000000E+00 -0.11612495989E+04  0.32277810541E+04  0.30116556746E+04 0.  0.
        1    1    3    3  502    0  0.35172125333E+03 -0.99675392946E+03 -0.17301080759E+04  0.20274368523E+04  0.50400001928E-02 0. -1.
       -1    1    3    3    0  502 -0.35172125333E+03  0.99675392946E+03  0.56885847695E+03  0.12003442018E+04  0.50400001928E-02 0.  1.
</event>
<event>
 5   0  0.1700885E-06  0.2951722E+04  0.7818609E-02  0.8257653E-01
       -1   -1    0    0    0  501  0.00000000000E+00  0.00000000000E+00  0.20278229658E+04  0.20278229658E+04  0.50400001928E-02 0. -1.
        1   -1    0    0  501    0  0.00000000000E+00  0.00000000000E+00 -0.10741400483E+04  0.10741400483E+04  0.50400001928E-02 0.  1.
    10030    2    1    2    0    0  0.00000000000E+00  0.00000000000E+00  0.95368291755E+03  0.31019630141E+04  0.29517221132E+04 0.  0.
        1    1    3    3  502    0 -0.14424312998E+04 -0.14845739707E+03  0.76563466704E+03  0.16397695255E+04  0.50400001928E-02 0. -1.
       -1    1    3    3    0  502  0.14424312998E+04  0.14845739707E+03  0.18804825050E+03  0.14621934886E+04  0.50400001928E-02 0.  1.
</event>
<event>
 5   0  0.4935331E-06  0.3017904E+04  0.7818609E-02  0.8238637E-01
        2   -1    0    0  501    0  0.00000000000E+00  0.00000000000E+00  0.16726635752E+04  0.16726635753E+04  0.25500000920E-02 0. -1.
       -2   -1    0    0    0  501  0.00000000000E+00  0.00000000000E+00 -0.13612635354E+04  0.13612635354E+04  0.25500000920E-02 0.  1.
    10030    2    1    2    0    0  0.00000000000E+00  0.00000000000E+00  0.31140003988E+03  0.30339271106E+04  0.30179038632E+04 0.  0.
        5    1    3    3  502    0  0.10880618853E+04 -0.10417170037E+04  0.66567790720E+02  0.15078150891E+04  0.46999998093E+01 0.  1.
       -5    1    3    3    0  502 -0.10880618853E+04  0.10417170037E+04  0.24483224916E+03  0.15261120215E+04  0.46999998093E+01 0. -1.
</event>
<event>
 5   0  0.4768570E-06  0.3079955E+04  0.7818609E-02  0.8221261E-01
        2   -1    0    0  501    0  0.00000000000E+00  0.00000000000E+00  0.88594364647E+03  0.88594364647E+03  0.25500000920E-02 0.  1.
       -2   -1    0    0    0  501  0.00000000000E+00  0.00000000000E+00 -0.26768420284E+04  0.26768420284E+04  0.25500000920E-02 0. -1.
    10030    2    1    2    0    0  0.00000000000E+00  0.00000000000E+00 -0.17908983819E+04  0.35627856749E+04  0.30799553163E+04 0.  0.
        1    1    3    3  502    0 -0.42377495490E+03 -0.13797726935E+04 -0.27447701147E+03  0.14692499883E+04  0.50400001928E-02 0.  1.
       -1    1    3    3    0  502  0.42377495490E+03  0.13797726935E+04 -0.15164213704E+04  0.20935356866E+04  0.50400001928E-02 0. -1.
</event>
<event>
 5   0  0.4768570E-06  0.3006254E+04  0.7818609E-02  0.8241947E-01
       -2   -1    0    0    0  501  0.00000000000E+00  0.00000000000E+00  0.13485802067E+04  0.13485802067E+04  0.25500000920E-02 0. -1.
        2   -1    0    0  501    0  0.00000000000E+00  0.00000000000E+00 -0.16753851077E+04  0.16753851077E+04  0.25500000920E-02 0.  1.
    10030    2    1    2    0    0  0.00000000000E+00  0.00000000000E+00 -0.32680490095E+03  0.30239653144E+04  0.30062542772E+04 0.  0.
        1    1    3    3  502    0  0.10118882596E+04 -0.49592977453E+03  0.83720773404E+03  0.14038450702E+04  0.50400001928E-02 0. -1.
       -1    1    3    3    0  502 -0.10118882596E+04  0.49592977453E+03 -0.11640126350E+04  0.16201202442E+04  0.50400001928E-02 0.  1.
</event>
<event>
 5   0  0.1709858E-06  0.2962452E+04  0.7818609E-02  0.8254535E-01
        1   -1    0    0  501    0  0.00000000000E+00  0.00000000000E+00  0.13064027448E+04  0.13064027448E+04  0.50400001928E-02 0. -1.
       -1   -1    0    0    0  501  0.00000000000E+00  0.00000000000E+00 -0.16794438698E+04  0.16794438698E+04  0.50400001928E-02 0.  1.
    10030    2    1    2    0    0  0.00000000000E+00  0.00000000000E+00 -0.37304112499E+03  0.29858466146E+04  0.29624517422E+04 0.  0.
        3    1    3    3  502    0  0.71951308492E+03  0.10002888418E+04  0.64201331884E+03  0.13894092119E+04  0.10100000352E+00 0. -1.
       -3    1    3    3    0  502 -0.71951308492E+03 -0.10002888418E+04 -0.10150544438E+04  0.15964374027E+04  0.10100000352E+00 0.  1.
</event>
<event>
 5   0  0.4935331E-06  0.3006049E+04  0.7818609E-02  0.8242006E-01
       -2   -1    0    0    0  501  0.00000000000E+00  0.00000000000E+00  0.11930488054E+04  0.11930488054E+04  0.25500000920E-02 0. -1.
        2   -1    0    0  501    0  0.00000000000E+00  0.00000000000E+00 -0.18935379733E+04  0.18935379733E+04  0.25500000920E-02 0.  1.
    10030    2    1    2    0    0  0.00000000000E+00  0.00000000000E+00 -0.70048916784E+03  0.30865867787E+04  0.30060493788E+04 0.  0.
        5    1    3    3  502    0  0.16695428837E+03 -0.14205525421E+04 -0.82437102895E+03  0.16508945886E+04  0.46999998093E+01 0.  1.
       -5    1    3    3    0  502 -0.16695428837E+03  0.14205525421E+04  0.12388186111E+03  0.14356921901E+04  0.46999998093E+01 0. -1.
</event>
<event>
 5   0  0.4702748E-06  0.2978890E+04  0.7818609E-02  0.8249785E-01
       -2   -1    0    0    0  501  0.00000000000E+00  0.00000000000E+00  0.12873098055E+04  0.12873098055E+04  0.25500000920E-02 0. -1.
        2   -1    0    0  501    0  0.00000000000E+00  0.00000000000E+00 -0.17233201178E+04  0.17233201178E+04  0.25500000920E-02 0.  1.
    10030    2    1    2    0    0  0.00000000000E+00  0.00000000000E+00 -0.43601031233E+03  0.30106299233E+04  0.29788903207E+04 0.  0.
        2    1    3    3  502    0  0.83608400041E+03 -0.10623179579E+04  0.41386913903E+03  0.14138046413E+04  0.25500000920E-02 0. -1.
       -2    1    3    3    0  502 -0.83608400041E+03  0.10623179579E+04 -0.84987945136E+03  0.15968252820E+04  0.25500000920E-02 0.  1.
</event>
<event>
 5   0  0.1672907E-06  0.3011873E+04  0.7818609E-02  0.8240349E-01
       -1   -1    0    0    0  501  0.00000000000E+00  0.00000000000E+00  0.10957721014E+04  0.10957721014E+04  0.50400001928E-02 0. -1.
        1   -1    0    0  501    0  0.00000000000E+00  0.00000000000E+00 -0.20696315736E+04  0.20696315736E+04  0.50400001928E-02 0.  1.
    10030    2    1    2    0    0  0.00000000000E+00  0.00000000000E+00 -0.97385947221E+03  0.31654036751E+04  0.30118728649E+04 0.  0.
        5    1    3    3  502    0  0.51251227515E+03 -0.55675117312E+03  0.88143098824E+03  0.11617157045E+04  0.46999998093E+01 0. -1.
       -5    1    3    3    0  502 -0.51251227515E+03  0.55675117312E+03 -0.18552904605E+04  0.20036879706E+04  0.46999998093E+01 0.  1.
</event>
<event>
 5   0  0.4768570E-06  0.2998205E+04  0.7818609E-02  0.8244244E-01
        2   -1    0    0  501    0  0.00000000000E+00  0.00000000000E+00  0.17161122643E+04  0.17161122643E+04  0.25500000920E-02 0. -1.
       -2   -1    0    0    0  501  0.00000000000E+00  0.00000000000E+00 -0.13095348611E+04  0.13095348611E+04  0.25500000920E-02 0.  1.
    10030    2    1    2    0    0  0.00000000000E+00  0.00000000000E+00  0.40657740317E+03  0.30256471254E+04  0.29982053537E+04 0.  0.
        1    1    3    3  502    0  0.72808589449E+03  0.24563560180E+02 -0.11188925630E+04  0.13351528025E+04  0.50400001928E-02 0.  1.
       -1    1    3    3    0  502 -0.72808589449E+03 -0.24563560180E+02  0.15254699662E+04  0.16904943230E+04  0.50400001928E-02 0. -1.
</event>
<event>
 5   0  0.4532420E-06  0.3003371E+04  0.7818609E-02  0.8242769E-01
       -2   -1    0    0    0  501  0.00000000000E+00  0.00000000000E+00  0.11094125471E+04  0.11094125471E+04  0.25500000920E-02 0.  1.
        2   -1    0    0  501    0  0.00000000000E+00  0.00000000000E+00 -0.20326610308E+04  0.20326610308E+04  0.25500000920E-02 0. -1.
    10030    2    1    2    0    0  0.00000000000E+00  0.00000000000E+00 -0.92324848372E+03  0.31420735778E+04  0.30033712068E+04 0.  0.
        4    1    3    3  502    0  0.11665463058E+04  0.12195967305E+03 -0.14426696493E+04  0.18593014213E+04  0.12699999809E+01 0. -1.
       -4    1    3    3    0  502 -0.11665463058E+04 -0.12195967305E+03  0.51942116559E+03  0.12827721565E+04  0.12699999809E+01 0.  1.
</event>
<event>
 5   0  0.4768570E-06  0.3039014E+04  0.7818609E-02  0.8232677E-01
       -2   -1    0    0    0  501  0.00000000000E+00  0.00000000000E+00  0.12381232087E+04  0.12381232087E+04  0.25500000920E-02 0.  1.
        2   -1    0    0  501    0  0.00000000000E+00  0.00000000000E+00 -0.18648398274E+04  0.18648398274E+04  0.25500000920E-02 0. -1.
    10030    2    1    2    0    0  0.00000000000E+00  0.00000000000E+00 -0.62671661867E+03  0.31029630361E+04  0.30390139656E+04 0.  0.
        1    1    3    3  502    0  0.33116669765E+03  0.60818211243E+03  0.10676352988E+04  0.12725572658E+04  0.50400001928E-02 0.  1.
       -1    1    3    3    0  502 -0.33116669765E+03 -0.60818211243E+03 -0.16943519175E+04  0.18304057703E+04  0.50400001928E-02 0. -1.
</event>
<event>
 5   0  0.4702748E-06  0.3018054E+04  0.7818609E-02  0.8238594E-01
       -2   -1    0    0    0  501  0.00000000000E+00  0.00000000000E+00  0.16815399570E+04  0.16815399570E+04  0.25500000920E-02 0.  1.
        2   -1    0    0  501    0  0.00000000000E+00  0.00000000000E+00 -0.13542126116E+04  0.13542126116E+04  0.25500000920E-02 0. -1.
    10030    2    1    2    0    0  0.00000000000E+00  0.00000000000E+00  0.32732734533E+03  0.30357525686E+04  0.30180540861E+04 0.  0.
        2    1    3    3  502    0  0.13837943759E+04 -0.46464710362E+03  0.54850212561E+03  0.15593711513E+04  0.25500000920E-02 0.  1.
       -2    1    3    3    0  502 -0.13837943759E+04  0.46464710362E+03 -0.22117478028E+03  0.14763814173E+04  0.25500000920E-02 0. -1.
</event>
<event>
 5   0  0.1734885E-06  0.3021263E+04  0.7818609E-02  0.8237685E-01
       -1   -1    0    0    0  501  0.00000000000E+00  0.00000000000E+00  0.18987019337E+04  0.18987019337E+04  0.50400001928E-02 0. -1.
        1   -1    0    0  501    0  0.00000000000E+00  0.00000000000E+00 -0.12018779110E+04  0.12018779110E+04  0.50400001928E-02 0.  1.
    10030    2    1    2    0    0  0.00000000000E+00  0.00000000000E+00  0.69682402270E+03  0.31005798447E+04  0.30212632548E+04 0.  0.
        2    1    3    3  502    0  0.25757492110E+03 -0.14443382566E+04  0.71779184709E+03  0.16333043119E+04  0.25500000920E-02 0. -1.
       -2    1    3    3    0  502 -0.25757492110E+03  0.14443382566E+04 -0.20967824384E+02  0.14672755328E+04  0.25500000920E-02 0.  1.
</event>
<event>
 5   0  0.1734885E-06  0.3008871E+04  0.7818609E-02  0.8241202E-01
       -1   -1    0    0    0  501  0.00000000000E+00  0.00000000000E+00  0.13960063066E+04  0.13960063066E+04  0.50400001928E-02 0. -1.
        1   -1    0    0  501    0  0.00000000000E+00  0.00000000000E+00 -0.16212859583E+04  0.16212859583E+04  0.50400001928E-02 0.  1.
    10030    2    1    2    0    0  0.00000000000E+00  0.00000000000E+00 -0.22527965168E+03  0.30172922649E+04  0.30088705007E+04 0.  0.
        2    1    3    3  502    0  0.88542505364E+03 -0.81789237232E+03  0.79010205168E+03  0.14412448475E+04  0.25500000920E-02 0. -1.
       -2    1    3    3    0  502 -0.88542505364E+03  0.81789237232E+03 -0.10153817034E+04  0.15760474174E+04  0.25500000920E-02 0.  1.
</event>
<event>
 5   0  0.4768570E-06  0.2994747E+04  0.7818609E-02  0.8245233E-01
        2   -1    0    0  501    0  0.00000000000E+00  0.00000000000E+00  0.23783859993E+04  0.23783859993E+04  0.25500000920E-02 0. -1.
       -2   -1    0    0    0  501  0.00000000000E+00  0.00000000000E+00 -0.94270936356E+03  0.94270936357E+03  0.25500000920E-02 0.  1.
    10030    2    1    2    0    0  0.00000000000E+00  0.00000000000E+00  0.14356766357E+04  0.33210953629E+04  0.29947465680E+04 0.  0.
        1    1    3    3  502    0  0.25739640816E+03  0.81257485939E+03  0.20830908376E+04  0.22507328253E+04  0.50400001928E-02 0. -1.
       -1    1    3    3    0  502 -0.25739640816E+03 -0.81257485939E+03 -0.64741420187E+03  0.10703625376E+04  0.50400001928E-02 0.  1.
</event>
<event>
 5   0  0.1709858E-06  0.2662845E+04  0.7818609E-02  0.8347162E-01
       -1   -1    0    0    0  501  0.00000000000E+00  0.00000000000E+00  0.14119987731E+04  0.14119987731E+04  0.50400001928E-02 0.  1.
        1   -1    0    0  501    0  0.00000000000E+00  0.00000000000E+00 -0.12554447844E+04  0.12554447844E+04  0.50400001928E-02 0. -1.
    10030    2    1    2    0    0  0.00000000000E+00  0.00000000000E+00  0.15655398867E+03  0.26674435575E+04  0.26628454669E+04 0.  0.
        3    1    3    3  502    0 -0.77057156209E+03  0.45665344720E+02  0.11649638432E+04  0.13975001332E+04  0.10100000352E+00 0.  1.
       -3    1    3    3    0  502  0.77057156209E+03 -0.45665344720E+02 -0.10084098545E+04  0.12699434243E+04  0.10100000352E+00 0. -1.
</event>
<event>
 5   0  0.1672907E-06  0.2960752E+04  0.7818609E-02  0.8255028E-01
        1   -1    0    0  501    0  0.00000000000E+00  0.00000000000E+00  0.13066231735E+04  0.13066231735E+04  0.50400001928E-02 0.  1.
       -1   -1    0    0    0  501  0.00000000000E+00  0.00000000000E+00 -0.16772340071E+04  0.16772340071E+04  0.50400001928E-02 0. -1.
    10030    2    1    2    0    0  0.00000000000E+00  0.00000000000E+00 -0.37061083359E+03  0.29838571806E+04  0.29607518106E+04 0.  0.
        5    1    3    3  502    0  0.84203369243E+03 -0.70140541740E+03  0.81770019611E+03  0.13673499916E+04  0.46999998093E+01 0.  1.
       -5    1    3    3    0  502 -0.84203369243E+03  0.70140541740E+03 -0.11883110297E+04  0.16165071890E+04  0.46999998093E+01 0. -1.
</event>
<event>
 5   0  0.4768570E-06  0.3032442E+04  0.7818609E-02  0.8234527E-01
       -2   -1    0    0    0  501  0.00000000000E+00  0.00000000000E+00  0.86930257720E+03  0.86930257721E+03  0.25500000920E-02 0.  1.
        2   -1    0    0  501    0  0.00000000000E+00  0.00000000000E+00 -0.26445640822E+04  0.26445640822E+04  0.25500000920E-02 0. -1.
    10030    2    1    2    0    0  0.00000000000E+00  0.00000000000E+00 -0.17752615050E+04  0.35138666594E+04  0.30324421658E+04 0.  0.
        1    1    3    3  502    0  0.12441551882E+04 -0.35561758967E+03 -0.18033724893E+04  0.22195806671E+04  0.50400001928E-02 0. -1.
       -1    1    3    3    0  502 -0.12441551882E+04  0.35561758967E+03  0.28110984282E+02  0.12942859923E+04  0.50400001928E-02 0.  1.
</event>
<event>
 5   0  0.1686012E-06  0.3003059E+04  0.7818609E-02  0.8242858E-01
        1   -1    0    0  501    0  0.00000000000E+00  0.00000000000E+00  0.14100860629E+04  0.14100860630E+04  0.50400001928E-02 0. -1.
       -1   -1    0    0    0  501  0.00000000000E+00  0.00000000000E+00 -0.15989025305E+04  0.15989025305E+04  0.50400001928E-02 0.  1.
    10030    2    1    2    0    0  0.00000000000E+00  0.00000000000E+00 -0.18881646756E+03  0.30089885935E+04  0.30030585571E+04 0.  0.
        4    1    3    3  502    0  0.12722576171E+04 -0.62079725263E+03  0.40713977915E+03  0.14730217533E+04  0.12699999809E+01 0. -1.
       -4    1    3    3    0  502 -0.12722576171E+04  0.62079725263E+03 -0.59595624671E+03  0.15359668401E+04  0.12699999809E+01 0.  1.
</event>
<event>
 5   0  0.4702748E-06  0.2983516E+04  0.7818609E-02  0.8248454E-01
       -2   -1    0    0    0  501  0.00000000000E+00  0.00000000000E+00  0.86459353758E+03  0.86459353758E+03  0.25500000920E-02 0.  1.
        2   -1    0    0  501    0  0.00000000000E+00  0.00000000000E+00 -0.25738597862E+04  0.25738597862E+04  0.25500000920E-02 0. -1.
    10030    2    1    2    0    0  0.00000000000E+00  0.00000000000E+00 -0.17092662486E+04  0.34384533238E+04  0.29835164070E+04 0.  0.
        2    1    3    3  502    0 -0.13453651530E+04 -0.61684765633E+03 -0.10697314712E+04  0.18261527446E+04  0.25500000920E-02 0. -1.
       -2    1    3    3    0  502  0.13453651530E+04  0.61684765633E+03 -0.63953477744E+03  0.16123005792E+04  0.25500000920E-02 0.  1.
</event>
<event>
 5   0  0.1700885E-06  0.2992796E+04  0.7818609E-02  0.8245791E-01
       -1   -1    0    0    0  501  0.00000000000E+00  0.00000000000E+00  0.93267680293E+03  0.93267680295E+03  0.50400001928E-02 0. -1.
        1   -1    0    0  501    0  0.00000000000E+00  0.00000000000E+00 -0.24008396622E+04  0.24008396622E+04  0.50400001928E-02 0.  1.
    10030    2    1    2    0    0  0.00000000000E+00  0.00000000000E+00 -0.14681628593E+04  0.33335164651E+04  0.29927963249E+04 0.  0.
        1    1    3    3  502    0 -0.88674018654E+03  0.11678194405E+04 -0.10665549950E+04  0.18131877899E+04  0.50400001928E-02 0.  1.
       -1    1    3    3    0  502  0.88674018654E+03 -0.11678194405E+04 -0.40160786427E+03  0.15203286752E+04  0.50400001928E-02 0. -1.
</event>
<event>
 5   0  0.1700885E-06  0.2947311E+04  0.7818609E-02  0.8258939E-01
       -1   -1    0    0    0  501  0.00000000000E+00  0.00000000000E+00  0.78515487439E+03  0.78515487441E+03  0.50400001928E-02 0. -1.
        1   -1    0    0  501    0  0.00000000000E+00  0.00000000000E+00 -0.27659016224E+04  0.27659016224E+04  0.50400001928E-02 0.  1.
    10030    2    1    2    0    0  0.00000000000E+00  0.00000000000E+00 -0.19807467480E+04  0.35510564968E+04  0.29473114127E+04 0.  0.
        1    1    3    3  502    0  0.38851192992E+02  0.14660017446E+04 -0.81581363211E+03  0.16781604252E+04  0.50400001928E-02 0.  1.
       -1    1    3    3    0  502 -0.38851192992E+02 -0.14660017446E+04 -0.11649331158E+04  0.18728960715E+04  0.50400001928E-02 0. -1.
</event>
<event>
 5   0  0.4935331E-06  0.3007892E+04  0.7818609E-02  0.8241481E-01
       -2   -1    0    0    0  501  0.00000000000E+00  0.00000000000E+00  0.11421377657E+04  0.11421377657E+04  0.25500000920E-02 0. -1.
        2   -1    0    0  501    0  0.00000000000E+00  0.00000000000E+00 -0.19803687045E+04  0.19803687045E+04  0.25500000920E-02 0.  1.
    10030    2    1    2    0    0  0.00000000000E+00  0.00000000000E+00 -0.83823093886E+03  0.31225064702E+04  0.30078922104E+04 0.  0.
        5    1    3    3  502    0  0.12454376437E+04  0.32354166105E+03  0.38903250109E+03  0.13443074454E+04  0.46999998093E+01 0. -1.
       -5    1    3    3    0  502 -0.12454376437E+04 -0.32354166105E+03 -0.12272634399E+04  0.17781990248E+04  0.46999998093E+01 0.  1.
</event>
<event>
 5   0  0.1709858E-06  0.2967110E+04  0.7818609E-02  0.8253186E-01
        1   -1    0    0  501    0  0.00000000000E+00  0.00000000000E+00  0.31259337385E+04  0.31259337385E+04  0.50400001928E-02 0.  1.
       -1   -1    0    0    0  501  0.00000000000E+00  0.00000000000E+00 -0.70408879255E+03  0.70408879257E+03  0.50400001928E-02 0. -1.
    10030    2    1    2    0    0  0.00000000000E+00  0.00000000000E+00  0.24218449459E+04  0.38300225310E+04  0.29671096451E+04 0.  0.
        3    1    3    3  502    0 -0.43737531815E+03 -0.10391488356E+04  0.24556211835E+04  0.27020738107E+04  0.10100000352E+00 0.  1.
       -3    1    3    3    0  502  0.43737531815E+03  0.10391488356E+04 -0.33776237565E+02  0.11279487204E+04  0.10100000352E+00 0. -1.
</event>
<event>
 5   0  0.1672907E-06  0.3048832E+04  0.7818609E-02  0.8229923E-01
       -1   -1    0    0    0  501  0.00000000000E+00  0.00000000000E+00  0.10432412080E+04  0.10432412080E+04  0.50400001928E-02 0.  1.
        1   -1    0    0  501    0  0.00000000000E+00  0.00000000000E+00 -0.22275229235E+04  0.22275229235E+04  0.50400001928E-02 0. -1.
    10030    2    1    2    0    0  0.00000000000E+00  0.00000000000E+00 -0.11842817155E+04  0.32707641315E+04  0.30488317143E+04 0.  0.
        5    1    3    3  502    0 -0.12727655310E+04 -0.83526365462E+03 -0.50750475517E+03  0.16047369368E+04  0.46999998093E+01 0. -1.
       -5    1    3    3    0  502  0.12727655310E+04  0.83526365462E+03 -0.67677696029E+03  0.16660271947E+04  0.46999998093E+01 0.  1.
</event>
<event>
 5   0  0.4702748E-06  0.2977827E+04  0.7818609E-02  0.8250091E-01
       -2   -1    0    0    0  501  0.00000000000E+00  0.00000000000E+00  0.13212527438E+04  0.13212527438E+04  0.25500000920E-02 0.  1.
        2   -1    0    0  501    0  0.00000000000E+00  0.00000000000E+00 -0.16778496799E+04  0.16778496799E+04  0.25500000920E-02 0. -1.
    10030    2    1    2    0    0  0.00000000000E+00  0.00000000000E+00 -0.35659693608E+03  0.29991024236E+04  0.29778270555E+04 0.  0.
        2    1    3    3  502    0  0.25020884123E+03  0.25347346603E+03  0.12777171462E+04  0.13264291794E+04  0.25500000920E-02 0.  1.
       -2    1    3    3    0  502 -0.25020884123E+03 -0.25347346603E+03 -0.16343140823E+04  0.16726732442E+04  0.25500000920E-02 0. -1.
</event>
<event>
 5   0  0.4532420E-06  0.2993203E+04  0.7818609E-02  0.8245674E-01
        2   -1    0    0  501    0  0.00000000000E+00  0.00000000000E+00  0.12242780897E+04  0.12242780897E+04  0.25500000920E-02 0. -1.
       -2   -1    0    0    0  501  0.00000000000E+00  0.00000000000E+00 -0.18294996583E+04  0.18294996583E+04  0.25500000920E-02 0.  1.
    10030    2    1    2    0    0  0.00000000000E+00  0.00000000000E+00 -0.60522156862E+03  0.30537777480E+04  0.29932031984E+04 0.  0.
        4    1    3    3  502    0 -0.81603817101E+03 -0.48768825651E+03  0.87666031207E+03  0.12931717008E+04  0.12699999809E+01 0. -1.
       -4    1    3    3    0  502  0.81603817101E+03  0.48768825651E+03 -0.14818818807E+04  0.17606060472E+04  0.12699999809E+01 0.  1.
</event>
<event>
 5   0  0.1709858E-06  0.2989513E+04  0.7818609E-02  0.8246732E-01
        1   -1    0    0  501    0  0.00000000000E+00  0.00000000000E+00  0.13259687546E+04  0.13259687546E+04  0.50400001928E-02 0. -1.
       -1   -1    0    0    0  501  0.00000000000E+00  0.00000000000E+00 -0.16850299025E+04  0.16850299025E+04  0.50400001928E-02 0.  1.
    10030    2    1    2    0    0  0.00000000000E+00  0.00000000000E+00 -0.35906114796E+03  0.30109986571E+04  0.29895130047E+04 0.  0.
        3    1    3    3  502    0  0.36227322269E+03 -0.86643213471E+03 -0.13507944290E+04  0.16451723714E+04  0.10100000352E+00 0.  1.
       -3    1    3    3    0  502 -0.36227322269E+03  0.86643213471E+03  0.99173328102E+03  0.13658262857E+04  0.10100000352E+00 0. -1.
</event>
<event>
 5   0  0.4702748E-06  0.3013466E+04  0.7818609E-02  0.8239896E-01
       -2   -1    0    0    0  501  0.00000000000E+00  0.00000000000E+00  0.14739293895E+04  0.14739293895E+04  0.25500000920E-02 0.  1.
        2   -1    0    0  501    0  0.00000000000E+00  0.00000000000E+00 -0.15402668893E+04  0.15402668893E+04  0.25500000920E-02 0. -1.
    10030    2    1    2    0    0  0.00000000000E+00  0.00000000000E+00 -0.66337499782E+02  0.30141962788E+04  0.30134662008E+04 0.  0.
        2    1    3    3  502    0  0.56538896180E+03  0.10209324352E+04  0.92009777825E+03  0.14861183119E+04  0.25500000920E-02 0.  1.
       -2    1    3    3    0  502 -0.56538896180E+03 -0.10209324352E+04 -0.98643527803E+03  0.15280779669E+04  0.25500000920E-02 0. -1.
</event>
<event>
 5   0  0.4532420E-06  0.2996892E+04  0.7818609E-02  0.8244619E-01
        2   -1    0    0  501    0  0.00000000000E+00  0.00000000000E+00  0.20853939007E+04  0.20853939007E+04  0.25500000920E-02 0. -1.
       -2   -1    0    0    0  501  0.00000000000E+00  0.00000000000E+00 -0.10766986160E+04  0.10766986160E+04  0.25500000920E-02 0.  1.
    10030    2    1    2    0    0  0.00000000000E+00  0.00000000000E+00  0.10086952847E+04  0.31620925167E+04  0.29968922081E+04 0.  0.
        4    1    3    3  502    0  0.25335678394E+03 -0.13582866710E+03  0.20560256067E+04  0.20760255285E+04  0.12699999809E+01 0. -1.
       -4    1    3    3    0  502 -0.25335678394E+03  0.13582866710E+03 -0.10473303219E+04  0.10860669882E+04  0.12699999809E+01 0.  1.
</event>
<event>
 5   0  0.5003556E-06  0.2618169E+04  0.7818609E-02  0.8362056E-01
       -2   -1    0    0    0  501  0.00000000000E+00  0.00000000000E+00  0.94775163242E+03  0.94775163242E+03  0.25500000920E-02 0. -1.
        2   -1    0    0  501    0  0.00000000000E+00  0.00000000000E+00 -0.18081770168E+04  0.18081770168E+04  0.25500000920E-02 0.  1.
    10030    2    1    2    0    0  0.00000000000E+00  0.00000000000E+00 -0.86042538434E+03  0.27559286492E+04  0.26181693752E+04 0.  0.
        3    1    3    3  502    0 -0.20169500605E+03 -0.18711282571E+03  0.91697649383E+03  0.95735990383E+03  0.10100000352E+00 0. -1.
       -3    1    3    3    0  502  0.20169500605E+03  0.18711282571E+03 -0.17774018782E+04  0.17985687453E+04  0.10100000352E+00 0.  1.
</event>
<event>
 5   0  0.1672907E-06  0.2997211E+04  0.7818609E-02  0.8244528E-01
        1   -1    0    0  501    0  0.00000000000E+00  0.00000000000E+00  0.30004753164E+04  0.30004753164E+04  0.50400001928E-02 0. -1.
       -1   -1    0    0    0  501  0.00000000000E+00  0.00000000000E+00 -0.74848749500E+03  0.74848749502E+03  0.50400001928E-02 0.  1.
    10030    2    1    2    0    0  0.00000000000E+00  0.00000000000E+00  0.22519878214E+04  0.37489628114E+04  0.29972108724E+04 0.  0.
        5    1    3    3  502    0  0.98066708115E+03 -0.34915161187E+03 -0.22244349600E+03  0.10644801412E+04  0.46999998093E+01 0.  1.
       -5    1    3    3    0  502 -0.98066708115E+03  0.34915161187E+03  0.24744313174E+04  0.26844826702E+04  0.46999998093E+01 0. -1.
</event>
<event>
 5   0  0.4702748E-06  0.3011961E+04  0.7818609E-02  0.8240324E-01
       -2   -1    0    0    0  501  0.00000000000E+00  0.00000000000E+00  0.87832468351E+03  0.87832468351E+03  0.25500000920E-02 0. -1.
        2   -1    0    0  501    0  0.00000000000E+00  0.00000000000E+00 -0.25821631714E+04  0.25821631714E+04  0.25500000920E-02 0.  1.
    10030    2    1    2    0    0  0.00000000000E+00  0.00000000000E+00 -0.17038384879E+04  0.34604878549E+04  0.30119612549E+04 0.  0.
        2    1    3    3  502    0  0.24462192834E+03 -0.13917372340E+04 -0.14502440128E+04  0.20248407624E+04  0.25500000920E-02 0. -1.
       -2    1    3    3    0  502 -0.24462192834E+03  0.13917372340E+04 -0.25359447507E+03  0.14356470925E+04  0.25500000920E-02 0.  1.
</event>
<event>
 5   0  0.1545375E-06  0.3077395E+04  0.7818609E-02  0.8221969E-01
        3   -1    0    0  501    0  0.00000000000E+00  0.00000000000E+00  0.22959866676E+04  0.22959866698E+04  0.10100000352E+00 0. -1.
       -3   -1    0    0    0  501  0.00000000000E+00  0.00000000000E+00 -0.10311865250E+04  0.10311865299E+04  0.10100000352E+00 0.  1.
    10030    2    1    2    0    0  0.00000000000E+00  0.00000000000E+00  0.12648001426E+04  0.33271731998E+04  0.30773953435E+04 0.  0.
        3    1    3    3  502    0 -0.91007395295E+03  0.76208511611E+03  0.16909389042E+04  0.20659822632E+04  0.10100000352E+00 0. -1.
       -3    1    3    3    0  502  0.91007395295E+03 -0.76208511611E+03 -0.42613876159E+03  0.12611909365E+04  0.10100000352E+00 0.  1.
</event>
<event>
 5   0  0.1686012E-06  0.2914115E+04  0.7818609E-02  0.8268690E-01
       -1   -1    0    0    0  501  0.00000000000E+00  0.00000000000E+00  0.10588078971E+04  0.10588078971E+04  0.50400001928E-02 0. -1.
        1   -1    0    0  501    0  0.00000000000E+00  0.00000000000E+00 -0.20051008204E+04  0.20051008205E+04  0.50400001928E-02 0.  1.
    10030    2    1    2    0    0  0.00000000000E+00  0.00000000000E+00 -0.94629292333E+03  0.30639087176E+04  0.29141150171E+04 0.  0.
        4    1    3    3  502    0 -0.26199559314E+03 -0.72237292082E+03  0.82845057349E+03  0.11299541111E+04  0.12699999809E+01 0. -1.
       -4    1    3    3    0  502  0.26199559314E+03  0.72237292082E+03 -0.17747434968E+04  0.19339546065E+04  0.12699999809E+01 0.  1.
</event>
<event>
 5   0  0.4702748E-06  0.3055252E+04  0.7818609E-02  0.8228127E-01
       -2   -1    0    0    0  501  0.00000000000E+00  0.00000000000E+00  0.10841674350E+04  0.10841674350E+04  0.25500000920E-02 0. -1.
        2   -1    0    0  501    0  0.00000000000E+00  0.00000000000E+00 -0.21524729046E+04  0.21524729046E+04  0.25500000920E-02 0.  1.
    10030    2    1    2    0    0  0.00000000000E+00  0.00000000000E+00 -0.10683054696E+04  0.32366403396E+04  0.30552518901E+04 0.  0.
        2    1    3    3  502    0 -0.12090475952E+04  0.76176117141E+03  0.37872265895E+02  0.14295140706E+04  0.25500000920E-02 0. -1.
       -2    1    3    3    0  502  0.12090475952E+04 -0.76176117141E+03 -0.11061777355E+04  0.18071262690E+04  0.25500000920E-02 0.  1.
</event>
<event>
 5   0  0.1672907E-06  0.2987242E+04  0.7818609E-02  0.8247383E-01
        1   -1    0    0  501    0  0.00000000000E+00  0.00000000000E+00  0.12729558901E+04  0.12729558902E+04  0.50400001928E-02 0. -1.
       -1   -1    0    0    0  501  0.00000000000E+00  0.00000000000E+00 -0.17525379604E+04  0.17525379604E+04  0.50400001928E-02 0.  1.
    10030    2    1    2    0    0  0.00000000000E+00  0.00000000000E+00 -0.47958207023E+03  0.30254938505E+04  0.29872418847E+04 0.  0.
        5    1    3    3  502    0 -0.10668319510E+04 -0.88180358054E+03 -0.80838298477E+03  0.16028765100E+04  0.46999998093E+01 0.  1.
       -5    1    3    3    0  502  0.10668319510E+04  0.88180358054E+03  0.32880091455E+03  0.14226173405E+04  0.46999998093E+01 0. -1.
</event>
<event>
 5   0  0.1672907E-06  0.2593128E+04  0.7818609E-02  0.8370539E-01
        1   -1    0    0  501    0  0.00000000000E+00  0.00000000000E+00  0.11648158742E+04  0.11648158742E+04  0.50400001928E-02 0. -1.
       -1   -1    0    0    0  501  0.00000000000E+00  0.00000000000E+00 -0.14432137045E+04  0.14432137045E+04  0.50400001928E-02 0.  1.
    10030    2    1    2    0    0  0.00000000000E+00  0.00000000000E+00 -0.27839783034E+03  0.26080295787E+04  0.25931280207E+04 0.  0.
        5    1    3    3  502    0  0.37649165506E+03  0.44637207191E+02 -0.13862101543E+04  0.14371287794E+04  0.46999998093E+01 0.  1.
       -5    1    3    3    0  502 -0.37649165506E+03 -0.44637207191E+02  0.11078123240E+04  0.11709007993E+04  0.46999998093E+01 0. -1.
</event>
<event>
 5   0  0.1709858E-06  0.3035379E+04  0.7818609E-02  0.8233700E-01
        1   -1    0    0  501    0  0.00000000000E+00  0.00000000000E+00  0.25205395298E+04  0.25205395298E+04  0.50400001928E-02 0.  1.
       -1   -1    0    0    0  501  0.00000000000E+00  0.00000000000E+00 -0.91384487378E+03  0.91384487380E+03  0.50400001928E-02 0. -1.
    10030    2    1    2    0    0  0.00000000000E+00  0.00000000000E+00  0.16066946560E+04  0.34343844036E+04  0.30353794679E+04 0.  0.
        3    1    3    3  502    0  0.10778675726E+04 -0.87480316860E+02  0.20081868043E+04  0.22808475532E+04  0.10100000352E+00 0.  1.
       -3    1    3    3    0  502 -0.10778675726E+04  0.87480316860E+02 -0.40149214823E+03  0.11535368504E+04  0.10100000352E+00 0. -1.
</event>
<event>
 5   0  0.1734885E-06  0.3009460E+04  0.7818609E-02  0.8241035E-01
       -1   -1    0    0    0  501  0.00000000000E+00  0.00000000000E+00  0.21345751331E+04  0.21345751331E+04  0.50400001928E-02 0.  1.
        1   -1    0    0  501    0  0.00000000000E+00  0.00000000000E+00 -0.10607321483E+04  0.10607321483E+04  0.50400001928E-02 0. -1.
    10030    2    1    2    0    0  0.00000000000E+00  0.00000000000E+00  0.10738429849E+04  0.31953072814E+04  0.30094600623E+04 0.  0.
        2    1    3    3  502    0 -0.11107548957E+04 -0.15721470605E+03 -0.52786490419E+03  0.12398121871E+04  0.25500000920E-02 0. -1.
       -2    1    3    3    0  502  0.11107548957E+04  0.15721470605E+03  0.16017078890E+04  0.19554950943E+04  0.25500000920E-02 0.  1.
</event>
<event>
 5   0  0.4935331E-06  0.2988543E+04  0.7818609E-02  0.8247010E-01
       -2   -1    0    0    0  501  0.00000000000E+00  0.00000000000E+00  0.10691331041E+04  0.10691331041E+04  0.25500000920E-02 0. -1.
        2   -1    0    0  501    0  0.00000000000E+00  0.00000000000E+00 -0.20884655450E+04  0.20884655450E+04  0.25500000920E-02 0.  1.
    10030    2    1    2    0    0  0.00000000000E+00  0.00000000000E+00 -0.10193324409E+04  0.31575986491E+04  0.29885432243E+04 0.  0.
        5    1    3    3  502    0  0.32517072184E+03  0.74804517315E+03  0.81316261043E+03  0.11517652106E+04  0.46999998093E+01 0. -1.
       -5    1    3    3    0  502 -0.32517072184E+03 -0.74804517315E+03 -0.18324950514E+04  0.20058334384E+04  0.46999998093E+01 0.  1.
</event>
<event>
 5   0  0.1686012E-06  0.2748169E+04  0.7818609E-02  0.8319543E-01
        1   -1    0    0  501    0  0.00000000000E+00  0.00000000000E+00  0.98981995807E+03  0.98981995808E+03  0.50400001928E-02 0. -1.
       -1   -1    0    0    0  501  0.00000000000E+00  0.00000000000E+00 -0.19075275193E+04  0.19075275193E+04  0.50400001928E-02 0.  1.
    10030    2    1    2    0    0  0.00000000000E+00  0.00000000000E+00 -0.91770756118E+03  0.28973474773E+04  0.27481694337E+04 0.  0.
        4    1    3    3  502    0 -0.20196234701E+03 -0.11888788359E+04 -0.11533096559E+04  0.16686361052E+04  0.12699999809E+01 0.  1.
       -4    1    3    3    0  502  0.20196234701E+03  0.11888788359E+04  0.23560209473E+03  0.12287113722E+04  0.12699999809E+01 0. -1.
</event>
<event>
 5   0  0.1672907E-06  0.2962698E+04  0.7818609E-02  0.8254464E-01
        1   -1    0    0  501    0  0.00000000000E+00  0.00000000000E+00  0.15045552580E+04  0.15045552580E+04  0.50400001928E-02 0. -1.
       -1   -1    0    0    0  501  0.00000000000E+00  0.00000000000E+00 -0.14585006227E+04  0.14585006227E+04  0.50400001928E-02 0.  1.
    10030    2    1    2    0    0  0.00000000000E+00  0.00000000000E+00  0.46054635307E+02  0.29630558807E+04  0.29626979466E+04 0.  0.
        5    1    3    3  502    0  0.42931772205E+03  0.57395247105E+03  0.13195779944E+04  0.15016801653E+04  0.46999998093E+01 0. -1.
       -5    1    3    3    0  502 -0.42931772205E+03 -0.57395247105E+03 -0.12735233591E+04  0.14613757154E+04  0.46999998093E+01 0.  1.
</event>
<event>
 5   0  0.4702748E-06  0.2991445E+04  0.7818609E-02  0.8246178E-01
       -2   -1    0    0    0  501  0.00000000000E+00  0.00000000000E+00  0.15634006658E+04  0.15634006659E+04  0.25500000920E-02 0. -1.
        2   -1    0    0  501    0  0.00000000000E+00  0.00000000000E+00 -0.14309735870E+04  0.14309735870E+04  0.25500000920E-02 0.  1.
    10030    2    1    2    0    0  0.00000000000E+00  0.00000000000E+00  0.13242707885E+03  0.29943742529E+04  0.29914445064E+04 0.  0.
        2    1    3    3  502    0  0.86455364173E+03  0.21127210662E+01  0.12879528852E+04  0.15512189070E+04  0.25500000920E-02 0. -1.
       -2    1    3    3    0  502 -0.86455364173E+03 -0.21127210662E+01 -0.11555258064E+04  0.14431553458E+04  0.25500000920E-02 0.  1.
</event>
<event>
 5   0  0.1734885E-06  0.2971260E+04  0.7818609E-02  0.8251986E-01
       -1   -1    0    0    0  501  0.00000000000E+00  0.00000000000E+00  0.13761181936E+04  0.13761181936E+04  0.50400001928E-02 0. -1.
        1   -1    0    0  501    0  0.00000000000E+00  0.00000000000E+00 -0.16038565409E+04  0.16038565409E+04  0.50400001928E-02 0.  1.
    10030    2    1    2    0    0  0.00000000000E+00  0.00000000000E+00 -0.22773834730E+03  0.29799747346E+04  0.29712597772E+04 0.  0.
        2    1    3    3  502    0  0.13312801167E+04  0.65526720404E+03 -0.18766697885E+03  0.14956272105E+04  0.25500000920E-02 0.  1.
       -2    1    3    3    0  502 -0.13312801167E+04 -0.65526720404E+03 -0.40071368447E+02  0.14843475241E+04  0.25500000920E-02 0. -1.
</event>
<event>
 5   0  0.4935331E-06  0.2627164E+04  0.7818609E-02  0.8359032E-01
        2   -1    0    0  501    0  0.00000000000E+00  0.00000000000E+00  0.22576446976E+04  0.22576446977E+04  0.25500000920E-02 0.  1.
       -2   -1    0    0    0  501  0.00000000000E+00  0.00000000000E+00 -0.76429112435E+03  0.76429112435E+03  0.25500000920E-02 0. -1.
    10030    2    1    2    0    0  0.00000000000E+00  0.00000000000E+00  0.14933535733E+04  0.30219358220E+04  0.26271641017E+04 0.  0.
        5    1    3    3  502    0  0.68349199394E+03 -0.93331618738E+03  0.30886983250E+02  0.11572452234E+04  0.46999998093E+01 0. -1.
       -5    1    3    3    0  502 -0.68349199394E+03  0.93331618738E+03  0.14624665901E+04  0.18646905986E+04  0.46999998093E+01 0.  1.
</event>
<event>
 5   0  0.1700885E-06  0.2911857E+04  0.7818609E-02  0.8269358E-01
        1   -1    0    0  501    0  0.00000000000E+00  0.00000000000E+00  0.19001478827E+04  0.19001478827E+04  0.50400001928E-02 0. -1.
       -1   -1    0    0    0  501  0.00000000000E+00  0.00000000000E+00 -0.11155594773E+04  0.11155594773E+04  0.50400001928E-02 0.  1.
    10030    2    1    2    0    0  0.00000000000E+00  0.00000000000E+00  0.78458840533E+03  0.30157073600E+04  0.29118571248E+04 0.  0.
        1    1    3    3  502    0  0.26883272912E+03 -0.78450214332E+03 -0.84705206846E+03  0.11854163217E+04  0.50400001928E-02 0.  1.
       -1    1    3    3    0  502 -0.26883272912E+03  0.78450214332E+03  0.16316404738E+04  0.18302910383E+04  0.50400001928E-02 0. -1.
</event>
<event>
 5   0  0.5003556E-06  0.3005416E+04  0.7818609E-02  0.8242186E-01
        2   -1    0    0  501    0  0.00000000000E+00  0.00000000000E+00  0.20527939276E+04  0.20527939276E+04  0.25500000920E-02 0. -1.
       -2   -1    0    0    0  501  0.00000000000E+00  0.00000000000E+00 -0.11000279953E+04  0.11000279953E+04  0.25500000920E-02 0.  1.
    10030    2    1    2    0    0  0.00000000000E+00  0.00000000000E+00  0.95276593222E+03  0.31528219229E+04  0.30054156378E+04 0.  0.
        3    1    3    3  502    0  0.63141310254E+03 -0.80476294635E+03  0.16311948572E+04  0.19253889421E+04  0.10100000352E+00 0. -1.
       -3    1    3    3    0  502 -0.63141310254E+03  0.80476294635E+03 -0.67842892502E+03  0.12274329808E+04  0.10100000352E+00 0.  1.
</event>
<event>
 5   0  0.4935331E-06  0.3026940E+04  0.7818609E-02  0.8236080E-01
        2   -1    0    0  501    0  0.00000000000E+00  0.00000000000E+00  0.24407748410E+04  0.24407748410E+04  0.25500000920E-02 0. -1.
       -2   -1    0    0    0  501  0.00000000000E+00  0.00000000000E+00 -0.93846896202E+03  0.93846896202E+03  0.25500000920E-02 0.  1.
    10030    2    1    2    0    0  0.00000000000E+00  0.00000000000E+00  0.15023058790E+04  0.33792438030E+04  0.30269399938E+04 0.  0.
        5    1    3    3  502    0  0.62154961801E+03  0.10300497929E+04  0.17763138665E+04  0.21453763180E+04  0.46999998093E+01 0. -1.
       -5    1    3    3    0  502 -0.62154961801E+03 -0.10300497929E+04 -0.27400798750E+03  0.12338674851E+04  0.46999998093E+01 0.  1.
</event>
<event>
 5   0  0.1700885E-06  0.2997801E+04  0.7818609E-02  0.8244359E-01
       -1   -1    0    0    0  501  0.00000000000E+00  0.00000000000E+00  0.11344424815E+04  0.11344424815E+04  0.50400001928E-02 0.  1.
        1   -1    0    0  501    0  0.00000000000E+00  0.00000000000E+00 -0.19804459387E+04  0.19804459387E+04  0.50400001928E-02 0. -1.
    10030    2    1    2    0    0  0.00000000000E+00  0.00000000000E+00 -0.84600345716E+03  0.31148884202E+04  0.29978005305E+04 0.  0.
        1    1    3    3  502    0  0.34767224984E+03  0.11866300393E+04  0.45728037676E+03  0.13183596575E+04  0.50400001928E-02 0.  1.
       -1    1    3    3    0  502 -0.34767224984E+03 -0.11866300393E+04 -0.13032838339E+04  0.17965287627E+04  0.50400001928E-02 0. -1.
</event>
<event>
 5   0  0.4702748E-06  0.3016065E+04  0.7818609E-02  0.8239158E-01
       -2   -1    0    0    0  501  0.00000000000E+00  0.00000000000E+00  0.12081717399E+04  0.12081717399E+04  0.25500000920E-02 0.  1.
        2   -1    0    0  501    0  0.00000000000E+00  0.00000000000E+00 -0.18823173652E+04  0.18823173652E+04  0.25500000920E-02 0. -1.
    10030    2    1    2    0    0  0.00000000000E+00  0.00000000000E+00 -0.67414562524E+03  0.30904891051E+04  0.30160654146E+04 0.  0.
        2    1    3    3  502    0 -0.22125856131E+03  0.14726089177E+04 -0.93229539605E+02  0.14920536594E+04  0.25500000920E-02 0. -1.
       -2    1    3    3    0  502  0.22125856131E+03 -0.14726089177E+04 -0.58091608564E+03  0.15984354457E+04  0.25500000920E-02 0.  1.
</event>
<event>
 5   0  0.4935331E-06  0.2946617E+04  0.7818609E-02  0.8259141E-01
       -2   -1    0    0    0  501  0.00000000000E+00  0.00000000000E+00  0.14447326971E+04  0.14447326971E+04  0.25500000920E-02 0.  1.
        2   -1    0    0  501    0  0.00000000000E+00  0.00000000000E+00 -0.15024494353E+04  0.15024494353E+04  0.25500000920E-02 0. -1.
    10030    2    1    2    0    0  0.00000000000E+00  0.00000000000E+00 -0.57716738156E+02  0.29471821324E+04  0.29466169244E+04 0.  0.
        5    1    3    3  502    0 -0.91145706261E+02 -0.11906179504E+04  0.83428867719E+03  0.14566874512E+04  0.46999998093E+01 0.  1.
       -5    1    3    3    0  502  0.91145706261E+02  0.11906179504E+04 -0.89200541534E+03  0.14904946812E+04  0.46999998093E+01 0. -1.
</event>
<event>
 5   0  0.1686012E-06  0.2963413E+04  0.7818609E-02  0.8254256E-01
       -1   -1    0    0    0  501  0.00000000000E+00  0.00000000000E+00  0.69376535226E+03  0.69376535228E+03  0.50400001928E-02 0.  1.
        1   -1    0    0  501    0  0.00000000000E+00  0.00000000000E+00 -0.31645494224E+04  0.31645494224E+04  0.50400001928E-02 0. -1.
    10030    2    1    2    0    0  0.00000000000E+00  0.00000000000E+00 -0.24707840702E+04  0.38583147747E+04  0.29634134000E+04 0.  0.
        4    1    3    3  502    0 -0.63904253641E+03  0.27449938877E+03  0.46803201477E+03  0.83832025952E+03  0.12699999809E+01 0.  1.
       -4    1    3    3    0  502  0.63904253641E+03 -0.27449938877E+03 -0.29388160849E+04  0.30199945152E+04  0.12699999809E+01 0. -1.
</event>
<event>
 5   0  0.4935331E-06  0.2640829E+04  0.7818609E-02  0.8354463E-01
       -2   -1    0    0    0  501  0.00000000000E+00  0.00000000000E+00  0.88154330590E+03  0.88154330590E+03  0.25500000920E-02 0. -1.
        2   -1    0    0  501    0  0.00000000000E+00  0.00000000000E+00 -0.19777758540E+04  0.19777758540E+04  0.25500000920E-02 0.  1.
    10030    2    1    2    0    0  0.00000000000E+00  0.00000000000E+00 -0.10962325481E+04  0.28593191599E+04  0.26408294642E+04 0.  0.
        5    1    3    3  502    0 -0.49153070502E+03 -0.79765535559E+03 -0.15554770447E+04  0.18158709830E+04  0.46999998093E+01 0.  1.
       -5    1    3    3    0  502  0.49153070502E+03  0.79765535559E+03  0.45924449660E+03  0.10434481769E+04  0.46999998093E+01 0. -1.
</event>
<event>
 5   0  0.1686012E-06  0.2975992E+04  0.7818609E-02  0.8250620E-01
       -1   -1    0    0    0  501  0.00000000000E+00  0.00000000000E+00  0.14553973454E+04  0.14553973454E+04  0.50400001928E-02 0.  1.
        1   -1    0    0  501    0  0.00000000000E+00  0.00000000000E+00 -0.15213247177E+04  0.15213247177E+04  0.50400001928E-02 0. -1.
    10030    2    1    2    0    0  0.00000000000E+00  0.00000000000E+00 -0.65927372317E+02  0.29767220631E+04  0.29759919057E+04 0.  0.
        4    1    3    3  502    0  0.98083120139E+03  0.10746372465E+04  0.27897062496E+03  0.14814524224E+04  0.12699999809E+01 0.  1.
       -4    1    3    3    0  502 -0.98083120139E+03 -0.10746372465E+04 -0.34489799728E+03  0.14952696408E+04  0.12699999809E+01 0. -1.
</event>
<event>
 5   0  0.1672907E-06  0.3198490E+04  0.7818609E-02  0.8189216E-01
        1   -1    0    0  501    0  0.00000000000E+00  0.00000000000E+00  0.27879720905E+04  0.27879720906E+04  0.50400001928E-02 0. -1.
       -1   -1    0    0    0  501  0.00000000000E+00  0.00000000000E+00 -0.91736370786E+03  0.91736370787E+03  0.50400001928E-02 0.  1.
    10030    2    1    2    0    0  0.00000000000E+00  0.00000000000E+00  0.18706083827E+04  0.37053357984E+04  0.31984899027E+04 0.  0.
        5    1    3    3  502    0 -0.10443100262E+04 -0.28196649793E+03  0.22998715606E+04  0.25415585419E+04  0.46999998093E+01 0. -1.
       -5    1    3    3    0  502  0.10443100262E+04  0.28196649793E+03 -0.42926317791E+03  0.11637772565E+04  0.46999998093E+01 0.  1.
</event>
<event>
 5   0  0.1672907E-06  0.3002797E+04  0.7818609E-02  0.8242933E-01
        1   -1    0    0  501    0  0.00000000000E+00  0.00000000000E+00  0.17029034697E+04  0.17029034697E+04  0.50400001928E-02 0. -1.
       -1   -1    0    0    0  501  0.00000000000E+00  0.00000000000E+00 -0.13237372679E+04  0.13237372679E+04  0.50400001928E-02 0.  1.
    10030    2    1    2    0    0  0.00000000000E+00  0.00000000000E+00  0.37916620178E+03  0.30266407376E+04  0.30027965542E+04 0.  0.
        5    1    3    3  502    0  0.10221813976E+04  0.92882548736E+03  0.78298808050E+03  0.15876599194E+04  0.46999998093E+01 0. -1.
       -5    1    3    3    0  502 -0.10221813976E+04 -0.92882548736E+03 -0.40382187872E+03  0.14389808182E+04  0.46999998093E+01 0.  1.
</event>
<event>
 5   0  0.1545375E-06  0.3053704E+04  0.7818609E-02  0.8228560E-01
       -3   -1    0    0    0  501  0.00000000000E+00  0.00000000000E+00  0.20692210931E+04  0.20692210956E+04  0.10100000352E+00 0.  1.
        3   -1    0    0  501    0  0.00000000000E+00  0.00000000000E+00 -0.11266444120E+04  0.11266444165E+04  0.10100000352E+00 0. -1.
    10030    2    1    2    0    0  0.00000000000E+00  0.00000000000E+00  0.94257668116E+03  0.31958655121E+04  0.30537035828E+04 0.  0.
        5    1    3    3  502    0 -0.95563109360E+03  0.58801352696E+03 -0.61241995983E+03  0.12783078628E+04  0.46999998093E+01 0. -1.
       -5    1    3    3    0  502  0.95563109360E+03 -0.58801352696E+03  0.15549966410E+04  0.19175576493E+04  0.46999998093E+01 0.  1.
</event>
<event>
 5   0  0.5003556E-06  0.3015124E+04  0.7818609E-02  0.8239425E-01
        2   -1    0    0  501    0  0.00000000000E+00  0.00000000000E+00  0.14737371203E+04  0.14737371203E+04  0.25500000920E-02 0. -1.
       -2   -1    0    0    0  501  0.00000000000E+00  0.00000000000E+00 -0.15421629827E+04  0.15421629827E+04  0.25500000920E-02 0.  1.
    10030    2    1    2    0    0  0.00000000000E+00  0.00000000000E+00 -0.68425862426E+02  0.30159001030E+04  0.30151237674E+04 0.  0.
        3    1    3    3  502    0 -0.35905166126E+03  0.91245101672E+03  0.11111835954E+04  0.14819628694E+04  0.10100000352E+00 0. -1.
       -3    1    3    3    0  502  0.35905166126E+03 -0.91245101672E+03 -0.11796094579E+04  0.15339372336E+04  0.10100000352E+00 0.  1.
</event>
<event>
 5   0  0.1672907E-06  0.2960171E+04  0.7818609E-02  0.8255197E-01
        1   -1    0    0  501    0  0.00000000000E+00  0.00000000000E+00  0.17712146636E+04  0.17712146636E+04  0.50400001928E-02 0. -1.
       -1   -1    0    0    0  501  0.00000000000E+00  0.00000000000E+00 -0.12368083977E+04  0.12368083977E+04  0.50400001928E-02 0.  1.
    10030    2    1    2    0    0  0.00000000000E+00  0.00000000000E+00  0.53440626593E+03  0.30080230614E+04  0.29601710560E+04 0.  0.
        5    1    3    3  502    0  0.70773318508E+03 -0.42488791554E+03  0.15155633538E+04  0.17257955764E+04  0.46999998093E+01 0. -1.
       -5    1    3    3    0  502 -0.70773318508E+03  0.42488791554E+03 -0.98115708791E+03  0.12822274850E+04  0.46999998093E+01 0.  1.
</event>
<event>
 5   0  0.1672907E-06  0.2996416E+04  0.7818609E-02  0.8244755E-01
       -1   -1    0    0    0  501  0.00000000000E+00  0.00000000000E+00  0.11812520719E+04  0.11812520719E+04  0.50400001928E-02 0.  1.
        1   -1    0    0  501    0  0.00000000000E+00  0.00000000000E+00 -0.19002103227E+04  0.19002103227E+04  0.50400001928E-02 0. -1.
    10030    2    1    2    0    0  0.00000000000E+00  0.00000000000E+00 -0.71895825084E+03  0.30814623946E+04  0.29964161131E+04 0.  0.
        5    1    3    3  502    0 -0.28501144734E+03 -0.83383487130E+03 -0.16055179023E+04  0.18314535053E+04  0.46999998093E+01 0. -1.
       -5    1    3    3    0  502  0.28501144734E+03  0.83383487130E+03  0.88655965144E+03  0.12500088893E+04  0.46999998093E+01 0.  1.
</event>
<event>
 5   0  0.5003556E-06  0.2967836E+04  0.7818609E-02  0.8252976E-01
        2   -1    0    0  501    0  0.00000000000E+00  0.00000000000E+00  0.77719618734E+03  0.77719618735E+03  0.25500000920E-02 0.  1.
       -2   -1    0    0    0  501  0.00000000000E+00  0.00000000000E+00 -0.28332775634E+04  0.28332775634E+04  0.25500000920E-02 0. -1.
    10030    2    1    2    0    0  0.00000000000E+00  0.00000000000E+00 -0.20560813761E+04  0.36104737508E+04  0.29678359254E+04 0.  0.
        3    1    3    3  502    0  0.97236404726E+03 -0.33772469286E+03 -0.23283459482E+04  0.25457306757E+04  0.10100000352E+00 0. -1.
       -3    1    3    3    0  502 -0.97236404726E+03  0.33772469286E+03  0.27226457208E+03  0.10647430751E+04  0.10100000352E+00 0.  1.
</event>
<event>
 5   0  0.4768570E-06  0.2996163E+04  0.7818609E-02  0.8244827E-01
        2   -1    0    0  501    0  0.00000000000E+00  0.00000000000E+00  0.13011276424E+04  0.13011276424E+04  0.25500000920E-02 0. -1.
       -2   -1    0    0    0  501  0.00000000000E+00  0.00000000000E+00 -0.17248485812E+04  0.17248485812E+04  0.25500000920E-02 0.  1.
    10030    2    1    2    0    0  0.00000000000E+00  0.00000000000E+00 -0.42372093883E+03  0.30259762236E+04  0.29961629915E+04 0.  0.
        1    1    3    3  502    0  0.22783938340E+03  0.99860892177E+03 -0.13159528119E+04  0.16675917866E+04  0.50400001928E-02 0.  1.
       -1    1    3    3    0  502 -0.22783938340E+03 -0.99860892177E+03  0.89223187312E+03  0.13583844370E+04  0.50400001928E-02 0. -1.
</event>
<event>
 5   0  0.4532420E-06  0.3030512E+04  0.7818609E-02  0.8235071E-01
        2   -1    0    0  501    0  0.00000000000E+00  0.00000000000E+00  0.27263894148E+04  0.27263894148E+04  0.25500000920E-02 0.  1.
       -2   -1    0    0    0  501  0.00000000000E+00  0.00000000000E+00 -0.84213991905E+03  0.84213991905E+03  0.25500000920E-02 0. -1.
    10030    2    1    2    0    0  0.00000000000E+00  0.00000000000E+00  0.18842494958E+04  0.35685293339E+04  0.30305124062E+04 0.  0.
        4    1    3    3  502    0  0.10411380553E+04  0.90644588876E+03  0.16778589764E+04  0.21727459485E+04  0.12699999809E+01 0.  1.
       -4    1    3    3    0  502 -0.10411380553E+04 -0.90644588876E+03  0.20639051939E+03  0.13957833853E+04  0.12699999809E+01 0. -1.
</event>
<event>
 5   0  0.1734885E-06  0.2941571E+04  0.7818609E-02  0.8260615E-01
        1   -1    0    0  501    0  0.00000000000E+00  0.00000000000E+00  0.17838277685E+04  0.17838277685E+04  0.50400001928E-02 0.  1.
       -1   -1    0    0    0  501  0.00000000000E+00  0.00000000000E+00 -0.12126783152E+04  0.12126783152E+04  0.50400001928E-02 0. -1.
    10030    2    1    2    0    0  0.00000000000E+00  0.00000000000E+00  0.57114945336E+03  0.29965060837E+04  0.29415705009E+04 0.  0.
        2    1    3    3  502    0  0.45137144502E+03 -0.10382063182E+04 -0.67089640886E+03  0.13159447298E+04  0.25500000920E-02 0. -1.
       -2    1    3    3    0  502 -0.45137144502E+03  0.10382063182E+04  0.12420458622E+04  0.16805613539E+04  0.25500000920E-02 0.  1.
</event>
<event>
 5   0  0.4935331E-06  0.3123581E+04  0.7818609E-02  0.8209296E-01
       -2   -1    0    0    0  501  0.00000000000E+00  0.00000000000E+00  0.97052703921E+03  0.97052703922E+03  0.25500000920E-02 0. -1.
        2   -1    0    0  501    0  0.00000000000E+00  0.00000000000E+00 -0.25132622030E+04  0.25132622030E+04  0.25500000920E-02 0.  1.
    10030    2    1    2    0    0  0.00000000000E+00  0.00000000000E+00 -0.15427351638E+04  0.34837892423E+04  0.31235805894E+04 0.  0.
        5    1    3    3  502    0 -0.13807170633E+04 -0.61298251327E+03 -0.32938634044E+03  0.15461709549E+04  0.46999998093E+01 0.  1.
       -5    1    3    3    0  502  0.13807170633E+04  0.61298251327E+03 -0.12133488234E+04  0.19376182874E+04  0.46999998093E+01 0. -1.
</event>
<event>
 5   0  0.1686012E-06  0.2995594E+04  0.7818609E-02  0.8244990E-01
       -1   -1    0    0    0  501  0.00000000000E+00  0.00000000000E+00  0.10662295432E+04  0.10662295433E+04  0.50400001928E-02 0.  1.
        1   -1    0    0  501    0  0.00000000000E+00  0.00000000000E+00 -0.21040458883E+04  0.21040458883E+04  0.50400001928E-02 0. -1.
    10030    2    1    2    0    0  0.00000000000E+00  0.00000000000E+00 -0.10378163451E+04  0.31702754316E+04  0.29955940222E+04 0.  0.
        4    1    3    3  502    0 -0.66520727282E+03  0.94115783397E+03 -0.15313078380E+04  0.19165552671E+04  0.12699999809E+01 0. -1.
       -4    1    3    3    0  502  0.66520727282E+03 -0.94115783397E+03  0.49349149295E+03  0.12537201645E+04  0.12699999809E+01 0.  1.
</event>
<event>
 5   0  0.4768570E-06  0.3038693E+04  0.7818609E-02  0.8232767E-01
        2   -1    0    0  501    0  0.00000000000E+00  0.00000000000E+00  0.84818725111E+03  0.84818725111E+03  0.25500000920E-02 0.  1.
       -2   -1    0    0    0  501  0.00000000000E+00  0.00000000000E+00 -0.27215849366E+04  0.27215849366E+04  0.25500000920E-02 0. -1.
    10030    2    1    2    0    0  0.00000000000E+00  0.00000000000E+00 -0.18733976855E+04  0.35697721877E+04  0.30386929072E+04 0.  0.
        1    1    3    3  502    0  0.92682383716E+02  0.55216702013E+03 -0.25959727606E+04  0.26556643267E+04  0.50400001928E-02 0. -1.
       -1    1    3    3    0  502 -0.92682383716E+02 -0.55216702013E+03  0.72257507510E+03  0.91410786101E+03  0.50400001928E-02 0.  1.
</event>
<event>
 5   0  0.1545375E-06  0.2820830E+04  0.7818609E-02  0.8296831E-01
       -4   -1    0    0    0  501  0.00000000000E+00  0.00000000000E+00  0.13567982479E+04  0.13567988422E+04  0.12699999809E+01 0. -1.
        4   -1    0    0  501    0  0.00000000000E+00  0.00000000000E+00 -0.14661493789E+04  0.14661499289E+04  0.12699999809E+01 0.  1.
    10030    2    1    2    0    0  0.00000000000E+00  0.00000000000E+00 -0.10935113099E+03  0.28229487711E+04  0.28208300365E+04 0.  0.
        3    1    3    3  502    0  0.17231001935E+03  0.48692652330E+03  0.12587439515E+04  0.13605971217E+04  0.10100000352E+00 0. -1.
       -3    1    3    3    0  502 -0.17231001935E+03 -0.48692652330E+03 -0.13680950825E+04  0.14623516495E+04  0.10100000352E+00 0.  1.
</event>
<event>
 5   0  0.4702748E-06  0.2974811E+04  0.7818609E-02  0.8250960E-01
        2   -1    0    0  501    0  0.00000000000E+00  0.00000000000E+00  0.23709032848E+04  0.23709032848E+04  0.25500000920E-02 0. -1.
       -2   -1    0    0    0  501  0.00000000000E+00  0.00000000000E+00 -0.93313618619E+03  0.93313618619E+03  0.25500000920E-02 0.  1.
    10030    2    1    2    0    0  0.00000000000E+00  0.00000000000E+00  0.14377670986E+04  0.33040394710E+04  0.29748113547E+04 0.  0.
        2    1    3    3  502    0  0.55989295863E+03  0.13219955554E+04  0.11507953963E+04  0.18399680480E+04  0.25500000920E-02 0. -1.
       -2    1    3    3    0  502 -0.55989295863E+03 -0.13219955554E+04  0.28697170227E+03  0.14640714229E+04  0.25500000920E-02 0.  1.
</event>
<event>
 5   0  0.1700885E-06  0.3015049E+04  0.7818609E-02  0.8239447E-01
        1   -1    0    0  501    0  0.00000000000E+00  0.00000000000E+00  0.20860197972E+04  0.20860197972E+04  0.50400001928E-02 0. -1.
       -1   -1    0    0    0  501  0.00000000000E+00  0.00000000000E+00 -0.10894577131E+04  0.10894577131E+04  0.50400001928E-02 0.  1.
    10030    2    1    2    0    0  0.00000000000E+00  0.00000000000E+00  0.99656208417E+03  0.31754775103E+04  0.30150491590E+04 0.  0.
        1    1    3    3  502    0 -0.22207823146E+03 -0.99674218399E+03  0.16662594804E+04  0.19542861556E+04  0.50400001928E-02 0. -1.
       -1    1    3    3    0  502  0.22207823146E+03  0.99674218399E+03 -0.66969739620E+03  0.12211913547E+04  0.50400001928E-02 0.  1.
</event>
<event>
 5   0  0.1686012E-06  0.2962617E+04  0.7818609E-02  0.8254487E-01
        1   -1    0    0  501    0  0.00000000000E+00  0.00000000000E+00  0.76740843323E+03  0.76740843325E+03  0.50400001928E-02 0. -1.
       -1   -1    0    0    0  501  0.00000000000E+00  0.00000000000E+00 -0.28593306900E+04  0.28593306900E+04  0.50400001928E-02 0.  1.
    10030    2    1    2    0    0  0.00000000000E+00  0.00000000000E+00 -0.20919222567E+04  0.36267391232E+04  0.29626167386E+04 0.  0.
        4    1    3    3  502    0  0.15987125605E+03  0.13918790489E+03 -0.28406678297E+04  0.28485658537E+04  0.12699999809E+01 0.  1.
       -4    1    3    3    0  502 -0.15987125605E+03 -0.13918790489E+03  0.74874557298E+03  0.77817326948E+03  0.12699999809E+01 0. -1.
</event>
<event>
 5   0  0.4702748E-06  0.3025306E+04  0.7818609E-02  0.8236541E-01
        2   -1    0    0  501    0  0.00000000000E+00  0.00000000000E+00  0.11114533677E+04  0.11114533677E+04  0.25500000920E-02 0. -1.
       -2   -1    0    0    0  501  0.00000000000E+00  0.00000000000E+00 -0.20586727887E+04  0.20586727887E+04  0.25500000920E-02 0.  1.
    10030    2    1    2    0    0  0.00000000000E+00  0.00000000000E+00 -0.94721942102E+03  0.31701261565E+04  0.30253058054E+04 0.  0.
        2    1    3    3  502    0 -0.40230063297E+03  0.21738174799E+03  0.10372926798E+04  0.11336122473E+04  0.25500000920E-02 0. -1.
       -2    1    3    3    0  502  0.40230063297E+03 -0.21738174799E+03 -0.19845121009E+04  0.20365139091E+04  0.25500000920E-02 0.  1.
</event>
<event>
 5   0  0.4935331E-06  0.2943289E+04  0.7818609E-02  0.8260113E-01
       -2   -1    0    0    0  501  0.00000000000E+00  0.00000000000E+00  0.17695460694E+04  0.17695460694E+04  0.25500000920E-02 0.  1.
        2   -1    0    0  501    0  0.00000000000E+00  0.00000000000E+00 -0.12238943840E+04  0.12238943840E+04  0.25500000920E-02 0. -1.
    10030    2    1    2    0    0  0.00000000000E+00  0.00000000000E+00  0.54565168542E+03  0.29934404535E+04  0.29432889744E+04 0.  0.
        5    1    3    3  502    0  0.27701335835E+03  0.13217078379E+04 -0.32200511279E+03  0.13882929777E+04  0.46999998093E+01 0. -1.
       -5    1    3    3    0  502 -0.27701335835E+03 -0.13217078379E+04  0.86765679821E+03  0.16051474757E+04  0.46999998093E+01 0.  1.
</event>
<event>
 5   0  0.1700885E-06  0.2920429E+04  0.7818609E-02  0.8266825E-01
       -1   -1    0    0    0  501  0.00000000000E+00  0.00000000000E+00  0.20047133083E+04  0.20047133083E+04  0.50400001928E-02 0.  1.
        1   -1    0    0  501    0  0.00000000000E+00  0.00000000000E+00 -0.10636068899E+04  0.10636068899E+04  0.50400001928E-02 0. -1.
    10030    2    1    2    0    0  0.00000000000E+00  0.00000000000E+00  0.94110641846E+03  0.30683201982E+04  0.29204293430E+04 0.  0.
        1    1    3    3  502    0 -0.16960128762E+03 -0.34405908925E+03 -0.10097258611E+04  0.10801331253E+04  0.50400001928E-02 0. -1.
       -1    1    3    3    0  502  0.16960128762E+03  0.34405908925E+03  0.19508322796E+04  0.19881870729E+04  0.50400001928E-02 0.  1.
</event>
<event>
 5   0  0.1734885E-06  0.2986336E+04  0.7818609E-02  0.8247644E-01
        1   -1    0    0  501    0  0.00000000000E+00  0.00000000000E+00  0.15389196059E+04  0.15389196059E+04  0.50400001928E-02 0.  1.
       -1   -1    0    0    0  501  0.00000000000E+00  0.00000000000E+00 -0.14487765421E+04  0.14487765421E+04  0.50400001928E-02 0. -1.
    10030    2    1    2    0    0  0.00000000000E+00  0.00000000000E+00  0.90143063842E+02  0.29876961480E+04  0.29863359659E+04 0.  0.
        2    1    3    3  502    0  0.12106871702E+04  0.48986380338E+03 -0.67901267006E+03  0.14720014185E+04  0.25500000920E-02 0. -1.
       -2    1    3    3    0  502 -0.12106871702E+04 -0.48986380338E+03  0.76915573390E+03  0.15156947295E+04  0.25500000920E-02 0.  1.
</event>
<event>
 5   0  0.4532420E-06  0.2978190E+04  0.7818609E-02  0.8249986E-01
        2   -1    0    0  501    0  0.00000000000E+00  0.00000000000E+00  0.22456054304E+04  0.22456054304E+04  0.25500000920E-02 0. -1.
       -2   -1    0    0    0  501  0.00000000000E+00  0.00000000000E+00 -0.98744174396E+03  0.98744174396E+03  0.25500000920E-02 0.  1.
    10030    2    1    2    0    0  0.00000000000E+00  0.00000000000E+00  0.12581636864E+04  0.32330471743E+04  0.29781904186E+04 0.  0.
        4    1    3    3  502    0 -0.12289403938E+04 -0.29418919007E+03  0.14842506952E+04  0.19493187297E+04  0.12699999809E+01 0. -1.
       -4    1    3    3    0  502  0.12289403938E+04  0.29418919007E+03 -0.22608700876E+03  0.12837284446E+04  0.12699999809E+01 0.  1.
</event>
<event>
 5   0  0.1545375E-06  0.2894065E+04  0.7818609E-02  0.8274645E-01
       -3   -1    0    0    0  501  0.00000000000E+00  0.00000000000E+00  0.11568686322E+04  0.11568686366E+04  0.10100000352E+00 0. -1.
        3   -1    0    0  501    0  0.00000000000E+00  0.00000000000E+00 -0.18099752615E+04  0.18099752643E+04  0.10100000352E+00 0.  1.
    10030    2    1    2    0    0  0.00000000000E+00  0.00000000000E+00 -0.65310662932E+03  0.29668439008E+04  0.28940653867E+04 0.  0.
        1    1    3    3  502    0 -0.19757586239E+03  0.12274021585E+04 -0.10856827131E+04  0.16505330150E+04  0.50400001928E-02 0.  1.
       -1    1    3    3    0  502  0.19757586239E+03 -0.12274021585E+04  0.43257608377E+03  0.13163108859E+04  0.50400001928E-02 0. -1.
</event>
<event>
 5   0  0.4532420E-06  0.2878044E+04  0.7818609E-02  0.8279440E-01
        2   -1    0    0  501    0  0.00000000000E+00  0.00000000000E+00  0.22565952728E+04  0.22565952728E+04  0.25500000920E-02 0.  1.
       -2   -1    0    0    0  501  0.00000000000E+00  0.00000000000E+00 -0.91765840886E+03  0.91765840886E+03  0.25500000920E-02 0. -1.
    10030    2    1    2    0    0  0.00000000000E+00  0.00000000000E+00  0.13389368639E+04  0.31742536817E+04  0.28780435212E+04 0.  0.
        4    1    3    3  502    0  0.70609498889E+02 -0.99041182965E+03  0.18182442124E+04  0.20716937328E+04  0.12699999809E+01 0.  1.
       -4    1    3    3    0  502 -0.70609498889E+02  0.99041182965E+03 -0.47930734847E+03  0.11025599489E+04  0.12699999809E+01 0. -1.
</event>
<event>
 5   0  0.4532420E-06  0.3110005E+04  0.7818609E-02  0.8212998E-01
        2   -1    0    0  501    0  0.00000000000E+00  0.00000000000E+00  0.28133885493E+04  0.28133885493E+04  0.25500000920E-02 0.  1.
       -2   -1    0    0    0  501  0.00000000000E+00  0.00000000000E+00 -0.85947341179E+03  0.85947341180E+03  0.25500000920E-02 0. -1.
    10030    2    1    2    0    0  0.00000000000E+00  0.00000000000E+00  0.19539151376E+04  0.36728619611E+04  0.31100049230E+04 0.  0.
        4    1    3    3  502    0  0.18831357354E+03 -0.76797377017E+03  0.25582335512E+04  0.26776493850E+04  0.12699999809E+01 0.  1.
       -4    1    3    3    0  502 -0.18831357354E+03  0.76797377017E+03 -0.60431841367E+03  0.99521257611E+03  0.12699999809E+01 0. -1.
</event>
<event>
 5   0  0.5003556E-06  0.2658171E+04  0.7818609E-02  0.8348706E-01
       -2   -1    0    0    0  501  0.00000000000E+00  0.00000000000E+00  0.13985806926E+04  0.13985806926E+04  0.25500000920E-02 0. -1.
        2   -1    0    0  501    0  0.00000000000E+00  0.00000000000E+00 -0.12630435144E+04  0.12630435144E+04  0.25500000920E-02 0.  1.
    10030    2    1    2    0    0  0.00000000000E+00  0.00000000000E+00  0.13553717819E+03  0.26616242071E+04  0.26581710052E+04 0.  0.
        3    1    3    3  502    0  0.13924411301E+03 -0.50432381679E+03  0.12911318811E+04  0.13931091055E+04  0.10100000352E+00 0. -1.
       -3    1    3    3    0  502 -0.13924411301E+03  0.50432381679E+03 -0.11555947029E+04  0.12685151015E+04  0.10100000352E+00 0.  1.
</event>
<event>
 5   0  0.1734885E-06  0.2936418E+04  0.7818609E-02  0.8262124E-01
        1   -1    0    0  501    0  0.00000000000E+00  0.00000000000E+00  0.16176281594E+04  0.16176281594E+04  0.50400001928E-02 0. -1.
       -1   -1    0    0    0  501  0.00000000000E+00  0.00000000000E+00 -0.13325915969E+04  0.13325915969E+04  0.50400001928E-02 0.  1.
    10030    2    1    2    0    0  0.00000000000E+00  0.00000000000E+00  0.28503656255E+03  0.29502197563E+04  0.29364180166E+04 0.  0.
        2    1    3    3  502    0  0.61526440780E+01 -0.29240913794E+03  0.15880639171E+04  0.16147717993E+04  0.25500000920E-02 0. -1.
       -2    1    3    3    0  502 -0.61526440780E+01  0.29240913794E+03 -0.13030273546E+04  0.13354479570E+04  0.25500000920E-02 0.  1.
</event>
<event>
 5   0  0.1700885E-06  0.2978618E+04  0.7818609E-02  0.8249863E-01
        1   -1    0    0  501    0  0.00000000000E+00  0.00000000000E+00  0.61955146522E+03  0.61955146524E+03  0.50400001928E-02 0. -1.
       -1   -1    0    0    0  501  0.00000000000E+00  0.00000000000E+00 -0.35800756805E+04  0.35800756805E+04  0.50400001928E-02 0.  1.
    10030    2    1    2    0    0  0.00000000000E+00  0.00000000000E+00 -0.29605242153E+04  0.41996271458E+04  0.29786178899E+04 0.  0.
        1    1    3    3  502    0  0.16883482008E+03  0.14166739678E+04 -0.20826990658E+04  0.25245010846E+04  0.50400001928E-02 0.  1.
       -1    1    3    3    0  502 -0.16883482008E+03 -0.14166739678E+04 -0.87782514954E+03  0.16751260612E+04  0.50400001928E-02 0. -1.
</event>
<event>
 5   0  0.1545375E-06  0.2979683E+04  0.7818609E-02  0.8249557E-01
        3   -1    0    0  501    0  0.00000000000E+00  0.00000000000E+00  0.13762550182E+04  0.13762550219E+04  0.10100000352E+00 0.  1.
       -3   -1    0    0    0  501  0.00000000000E+00  0.00000000000E+00 -0.16128022616E+04  0.16128022648E+04  0.10100000352E+00 0. -1.
    10030    2    1    2    0    0  0.00000000000E+00  0.00000000000E+00 -0.23654724338E+03  0.29890572867E+04  0.29796826786E+04 0.  0.
        2    1    3    3  502    0  0.10759940066E+04  0.10299996232E+04 -0.14943403253E+03  0.14969946079E+04  0.25500000920E-02 0.  1.
       -2    1    3    3    0  502 -0.10759940066E+04 -0.10299996232E+04 -0.87113210844E+02  0.14920626788E+04  0.25500000920E-02 0. -1.
</event>
<event>
 5   0  0.4768570E-06  0.3100279E+04  0.7818609E-02  0.8215661E-01
        2   -1    0    0  501    0  0.00000000000E+00  0.00000000000E+00  0.26029356255E+04  0.26029356255E+04  0.25500000920E-02 0.  1.
       -2   -1    0    0    0  501  0.00000000000E+00  0.00000000000E+00 -0.92316237858E+03  0.92316237859E+03  0.25500000920E-02 0. -1.
    10030    2    1    2    0    0  0.00000000000E+00  0.00000000000E+00  0.16797732469E+04  0.35260980041E+04  0.31002788541E+04 0.  0.
        1    1    3    3  502    0 -0.26938322041E+02 -0.15498822531E+04  0.83026465302E+03  0.17584652586E+04  0.50400001928E-02 0.  1.
       -1    1    3    3    0  502  0.26938322041E+02  0.15498822531E+04  0.84950859387E+03  0.17676327454E+04  0.50400001928E-02 0. -1.
</event>
<event>
 5   0  0.1545375E-06  0.2478806E+04  0.7818609E-02  0.8410575E-01
       -4   -1    0    0    0  501  0.00000000000E+00  0.00000000000E+00  0.11488794158E+04  0.11488801178E+04  0.12699999809E+01 0. -1.
        4   -1    0    0  501    0  0.00000000000E+00  0.00000000000E+00 -0.13370575168E+04  0.13370581200E+04  0.12699999809E+01 0.  1.
    10030    2    1    2    0    0  0.00000000000E+00  0.00000000000E+00 -0.18817810102E+03  0.24859382378E+04  0.24788057456E+04 0.  0.
        4    1    3    3  502    0  0.10523617939E+04 -0.61306679250E+03  0.13635818831E+03  0.12255249511E+04  0.12699999809E+01 0. -1.
       -4    1    3    3    0  502 -0.10523617939E+04  0.61306679250E+03 -0.32453628933E+03  0.12604132867E+04  0.12699999809E+01 0.  1.
</event>
<event>
 5   0  0.4532420E-06  0.2982792E+04  0.7818609E-02  0.8248662E-01
       -2   -1    0    0    0  501  0.00000000000E+00  0.00000000000E+00  0.79251596694E+03  0.79251596694E+03  0.25500000920E-02 0.  1.
        2   -1    0    0  501    0  0.00000000000E+00  0.00000000000E+00 -0.28065839105E+04  0.28065839105E+04  0.25500000920E-02 0. -1.
    10030    2    1    2    0    0  0.00000000000E+00  0.00000000000E+00 -0.20140679435E+04  0.35990998774E+04  0.29827923572E+04 0.  0.
        4    1    3    3  502    0 -0.11719810799E+04 -0.59003459475E+03 -0.15162523232E+03  0.13208604387E+04  0.12699999809E+01 0.  1.
       -4    1    3    3    0  502  0.11719810799E+04  0.59003459475E+03 -0.18624427112E+04  0.22782394387E+04  0.12699999809E+01 0. -1.
</event>
<event>
 5   0  0.1672907E-06  0.2889224E+04  0.7818609E-02  0.8276091E-01
        1   -1    0    0  501    0  0.00000000000E+00  0.00000000000E+00  0.13061094441E+04  0.13061094442E+04  0.50400001928E-02 0.  1.
       -1   -1    0    0    0  501  0.00000000000E+00  0.00000000000E+00 -0.15978014089E+04  0.15978014089E+04  0.50400001928E-02 0. -1.
    10030    2    1    2    0    0  0.00000000000E+00  0.00000000000E+00 -0.29169196474E+03  0.29039108530E+04  0.28892237781E+04 0.  0.
        5    1    3    3  502    0 -0.13471847307E+04  0.29313789462E+03 -0.57936782057E+03  0.14955018173E+04  0.46999998093E+01 0. -1.
       -5    1    3    3    0  502  0.13471847307E+04 -0.29313789462E+03  0.28767585583E+03  0.14084090358E+04  0.46999998093E+01 0.  1.
</event>
<event>
 5   0  0.1709858E-06  0.2981704E+04  0.7818609E-02  0.8248975E-01
       -1   -1    0    0    0  501  0.00000000000E+00  0.00000000000E+00  0.92648767525E+03  0.92648767526E+03  0.50400001928E-02 0. -1.
        1   -1    0    0  501    0  0.00000000000E+00  0.00000000000E+00 -0.23989946680E+04  0.23989946680E+04  0.50400001928E-02 0.  1.
    10030    2    1    2    0    0  0.00000000000E+00  0.00000000000E+00 -0.14725069928E+04  0.33254823433E+04  0.29817035352E+04 0.  0.
        3    1    3    3  502    0  0.99467011013E+03 -0.89999363364E+03 -0.10640603139E+02  0.13414434022E+04  0.10100000352E+00 0. -1.
       -3    1    3    3    0  502 -0.99467011013E+03  0.89999363364E+03 -0.14618663896E+04  0.19840389411E+04  0.10100000352E+00 0.  1.
</event>
<event>
 5   0  0.1734885E-06  0.2785879E+04  0.7818609E-02  0.8307666E-01
        1   -1    0    0  501    0  0.00000000000E+00  0.00000000000E+00  0.27378643327E+04  0.27378643327E+04  0.50400001928E-02 0.  1.
       -1   -1    0    0    0  501  0.00000000000E+00  0.00000000000E+00 -0.70868408571E+03  0.70868408573E+03  0.50400001928E-02 0. -1.
    10030    2    1    2    0    0  0.00000000000E+00  0.00000000000E+00  0.20291802470E+04  0.34465484184E+04  0.27858793093E+04 0.  0.
        2    1    3    3  502    0 -0.71895879138E+03  0.99778427644E+03  0.18237705278E+04  0.21996850102E+04  0.25500000920E-02 0.  1.
       -2    1    3    3    0  502  0.71895879138E+03 -0.99778427644E+03  0.20540971918E+03  0.12468634082E+04  0.25500000920E-02 0. -1.
</event>
<event>
 5   0  0.1734885E-06  0.2999979E+04  0.7818609E-02  0.8243737E-01
        1   -1    0    0  501    0  0.00000000000E+00  0.00000000000E+00  0.13057634087E+04  0.13057634087E+04  0.50400001928E-02 0. -1.
       -1   -1    0    0    0  501  0.00000000000E+00  0.00000000000E+00 -0.17231059759E+04  0.17231059759E+04  0.50400001928E-02 0.  1.
    10030    2    1    2    0    0  0.00000000000E+00  0.00000000000E+00 -0.41734256717E+03  0.30288693846E+04  0.29999791551E+04 0.  0.
        2    1    3    3  502    0  0.76511486873E+03  0.33379915221E+03  0.10495831318E+04  0.13410620370E+04  0.25500000920E-02 0. -1.
       -2    1    3    3    0  502 -0.76511486873E+03 -0.33379915221E+03 -0.14669256990E+04  0.16878073477E+04  0.25500000920E-02 0.  1.
</event>
<event>
 5   0  0.1672907E-06  0.3051646E+04  0.7818609E-02  0.8229135E-01
       -1   -1    0    0    0  501  0.00000000000E+00  0.00000000000E+00  0.11455661531E+04  0.11455661531E+04  0.50400001928E-02 0.  1.
        1   -1    0    0  501    0  0.00000000000E+00  0.00000000000E+00 -0.20323019919E+04  0.20323019919E+04  0.50400001928E-02 0. -1.
    10030    2    1    2    0    0  0.00000000000E+00  0.00000000000E+00 -0.88673583882E+03  0.31778681450E+04  0.30516463588E+04 0.  0.
        5    1    3    3  502    0 -0.18464370848E+03 -0.12633042129E+04 -0.13134402169E+04  0.18317145321E+04  0.46999998093E+01 0. -1.
       -5    1    3    3    0  502  0.18464370848E+03  0.12633042129E+04  0.42670437813E+03  0.13461536130E+04  0.46999998093E+01 0.  1.
</event>
<event>
 5   0  0.4768570E-06  0.2984255E+04  0.7818609E-02  0.8248241E-01
       -2   -1    0    0    0  501  0.00000000000E+00  0.00000000000E+00  0.17576185693E+04  0.17576185693E+04  0.25500000920E-02 0. -1.
        2   -1    0    0  501    0  0.00000000000E+00  0.00000000000E+00 -0.12667390095E+04  0.12667390095E+04  0.25500000920E-02 0.  1.
    10030    2    1    2    0    0  0.00000000000E+00  0.00000000000E+00  0.49087955978E+03  0.30243575788E+04  0.29842546845E+04 0.  0.
        1    1    3    3  502    0  0.10692517203E+04 -0.72808383275E+03  0.99909899505E+03  0.16345042400E+04  0.50400001928E-02 0. -1.
       -1    1    3    3    0  502 -0.10692517203E+04  0.72808383275E+03 -0.50821943528E+03  0.13898533387E+04  0.50400001928E-02 0.  1.
</event>
<event>
 5   0  0.1686012E-06  0.3053903E+04  0.7818609E-02  0.8228504E-01
       -1   -1    0    0    0  501  0.00000000000E+00  0.00000000000E+00  0.11246408219E+04  0.11246408219E+04  0.50400001928E-02 0. -1.
        1   -1    0    0  501    0  0.00000000000E+00  0.00000000000E+00 -0.20731776621E+04  0.20731776622E+04  0.50400001928E-02 0.  1.
    10030    2    1    2    0    0  0.00000000000E+00  0.00000000000E+00 -0.94853684028E+03  0.31978184840E+04  0.30539025720E+04 0.  0.
        4    1    3    3  502    0 -0.76271226073E+03  0.34351938313E+03  0.86336719910E+03  0.12021397975E+04  0.12699999809E+01 0. -1.
       -4    1    3    3    0  502  0.76271226073E+03 -0.34351938313E+03 -0.18119040394E+04  0.19956786866E+04  0.12699999809E+01 0.  1.
</event>
<event>
 5   0  0.1700885E-06  0.2978027E+04  0.7818609E-02  0.8250033E-01
        1   -1    0    0  501    0  0.00000000000E+00  0.00000000000E+00  0.30618532286E+04  0.30618532286E+04  0.50400001928E-02 0. -1.
       -1   -1    0    0    0  501  0.00000000000E+00  0.00000000000E+00 -0.72412389260E+03  0.72412389262E+03  0.50400001928E-02 0.  1.
    10030    2    1    2    0    0  0.00000000000E+00  0.00000000000E+00  0.23377293360E+04  0.37859771212E+04  0.29780269163E+04 0.  0.
        1    1    3    3  502    0 -0.36019109175E+03  0.12764087150E+04  0.30830909371E+03  0.13616208458E+04  0.50400001928E-02 0.  1.
       -1    1    3    3    0  502  0.36019109175E+03 -0.12764087150E+04  0.20294202423E+04  0.24243562754E+04  0.50400001928E-02 0. -1.
</event>
<event>
 5   0  0.4532420E-06  0.3005328E+04  0.7818609E-02  0.8242211E-01
       -2   -1    0    0    0  501  0.00000000000E+00  0.00000000000E+00  0.27354074243E+04  0.27354074243E+04  0.25500000920E-02 0.  1.
        2   -1    0    0  501    0  0.00000000000E+00  0.00000000000E+00 -0.82547059888E+03  0.82547059888E+03  0.25500000920E-02 0. -1.
    10030    2    1    2    0    0  0.00000000000E+00  0.00000000000E+00  0.19099368254E+04  0.35608780232E+04  0.30053275394E+04 0.  0.
        4    1    3    3  502    0 -0.12931754531E+04  0.66825446305E+03  0.51301580826E+03  0.15433902981E+04  0.12699999809E+01 0. -1.
       -4    1    3    3    0  502  0.12931754531E+04 -0.66825446305E+03  0.13969210172E+04  0.20174877251E+04  0.12699999809E+01 0.  1.
</event>
<event>
 5   0  0.1672907E-06  0.2986956E+04  0.7818609E-02  0.8247465E-01
        1   -1    0    0  501    0  0.00000000000E+00  0.00000000000E+00  0.23726651572E+04  0.23726651572E+04  0.50400001928E-02 0.  1.
       -1   -1    0    0    0  501  0.00000000000E+00  0.00000000000E+00 -0.94007226741E+03  0.94007226742E+03  0.50400001928E-02 0. -1.
    10030    2    1    2    0    0  0.00000000000E+00  0.00000000000E+00  0.14325928898E+04  0.33127374247E+04  0.29869561190E+04 0.  0.
        5    1    3    3  502    0  0.13242416619E+04 -0.47547238063E+03  0.16091503623E+03  0.14161940908E+04  0.46999998093E+01 0. -1.
       -5    1    3    3    0  502 -0.13242416619E+04  0.47547238063E+03  0.12716778536E+04  0.18965433339E+04  0.46999998093E+01 0.  1.
</event>
<event>
 5   0  0.1672907E-06  0.2997605E+04  0.7818609E-02  0.8244415E-01
       -1   -1    0    0    0  501  0.00000000000E+00  0.00000000000E+00  0.17594429251E+04  0.17594429252E+04  0.50400001928E-02 0.  1.
        1   -1    0    0  501    0  0.00000000000E+00  0.00000000000E+00 -0.12767726890E+04  0.12767726890E+04  0.50400001928E-02 0. -1.
    10030    2    1    2    0    0  0.00000000000E+00  0.00000000000E+00  0.48267023619E+03  0.30362156141E+04  0.29976048269E+04 0.  0.
        5    1    3    3  502    0 -0.13519430039E+04  0.18019854562E+03  0.87076127581E+03  0.16181683136E+04  0.46999998093E+01 0. -1.
       -5    1    3    3    0  502  0.13519430039E+04 -0.18019854562E+03 -0.38809103962E+03  0.14180473006E+04  0.46999998093E+01 0.  1.
</event>
<event>
 5   0  0.1686012E-06  0.2987353E+04  0.7818609E-02  0.8247352E-01
        1   -1    0    0  501    0  0.00000000000E+00  0.00000000000E+00  0.18349271249E+04  0.18349271249E+04  0.50400001928E-02 0.  1.
       -1   -1    0    0    0  501  0.00000000000E+00  0.00000000000E+00 -0.12158899694E+04  0.12158899694E+04  0.50400001928E-02 0. -1.
    10030    2    1    2    0    0  0.00000000000E+00  0.00000000000E+00  0.61903715549E+03  0.30508170944E+04  0.29873529995E+04 0.  0.
        4    1    3    3  502    0 -0.88963286635E+03 -0.84817570638E+03 -0.55716781264E+03  0.13495503881E+04  0.12699999809E+01 0. -1.
       -4    1    3    3    0  502  0.88963286635E+03  0.84817570638E+03  0.11762049681E+04  0.17012667062E+04  0.12699999809E+01 0.  1.
</event>
<event>
 5   0  0.4768570E-06  0.3008560E+04  0.7818609E-02  0.8241291E-01
        2   -1    0    0  501    0  0.00000000000E+00  0.00000000000E+00  0.14961791113E+04  0.14961791113E+04  0.25500000920E-02 0.  1.
       -2   -1    0    0    0  501  0.00000000000E+00  0.00000000000E+00 -0.15124249670E+04  0.15124249670E+04  0.25500000920E-02 0. -1.
    10030    2    1    2    0    0  0.00000000000E+00  0.00000000000E+00 -0.16245855723E+02  0.30086040784E+04  0.30085602159E+04 0.  0.
        1    1    3    3  502    0 -0.15849713624E+03  0.65533811848E+03 -0.13528615560E+04  0.15115633568E+04  0.50400001928E-02 0. -1.
       -1    1    3    3    0  502  0.15849713624E+03 -0.65533811848E+03  0.13366157003E+04  0.14970407216E+04  0.50400001928E-02 0.  1.
</event>
<event>
 5   0  0.1686012E-06  0.3001922E+04  0.7818609E-02  0.8243182E-01
        1   -1    0    0  501    0  0.00000000000E+00  0.00000000000E+00  0.20413494273E+04  0.20413494273E+04  0.50400001928E-02 0. -1.
       -1   -1    0    0    0  501  0.00000000000E+00  0.00000000000E+00 -0.11036244704E+04  0.11036244704E+04  0.50400001928E-02 0.  1.
    10030    2    1    2    0    0  0.00000000000E+00  0.00000000000E+00  0.93772495695E+03  0.31449738977E+04  0.30019215050E+04 0.  0.
        4    1    3    3  502    0 -0.58214840473E+03 -0.11972147063E+04  0.11951983526E+04  0.17890557658E+04  0.12699999809E+01 0. -1.
       -4    1    3    3    0  502  0.58214840473E+03  0.11972147063E+04 -0.25747339565E+03  0.13559181319E+04  0.12699999809E+01 0.  1.
</event>
<event>
 5   0  0.4768570E-06  0.3036629E+04  0.7818609E-02  0.8233348E-01
        2   -1    0    0  501    0  0.00000000000E+00  0.00000000000E+00  0.15067247878E+04  0.15067247878E+04  0.25500000920E-02 0.  1.
       -2   -1    0    0    0  501  0.00000000000E+00  0.00000000000E+00 -0.15299932051E+04  0.15299932051E+04  0.25500000920E-02 0. -1.
    10030    2    1    2    0    0  0.00000000000E+00  0.00000000000E+00 -0.23268417355E+02  0.30367179929E+04  0.30366288461E+04 0.  0.
        1    1    3    3  502    0 -0.13845450658E+04  0.55614035742E+03 -0.29275018229E+03  0.15205130074E+04  0.50400001928E-02 0. -1.
       -1    1    3    3    0  502  0.13845450658E+04 -0.55614035742E+03  0.26948176494E+03  0.15162049855E+04  0.50400001928E-02 0.  1.
</event>
<event>
 5   0  0.5003556E-06  0.2982392E+04  0.7818609E-02  0.8248777E-01
       -2   -1    0    0    0  501  0.00000000000E+00  0.00000000000E+00  0.22094823433E+04  0.22094823433E+04  0.25500000920E-02 0. -1.
        2   -1    0    0  501    0  0.00000000000E+00  0.00000000000E+00 -0.10064194831E+04  0.10064194831E+04  0.25500000920E-02 0.  1.
    10030    2    1    2    0    0  0.00000000000E+00  0.00000000000E+00  0.12030628601E+04  0.32159018264E+04  0.29823923805E+04 0.  0.
        3    1    3    3  502    0 -0.12433590752E+04 -0.73668965457E+03  0.20532164143E+03  0.14597295721E+04  0.10100000352E+00 0.  1.
       -3    1    3    3    0  502  0.12433590752E+04  0.73668965457E+03  0.99774121871E+03  0.17561722543E+04  0.10100000352E+00 0. -1.
</event>
<event>
 5   0  0.5003556E-06  0.3030506E+04  0.7818609E-02  0.8235073E-01
        2   -1    0    0  501    0  0.00000000000E+00  0.00000000000E+00  0.15127210868E+04  0.15127210868E+04  0.25500000920E-02 0.  1.
       -2   -1    0    0    0  501  0.00000000000E+00  0.00000000000E+00 -0.15177895493E+04  0.15177895493E+04  0.25500000920E-02 0. -1.
    10030    2    1    2    0    0  0.00000000000E+00  0.00000000000E+00 -0.50684625635E+01  0.30305106361E+04  0.30305063977E+04 0.  0.
        3    1    3    3  502    0  0.57713516822E+03  0.12015588420E+04 -0.72306531693E+03  0.15164603905E+04  0.10100000352E+00 0. -1.
       -3    1    3    3    0  502 -0.57713516822E+03 -0.12015588420E+04  0.71799685436E+03  0.15140502456E+04  0.10100000352E+00 0.  1.
</event>
<event>
 5   0  0.1700885E-06  0.3002057E+04  0.7818609E-02  0.8243144E-01
        1   -1    0    0  501    0  0.00000000000E+00  0.00000000000E+00  0.23823332771E+04  0.23823332771E+04  0.50400001928E-02 0. -1.
       -1   -1    0    0    0  501  0.00000000000E+00  0.00000000000E+00 -0.94574799777E+03  0.94574799778E+03  0.50400001928E-02 0.  1.
    10030    2    1    2    0    0  0.00000000000E+00  0.00000000000E+00  0.14365852793E+04  0.33280812749E+04  0.30020572459E+04 0.  0.
        1    1    3    3  502    0  0.73552316670E+02 -0.85013383366E+03  0.20872902112E+04  0.22549762536E+04  0.50400001928E-02 0. -1.
       -1    1    3    3    0  502 -0.73552316670E+02  0.85013383366E+03 -0.65070493186E+03  0.10731050213E+04  0.50400001928E-02 0.  1.
</event>
<event>
 5   0  0.1672907E-06  0.3013544E+04  0.7818609E-02  0.8239874E-01
       -1   -1    0    0    0  501  0.00000000000E+00  0.00000000000E+00  0.20891252261E+04  0.20891252261E+04  0.50400001928E-02 0. -1.
        1   -1    0    0  501    0  0.00000000000E+00  0.00000000000E+00 -0.10867522500E+04  0.10867522500E+04  0.50400001928E-02 0.  1.
    10030    2    1    2    0    0  0.00000000000E+00  0.00000000000E+00  0.10023729761E+04  0.31758774762E+04  0.30135437877E+04 0.  0.
        5    1    3    3  502    0  0.30648651804E+03 -0.12493552943E+04 -0.32562441132E+03  0.13269800241E+04  0.46999998093E+01 0. -1.
       -5    1    3    3    0  502 -0.30648651804E+03  0.12493552943E+04  0.13279973874E+04  0.18488974520E+04  0.46999998093E+01 0.  1.
</event>
<event>
 5   0  0.5003556E-06  0.3025744E+04  0.7818609E-02  0.8236418E-01
        2   -1    0    0  501    0  0.00000000000E+00  0.00000000000E+00  0.18491122309E+04  0.18491122309E+04  0.25500000920E-02 0. -1.
       -2   -1    0    0    0  501  0.00000000000E+00  0.00000000000E+00 -0.12377730903E+04  0.12377730903E+04  0.25500000920E-02 0.  1.
    10030    2    1    2    0    0  0.00000000000E+00  0.00000000000E+00  0.61133914068E+03  0.30868853212E+04  0.30257437831E+04 0.  0.
        3    1    3    3  502    0 -0.62657009554E+03  0.96139098421E+03  0.13114502801E+04  0.17426315033E+04  0.10100000352E+00 0. -1.
       -3    1    3    3    0  502  0.62657009554E+03 -0.96139098421E+03 -0.70011113938E+03  0.13442538179E+04  0.10100000352E+00 0.  1.
</event>
<event>
 5   0  0.1672907E-06  0.3051656E+04  0.7818609E-02  0.8229132E-01
       -1   -1    0    0    0  501  0.00000000000E+00  0.00000000000E+00  0.15185067378E+04  0.15185067378E+04  0.50400001928E-02 0. -1.
        1   -1    0    0  501    0  0.00000000000E+00  0.00000000000E+00 -0.15331849908E+04  0.15331849908E+04  0.50400001928E-02 0.  1.
    10030    2    1    2    0    0  0.00000000000E+00  0.00000000000E+00 -0.14678253029E+02  0.30516917287E+04  0.30516564282E+04 0.  0.
        5    1    3    3  502    0  0.11487749522E+04  0.14756892264E+03 -0.10006628392E+04  0.15306236263E+04  0.46999998093E+01 0.  1.
       -5    1    3    3    0  502 -0.11487749522E+04 -0.14756892264E+03  0.98598458616E+03  0.15210681023E+04  0.46999998093E+01 0. -1.
</event>
<event>
 5   0  0.4702748E-06  0.3015799E+04  0.7818609E-02  0.8239234E-01
        2   -1    0    0  501    0  0.00000000000E+00  0.00000000000E+00  0.21907862716E+04  0.21907862716E+04  0.25500000920E-02 0.  1.
       -2   -1    0    0    0  501  0.00000000000E+00  0.00000000000E+00 -0.10378740197E+04  0.10378740197E+04  0.25500000920E-02 0. -1.
    10030    2    1    2    0    0  0.00000000000E+00  0.00000000000E+00  0.11529122519E+04  0.32286602912E+04  0.30157985038E+04 0.  0.
        2    1    3    3  502    0 -0.10811554602E+03 -0.57106964350E+03  0.20660475785E+04  0.21462437200E+04  0.25500000920E-02 0.  1.
       -2    1    3    3    0  502  0.10811554602E+03  0.57106964350E+03 -0.91313532660E+03  0.10824165712E+04  0.25500000920E-02 0. -1.
</event>
<event>
 5   0  0.1709858E-06  0.2985846E+04  0.7818609E-02  0.8247784E-01
       -1   -1    0    0    0  501  0.00000000000E+00  0.00000000000E+00  0.10944567197E+04  0.10944567197E+04  0.50400001928E-02 0.  1.
        1   -1    0    0  501    0  0.00000000000E+00  0.00000000000E+00 -0.20364622687E+04  0.20364622687E+04  0.50400001928E-02 0. -1.
    10030    2    1    2    0    0  0.00000000000E+00  0.00000000000E+00 -0.94200554900E+03  0.31309189884E+04  0.29858464893E+04 0.  0.
        3    1    3    3  502    0 -0.98751842204E+03  0.36160703343E+03  0.64013679904E+03  0.12311488180E+04  0.10100000352E+00 0.  1.
       -3    1    3    3    0  502  0.98751842204E+03 -0.36160703343E+03 -0.15821423480E+04  0.18997701704E+04  0.10100000352E+00 0. -1.
</event>
<event>
 5   0  0.1709858E-06  0.2953700E+04  0.7818609E-02  0.8257077E-01
        1   -1    0    0  501    0  0.00000000000E+00  0.00000000000E+00  0.20730014788E+04  0.20730014788E+04  0.50400001928E-02 0. -1.
       -1   -1    0    0    0  501  0.00000000000E+00  0.00000000000E+00 -0.10521392481E+04  0.10521392481E+04  0.50400001928E-02 0.  1.
    10030    2    1    2    0    0  0.00000000000E+00  0.00000000000E+00  0.10208622307E+04  0.31251407270E+04  0.29537001996E+04 0.  0.
        3    1    3    3  502    0  0.13512152704E+04 -0.51730901730E+03  0.19710955041E+03  0.14602203640E+04  0.10100000352E+00 0. -1.
       -3    1    3    3    0  502 -0.13512152704E+04  0.51730901730E+03  0.82375268034E+03  0.16649203629E+04  0.10100000352E+00 0.  1.
</event>
<event>
 5   0  0.1686012E-06  0.3048740E+04  0.7818609E-02  0.8229948E-01
       -1   -1    0    0    0  501  0.00000000000E+00  0.00000000000E+00  0.12451137725E+04  0.12451137725E+04  0.50400001928E-02 0.  1.
        1   -1    0    0  501    0  0.00000000000E+00  0.00000000000E+00 -0.18662582354E+04  0.18662582354E+04  0.50400001928E-02 0. -1.
    10030    2    1    2    0    0  0.00000000000E+00  0.00000000000E+00 -0.62114446293E+03  0.31113720079E+04  0.30487399574E+04 0.  0.
        4    1    3    3  502    0  0.20617454873E+03  0.88443210822E+01 -0.18519363605E+04  0.18633990616E+04  0.12699999809E+01 0. -1.
       -4    1    3    3    0  502 -0.20617454873E+03 -0.88443210822E+01  0.12307918976E+04  0.12479729463E+04  0.12699999809E+01 0.  1.
</event>
<event>
 5   0  0.4532420E-06  0.2940439E+04  0.7818609E-02  0.8260946E-01
       -2   -1    0    0    0  501  0.00000000000E+00  0.00000000000E+00  0.14028906314E+04  0.14028906314E+04  0.25500000920E-02 0.  1.
        2   -1    0    0  501    0  0.00000000000E+00  0.00000000000E+00 -0.15407792380E+04  0.15407792380E+04  0.25500000920E-02 0. -1.
    10030    2    1    2    0    0  0.00000000000E+00  0.00000000000E+00 -0.13788860659E+03  0.29436698695E+04  0.29404385783E+04 0.  0.
        4    1    3    3  502    0  0.47363274969E+03 -0.13479131680E+04  0.27834505573E+03  0.14555670623E+04  0.12699999809E+01 0. -1.
       -4    1    3    3    0  502 -0.47363274969E+03  0.13479131680E+04 -0.41623366232E+03  0.14881028071E+04  0.12699999809E+01 0.  1.
</event>
<event>
 5   0  0.1709858E-06  0.2979239E+04  0.7818609E-02  0.8249684E-01
        1   -1    0    0  501    0  0.00000000000E+00  0.00000000000E+00  0.68623648751E+03  0.68623648753E+03  0.50400001928E-02 0. -1.
       -1   -1    0    0    0  501  0.00000000000E+00  0.00000000000E+00 -0.32335298751E+04  0.32335298751E+04  0.50400001928E-02 0.  1.
    10030    2    1    2    0    0  0.00000000000E+00  0.00000000000E+00 -0.25472933876E+04  0.39197663626E+04  0.29792389524E+04 0.  0.
        3    1    3    3  502    0 -0.27403401753E+03  0.81380647624E+03  0.32782380870E+03  0.91915400412E+03  0.10100000352E+00 0. -1.
       -3    1    3    3    0  502  0.27403401753E+03 -0.81380647624E+03 -0.28751171963E+04  0.30006123585E+04  0.10100000352E+00 0.  1.
</event>
<event>
 5   0  0.1672907E-06  0.2985607E+04  0.7818609E-02  0.8247853E-01
       -1   -1    0    0    0  501  0.00000000000E+00  0.00000000000E+00  0.14395875127E+04  0.14395875127E+04  0.50400001928E-02 0. -1.
        1   -1    0    0  501    0  0.00000000000E+00  0.00000000000E+00 -0.15479867075E+04  0.15479867075E+04  0.50400001928E-02 0.  1.
    10030    2    1    2    0    0  0.00000000000E+00  0.00000000000E+00 -0.10839919476E+03  0.29875742203E+04  0.29856070297E+04 0.  0.
        5    1    3    3  502    0 -0.13075049302E+04  0.58445502619E+03 -0.47552740561E+03  0.15090742936E+04  0.46999998093E+01 0. -1.
       -5    1    3    3    0  502  0.13075049302E+04 -0.58445502619E+03  0.36712821085E+03  0.14784999267E+04  0.46999998093E+01 0.  1.
</event>
<event>
 5   0  0.1686012E-06  0.2974199E+04  0.7818609E-02  0.8251137E-01
        1   -1    0    0  501    0  0.00000000000E+00  0.00000000000E+00  0.15228101485E+04  0.15228101485E+04  0.50400001928E-02 0. -1.
       -1   -1    0    0    0  501  0.00000000000E+00  0.00000000000E+00 -0.14522258404E+04  0.14522258404E+04  0.50400001928E-02 0.  1.
    10030    2    1    2    0    0  0.00000000000E+00  0.00000000000E+00  0.70584308060E+02  0.29750359889E+04  0.29741985459E+04 0.  0.
        4    1    3    3  502    0  0.86802361612E+03  0.12175172758E+03  0.12369522453E+04  0.15160280180E+04  0.12699999809E+01 0. -1.
       -4    1    3    3    0  502 -0.86802361612E+03 -0.12175172758E+03 -0.11663679372E+04  0.14590079709E+04  0.12699999809E+01 0.  1.
</event>
<event>
 5   0  0.4702748E-06  0.2999697E+04  0.7818609E-02  0.8243817E-01
       -2   -1    0    0    0  501  0.00000000000E+00  0.00000000000E+00  0.98787652438E+03  0.98787652438E+03  0.25500000920E-02 0. -1.
        2   -1    0    0  501    0  0.00000000000E+00  0.00000000000E+00 -0.22771532549E+04  0.22771532549E+04  0.25500000920E-02 0.  1.
    10030    2    1    2    0    0  0.00000000000E+00  0.00000000000E+00 -0.12892767305E+04  0.32650297792E+04  0.29996974800E+04 0.  0.
        2    1    3    3  502    0 -0.44471487888E+03 -0.13953660367E+04 -0.29239548874E+03  0.14934231891E+04  0.25500000920E-02 0.  1.
       -2    1    3    3    0  502  0.44471487888E+03  0.13953660367E+04 -0.99688124175E+03  0.17716065901E+04  0.25500000920E-02 0. -1.
</event>
<event>
 5   0  0.4532420E-06  0.2997999E+04  0.7818609E-02  0.8244303E-01
       -2   -1    0    0    0  501  0.00000000000E+00  0.00000000000E+00  0.10312920732E+04  0.10312920732E+04  0.25500000920E-02 0. -1.
        2   -1    0    0  501    0  0.00000000000E+00  0.00000000000E+00 -0.21788195337E+04  0.21788195337E+04  0.25500000920E-02 0.  1.
    10030    2    1    2    0    0  0.00000000000E+00  0.00000000000E+00 -0.11475274605E+04  0.32101116070E+04  0.29979988754E+04 0.  0.
        4    1    3    3  502    0 -0.75187127761E+03 -0.11658001716E+04 -0.11819253264E+04  0.18224570086E+04  0.12699999809E+01 0.  1.
       -4    1    3    3    0  502  0.75187127761E+03  0.11658001716E+04  0.34397865849E+02  0.13876545984E+04  0.12699999809E+01 0. -1.
</event>
<event>
 5   0  0.4532420E-06  0.3015988E+04  0.7818609E-02  0.8239180E-01
        2   -1    0    0  501    0  0.00000000000E+00  0.00000000000E+00  0.21337237429E+04  0.21337237429E+04  0.25500000920E-02 0.  1.
       -2   -1    0    0    0  501  0.00000000000E+00  0.00000000000E+00 -0.10657642981E+04  0.10657642981E+04  0.25500000920E-02 0. -1.
    10030    2    1    2    0    0  0.00000000000E+00  0.00000000000E+00  0.10679594448E+04  0.31994880410E+04  0.30159884530E+04 0.  0.
        4    1    3    3  502    0 -0.76675681291E+03 -0.10505558929E+04  0.13436055367E+04  0.18699896111E+04  0.12699999809E+01 0.  1.
       -4    1    3    3    0  502  0.76675681291E+03  0.10505558929E+04 -0.27564609191E+03  0.13294984299E+04  0.12699999809E+01 0. -1.
</event>
<event>
 5   0  0.1686012E-06  0.2969765E+04  0.7818609E-02  0.8252418E-01
       -1   -1    0    0    0  501  0.00000000000E+00  0.00000000000E+00  0.13087419007E+04  0.13087419007E+04  0.50400001928E-02 0.  1.
        1   -1    0    0  501    0  0.00000000000E+00  0.00000000000E+00 -0.16847297494E+04  0.16847297494E+04  0.50400001928E-02 0. -1.
    10030    2    1    2    0    0  0.00000000000E+00  0.00000000000E+00 -0.37598784874E+03  0.29934716501E+04  0.29697652530E+04 0.  0.
        4    1    3    3  502    0 -0.67792256446E+03  0.89175710746E+03 -0.11704874588E+04  0.16201395762E+04  0.12699999809E+01 0. -1.
       -4    1    3    3    0  502  0.67792256446E+03 -0.89175710746E+03  0.79449961006E+03  0.13733320740E+04  0.12699999809E+01 0.  1.
</event>
<event>
 5   0  0.4702748E-06  0.3043224E+04  0.7818609E-02  0.8231495E-01
       -2   -1    0    0    0  501  0.00000000000E+00  0.00000000000E+00  0.13996253726E+04  0.13996253726E+04  0.25500000920E-02 0.  1.
        2   -1    0    0  501    0  0.00000000000E+00  0.00000000000E+00 -0.16542302335E+04  0.16542302335E+04  0.25500000920E-02 0. -1.
    10030    2    1    2    0    0  0.00000000000E+00  0.00000000000E+00 -0.25460486088E+03  0.30538556061E+04  0.30432236900E+04 0.  0.
        2    1    3    3  502    0 -0.12354620078E+04 -0.88773350646E+03 -0.97781024730E+02  0.15244665559E+04  0.25500000920E-02 0. -1.
       -2    1    3    3    0  502  0.12354620078E+04  0.88773350646E+03 -0.15682383615E+03  0.15293890502E+04  0.25500000920E-02 0.  1.
</event>
<event>
 5   0  0.4532420E-06  0.3050764E+04  0.7818609E-02  0.8229382E-01
       -2   -1    0    0    0  501  0.00000000000E+00  0.00000000000E+00  0.14049290526E+04  0.14049290526E+04  0.25500000920E-02 0. -1.
        2   -1    0    0  501    0  0.00000000000E+00  0.00000000000E+00 -0.16561626157E+04  0.16561626157E+04  0.25500000920E-02 0.  1.
    10030    2    1    2    0    0  0.00000000000E+00  0.00000000000E+00 -0.25123356309E+03  0.30610916683E+04  0.30507644777E+04 0.  0.
        4    1    3    3  502    0 -0.10945824454E+04  0.49159794758E+03 -0.10706170555E+04  0.16081050227E+04  0.12699999809E+01 0.  1.
       -4    1    3    3    0  502  0.10945824454E+04 -0.49159794758E+03  0.81938349238E+03  0.14529866456E+04  0.12699999809E+01 0. -1.
</event>
<event>
 5   0  0.4935331E-06  0.3002819E+04  0.7818609E-02  0.8242926E-01
       -2   -1    0    0    0  501  0.00000000000E+00  0.00000000000E+00  0.86175545170E+03  0.86175545170E+03  0.25500000920E-02 0. -1.
        2   -1    0    0  501    0  0.00000000000E+00  0.00000000000E+00 -0.26158585018E+04  0.26158585018E+04  0.25500000920E-02 0.  1.
    10030    2    1    2    0    0  0.00000000000E+00  0.00000000000E+00 -0.17541030501E+04  0.34776139535E+04  0.30028188922E+04 0.  0.
        5    1    3    3  502    0 -0.16936850409E+02  0.40647810131E+03  0.79669598713E+03  0.89457134408E+03  0.46999998093E+01 0. -1.
       -5    1    3    3    0  502  0.16936850409E+02 -0.40647810131E+03 -0.25507990372E+04  0.25830426094E+04  0.46999998093E+01 0.  1.
</event>
<event>
 5   0  0.1734885E-06  0.3025507E+04  0.7818609E-02  0.8236485E-01
        1   -1    0    0  501    0  0.00000000000E+00  0.00000000000E+00  0.12163374683E+04  0.12163374683E+04  0.50400001928E-02 0. -1.
       -1   -1    0    0    0  501  0.00000000000E+00  0.00000000000E+00 -0.18814045540E+04  0.18814045540E+04  0.50400001928E-02 0.  1.
    10030    2    1    2    0    0  0.00000000000E+00  0.00000000000E+00 -0.66506708568E+03  0.30977420223E+04  0.30255068018E+04 0.  0.
        2    1    3    3  502    0  0.82747838856E+03  0.14447676887E+02 -0.16290580595E+04  0.18272272382E+04  0.25500000920E-02 0.  1.
       -2    1    3    3    0  502 -0.82747838856E+03 -0.14447676887E+02  0.96399097380E+03  0.12705147840E+04  0.25500000920E-02 0. -1.
</event>
<event>
 5   0  0.4935331E-06  0.3004379E+04  0.7818609E-02  0.8242482E-01
       -2   -1    0    0    0  501  0.00000000000E+00  0.00000000000E+00  0.17835277657E+04  0.17835277657E+04  0.25500000920E-02 0. -1.
        2   -1    0    0  501    0  0.00000000000E+00  0.00000000000E+00 -0.12652299089E+04  0.12652299089E+04  0.25500000920E-02 0.  1.
    10030    2    1    2    0    0  0.00000000000E+00  0.00000000000E+00  0.51829785677E+03  0.30487576746E+04  0.30043785863E+04 0.  0.
        5    1    3    3  502    0  0.26635870228E+03 -0.11699046848E+04  0.11763399217E+04  0.16803040294E+04  0.46999998093E+01 0. -1.
       -5    1    3    3    0  502 -0.26635870228E+03  0.11699046848E+04 -0.65804206491E+03  0.13684536452E+04  0.46999998093E+01 0.  1.
</event>
<event>
 5   0  0.1545375E-06  0.2786397E+04  0.7818609E-02  0.8307504E-01
        3   -1    0    0  501    0  0.00000000000E+00  0.00000000000E+00  0.14096369703E+04  0.14096369739E+04  0.10100000352E+00 0. -1.
       -3   -1    0    0    0  501  0.00000000000E+00  0.00000000000E+00 -0.13769516648E+04  0.13769516685E+04  0.10100000352E+00 0.  1.
    10030    2    1    2    0    0  0.00000000000E+00  0.00000000000E+00  0.32685305420E+02  0.27865886424E+04  0.27863969446E+04 0.  0.
        2    1    3    3  502    0 -0.52695736922E+03 -0.68006548605E+03  0.11122414086E+04  0.14061486711E+04  0.25500000920E-02 0. -1.
       -2    1    3    3    0  502  0.52695736922E+03  0.68006548605E+03 -0.10795561032E+04  0.13804399713E+04  0.25500000920E-02 0.  1.
</event>
<event>
 5   0  0.1734885E-06  0.3017457E+04  0.7818609E-02  0.8238763E-01
       -1   -1    0    0    0  501  0.00000000000E+00  0.00000000000E+00  0.16412848051E+04  0.16412848051E+04  0.50400001928E-02 0.  1.
        1   -1    0    0  501    0  0.00000000000E+00  0.00000000000E+00 -0.13868782107E+04  0.13868782107E+04  0.50400001928E-02 0. -1.
    10030    2    1    2    0    0  0.00000000000E+00  0.00000000000E+00  0.25440659447E+03  0.30281630158E+04  0.30174572963E+04 0.  0.
        2    1    3    3  502    0  0.10890259020E+04  0.83394914047E+03 -0.50336791932E+03  0.14611050086E+04  0.25500000920E-02 0. -1.
       -2    1    3    3    0  502 -0.10890259020E+04 -0.83394914047E+03  0.75777451378E+03  0.15670580072E+04  0.25500000920E-02 0.  1.
</event>
<event>
 5   0  0.4768570E-06  0.2978912E+04  0.7818609E-02  0.8249779E-01
        2   -1    0    0  501    0  0.00000000000E+00  0.00000000000E+00  0.21049194670E+04  0.21049194670E+04  0.25500000920E-02 0.  1.
       -2   -1    0    0    0  501  0.00000000000E+00  0.00000000000E+00 -0.10539494011E+04  0.10539494011E+04  0.25500000920E-02 0. -1.
    10030    2    1    2    0    0  0.00000000000E+00  0.00000000000E+00  0.10509700659E+04  0.31588688681E+04  0.29789116211E+04 0.  0.
        1    1    3    3  502    0 -0.30691997885E+03  0.27811590443E+03 -0.99165442783E+03  0.10746752226E+04  0.50400001928E-02 0. -1.
       -1    1    3    3    0  502  0.30691997885E+03 -0.27811590443E+03  0.20426244937E+04  0.20841936455E+04  0.50400001928E-02 0.  1.
</event>
<event>
 5   0  0.1686012E-06  0.2972892E+04  0.7818609E-02  0.8251514E-01
        1   -1    0    0  501    0  0.00000000000E+00  0.00000000000E+00  0.21066186834E+04  0.21066186834E+04  0.50400001928E-02 0.  1.
       -1   -1    0    0    0  501  0.00000000000E+00  0.00000000000E+00 -0.10488476958E+04  0.10488476958E+04  0.50400001928E-02 0. -1.
    10030    2    1    2    0    0  0.00000000000E+00  0.00000000000E+00  0.10577709876E+04  0.31554663792E+04  0.29728922968E+04 0.  0.
        4    1    3    3  502    0  0.64152286219E+03 -0.12901681163E+04  0.14116427638E+03  0.14477618301E+04  0.12699999809E+01 0. -1.
       -4    1    3    3    0  502 -0.64152286219E+03  0.12901681163E+04  0.91660671118E+03  0.17077045491E+04  0.12699999809E+01 0.  1.
</event>
<event>
 5   0  0.5003556E-06  0.3020372E+04  0.7818609E-02  0.8237937E-01
       -2   -1    0    0    0  501  0.00000000000E+00  0.00000000000E+00  0.15028285791E+04  0.15028285791E+04  0.25500000920E-02 0.  1.
        2   -1    0    0  501    0  0.00000000000E+00  0.00000000000E+00 -0.15175792777E+04  0.15175792777E+04  0.25500000920E-02 0. -1.
    10030    2    1    2    0    0  0.00000000000E+00  0.00000000000E+00 -0.14750698610E+02  0.30204078569E+04  0.30203718378E+04 0.  0.
        3    1    3    3  502    0 -0.31545352892E+03  0.55489814678E+03 -0.13760547477E+04  0.15168881176E+04  0.10100000352E+00 0. -1.
       -3    1    3    3    0  502  0.31545352892E+03 -0.55489814678E+03  0.13613040491E+04  0.15035197393E+04  0.10100000352E+00 0.  1.
</event>
<event>
 5   0  0.1672907E-06  0.3021049E+04  0.7818609E-02  0.8237746E-01
        1   -1    0    0  501    0  0.00000000000E+00  0.00000000000E+00  0.15596024670E+04  0.15596024670E+04  0.50400001928E-02 0. -1.
       -1   -1    0    0    0  501  0.00000000000E+00  0.00000000000E+00 -0.14629909408E+04  0.14629909408E+04  0.50400001928E-02 0.  1.
    10030    2    1    2    0    0  0.00000000000E+00  0.00000000000E+00  0.96611526266E+02  0.30225934078E+04  0.30210490102E+04 0.  0.
        5    1    3    3  502    0 -0.12118202165E+04 -0.82599954430E+03 -0.31365080055E+03  0.14997274416E+04  0.46999998093E+01 0.  1.
       -5    1    3    3    0  502  0.12118202165E+04  0.82599954430E+03  0.41026232682E+03  0.15228659662E+04  0.46999998093E+01 0. -1.
</event>
<event>
 5   0  0.1709858E-06  0.3008110E+04  0.7818609E-02  0.8241419E-01
       -1   -1    0    0    0  501  0.00000000000E+00  0.00000000000E+00  0.12056464448E+04  0.12056464448E+04  0.50400001928E-02 0.  1.
        1   -1    0    0  501    0  0.00000000000E+00  0.00000000000E+00 -0.18763225095E+04  0.18763225095E+04  0.50400001928E-02 0. -1.
    10030    2    1    2    0    0  0.00000000000E+00  0.00000000000E+00 -0.67067606472E+03  0.30819689544E+04  0.30081100798E+04 0.  0.
        3    1    3    3  502    0 -0.12228119283E+04 -0.77859441114E+03 -0.74605903380E+03  0.16303626471E+04  0.10100000352E+00 0. -1.
       -3    1    3    3    0  502  0.12228119283E+04  0.77859441114E+03  0.75382969083E+02  0.14516063072E+04  0.10100000352E+00 0.  1.
</event>
<event>
 5   0  0.4702748E-06  0.2997440E+04  0.7818609E-02  0.8244462E-01
        2   -1    0    0  501    0  0.00000000000E+00  0.00000000000E+00  0.21682606257E+04  0.21682606257E+04  0.25500000920E-02 0. -1.
       -2   -1    0    0    0  501  0.00000000000E+00  0.00000000000E+00 -0.10359276452E+04  0.10359276452E+04  0.25500000920E-02 0.  1.
    10030    2    1    2    0    0  0.00000000000E+00  0.00000000000E+00  0.11323329805E+04  0.32041882708E+04  0.29974396568E+04 0.  0.
        2    1    3    3  502    0  0.31157817075E+03  0.14193638702E+04  0.95818512825E+03  0.17406301999E+04  0.25500000920E-02 0. -1.
       -2    1    3    3    0  502 -0.31157817075E+03 -0.14193638702E+04  0.17414785226E+03  0.14635580710E+04  0.25500000920E-02 0.  1.
</event>
<event>
 5   0  0.4935331E-06  0.2951155E+04  0.7818609E-02  0.8257818E-01
        2   -1    0    0  501    0  0.00000000000E+00  0.00000000000E+00  0.20589160548E+04  0.20589160548E+04  0.25500000920E-02 0.  1.
       -2   -1    0    0    0  501  0.00000000000E+00  0.00000000000E+00 -0.10575122746E+04  0.10575122746E+04  0.25500000920E-02 0. -1.
    10030    2    1    2    0    0  0.00000000000E+00  0.00000000000E+00  0.10014037802E+04  0.31164283294E+04  0.29511550283E+04 0.  0.
        5    1    3    3  502    0 -0.67350562980E+03 -0.99787543407E+03  0.14016782940E+04  0.18477254517E+04  0.46999998093E+01 0.  1.
       -5    1    3    3    0  502  0.67350562980E+03  0.99787543407E+03 -0.40027451380E+03  0.12687028776E+04  0.46999998093E+01 0. -1.
</event>
<event>
 5   0  0.1686012E-06  0.2955090E+04  0.7818609E-02  0.8256673E-01
        1   -1    0    0  501    0  0.00000000000E+00  0.00000000000E+00  0.28975735645E+04  0.28975735645E+04  0.50400001928E-02 0. -1.
       -1   -1    0    0    0  501  0.00000000000E+00  0.00000000000E+00 -0.75343697553E+03  0.75343697555E+03  0.50400001928E-02 0.  1.
    10030    2    1    2    0    0  0.00000000000E+00  0.00000000000E+00  0.21441365889E+04  0.36510105400E+04  0.29550898889E+04 0.  0.
        4    1    3    3  502    0 -0.90946232654E+03 -0.11394268749E+04  0.13689022232E+04  0.19998275516E+04  0.12699999809E+01 0.  1.
       -4    1    3    3    0  502  0.90946232654E+03  0.11394268749E+04  0.77523436577E+03  0.16511829884E+04  0.12699999809E+01 0. -1.
</event>
<event>
 5   0  0.4532420E-06  0.3162280E+04  0.7818609E-02  0.8198851E-01
       -2   -1    0    0    0  501  0.00000000000E+00  0.00000000000E+00  0.13854011622E+04  0.13854011622E+04  0.25500000920E-02 0.  1.
        2   -1    0    0  501    0  0.00000000000E+00  0.00000000000E+00 -0.18045340864E+04  0.18045340864E+04  0.25500000920E-02 0. -1.
    10030    2    1    2    0    0  0.00000000000E+00  0.00000000000E+00 -0.41913292416E+03  0.31899352486E+04  0.31622799500E+04 0.  0.
        4    1    3    3  502    0  0.26522189924E+03  0.11712067685E+03 -0.17774897619E+04  0.18009806704E+04  0.12699999809E+01 0. -1.
       -4    1    3    3    0  502 -0.26522189924E+03 -0.11712067685E+03  0.13583568377E+04  0.13889545782E+04  0.12699999809E+01 0.  1.
</event>
<event>
 5   0  0.1672907E-06  0.3041821E+04  0.7818609E-02  0.8231889E-01
       -1   -1    0    0    0  501  0.00000000000E+00  0.00000000000E+00  0.27574774651E+04  0.27574774651E+04  0.50400001928E-02 0.  1.
        1   -1    0    0  501    0  0.00000000000E+00  0.00000000000E+00 -0.83887104059E+03  0.83887104060E+03  0.50400001928E-02 0. -1.
    10030    2    1    2    0    0  0.00000000000E+00  0.00000000000E+00  0.19186064245E+04  0.35963485057E+04  0.30418205013E+04 0.  0.
        5    1    3    3  502    0 -0.91942095005E+03  0.98297166043E+03  0.17966344850E+04  0.22448798924E+04  0.46999998093E+01 0.  1.
       -5    1    3    3    0  502  0.91942095005E+03 -0.98297166043E+03  0.12197193944E+03  0.13514686132E+04  0.46999998093E+01 0. -1.
</event>
<event>
 5   0  0.4702748E-06  0.2997712E+04  0.7818609E-02  0.8244384E-01
        2   -1    0    0  501    0  0.00000000000E+00  0.00000000000E+00  0.15544006669E+04  0.15544006669E+04  0.25500000920E-02 0.  1.
       -2   -1    0    0    0  501  0.00000000000E+00  0.00000000000E+00 -0.14452962918E+04  0.14452962918E+04  0.25500000920E-02 0. -1.
    10030    2    1    2    0    0  0.00000000000E+00  0.00000000000E+00  0.10910437510E+03  0.29996969588E+04  0.29977121409E+04 0.  0.
        2    1    3    3  502    0 -0.73044470375E+03 -0.11519384002E+04  0.67629922011E+03  0.15224625375E+04  0.25500000920E-02 0.  1.
       -2    1    3    3    0  502  0.73044470375E+03  0.11519384002E+04 -0.56719484502E+03  0.14772344212E+04  0.25500000920E-02 0. -1.
</event>
<event>
 5   0  0.5003556E-06  0.2986719E+04  0.7818609E-02  0.8247533E-01
       -2   -1    0    0    0  501  0.00000000000E+00  0.00000000000E+00  0.12919295348E+04  0.12919295348E+04  0.25500000920E-02 0.  1.
        2   -1    0    0  501    0  0.00000000000E+00  0.00000000000E+00 -0.17261954966E+04  0.17261954966E+04  0.25500000920E-02 0. -1.
    10030    2    1    2    0    0  0.00000000000E+00  0.00000000000E+00 -0.43426596189E+03  0.30181250314E+04  0.29867192335E+04 0.  0.
        3    1    3    3  502    0 -0.46377570805E+03 -0.25655574794E+03  0.11936902724E+04  0.13060647900E+04  0.10100000352E+00 0.  1.
       -3    1    3    3    0  502  0.46377570805E+03  0.25655574794E+03 -0.16279562343E+04  0.17120602414E+04  0.10100000352E+00 0. -1.
</event>
<event>
 5   0  0.1686012E-06  0.2897729E+04  0.7818609E-02  0.8273553E-01
       -1   -1    0    0    0  501  0.00000000000E+00  0.00000000000E+00  0.15486338142E+04  0.15486338142E+04  0.50400001928E-02 0. -1.
        1   -1    0    0  501    0  0.00000000000E+00  0.00000000000E+00 -0.13555231889E+04  0.13555231889E+04  0.50400001928E-02 0.  1.
    10030    2    1    2    0    0  0.00000000000E+00  0.00000000000E+00  0.19311062526E+03  0.29041570032E+04  0.28977294880E+04 0.  0.
        4    1    3    3  502    0 -0.11464720813E+04  0.19256499736E+03 -0.77007534867E+03  0.13944522821E+04  0.12699999809E+01 0.  1.
       -4    1    3    3    0  502  0.11464720813E+04 -0.19256499736E+03  0.96318597394E+03  0.15097047211E+04  0.12699999809E+01 0. -1.
</event>
<event>
 5   0  0.1672907E-06  0.3071351E+04  0.7818609E-02  0.8223645E-01
        1   -1    0    0  501    0  0.00000000000E+00  0.00000000000E+00  0.26800632672E+04  0.26800632672E+04  0.50400001928E-02 0. -1.
       -1   -1    0    0    0  501  0.00000000000E+00  0.00000000000E+00 -0.87994142601E+03  0.87994142602E+03  0.50400001928E-02 0.  1.
    10030    2    1    2    0    0  0.00000000000E+00  0.00000000000E+00  0.18001218412E+04  0.35600046932E+04  0.30713506430E+04 0.  0.
        5    1    3    3  502    0  0.14335012462E+03 -0.10850511021E+04 -0.34853936491E+03  0.11486456944E+04  0.46999998093E+01 0.  1.
       -5    1    3    3    0  502 -0.14335012462E+03  0.10850511021E+04  0.21486612061E+04  0.24113589988E+04  0.46999998093E+01 0. -1.
</event>
<event>
 5   0  0.5003556E-06  0.3014684E+04  0.7818609E-02  0.8239550E-01
        2   -1    0    0  501    0  0.00000000000E+00  0.00000000000E+00  0.13646276886E+04  0.13646276886E+04  0.25500000920E-02 0.  1.
       -2   -1    0    0    0  501  0.00000000000E+00  0.00000000000E+00 -0.16649819557E+04  0.16649819557E+04  0.25500000920E-02 0. -1.
    10030    2    1    2    0    0  0.00000000000E+00  0.00000000000E+00 -0.30035426706E+03  0.30296096443E+04  0.30146843801E+04 0.  0.
        3    1    3    3  502    0 -0.76893319598E+03  0.80761657946E+03  0.86903214670E+03  0.14137608290E+04  0.10100000352E+00 0.  1.
       -3    1    3    3    0  502  0.76893319598E+03 -0.80761657946E+03 -0.11693864138E+04  0.16158488154E+04  0.10100000352E+00 0. -1.
</event>
<event>
 5   0  0.5003556E-06  0.3029743E+04  0.7818609E-02  0.8235288E-01
        2   -1    0    0  501    0  0.00000000000E+00  0.00000000000E+00  0.18511697214E+04  0.18511697214E+04  0.25500000920E-02 0. -1.
       -2   -1    0    0    0  501  0.00000000000E+00  0.00000000000E+00 -0.12396678910E+04  0.12396678910E+04  0.25500000920E-02 0.  1.
    10030    2    1    2    0    0  0.00000000000E+00  0.00000000000E+00  0.61150183039E+03  0.30908376124E+04  0.30297430019E+04 0.  0.
        3    1    3    3  502    0 -0.10195630179E+04 -0.10852788657E+04  0.58974675321E+03  0.16016055091E+04  0.10100000352E+00 0. -1.
       -3    1    3    3    0  502  0.10195630179E+04  0.10852788657E+04  0.21755077181E+02  0.14892321032E+04  0.10100000352E+00 0.  1.
</event>
<event>
 5   0  0.4702748E-06  0.3079125E+04  0.7818609E-02  0.8221490E-01
        2   -1    0    0  501    0  0.00000000000E+00  0.00000000000E+00  0.12800928456E+04  0.12800928456E+04  0.25500000920E-02 0. -1.
       -2   -1    0    0    0  501  0.00000000000E+00  0.00000000000E+00 -0.18516250912E+04  0.18516250912E+04  0.25500000920E-02 0.  1.
    10030    2    1    2    0    0  0.00000000000E+00  0.00000000000E+00 -0.57153224556E+03  0.31317179368E+04  0.30791245717E+04 0.  0.
        2    1    3    3  502    0  0.18413820831E+03 -0.15273733061E+04 -0.22580203127E+03  0.15549156419E+04  0.25500000920E-02 0.  1.
       -2    1    3    3    0  502 -0.18413820831E+03  0.15273733061E+04 -0.34573021429E+03  0.15768022949E+04  0.25500000920E-02 0. -1.
</event>
<event>
 5   0  0.1700885E-06  0.3005740E+04  0.7818609E-02  0.8242094E-01
       -1   -1    0    0    0  501  0.00000000000E+00  0.00000000000E+00  0.11125107837E+04  0.11125107838E+04  0.50400001928E-02 0.  1.
        1   -1    0    0  501    0  0.00000000000E+00  0.00000000000E+00 -0.20301989200E+04  0.20301989200E+04  0.50400001928E-02 0. -1.
    10030    2    1    2    0    0  0.00000000000E+00  0.00000000000E+00 -0.91768813627E+03  0.31427097038E+04  0.30057399699E+04 0.  0.
        1    1    3    3  502    0  0.27527236174E+03  0.25026546956E+03 -0.19812916608E+04  0.20159177373E+04  0.50400001928E-02 0. -1.
       -1    1    3    3    0  502 -0.27527236174E+03 -0.25026546956E+03  0.10636035245E+04  0.11267919665E+04  0.50400001928E-02 0.  1.
</event>
<event>
 5   0  0.4532420E-06  0.3019551E+04  0.7818609E-02  0.8238170E-01
        2   -1    0    0  501    0  0.00000000000E+00  0.00000000000E+00  0.16601568579E+04  0.16601568579E+04  0.25500000920E-02 0.  1.
       -2   -1    0    0    0  501  0.00000000000E+00  0.00000000000E+00 -0.13730163051E+04  0.13730163051E+04  0.25500000920E-02 0. -1.
    10030    2    1    2    0    0  0.00000000000E+00  0.00000000000E+00  0.28714055277E+03  0.30331731630E+04  0.30195512481E+04 0.  0.
        4    1    3    3  502    0  0.80995200798E+03  0.12571369341E+04 -0.64742433794E+02  0.14968663006E+04  0.12699999809E+01 0.  1.
       -4    1    3    3    0  502 -0.80995200798E+03 -0.12571369341E+04  0.35188298656E+03  0.15363068624E+04  0.12699999809E+01 0. -1.
</event>
<event>
 5   0  0.5003556E-06  0.2976501E+04  0.7818609E-02  0.8250473E-01
        2   -1    0    0  501    0  0.00000000000E+00  0.00000000000E+00  0.10770098031E+04  0.10770098031E+04  0.25500000920E-02 0.  1.
       -2   -1    0    0    0  501  0.00000000000E+00  0.00000000000E+00 -0.20565170116E+04  0.20565170116E+04  0.25500000920E-02 0. -1.
    10030    2    1    2    0    0  0.00000000000E+00  0.00000000000E+00 -0.97950720844E+03  0.31335268147E+04  0.29765006177E+04 0.  0.
        3    1    3    3  502    0  0.13967281760E+04  0.43203240228E+03 -0.19689195546E+03  0.14752179658E+04  0.10100000352E+00 0. -1.
       -3    1    3    3    0  502 -0.13967281760E+04 -0.43203240228E+03 -0.78261525299E+03  0.16583088490E+04  0.10100000352E+00 0.  1.
</event>
<event>
 5   0  0.1734885E-06  0.3019135E+04  0.7818609E-02  0.8238288E-01
        1   -1    0    0  501    0  0.00000000000E+00  0.00000000000E+00  0.12186645281E+04  0.12186645282E+04  0.50400001928E-02 0. -1.
       -1   -1    0    0    0  501  0.00000000000E+00  0.00000000000E+00 -0.18699106195E+04  0.18699106195E+04  0.50400001928E-02 0.  1.
    10030    2    1    2    0    0  0.00000000000E+00  0.00000000000E+00 -0.65124609135E+03  0.30885751476E+04  0.30191348051E+04 0.  0.
        2    1    3    3  502    0 -0.17607328237E+03  0.10560056965E+04 -0.14143584981E+04  0.17738545016E+04  0.25500000920E-02 0.  1.
       -2    1    3    3    0  502  0.17607328237E+03 -0.10560056965E+04  0.76311240674E+03  0.13147206460E+04  0.25500000920E-02 0. -1.
</event>
<event>
 5   0  0.1700885E-06  0.3068804E+04  0.7818609E-02  0.8224352E-01
       -1   -1    0    0    0  501  0.00000000000E+00  0.00000000000E+00  0.98746235856E+03  0.98746235858E+03  0.50400001928E-02 0.  1.
        1   -1    0    0  501    0  0.00000000000E+00  0.00000000000E+00 -0.23842821082E+04  0.23842821082E+04  0.50400001928E-02 0. -1.
    10030    2    1    2    0    0  0.00000000000E+00  0.00000000000E+00 -0.13968197496E+04  0.33717444668E+04  0.30688035676E+04 0.  0.
        1    1    3    3  502    0 -0.14535248686E+04 -0.47123509574E+03 -0.54462187329E+03  0.16221621510E+04  0.50400001928E-02 0.  1.
       -1    1    3    3    0  502  0.14535248686E+04  0.47123509574E+03 -0.85219787633E+03  0.17495823158E+04  0.50400001928E-02 0. -1.
</event>
<event>
 5   0  0.4768570E-06  0.2986612E+04  0.7818609E-02  0.8247564E-01
        2   -1    0    0  501    0  0.00000000000E+00  0.00000000000E+00  0.10390555743E+04  0.10390555743E+04  0.25500000920E-02 0.  1.
       -2   -1    0    0    0  501  0.00000000000E+00  0.00000000000E+00 -0.21461436998E+04  0.21461436998E+04  0.25500000920E-02 0. -1.
    10030    2    1    2    0    0  0.00000000000E+00  0.00000000000E+00 -0.11070881255E+04  0.31851992742E+04  0.29866118426E+04 0.  0.
        1    1    3    3  502    0 -0.35276449432E+03 -0.62866515053E+03  0.84119820451E+03  0.11078253830E+04  0.50400001928E-02 0.  1.
       -1    1    3    3    0  502  0.35276449432E+03  0.62866515053E+03 -0.19482863300E+04  0.20773738912E+04  0.50400001928E-02 0. -1.
</event>
<event>
 5   0  0.1672907E-06  0.2997131E+04  0.7818609E-02  0.8244551E-01
        1   -1    0    0  501    0  0.00000000000E+00  0.00000000000E+00  0.21093438507E+04  0.21093438507E+04  0.50400001928E-02 0.  1.
       -1   -1    0    0    0  501  0.00000000000E+00  0.00000000000E+00 -0.10646431102E+04  0.10646431102E+04  0.50400001928E-02 0. -1.
    10030    2    1    2    0    0  0.00000000000E+00  0.00000000000E+00  0.10447007405E+04  0.31739869609E+04  0.29971308932E+04 0.  0.
        5    1    3    3  502    0 -0.14321006253E+04 -0.13711326556E+03  0.78116759645E+02  0.14407763763E+04  0.46999998093E+01 0.  1.
       -5    1    3    3    0  502  0.14321006253E+04  0.13711326556E+03  0.96658398089E+03  0.17332105846E+04  0.46999998093E+01 0. -1.
</event>
<event>
 5   0  0.1700885E-06  0.2983295E+04  0.7818609E-02  0.8248517E-01
       -1   -1    0    0    0  501  0.00000000000E+00  0.00000000000E+00  0.12205951393E+04  0.12205951393E+04  0.50400001928E-02 0.  1.
        1   -1    0    0  501    0  0.00000000000E+00  0.00000000000E+00 -0.18228910497E+04  0.18228910497E+04  0.50400001928E-02 0. -1.
    10030    2    1    2    0    0  0.00000000000E+00  0.00000000000E+00 -0.60229591036E+03  0.30434861890E+04  0.29832947925E+04 0.  0.
        1    1    3    3  502    0 -0.11877766472E+04  0.29152316382E+03 -0.11723167642E+04  0.16941445376E+04  0.50400001928E-02 0. -1.
       -1    1    3    3    0  502  0.11877766472E+04 -0.29152316382E+03  0.57002085381E+03  0.13493416515E+04  0.50400001928E-02 0.  1.
</event>
<event>
 5   0  0.5003556E-06  0.3010469E+04  0.7818609E-02  0.8240748E-01
        2   -1    0    0  501    0  0.00000000000E+00  0.00000000000E+00  0.27373579323E+04  0.27373579323E+04  0.25500000920E-02 0. -1.
       -2   -1    0    0    0  501  0.00000000000E+00  0.00000000000E+00 -0.82770745460E+03  0.82770745461E+03  0.25500000920E-02 0.  1.
    10030    2    1    2    0    0  0.00000000000E+00  0.00000000000E+00  0.19096504777E+04  0.35650653869E+04  0.30104694428E+04 0.  0.
        3    1    3    3  502    0 -0.11579392398E+04 -0.38709556928E+03  0.19973885111E+04  0.23409884957E+04  0.10100000352E+00 0. -1.
       -3    1    3    3    0  502  0.11579392398E+04  0.38709556928E+03 -0.87738033418E+02  0.12240768911E+04  0.10100000352E+00 0.  1.
</event>
<event>
 5   0  0.1700885E-06  0.3120933E+04  0.7818609E-02  0.8210016E-01
       -1   -1    0    0    0  501  0.00000000000E+00  0.00000000000E+00  0.86763785436E+03  0.86763785437E+03  0.50400001928E-02 0.  1.
        1   -1    0    0  501    0  0.00000000000E+00  0.00000000000E+00 -0.28065345064E+04  0.28065345064E+04  0.50400001928E-02 0. -1.
    10030    2    1    2    0    0  0.00000000000E+00  0.00000000000E+00 -0.19388966521E+04  0.36741723608E+04  0.31209329229E+04 0.  0.
        1    1    3    3  502    0 -0.55107331005E+02  0.13677302696E+04 -0.18514821720E+04  0.23025440586E+04  0.50400001928E-02 0. -1.
       -1    1    3    3    0  502  0.55107331005E+02 -0.13677302696E+04 -0.87414480061E+02  0.13716283023E+04  0.50400001928E-02 0.  1.
</event>
<event>
 5   0  0.1700885E-06  0.2970090E+04  0.7818609E-02  0.8252324E-01
        1   -1    0    0  501    0  0.00000000000E+00  0.00000000000E+00  0.26470135684E+04  0.26470135684E+04  0.50400001928E-02 0.  1.
       -1   -1    0    0    0  501  0.00000000000E+00  0.00000000000E+00 -0.83314981504E+03  0.83314981506E+03  0.50400001928E-02 0. -1.
    10030    2    1    2    0    0  0.00000000000E+00  0.00000000000E+00  0.18138637534E+04  0.34801633835E+04  0.29700901434E+04 0.  0.
        1    1    3    3  502    0 -0.21193160816E+03  0.71491508297E+03 -0.59789013703E+03  0.95576733486E+03  0.50400001928E-02 0. -1.
       -1    1    3    3    0  502  0.21193160816E+03 -0.71491508297E+03  0.24117538904E+04  0.25243960487E+04  0.50400001928E-02 0.  1.
</event>
<event>
 5   0  0.1734885E-06  0.3012936E+04  0.7818609E-02  0.8240047E-01
        1   -1    0    0  501    0  0.00000000000E+00  0.00000000000E+00  0.13158474709E+04  0.13158474709E+04  0.50400001928E-02 0. -1.
       -1   -1    0    0    0  501  0.00000000000E+00  0.00000000000E+00 -0.17247022859E+04  0.17247022859E+04  0.50400001928E-02 0.  1.
    10030    2    1    2    0    0  0.00000000000E+00  0.00000000000E+00 -0.40885481499E+03  0.30405497567E+04  0.30129355392E+04 0.  0.
        2    1    3    3  502    0 -0.90569746824E+03  0.57428435672E+03 -0.12721197820E+04  0.16638446941E+04  0.25500000920E-02 0.  1.
       -2    1    3    3    0  502  0.90569746824E+03 -0.57428435672E+03  0.86326496697E+03  0.13767050627E+04  0.25500000920E-02 0. -1.
</event>
<event>
 5   0  0.4768570E-06  0.2561071E+04  0.7818609E-02  0.8381546E-01
       -2   -1    0    0    0  501  0.00000000000E+00  0.00000000000E+00  0.12212331247E+04  0.12212331247E+04  0.25500000920E-02 0.  1.
        2   -1    0    0  501    0  0.00000000000E+00  0.00000000000E+00 -0.13427178854E+04  0.13427178854E+04  0.25500000920E-02 0. -1.
    10030    2    1    2    0    0  0.00000000000E+00  0.00000000000E+00 -0.12148476069E+03  0.25639510101E+04  0.25610713061E+04 0.  0.
        1    1    3    3  502    0  0.63929375572E+03  0.52881219850E+03  0.91576851179E+03  0.12357066054E+04  0.50400001928E-02 0.  1.
       -1    1    3    3    0  502 -0.63929375572E+03 -0.52881219850E+03 -0.10372532725E+04  0.13282444047E+04  0.50400001928E-02 0. -1.
</event>
<event>
 5   0  0.1545375E-06  0.2817808E+04  0.7818609E-02  0.8297761E-01
       -3   -1    0    0    0  501  0.00000000000E+00  0.00000000000E+00  0.16000769555E+04  0.16000769587E+04  0.10100000352E+00 0.  1.
        3   -1    0    0  501    0  0.00000000000E+00  0.00000000000E+00 -0.12405717675E+04  0.12405717716E+04  0.10100000352E+00 0. -1.
    10030    2    1    2    0    0  0.00000000000E+00  0.00000000000E+00  0.35950518797E+03  0.28406487303E+04  0.28178078765E+04 0.  0.
        5    1    3    3  502    0  0.57679710743E+03 -0.54761538878E+03  0.13521111391E+04  0.15686950435E+04  0.46999998093E+01 0.  1.
       -5    1    3    3    0  502 -0.57679710743E+03  0.54761538878E+03 -0.99260595110E+03  0.12719536868E+04  0.46999998093E+01 0. -1.
</event>
<event>
 5   0  0.5003556E-06  0.2758240E+04  0.7818609E-02  0.8316352E-01
        2   -1    0    0  501    0  0.00000000000E+00  0.00000000000E+00  0.22929243561E+04  0.22929243561E+04  0.25500000920E-02 0. -1.
       -2   -1    0    0    0  501  0.00000000000E+00  0.00000000000E+00 -0.82949613036E+03  0.82949613036E+03  0.25500000920E-02 0.  1.
    10030    2    1    2    0    0  0.00000000000E+00  0.00000000000E+00  0.14634282257E+04  0.31224204864E+04  0.27582399320E+04 0.  0.
        3    1    3    3  502    0 -0.20943136937E+03  0.82140548880E+03  0.19631895433E+04  0.21383829565E+04  0.10100000352E+00 0. -1.
       -3    1    3    3    0  502  0.20943136937E+03 -0.82140548880E+03 -0.49976131761E+03  0.98403752992E+03  0.10100000352E+00 0.  1.
</event>
<event>
 5   0  0.4702748E-06  0.3007244E+04  0.7818609E-02  0.8241665E-01
       -2   -1    0    0    0  501  0.00000000000E+00  0.00000000000E+00  0.13636653098E+04  0.13636653098E+04  0.25500000920E-02 0. -1.
        2   -1    0    0  501    0  0.00000000000E+00  0.00000000000E+00 -0.16579431479E+04  0.16579431479E+04  0.25500000920E-02 0.  1.
    10030    2    1    2    0    0  0.00000000000E+00  0.00000000000E+00 -0.29427783804E+03  0.30216084577E+04  0.30072442910E+04 0.  0.
        2    1    3    3  502    0 -0.10358267677E+04  0.30053386637E+03 -0.11998176591E+04  0.16133257925E+04  0.25500000920E-02 0.  1.
       -2    1    3    3    0  502  0.10358267677E+04 -0.30053386637E+03  0.90553982107E+03  0.14082826652E+04  0.25500000920E-02 0. -1.
</event>
<event>
 5   0  0.4532420E-06  0.3007336E+04  0.7818609E-02  0.8241639E-01
       -2   -1    0    0    0  501  0.00000000000E+00  0.00000000000E+00  0.13055171772E+04  0.13055171772E+04  0.25500000920E-02 0.  1.
        2   -1    0    0  501    0  0.00000000000E+00  0.00000000000E+00 -0.17318940634E+04  0.17318940634E+04  0.25500000920E-02 0. -1.
    10030    2    1    2    0    0  0.00000000000E+00  0.00000000000E+00 -0.42637688626E+03  0.30374112406E+04  0.30073359965E+04 0.  0.
        4    1    3    3  502    0 -0.10224894531E+04  0.32049729817E+02 -0.13262549443E+04  0.16749524343E+04  0.12699999809E+01 0. -1.
       -4    1    3    3    0  502  0.10224894531E+04 -0.32049729817E+02  0.89987805806E+03  0.13624588064E+04  0.12699999809E+01 0.  1.
</event>
<event>
 5   0  0.5003556E-06  0.2958651E+04  0.7818609E-02  0.8255638E-01
       -2   -1    0    0    0  501  0.00000000000E+00  0.00000000000E+00  0.75766079834E+03  0.75766079834E+03  0.25500000920E-02 0. -1.
        2   -1    0    0  501    0  0.00000000000E+00  0.00000000000E+00 -0.28883690395E+04  0.28883690395E+04  0.25500000920E-02 0.  1.
    10030    2    1    2    0    0  0.00000000000E+00  0.00000000000E+00 -0.21307082411E+04  0.36460298378E+04  0.29586510388E+04 0.  0.
        3    1    3    3  502    0 -0.60359031100E+03 -0.51400147000E+03 -0.26044752255E+04  0.27224639548E+04  0.10100000352E+00 0.  1.
       -3    1    3    3    0  502  0.60359031100E+03  0.51400147000E+03  0.47376698433E+03  0.92356588305E+03  0.10100000352E+00 0. -1.
</event>
<event>
 5   0  0.1709858E-06  0.2936071E+04  0.7818609E-02  0.8262226E-01
       -1   -1    0    0    0  501  0.00000000000E+00  0.00000000000E+00  0.14580836777E+04  0.14580836777E+04  0.50400001928E-02 0. -1.
        1   -1    0    0  501    0  0.00000000000E+00  0.00000000000E+00 -0.14780552013E+04  0.14780552013E+04  0.50400001928E-02 0.  1.
    10030    2    1    2    0    0  0.00000000000E+00  0.00000000000E+00 -0.19971523613E+02  0.29361388790E+04  0.29360709554E+04 0.  0.
        3    1    3    3  502    0  0.96951084513E+03 -0.34486710734E+01  0.10923849589E+04  0.14605711488E+04  0.10100000352E+00 0. -1.
       -3    1    3    3    0  502 -0.96951084513E+03  0.34486710734E+01 -0.11123564825E+04  0.14755677302E+04  0.10100000352E+00 0.  1.
</event>
<event>
 5   0  0.1545375E-06  0.3017630E+04  0.7818609E-02  0.8238714E-01
       -3   -1    0    0    0  501  0.00000000000E+00  0.00000000000E+00  0.14646336903E+04  0.14646336938E+04  0.10100000352E+00 0. -1.
        3   -1    0    0  501    0  0.00000000000E+00  0.00000000000E+00 -0.15543292503E+04  0.15543292536E+04  0.10100000352E+00 0.  1.
    10030    2    1    2    0    0  0.00000000000E+00  0.00000000000E+00 -0.89695559976E+02  0.30189629474E+04  0.30176301934E+04 0.  0.
        5    1    3    3  502    0 -0.88213832393E+03 -0.10801348387E+04 -0.62098545576E+03  0.15265989383E+04  0.46999998093E+01 0.  1.
       -5    1    3    3    0  502  0.88213832393E+03  0.10801348387E+04  0.53128989578E+03  0.14923640091E+04  0.46999998093E+01 0. -1.
</event>
<event>
 5   0  0.4532420E-06  0.3036051E+04  0.7818609E-02  0.8233511E-01
        2   -1    0    0  501    0  0.00000000000E+00  0.00000000000E+00  0.23734492287E+04  0.23734492287E+04  0.25500000920E-02 0. -1.
       -2   -1    0    0    0  501  0.00000000000E+00  0.00000000000E+00 -0.97090835658E+03  0.97090835658E+03  0.25500000920E-02 0.  1.
    10030    2    1    2    0    0  0.00000000000E+00  0.00000000000E+00  0.14025408721E+04  0.33443575853E+04  0.30360511788E+04 0.  0.
        4    1    3    3  502    0  0.13283485362E+04 -0.25323938325E+03 -0.58526622599E+02  0.13535386945E+04  0.12699999809E+01 0. -1.
       -4    1    3    3    0  502 -0.13283485362E+04  0.25323938325E+03  0.14610674947E+04  0.19908188908E+04  0.12699999809E+01 0.  1.
</event>
<event>
 5   0  0.4702748E-06  0.2994687E+04  0.7818609E-02  0.8245250E-01
        2   -1    0    0  501    0  0.00000000000E+00  0.00000000000E+00  0.15562814352E+04  0.15562814352E+04  0.25500000920E-02 0.  1.
       -2   -1    0    0    0  501  0.00000000000E+00  0.00000000000E+00 -0.14406378355E+04  0.14406378355E+04  0.25500000920E-02 0. -1.
    10030    2    1    2    0    0  0.00000000000E+00  0.00000000000E+00  0.11564359975E+03  0.29969192707E+04  0.29946872413E+04 0.  0.
        2    1    3    3  502    0  0.58898601418E+03 -0.65862950944E+02 -0.13182650606E+04  0.14453598940E+04  0.25500000920E-02 0. -1.
       -2    1    3    3    0  502 -0.58898601418E+03  0.65862950944E+02  0.14339086604E+04  0.15515593767E+04  0.25500000920E-02 0.  1.
</event>
<event>
 5   0  0.1734885E-06  0.2995099E+04  0.7818609E-02  0.8245132E-01
       -1   -1    0    0    0  501  0.00000000000E+00  0.00000000000E+00  0.12111280457E+04  0.12111280457E+04  0.50400001928E-02 0. -1.
        1   -1    0    0  501    0  0.00000000000E+00  0.00000000000E+00 -0.18517076025E+04  0.18517076026E+04  0.50400001928E-02 0.  1.
    10030    2    1    2    0    0  0.00000000000E+00  0.00000000000E+00 -0.64057955684E+03  0.30628356483E+04  0.29950993372E+04 0.  0.
        2    1    3    3  502    0 -0.41226517307E+03  0.51111373410E+03 -0.16966314511E+04  0.18192740593E+04  0.25500000920E-02 0.  1.
       -2    1    3    3    0  502  0.41226517307E+03 -0.51111373410E+03  0.10560518943E+04  0.12435615889E+04  0.25500000920E-02 0. -1.
</event>
<event>
 5   0  0.1734885E-06  0.2989958E+04  0.7818609E-02  0.8246604E-01
        1   -1    0    0  501    0  0.00000000000E+00  0.00000000000E+00  0.19394993700E+04  0.19394993701E+04  0.50400001928E-02 0. -1.
       -1   -1    0    0    0  501  0.00000000000E+00  0.00000000000E+00 -0.11523396414E+04  0.11523396414E+04  0.50400001928E-02 0.  1.
    10030    2    1    2    0    0  0.00000000000E+00  0.00000000000E+00  0.78715972865E+03  0.30918390115E+04  0.29899578650E+04 0.  0.
        2    1    3    3  502    0 -0.59694875480E+02  0.90459519570E+03 -0.83566721244E+03  0.12329621390E+04  0.25500000920E-02 0.  1.
       -2    1    3    3    0  502  0.59694875480E+02 -0.90459519570E+03  0.16228269411E+04  0.18588768725E+04  0.25500000920E-02 0. -1.
</event>
<event>
 5   0  0.4768570E-06  0.3000346E+04  0.7818609E-02  0.8243632E-01
        2   -1    0    0  501    0  0.00000000000E+00  0.00000000000E+00  0.18516237446E+04  0.18516237446E+04  0.25500000920E-02 0.  1.
       -2   -1    0    0    0  501  0.00000000000E+00  0.00000000000E+00 -0.12154297331E+04  0.12154297331E+04  0.25500000920E-02 0. -1.
    10030    2    1    2    0    0  0.00000000000E+00  0.00000000000E+00  0.63619401153E+03  0.30670534777E+04  0.30003456825E+04 0.  0.
        1    1    3    3  502    0  0.16741366926E+03  0.13679348083E+04 -0.28773956580E+03  0.14078590250E+04  0.50400001928E-02 0. -1.
       -1    1    3    3    0  502 -0.16741366926E+03 -0.13679348083E+04  0.92393357732E+03  0.16591944527E+04  0.50400001928E-02 0.  1.
</event>
<event>
 5   0  0.1700885E-06  0.2952856E+04  0.7818609E-02  0.8257323E-01
        1   -1    0    0  501    0  0.00000000000E+00  0.00000000000E+00  0.20548506894E+04  0.20548506894E+04  0.50400001928E-02 0. -1.
       -1   -1    0    0    0  501  0.00000000000E+00  0.00000000000E+00 -0.10608266408E+04  0.10608266408E+04  0.50400001928E-02 0.  1.
    10030    2    1    2    0    0  0.00000000000E+00  0.00000000000E+00  0.99402404858E+03  0.31156773302E+04  0.29528564843E+04 0.  0.
        1    1    3    3  502    0  0.12655371351E+04  0.17996456654E+03 -0.28255650395E+03  0.13091255339E+04  0.50400001928E-02 0.  1.
       -1    1    3    3    0  502 -0.12655371351E+04 -0.17996456654E+03  0.12765805525E+04  0.18065517963E+04  0.50400001928E-02 0. -1.
</event>
<event>
 5   0  0.1672907E-06  0.2982688E+04  0.7818609E-02  0.8248692E-01
       -1   -1    0    0    0  501  0.00000000000E+00  0.00000000000E+00  0.14205435262E+04  0.14205435262E+04  0.50400001928E-02 0. -1.
        1   -1    0    0  501    0  0.00000000000E+00  0.00000000000E+00 -0.15656735892E+04  0.15656735892E+04  0.50400001928E-02 0.  1.
    10030    2    1    2    0    0  0.00000000000E+00  0.00000000000E+00 -0.14513006308E+03  0.29862171154E+04  0.29826883721E+04 0.  0.
        5    1    3    3  502    0  0.41019557526E+03 -0.17156877719E+03  0.13526320467E+04  0.14238440220E+04  0.46999998093E+01 0. -1.
       -5    1    3    3    0  502 -0.41019557526E+03  0.17156877719E+03 -0.14977621098E+04  0.15623730934E+04  0.46999998093E+01 0.  1.
</event>
<event>
 5   0  0.1700885E-06  0.2977059E+04  0.7818609E-02  0.8250312E-01
       -1   -1    0    0    0  501  0.00000000000E+00  0.00000000000E+00  0.15997291851E+04  0.15997291851E+04  0.50400001928E-02 0.  1.
        1   -1    0    0  501    0  0.00000000000E+00  0.00000000000E+00 -0.13850594701E+04  0.13850594701E+04  0.50400001928E-02 0. -1.
    10030    2    1    2    0    0  0.00000000000E+00  0.00000000000E+00  0.21466971499E+03  0.29847886552E+04  0.29770589899E+04 0.  0.
        1    1    3    3  502    0 -0.18542750170E+03 -0.11001765054E+04 -0.88059067668E+03  0.14213414936E+04  0.50400001928E-02 0. -1.
       -1    1    3    3    0  502  0.18542750170E+03  0.11001765054E+04  0.10952603917E+04  0.15634471616E+04  0.50400001928E-02 0.  1.
</event>
<event>
 5   0  0.1709858E-06  0.2935260E+04  0.7818609E-02  0.8262463E-01
       -1   -1    0    0    0  501  0.00000000000E+00  0.00000000000E+00  0.14186100930E+04  0.14186100930E+04  0.50400001928E-02 0. -1.
        1   -1    0    0  501    0  0.00000000000E+00  0.00000000000E+00 -0.15183437359E+04  0.15183437359E+04  0.50400001928E-02 0.  1.
    10030    2    1    2    0    0  0.00000000000E+00  0.00000000000E+00 -0.99733642887E+02  0.29369538289E+04  0.29352599534E+04 0.  0.
        3    1    3    3  502    0 -0.59477160112E+03  0.11149299004E+04  0.69696581221E+03  0.14431158283E+04  0.10100000352E+00 0. -1.
       -3    1    3    3    0  502  0.59477160112E+03 -0.11149299004E+04 -0.79669945510E+03  0.14938380007E+04  0.10100000352E+00 0.  1.
</event>
<event>
 5   0  0.5003556E-06  0.3002134E+04  0.7818609E-02  0.8243122E-01
       -2   -1    0    0    0  501  0.00000000000E+00  0.00000000000E+00  0.95557618999E+03  0.95557618999E+03  0.25500000920E-02 0. -1.
        2   -1    0    0  501    0  0.00000000000E+00  0.00000000000E+00 -0.23579515060E+04  0.23579515060E+04  0.25500000920E-02 0.  1.
    10030    2    1    2    0    0  0.00000000000E+00  0.00000000000E+00 -0.14023753160E+04  0.33135276960E+04  0.30021341184E+04 0.  0.
        3    1    3    3  502    0  0.35103156274E+03  0.14490824316E+04 -0.50957386490E+03  0.15756676634E+04  0.10100000352E+00 0.  1.
       -3    1    3    3    0  502 -0.35103156274E+03 -0.14490824316E+04 -0.89280145111E+03  0.17378600326E+04  0.10100000352E+00 0. -1.
</event>
<event>
 5   0  0.4768570E-06  0.2474348E+04  0.7818609E-02  0.8412181E-01
        2   -1    0    0  501    0  0.00000000000E+00  0.00000000000E+00  0.19177552474E+04  0.19177552474E+04  0.25500000920E-02 0.  1.
       -2   -1    0    0    0  501  0.00000000000E+00  0.00000000000E+00 -0.79812051026E+03  0.79812051027E+03  0.25500000920E-02 0. -1.
    10030    2    1    2    0    0  0.00000000000E+00  0.00000000000E+00  0.11196347372E+04  0.27158757577E+04  0.24743482347E+04 0.  0.
        1    1    3    3  502    0 -0.57440037280E+03  0.14611219403E+03  0.17517838190E+04  0.18493326121E+04  0.50400001928E-02 0.  1.
       -1    1    3    3    0  502  0.57440037280E+03 -0.14611219403E+03 -0.63214908185E+03  0.86654314562E+03  0.50400001928E-02 0. -1.
</event>
<event>
 5   0  0.4532420E-06  0.3010392E+04  0.7818609E-02  0.8240769E-01
        2   -1    0    0  501    0  0.00000000000E+00  0.00000000000E+00  0.23347908816E+04  0.23347908816E+04  0.25500000920E-02 0.  1.
       -2   -1    0    0    0  501  0.00000000000E+00  0.00000000000E+00 -0.97037194248E+03  0.97037194248E+03  0.25500000920E-02 0. -1.
    10030    2    1    2    0    0  0.00000000000E+00  0.00000000000E+00  0.13644189391E+04  0.33051628241E+04  0.30103923751E+04 0.  0.
        4    1    3    3  502    0  0.19323675394E+03  0.93189418497E+03 -0.59809934465E+03  0.11240514463E+04  0.12699999809E+01 0. -1.
       -4    1    3    3    0  502 -0.19323675394E+03 -0.93189418497E+03  0.19625182838E+04  0.21811113777E+04  0.12699999809E+01 0.  1.
</event>
<event>
 5   0  0.1734885E-06  0.3060240E+04  0.7818609E-02  0.8226735E-01
       -1   -1    0    0    0  501  0.00000000000E+00  0.00000000000E+00  0.12235460465E+04  0.12235460465E+04  0.50400001928E-02 0.  1.
        1   -1    0    0  501    0  0.00000000000E+00  0.00000000000E+00 -0.19135100042E+04  0.19135100042E+04  0.50400001928E-02 0. -1.
    10030    2    1    2    0    0  0.00000000000E+00  0.00000000000E+00 -0.68996395769E+03  0.31370560507E+04  0.30602402524E+04 0.  0.
        2    1    3    3  502    0  0.92455709857E+03  0.68682054718E+03 -0.13776102172E+04  0.17956442307E+04  0.25500000920E-02 0. -1.
       -2    1    3    3    0  502 -0.92455709857E+03 -0.68682054718E+03  0.68764625954E+03  0.13414118200E+04  0.25500000920E-02 0.  1.
</event>
<event>
 5   0  0.4935331E-06  0.2991102E+04  0.7818609E-02  0.8246276E-01
       -2   -1    0    0    0  501  0.00000000000E+00  0.00000000000E+00  0.18357324714E+04  0.18357324714E+04  0.25500000920E-02 0. -1.
        2   -1    0    0  501    0  0.00000000000E+00  0.00000000000E+00 -0.12184093063E+04  0.12184093063E+04  0.25500000920E-02 0.  1.
    10030    2    1    2    0    0  0.00000000000E+00  0.00000000000E+00  0.61732316509E+03  0.30541417776E+04  0.29911024903E+04 0.  0.
        5    1    3    3  502    0 -0.14067284885E+04 -0.17849416415E+03  0.79397467014E+03  0.16251655527E+04  0.46999998093E+01 0.  1.
       -5    1    3    3    0  502  0.14067284885E+04  0.17849416415E+03 -0.17665150505E+03  0.14289762249E+04  0.46999998093E+01 0. -1.
</event>
<event>
 5   0  0.4935331E-06  0.2981050E+04  0.7818609E-02  0.8249163E-01
       -2   -1    0    0    0  501  0.00000000000E+00  0.00000000000E+00  0.10898208432E+04  0.10898208432E+04  0.25500000920E-02 0. -1.
        2   -1    0    0  501    0  0.00000000000E+00  0.00000000000E+00 -0.20385597575E+04  0.20385597575E+04  0.25500000920E-02 0.  1.
    10030    2    1    2    0    0  0.00000000000E+00  0.00000000000E+00 -0.94873891433E+03  0.31283806006E+04  0.29810500927E+04 0.  0.
        5    1    3    3  502    0  0.12874770358E+04  0.49424054023E+03 -0.10678008583E+04  0.17441592795E+04  0.46999998093E+01 0.  1.
       -5    1    3    3    0  502 -0.12874770358E+04 -0.49424054023E+03  0.11906194397E+03  0.13842213211E+04  0.46999998093E+01 0. -1.
</event>
<event>
 5   0  0.5003556E-06  0.3001231E+04  0.7818609E-02  0.8243379E-01
        2   -1    0    0  501    0  0.00000000000E+00  0.00000000000E+00  0.19003631013E+04  0.19003631013E+04  0.25500000920E-02 0.  1.
       -2   -1    0    0    0  501  0.00000000000E+00  0.00000000000E+00 -0.11849562155E+04  0.11849562155E+04  0.25500000920E-02 0. -1.
    10030    2    1    2    0    0  0.00000000000E+00  0.00000000000E+00  0.71540688576E+03  0.30853193168E+04  0.30012311265E+04 0.  0.
        3    1    3    3  502    0 -0.13506687154E+04 -0.29629278861E+03  0.95691678096E+03  0.16816019539E+04  0.10100000352E+00 0.  1.
       -3    1    3    3    0  502  0.13506687154E+04  0.29629278861E+03 -0.24150989520E+03  0.14037173630E+04  0.10100000352E+00 0. -1.
</event>
<event>
 5   0  0.4935331E-06  0.2973997E+04  0.7818609E-02  0.8251195E-01
       -2   -1    0    0    0  501  0.00000000000E+00  0.00000000000E+00  0.13061984187E+04  0.13061984187E+04  0.25500000920E-02 0.  1.
        2   -1    0    0  501    0  0.00000000000E+00  0.00000000000E+00 -0.16928247644E+04  0.16928247644E+04  0.25500000920E-02 0. -1.
    10030    2    1    2    0    0  0.00000000000E+00  0.00000000000E+00 -0.38662634570E+03  0.29990231831E+04  0.29739973305E+04 0.  0.
        5    1    3    3  502    0  0.51267106435E+03 -0.65934863763E+03 -0.14339383880E+04  0.16594497994E+04  0.46999998093E+01 0. -1.
       -5    1    3    3    0  502 -0.51267106435E+03  0.65934863763E+03  0.10473120423E+04  0.13395733837E+04  0.46999998093E+01 0.  1.
</event>
<event>
 5   0  0.4702748E-06  0.2980373E+04  0.7818609E-02  0.8249358E-01
       -2   -1    0    0    0  501  0.00000000000E+00  0.00000000000E+00  0.17467671086E+04  0.17467671086E+04  0.25500000920E-02 0.  1.
        2   -1    0    0  501    0  0.00000000000E+00  0.00000000000E+00 -0.12712947008E+04  0.12712947009E+04  0.25500000920E-02 0. -1.
    10030    2    1    2    0    0  0.00000000000E+00  0.00000000000E+00  0.47547240771E+03  0.30180618094E+04  0.29803729758E+04 0.  0.
        2    1    3    3  502    0  0.81913161780E+03 -0.79476878377E+03  0.12079869746E+04  0.16618864455E+04  0.25500000920E-02 0.  1.
       -2    1    3    3    0  502 -0.81913161780E+03  0.79476878377E+03 -0.73251456689E+03  0.13561753639E+04  0.25500000920E-02 0. -1.
</event>
<event>
 5   0  0.4935331E-06  0.2787910E+04  0.7818609E-02  0.8307032E-01
       -2   -1    0    0    0  501  0.00000000000E+00  0.00000000000E+00  0.13558123608E+04  0.13558123608E+04  0.25500000920E-02 0. -1.
        2   -1    0    0  501    0  0.00000000000E+00  0.00000000000E+00 -0.14331703400E+04  0.14331703400E+04  0.25500000920E-02 0.  1.
    10030    2    1    2    0    0  0.00000000000E+00  0.00000000000E+00 -0.77357979241E+02  0.27889827008E+04  0.27879096557E+04 0.  0.
        5    1    3    3  502    0  0.74064770698E+02 -0.28543806033E+03  0.13242430878E+04  0.13566879973E+04  0.46999998093E+01 0. -1.
       -5    1    3    3    0  502 -0.74064770698E+02  0.28543806033E+03 -0.14016010670E+04  0.14322947035E+04  0.46999998093E+01 0.  1.
</event>
<event>
 5   0  0.4702748E-06  0.3014816E+04  0.7818609E-02  0.8239513E-01
       -2   -1    0    0    0  501  0.00000000000E+00  0.00000000000E+00  0.14311119528E+04  0.14311119528E+04  0.25500000920E-02 0. -1.
        2   -1    0    0  501    0  0.00000000000E+00  0.00000000000E+00 -0.15877712636E+04  0.15877712636E+04  0.25500000920E-02 0.  1.
    10030    2    1    2    0    0  0.00000000000E+00  0.00000000000E+00 -0.15665931084E+03  0.30188832165E+04  0.30148157050E+04 0.  0.
        2    1    3    3  502    0  0.11160310394E+04 -0.99446437305E+03  0.11633881456E+03  0.14993396513E+04  0.25500000920E-02 0.  1.
       -2    1    3    3    0  502 -0.11160310394E+04  0.99446437305E+03 -0.27299812540E+03  0.15195435652E+04  0.25500000920E-02 0. -1.
</event>
<event>
 5   0  0.4532420E-06  0.2995746E+04  0.7818609E-02  0.8244947E-01
        2   -1    0    0  501    0  0.00000000000E+00  0.00000000000E+00  0.17439093012E+04  0.17439093012E+04  0.25500000920E-02 0. -1.
       -2   -1    0    0    0  501  0.00000000000E+00  0.00000000000E+00 -0.12865480276E+04  0.12865480276E+04  0.25500000920E-02 0.  1.
    10030    2    1    2    0    0  0.00000000000E+00  0.00000000000E+00  0.45736127356E+03  0.30304573288E+04  0.29957456980E+04 0.  0.
        4    1    3    3  502    0  0.14255129684E+04  0.43112809734E+03  0.66628319753E+02  0.14907714799E+04  0.12699999809E+01 0.  1.
       -4    1    3    3    0  502 -0.14255129684E+04 -0.43112809734E+03  0.39073295380E+03  0.15396858489E+04  0.12699999809E+01 0. -1.
</event>
<event>
 5   0  0.4768570E-06  0.2949572E+04  0.7818609E-02  0.8258279E-01
        2   -1    0    0  501    0  0.00000000000E+00  0.00000000000E+00  0.12776260968E+04  0.12776260968E+04  0.25500000920E-02 0.  1.
       -2   -1    0    0    0  501  0.00000000000E+00  0.00000000000E+00 -0.17023707746E+04  0.17023707746E+04  0.25500000920E-02 0. -1.
    10030    2    1    2    0    0  0.00000000000E+00  0.00000000000E+00 -0.42474467774E+03  0.29799968714E+04  0.29495717167E+04 0.  0.
        1    1    3    3  502    0 -0.46263076463E+02 -0.84291874992E+03  0.10093743809E+04  0.13158605291E+04  0.50400001928E-02 0.  1.
       -1    1    3    3    0  502  0.46263076463E+02  0.84291874992E+03 -0.14341190587E+04  0.16641363423E+04  0.50400001928E-02 0. -1.
</event>
<event>
 5   0  0.1700885E-06  0.3011370E+04  0.7818609E-02  0.8240491E-01
       -1   -1    0    0    0  501  0.00000000000E+00  0.00000000000E+00  0.15147616193E+04  0.15147616194E+04  0.50400001928E-02 0.  1.
        1   -1    0    0  501    0  0.00000000000E+00  0.00000000000E+00 -0.14966630765E+04  0.14966630765E+04  0.50400001928E-02 0. -1.
    10030    2    1    2    0    0  0.00000000000E+00  0.00000000000E+00  0.18098542849E+02  0.30114246959E+04  0.30113703096E+04 0.  0.
        1    1    3    3  502    0 -0.32334254861E+03 -0.27959304491E+03 -0.14347098498E+04  0.14970354129E+04  0.50400001928E-02 0. -1.
       -1    1    3    3    0  502  0.32334254861E+03  0.27959304491E+03  0.14528083926E+04  0.15143892829E+04  0.50400001928E-02 0.  1.
</event>
<event>
 5   0  0.1672907E-06  0.3005741E+04  0.7818609E-02  0.8242093E-01
       -1   -1    0    0    0  501  0.00000000000E+00  0.00000000000E+00  0.84871731695E+03  0.84871731696E+03  0.50400001928E-02 0. -1.
        1   -1    0    0  501    0  0.00000000000E+00  0.00000000000E+00 -0.26612151260E+04  0.26612151260E+04  0.50400001928E-02 0.  1.
    10030    2    1    2    0    0  0.00000000000E+00  0.00000000000E+00 -0.18124978090E+04  0.35099324430E+04  0.30057407484E+04 0.  0.
        5    1    3    3  502    0 -0.12236586088E+04  0.87224992221E+03 -0.93065875172E+03  0.17675712489E+04  0.46999998093E+01 0. -1.
       -5    1    3    3    0  502  0.12236586088E+04 -0.87224992221E+03 -0.88183905732E+03  0.17423611941E+04  0.46999998093E+01 0.  1.
</event>
<event>
 5   0  0.1734885E-06  0.2989744E+04  0.7818609E-02  0.8246666E-01
        1   -1    0    0  501    0  0.00000000000E+00  0.00000000000E+00  0.14568706762E+04  0.14568706762E+04  0.50400001928E-02 0. -1.
       -1   -1    0    0    0  501  0.00000000000E+00  0.00000000000E+00 -0.15338643218E+04  0.15338643218E+04  0.50400001928E-02 0.  1.
    10030    2    1    2    0    0  0.00000000000E+00  0.00000000000E+00 -0.76993645610E+02  0.29907349981E+04  0.29897437695E+04 0.  0.
        2    1    3    3  502    0  0.24495632574E+03 -0.30170597906E+03  0.14054539019E+04  0.14581943525E+04  0.25500000920E-02 0. -1.
       -2    1    3    3    0  502 -0.24495632574E+03  0.30170597906E+03 -0.14824475475E+04  0.15325406456E+04  0.25500000920E-02 0.  1.
</event>
<event>
 5   0  0.1672907E-06  0.3029324E+04  0.7818609E-02  0.8235406E-01
       -1   -1    0    0    0  501  0.00000000000E+00  0.00000000000E+00  0.12826278533E+04  0.12826278533E+04  0.50400001928E-02 0.  1.
        1   -1    0    0  501    0  0.00000000000E+00  0.00000000000E+00 -0.17886724208E+04  0.17886724208E+04  0.50400001928E-02 0. -1.
    10030    2    1    2    0    0  0.00000000000E+00  0.00000000000E+00 -0.50604456749E+03  0.30713002742E+04  0.30293240615E+04 0.  0.
        5    1    3    3  502    0  0.72215085949E+03  0.13305956168E+04 -0.30049436153E+03  0.15434719015E+04  0.46999998093E+01 0. -1.
       -5    1    3    3    0  502 -0.72215085949E+03 -0.13305956168E+04 -0.20555020596E+03  0.15278283727E+04  0.46999998093E+01 0.  1.
</event>
<event>
 5   0  0.4768570E-06  0.2876739E+04  0.7818609E-02  0.8279832E-01
       -2   -1    0    0    0  501  0.00000000000E+00  0.00000000000E+00  0.84448334290E+03  0.84448334290E+03  0.25500000920E-02 0.  1.
        2   -1    0    0  501    0  0.00000000000E+00  0.00000000000E+00 -0.24499078379E+04  0.24499078379E+04  0.25500000920E-02 0. -1.
    10030    2    1    2    0    0  0.00000000000E+00  0.00000000000E+00 -0.16054244950E+04  0.32943911808E+04  0.28767386817E+04 0.  0.
        1    1    3    3  502    0  0.24245951795E+03 -0.98649801613E+03 -0.19688553882E+04  0.22154810975E+04  0.50400001928E-02 0. -1.
       -1    1    3    3    0  502 -0.24245951795E+03  0.98649801613E+03  0.36343089322E+03  0.10789100833E+04  0.50400001928E-02 0.  1.
</event>
<event>
 5   0  0.4532420E-06  0.3004962E+04  0.7818609E-02  0.8242315E-01
       -2   -1    0    0    0  501  0.00000000000E+00  0.00000000000E+00  0.10000030818E+04  0.10000030818E+04  0.25500000920E-02 0.  1.
        2   -1    0    0  501    0  0.00000000000E+00  0.00000000000E+00 -0.22574416329E+04  0.22574416329E+04  0.25500000920E-02 0. -1.
    10030    2    1    2    0    0  0.00000000000E+00  0.00000000000E+00 -0.12574385511E+04  0.32574447147E+04  0.30049616236E+04 0.  0.
        4    1    3    3  502    0  0.94382427397E+03  0.49053479355E+03 -0.17790185725E+04  0.20727608010E+04  0.12699999809E+01 0. -1.
       -4    1    3    3    0  502 -0.94382427397E+03 -0.49053479355E+03  0.52158002140E+03  0.11846839137E+04  0.12699999809E+01 0.  1.
</event>
<event>
 5   0  0.1686012E-06  0.2766977E+04  0.7818609E-02  0.8313595E-01
        1   -1    0    0  501    0  0.00000000000E+00  0.00000000000E+00  0.15204330575E+04  0.15204330575E+04  0.50400001928E-02 0. -1.
       -1   -1    0    0    0  501  0.00000000000E+00  0.00000000000E+00 -0.12588785606E+04  0.12588785606E+04  0.50400001928E-02 0.  1.
    10030    2    1    2    0    0  0.00000000000E+00  0.00000000000E+00  0.26155449684E+03  0.27793116181E+04  0.27669771079E+04 0.  0.
        4    1    3    3  502    0  0.65183151401E+03 -0.40530595952E+02 -0.10942955679E+04  0.12743670800E+04  0.12699999809E+01 0.  1.
       -4    1    3    3    0  502 -0.65183151401E+03  0.40530595952E+02  0.13558500647E+04  0.15049445381E+04  0.12699999809E+01 0. -1.
</event>
<event>
 5   0  0.1734885E-06  0.2964925E+04  0.7818609E-02  0.8253818E-01
       -1   -1    0    0    0  501  0.00000000000E+00  0.00000000000E+00  0.16987892485E+04  0.16987892486E+04  0.50400001928E-02 0.  1.
        1   -1    0    0  501    0  0.00000000000E+00  0.00000000000E+00 -0.12936829216E+04  0.12936829216E+04  0.50400001928E-02 0. -1.
    10030    2    1    2    0    0  0.00000000000E+00  0.00000000000E+00  0.40510632698E+03  0.29924721701E+04  0.29649247128E+04 0.  0.
        2    1    3    3  502    0 -0.31631003754E+02 -0.14647850496E+03  0.16911252039E+04  0.16977517275E+04  0.25500000920E-02 0.  1.
       -2    1    3    3    0  502  0.31631003754E+02  0.14647850496E+03 -0.12860188769E+04  0.12947204427E+04  0.25500000920E-02 0. -1.
</event>
<event>
 5   0  0.1734885E-06  0.3305487E+04  0.7818609E-02  0.8161501E-01
       -1   -1    0    0    0  501  0.00000000000E+00  0.00000000000E+00  0.16835257007E+04  0.16835257007E+04  0.50400001928E-02 0. -1.
        1   -1    0    0  501    0  0.00000000000E+00  0.00000000000E+00 -0.16225241678E+04  0.16225241678E+04  0.50400001928E-02 0.  1.
    10030    2    1    2    0    0  0.00000000000E+00  0.00000000000E+00  0.61001532888E+02  0.33060498685E+04  0.33054870361E+04 0.  0.
        2    1    3    3  502    0 -0.17718809198E+03  0.15594402400E+03 -0.16055793966E+04  0.16228368240E+04  0.25500000920E-02 0.  1.
       -2    1    3    3    0  502  0.17718809198E+03 -0.15594402400E+03  0.16665809295E+04  0.16832130445E+04  0.25500000920E-02 0. -1.
</event>
<event>
 5   0  0.4702748E-06  0.2985196E+04  0.7818609E-02  0.8247971E-01
        2   -1    0    0  501    0  0.00000000000E+00  0.00000000000E+00  0.22564058744E+04  0.22564058744E+04  0.25500000920E-02 0.  1.
       -2   -1    0    0    0  501  0.00000000000E+00  0.00000000000E+00 -0.98734431623E+03  0.98734431624E+03  0.25500000920E-02 0. -1.
    10030    2    1    2    0    0  0.00000000000E+00  0.00000000000E+00  0.12690615581E+04  0.32437501906E+04  0.29851964861E+04 0.  0.
        2    1    3    3  502    0  0.29051717758E+03  0.66059728313E+03  0.20542384777E+04  0.21773113522E+04  0.25500000920E-02 0.  1.
       -2    1    3    3    0  502 -0.29051717758E+03 -0.66059728313E+03 -0.78517691962E+03  0.10664388384E+04  0.25500000920E-02 0. -1.
</event>
<event>
 5   0  0.1700885E-06  0.3059595E+04  0.7818609E-02  0.8226915E-01
        1   -1    0    0  501    0  0.00000000000E+00  0.00000000000E+00  0.10115486422E+04  0.10115486422E+04  0.50400001928E-02 0. -1.
       -1   -1    0    0    0  501  0.00000000000E+00  0.00000000000E+00 -0.23135624186E+04  0.23135624186E+04  0.50400001928E-02 0.  1.
    10030    2    1    2    0    0  0.00000000000E+00  0.00000000000E+00 -0.13020137764E+04  0.33251110608E+04  0.30595953479E+04 0.  0.
        1    1    3    3  502    0 -0.81477937954E+03  0.26897608742E+03 -0.20274347759E+04  0.22015234143E+04  0.50400001928E-02 0.  1.
       -1    1    3    3    0  502  0.81477937954E+03 -0.26897608742E+03  0.72542099952E+03  0.11235876466E+04  0.50400001928E-02 0. -1.
</event>
<event>
 5   0  0.1686012E-06  0.2837287E+04  0.7818609E-02  0.8291785E-01
       -1   -1    0    0    0  501  0.00000000000E+00  0.00000000000E+00  0.17895452044E+04  0.17895452044E+04  0.50400001928E-02 0. -1.
        1   -1    0    0  501    0  0.00000000000E+00  0.00000000000E+00 -0.11246148869E+04  0.11246148869E+04  0.50400001928E-02 0.  1.
    10030    2    1    2    0    0  0.00000000000E+00  0.00000000000E+00  0.66493031750E+03  0.29141600914E+04  0.28372868574E+04 0.  0.
        4    1    3    3  502    0 -0.89707509900E+03 -0.22805117347E+03  0.14366730496E+04  0.17090295888E+04  0.12699999809E+01 0. -1.
       -4    1    3    3    0  502  0.89707509900E+03  0.22805117347E+03 -0.77174273208E+03  0.12051305026E+04  0.12699999809E+01 0.  1.
</event>
<event>
 5   0  0.1709858E-06  0.3009370E+04  0.7818609E-02  0.8241060E-01
        1   -1    0    0  501    0  0.00000000000E+00  0.00000000000E+00  0.24461276496E+04  0.24461276496E+04  0.50400001928E-02 0. -1.
       -1   -1    0    0    0  501  0.00000000000E+00  0.00000000000E+00 -0.92557602210E+03  0.92557602212E+03  0.50400001928E-02 0.  1.
    10030    2    1    2    0    0  0.00000000000E+00  0.00000000000E+00  0.15205516275E+04  0.33717036718E+04  0.30093700999E+04 0.  0.
        3    1    3    3  502    0  0.14579483964E+04 -0.21752876279E+03  0.42202430246E+03  0.15333091049E+04  0.10100000352E+00 0.  1.
       -3    1    3    3    0  502 -0.14579483964E+04  0.21752876279E+03  0.10985273251E+04  0.18383945668E+04  0.10100000352E+00 0. -1.
</event>
<event>
 5   0  0.1686012E-06  0.2979371E+04  0.7818609E-02  0.8249646E-01
       -1   -1    0    0    0  501  0.00000000000E+00  0.00000000000E+00  0.17267493238E+04  0.17267493238E+04  0.50400001928E-02 0. -1.
        1   -1    0    0  501    0  0.00000000000E+00  0.00000000000E+00 -0.12851677487E+04  0.12851677487E+04  0.50400001928E-02 0.  1.
    10030    2    1    2    0    0  0.00000000000E+00  0.00000000000E+00  0.44158157510E+03  0.30119170725E+04  0.29793707665E+04 0.  0.
        4    1    3    3  502    0 -0.41038252287E+01 -0.13282944130E+04  0.90252988378E+03  0.16059093041E+04  0.12699999809E+01 0. -1.
       -4    1    3    3    0  502  0.41038252287E+01  0.13282944130E+04 -0.46094830868E+03  0.14060077685E+04  0.12699999809E+01 0.  1.
</event>
<event>
 5   0  0.4532420E-06  0.3063993E+04  0.7818609E-02  0.8225690E-01
        2   -1    0    0  501    0  0.00000000000E+00  0.00000000000E+00  0.18488510758E+04  0.18488510758E+04  0.25500000920E-02 0. -1.
       -2   -1    0    0    0  501  0.00000000000E+00  0.00000000000E+00 -0.12694443846E+04  0.12694443846E+04  0.25500000920E-02 0.  1.
    10030    2    1    2    0    0  0.00000000000E+00  0.00000000000E+00  0.57940669119E+03  0.31182954603E+04  0.30639932219E+04 0.  0.
        4    1    3    3  502    0 -0.58978713848E+03  0.11940091995E+04 -0.48101931702E+03  0.14159406885E+04  0.12699999809E+01 0.  1.
       -4    1    3    3    0  502  0.58978713848E+03 -0.11940091995E+04  0.10604260082E+04  0.17023547718E+04  0.12699999809E+01 0. -1.
</event>
<event>
 5   0  0.4702748E-06  0.3021709E+04  0.7818609E-02  0.8237559E-01
       -2   -1    0    0    0  501  0.00000000000E+00  0.00000000000E+00  0.16294732554E+04  0.16294732554E+04  0.25500000920E-02 0.  1.
        2   -1    0    0  501    0  0.00000000000E+00  0.00000000000E+00 -0.14008707541E+04  0.14008707541E+04  0.25500000920E-02 0. -1.
    10030    2    1    2    0    0  0.00000000000E+00  0.00000000000E+00  0.22860250127E+03  0.30303440095E+04  0.30217090714E+04 0.  0.
        2    1    3    3  502    0  0.37081735341E+03  0.14450296182E+04 -0.12526487933E+03  0.14970996617E+04  0.25500000920E-02 0.  1.
       -2    1    3    3    0  502 -0.37081735341E+03 -0.14450296182E+04  0.35386738060E+03  0.15332443478E+04  0.25500000920E-02 0. -1.
</event>
<event>
 5   0  0.4935331E-06  0.3005073E+04  0.7818609E-02  0.8242284E-01
       -2   -1    0    0    0  501  0.00000000000E+00  0.00000000000E+00  0.78556585049E+03  0.78556585050E+03  0.25500000920E-02 0. -1.
        2   -1    0    0  501    0  0.00000000000E+00  0.00000000000E+00 -0.28738713518E+04  0.28738713518E+04  0.25500000920E-02 0.  1.
    10030    2    1    2    0    0  0.00000000000E+00  0.00000000000E+00 -0.20883055013E+04  0.36594372023E+04  0.30050725067E+04 0.  0.
        5    1    3    3  502    0 -0.10244238324E+04 -0.80123680488E+03 -0.19604411618E+04  0.23526105170E+04  0.46999998093E+01 0. -1.
       -5    1    3    3    0  502  0.10244238324E+04  0.80123680488E+03 -0.12786433948E+03  0.13068266852E+04  0.46999998093E+01 0.  1.
</event>
<event>
 5   0  0.5003556E-06  0.3005719E+04  0.7818609E-02  0.8242100E-01
        2   -1    0    0  501    0  0.00000000000E+00  0.00000000000E+00  0.25560020806E+04  0.25560020806E+04  0.25500000920E-02 0. -1.
       -2   -1    0    0    0  501  0.00000000000E+00  0.00000000000E+00 -0.88364061170E+03  0.88364061171E+03  0.25500000920E-02 0.  1.
    10030    2    1    2    0    0  0.00000000000E+00  0.00000000000E+00  0.16723614689E+04  0.34396426923E+04  0.30057193761E+04 0.  0.
        3    1    3    3  502    0 -0.10240750933E+02  0.75117752389E+03 -0.65334880669E+03  0.99560896881E+03  0.10100000352E+00 0.  1.
       -3    1    3    3    0  502  0.10240750933E+02 -0.75117752389E+03  0.23257102756E+04  0.24440337235E+04  0.10100000352E+00 0. -1.
</event>
<event>
 5   0  0.4768570E-06  0.3010096E+04  0.7818609E-02  0.8240854E-01
        2   -1    0    0  501    0  0.00000000000E+00  0.00000000000E+00  0.96496727938E+03  0.96496727938E+03  0.25500000920E-02 0. -1.
       -2   -1    0    0    0  501  0.00000000000E+00  0.00000000000E+00 -0.23474050932E+04  0.23474050932E+04  0.25500000920E-02 0.  1.
    10030    2    1    2    0    0  0.00000000000E+00  0.00000000000E+00 -0.13824378138E+04  0.33123723726E+04  0.30100957502E+04 0.  0.
        1    1    3    3  502    0 -0.12327782089E+04 -0.55407766762E+03  0.37410113781E+02  0.13520886401E+04  0.50400001928E-02 0. -1.
       -1    1    3    3    0  502  0.12327782089E+04  0.55407766762E+03 -0.14198479276E+04  0.19602837324E+04  0.50400001928E-02 0.  1.
</event>
<event>
 5   0  0.1709858E-06  0.3090818E+04  0.7818609E-02  0.8218262E-01
        1   -1    0    0  501    0  0.00000000000E+00  0.00000000000E+00  0.15198580618E+04  0.15198580618E+04  0.50400001928E-02 0. -1.
       -1   -1    0    0    0  501  0.00000000000E+00  0.00000000000E+00 -0.15713890480E+04  0.15713890480E+04  0.50400001928E-02 0.  1.
    10030    2    1    2    0    0  0.00000000000E+00  0.00000000000E+00 -0.51530986183E+02  0.30912471098E+04  0.30908175700E+04 0.  0.
        3    1    3    3  502    0  0.52674746063E+03 -0.88871149895E+02 -0.14761143733E+04  0.15698008223E+04  0.10100000352E+00 0.  1.
       -3    1    3    3    0  502 -0.52674746063E+03  0.88871149895E+02  0.14245833871E+04  0.15214462874E+04  0.10100000352E+00 0. -1.
</event>
<event>
 5   0  0.1709858E-06  0.2991146E+04  0.7818609E-02  0.8246264E-01
       -1   -1    0    0    0  501  0.00000000000E+00  0.00000000000E+00  0.16456910767E+04  0.16456910767E+04  0.50400001928E-02 0. -1.
        1   -1    0    0  501    0  0.00000000000E+00  0.00000000000E+00 -0.13591488305E+04  0.13591488305E+04  0.50400001928E-02 0.  1.
    10030    2    1    2    0    0  0.00000000000E+00  0.00000000000E+00  0.28654224619E+03  0.30048399072E+04  0.29911463370E+04 0.  0.
        3    1    3    3  502    0  0.61972573153E+03 -0.76421004006E+02 -0.12219348798E+04  0.13722335854E+04  0.10100000352E+00 0.  1.
       -3    1    3    3    0  502 -0.61972573153E+03  0.76421004006E+02  0.15084771260E+04  0.16326063218E+04  0.10100000352E+00 0. -1.
</event>
<event>
 5   0  0.4935331E-06  0.3020062E+04  0.7818609E-02  0.8238025E-01
       -2   -1    0    0    0  501  0.00000000000E+00  0.00000000000E+00  0.13450099238E+04  0.13450099238E+04  0.25500000920E-02 0.  1.
        2   -1    0    0  501    0  0.00000000000E+00  0.00000000000E+00 -0.16952991063E+04  0.16952991063E+04  0.25500000920E-02 0. -1.
    10030    2    1    2    0    0  0.00000000000E+00  0.00000000000E+00 -0.35028918249E+03  0.30403090301E+04  0.30200623317E+04 0.  0.
        5    1    3    3  502    0  0.19032621419E+03 -0.14760271650E+04  0.82090996129E+02  0.14905171188E+04  0.46999998093E+01 0.  1.
       -5    1    3    3    0  502 -0.19032621419E+03  0.14760271650E+04 -0.43238017862E+03  0.15497919114E+04  0.46999998093E+01 0. -1.
</event>
<event>
 5   0  0.1686012E-06  0.3011711E+04  0.7818609E-02  0.8240395E-01
       -1   -1    0    0    0  501  0.00000000000E+00  0.00000000000E+00  0.15715789772E+04  0.15715789772E+04  0.50400001928E-02 0. -1.
        1   -1    0    0  501    0  0.00000000000E+00  0.00000000000E+00 -0.14428807059E+04  0.14428807059E+04  0.50400001928E-02 0.  1.
    10030    2    1    2    0    0  0.00000000000E+00  0.00000000000E+00  0.12869827130E+03  0.30144596832E+04  0.30117111310E+04 0.  0.
        4    1    3    3  502    0  0.98453760475E+03  0.36449654816E+03  0.11448839574E+04  0.15533618116E+04  0.12699999809E+01 0. -1.
       -4    1    3    3    0  502 -0.98453760475E+03 -0.36449654816E+03 -0.10161856861E+04  0.14610978716E+04  0.12699999809E+01 0.  1.
</event>
<event>
 5   0  0.4768570E-06  0.2989542E+04  0.7818609E-02  0.8246723E-01
        2   -1    0    0  501    0  0.00000000000E+00  0.00000000000E+00  0.21176167670E+04  0.21176167670E+04  0.25500000920E-02 0. -1.
       -2   -1    0    0    0  501  0.00000000000E+00  0.00000000000E+00 -0.10551205130E+04  0.10551205130E+04  0.25500000920E-02 0.  1.
    10030    2    1    2    0    0  0.00000000000E+00  0.00000000000E+00  0.10624962541E+04  0.31727372800E+04  0.29895423660E+04 0.  0.
        1    1    3    3  502    0 -0.87811164394E+03 -0.11958269028E+04  0.72479359495E+03  0.16511837560E+04  0.50400001928E-02 0. -1.
       -1    1    3    3    0  502  0.87811164394E+03  0.11958269028E+04  0.33770265911E+03  0.15215535241E+04  0.50400001928E-02 0.  1.
</event>
<event>
 5   0  0.5003556E-06  0.2598130E+04  0.7818609E-02  0.8368837E-01
        2   -1    0    0  501    0  0.00000000000E+00  0.00000000000E+00  0.21614669745E+04  0.21614669745E+04  0.25500000920E-02 0.  1.
       -2   -1    0    0    0  501  0.00000000000E+00  0.00000000000E+00 -0.78075191902E+03  0.78075191902E+03  0.25500000920E-02 0. -1.
    10030    2    1    2    0    0  0.00000000000E+00  0.00000000000E+00  0.13807150555E+04  0.29422188935E+04  0.25981297029E+04 0.  0.
        3    1    3    3  502    0 -0.34785132034E+03 -0.12097192587E+04  0.32665603080E+03  0.13004327736E+04  0.10100000352E+00 0.  1.
       -3    1    3    3    0  502  0.34785132034E+03  0.12097192587E+04  0.10540590247E+04  0.16417861199E+04  0.10100000352E+00 0. -1.
</event>
<event>
 5   0  0.1709858E-06  0.2648002E+04  0.7818609E-02  0.8352076E-01
        1   -1    0    0  501    0  0.00000000000E+00  0.00000000000E+00  0.93335494041E+03  0.93335494042E+03  0.50400001928E-02 0. -1.
       -1   -1    0    0    0  501  0.00000000000E+00  0.00000000000E+00 -0.18781485021E+04  0.18781485021E+04  0.50400001928E-02 0.  1.
    10030    2    1    2    0    0  0.00000000000E+00  0.00000000000E+00 -0.94479356167E+03  0.28115034425E+04  0.26480024043E+04 0.  0.
        3    1    3    3  502    0 -0.18428761799E+03  0.85030258523E+02  0.91674034834E+03  0.93893820217E+03  0.10100000352E+00 0. -1.
       -3    1    3    3    0  502  0.18428761799E+03 -0.85030258523E+02 -0.18615339100E+04  0.18725652403E+04  0.10100000352E+00 0.  1.
</event>
<event>
 5   0  0.5003556E-06  0.3026331E+04  0.7818609E-02  0.8236252E-01
        2   -1    0    0  501    0  0.00000000000E+00  0.00000000000E+00  0.18449383599E+04  0.18449383599E+04  0.25500000920E-02 0. -1.
       -2   -1    0    0    0  501  0.00000000000E+00  0.00000000000E+00 -0.12410550803E+04  0.12410550803E+04  0.25500000920E-02 0.  1.
    10030    2    1    2    0    0  0.00000000000E+00  0.00000000000E+00  0.60388327969E+03  0.30859934402E+04  0.30263311943E+04 0.  0.
        3    1    3    3  502    0 -0.23364582427E+02  0.35844136150E+03 -0.11969497063E+04  0.12496858497E+04  0.10100000352E+00 0.  1.
       -3    1    3    3    0  502  0.23364582427E+02 -0.35844136150E+03  0.18008329860E+04  0.18363075905E+04  0.10100000352E+00 0. -1.
</event>
<event>
 5   0  0.4768570E-06  0.2965624E+04  0.7818609E-02  0.8253616E-01
        2   -1    0    0  501    0  0.00000000000E+00  0.00000000000E+00  0.16830258119E+04  0.16830258119E+04  0.25500000920E-02 0. -1.
       -2   -1    0    0    0  501  0.00000000000E+00  0.00000000000E+00 -0.13064156202E+04  0.13064156202E+04  0.25500000920E-02 0.  1.
    10030    2    1    2    0    0  0.00000000000E+00  0.00000000000E+00  0.37661019166E+03  0.29894414321E+04  0.29656238534E+04 0.  0.
        1    1    3    3  502    0  0.11748095132E+04  0.55954058163E+03 -0.52836764011E+03  0.14044341985E+04  0.50400001928E-02 0.  1.
       -1    1    3    3    0  502 -0.11748095132E+04 -0.55954058163E+03  0.90497783177E+03  0.15850072337E+04  0.50400001928E-02 0. -1.
</event>
<event>
 5   0  0.1686012E-06  0.2983684E+04  0.7818609E-02  0.8248405E-01
        1   -1    0    0  501    0  0.00000000000E+00  0.00000000000E+00  0.30324154087E+04  0.30324154087E+04  0.50400001928E-02 0. -1.
       -1   -1    0    0    0  501  0.00000000000E+00  0.00000000000E+00 -0.73393382603E+03  0.73393382605E+03  0.50400001928E-02 0.  1.
    10030    2    1    2    0    0  0.00000000000E+00  0.00000000000E+00  0.22984815827E+04  0.37663492348E+04  0.29836837923E+04 0.  0.
        4    1    3    3  502    0  0.13585345303E+04  0.61020297911E+03  0.10390002402E+04  0.18158983611E+04  0.12699999809E+01 0.  1.
       -4    1    3    3    0  502 -0.13585345303E+04 -0.61020297911E+03  0.12594813425E+04  0.19504508737E+04  0.12699999809E+01 0. -1.
</event>
<event>
 5   0  0.4532420E-06  0.3008878E+04  0.7818609E-02  0.8241200E-01
       -2   -1    0    0    0  501  0.00000000000E+00  0.00000000000E+00  0.16848420715E+04  0.16848420715E+04  0.25500000920E-02 0.  1.
        2   -1    0    0  501    0  0.00000000000E+00  0.00000000000E+00 -0.13433522761E+04  0.13433522761E+04  0.25500000920E-02 0. -1.
    10030    2    1    2    0    0  0.00000000000E+00  0.00000000000E+00  0.34148979535E+03  0.30281943476E+04  0.30088778184E+04 0.  0.
        4    1    3    3  502    0  0.60491419944E+03 -0.29554946228E+03 -0.11832785174E+04  0.13614038107E+04  0.12699999809E+01 0. -1.
       -4    1    3    3    0  502 -0.60491419944E+03  0.29554946228E+03  0.15247683127E+04  0.16667905368E+04  0.12699999809E+01 0.  1.
</event>
<event>
 5   0  0.4702748E-06  0.2984607E+04  0.7818609E-02  0.8248140E-01
       -2   -1    0    0    0  501  0.00000000000E+00  0.00000000000E+00  0.13906673475E+04  0.13906673475E+04  0.25500000920E-02 0. -1.
        2   -1    0    0  501    0  0.00000000000E+00  0.00000000000E+00 -0.16013672051E+04  0.16013672051E+04  0.25500000920E-02 0.  1.
    10030    2    1    2    0    0  0.00000000000E+00  0.00000000000E+00 -0.21069985758E+03  0.29920345526E+04  0.29846065627E+04 0.  0.
        2    1    3    3  502    0  0.48199440008E+03  0.35477017269E+03  0.12650887382E+04  0.13995106261E+04  0.25500000920E-02 0. -1.
       -2    1    3    3    0  502 -0.48199440008E+03 -0.35477017269E+03 -0.14757885957E+04  0.15925239265E+04  0.25500000920E-02 0.  1.
</event>
<event>
 5   0  0.1709858E-06  0.3017937E+04  0.7818609E-02  0.8238627E-01
       -1   -1    0    0    0  501  0.00000000000E+00  0.00000000000E+00  0.86958626941E+03  0.86958626943E+03  0.50400001928E-02 0.  1.
        1   -1    0    0  501    0  0.00000000000E+00  0.00000000000E+00 -0.26184706431E+04  0.26184706431E+04  0.50400001928E-02 0. -1.
    10030    2    1    2    0    0  0.00000000000E+00  0.00000000000E+00 -0.17488843737E+04  0.34880569126E+04  0.30179371221E+04 0.  0.
        3    1    3    3  502    0 -0.23752716468E+03 -0.14863697865E+04 -0.75173493231E+03  0.16825040014E+04  0.10100000352E+00 0.  1.
       -3    1    3    3    0  502  0.23752716468E+03  0.14863697865E+04 -0.99714944141E+03  0.18055529111E+04  0.10100000352E+00 0. -1.
</event>
<event>
 5   0  0.1686012E-06  0.2505092E+04  0.7818609E-02  0.8401174E-01
        1   -1    0    0  501    0  0.00000000000E+00  0.00000000000E+00  0.20303824917E+04  0.20303824917E+04  0.50400001928E-02 0.  1.
       -1   -1    0    0    0  501  0.00000000000E+00  0.00000000000E+00 -0.77269752055E+03  0.77269752057E+03  0.50400001928E-02 0. -1.
    10030    2    1    2    0    0  0.00000000000E+00  0.00000000000E+00  0.12576849711E+04  0.28030800122E+04  0.25050920279E+04 0.  0.
        4    1    3    3  502    0 -0.17249297331E+03  0.29005856474E+03 -0.72086804418E+03  0.79595235211E+03  0.12699999809E+01 0. -1.
       -4    1    3    3    0  502  0.17249297331E+03 -0.29005856474E+03  0.19785530153E+04  0.20071276601E+04  0.12699999809E+01 0.  1.
</event>
<event>
 5   0  0.1672907E-06  0.2988778E+04  0.7818609E-02  0.8246943E-01
        1   -1    0    0  501    0  0.00000000000E+00  0.00000000000E+00  0.14322091987E+04  0.14322091987E+04  0.50400001928E-02 0. -1.
       -1   -1    0    0    0  501  0.00000000000E+00  0.00000000000E+00 -0.15592680758E+04  0.15592680758E+04  0.50400001928E-02 0.  1.
    10030    2    1    2    0    0  0.00000000000E+00  0.00000000000E+00 -0.12705887715E+03  0.29914772745E+04  0.29887777311E+04 0.  0.
        5    1    3    3  502    0 -0.16334806942E+03  0.10501023203E+04 -0.11150870172E+04  0.15404020971E+04  0.46999998093E+01 0.  1.
       -5    1    3    3    0  502  0.16334806942E+03 -0.10501023203E+04  0.98802814003E+03  0.14510751774E+04  0.46999998093E+01 0. -1.
</event>
<event>
 5   0  0.1686012E-06  0.2977757E+04  0.7818609E-02  0.8250111E-01
       -1   -1    0    0    0  501  0.00000000000E+00  0.00000000000E+00  0.11243666128E+04  0.11243666128E+04  0.50400001928E-02 0.  1.
        1   -1    0    0  501    0  0.00000000000E+00  0.00000000000E+00 -0.19715625419E+04  0.19715625419E+04  0.50400001928E-02 0. -1.
    10030    2    1    2    0    0  0.00000000000E+00  0.00000000000E+00 -0.84719592906E+03  0.30959291547E+04  0.29777569392E+04 0.  0.
        4    1    3    3  502    0 -0.11720736379E+04 -0.78371228019E+03  0.73710577887E+02  0.14118769114E+04  0.12699999809E+01 0.  1.
       -4    1    3    3    0  502  0.11720736379E+04  0.78371228019E+03 -0.92090650694E+03  0.16840522433E+04  0.12699999809E+01 0. -1.
</event>
<event>
 5   0  0.1700885E-06  0.2995770E+04  0.7818609E-02  0.8244940E-01
       -1   -1    0    0    0  501  0.00000000000E+00  0.00000000000E+00  0.13712391919E+04  0.13712391919E+04  0.50400001928E-02 0. -1.
        1   -1    0    0  501    0  0.00000000000E+00  0.00000000000E+00 -0.16362271553E+04  0.16362271553E+04  0.50400001928E-02 0.  1.
    10030    2    1    2    0    0  0.00000000000E+00  0.00000000000E+00 -0.26498796335E+03  0.30074663472E+04  0.29957695520E+04 0.  0.
        1    1    3    3  502    0  0.18674870644E+01 -0.35162785888E+02  0.13708236319E+04  0.13712758069E+04  0.50400001928E-02 0. -1.
       -1    1    3    3    0  502 -0.18674870644E+01  0.35162785888E+02 -0.16358115952E+04  0.16361905403E+04  0.50400001928E-02 0.  1.
</event>
<event>
 5   0  0.4935331E-06  0.2956947E+04  0.7818609E-02  0.8256133E-01
        2   -1    0    0  501    0  0.00000000000E+00  0.00000000000E+00  0.23172830502E+04  0.23172830503E+04  0.25500000920E-02 0.  1.
       -2   -1    0    0    0  501  0.00000000000E+00  0.00000000000E+00 -0.94329601329E+03  0.94329601330E+03  0.25500000920E-02 0. -1.
    10030    2    1    2    0    0  0.00000000000E+00  0.00000000000E+00  0.13739870370E+04  0.32605790635E+04  0.29569469816E+04 0.  0.
        5    1    3    3  502    0  0.73755770957E+03  0.78054862405E+03  0.18075151722E+04  0.21024701466E+04  0.46999998093E+01 0.  1.
       -5    1    3    3    0  502 -0.73755770957E+03 -0.78054862405E+03 -0.43352813528E+03  0.11581089170E+04  0.46999998093E+01 0. -1.
</event>
<event>
 5   0  0.1686012E-06  0.2997226E+04  0.7818609E-02  0.8244523E-01
        1   -1    0    0  501    0  0.00000000000E+00  0.00000000000E+00  0.99829968393E+03  0.99829968394E+03  0.50400001928E-02 0.  1.
       -1   -1    0    0    0  501  0.00000000000E+00  0.00000000000E+00 -0.22496665212E+04  0.22496665212E+04  0.50400001928E-02 0. -1.
    10030    2    1    2    0    0  0.00000000000E+00  0.00000000000E+00 -0.12513668373E+04  0.32479662051E+04  0.29972263025E+04 0.  0.
        4    1    3    3  502    0  0.40702176745E+03  0.11728042979E+04 -0.15353768629E+04  0.19744671090E+04  0.12699999809E+01 0. -1.
       -4    1    3    3    0  502 -0.40702176745E+03 -0.11728042979E+04  0.28401002566E+03  0.12734990962E+04  0.12699999809E+01 0.  1.
</event>
<event>
 5   0  0.1734885E-06  0.2949082E+04  0.7818609E-02  0.8258422E-01
        1   -1    0    0  501    0  0.00000000000E+00  0.00000000000E+00  0.14266950520E+04  0.14266950521E+04  0.50400001928E-02 0.  1.
       -1   -1    0    0    0  501  0.00000000000E+00  0.00000000000E+00 -0.15239910283E+04  0.15239910283E+04  0.50400001928E-02 0. -1.
    10030    2    1    2    0    0  0.00000000000E+00  0.00000000000E+00 -0.97295976211E+02  0.29506860803E+04  0.29490815244E+04 0.  0.
        2    1    3    3  502    0  0.14369313781E+04  0.31299494077E+02 -0.37824946777E+03  0.14862113253E+04  0.25500000920E-02 0.  1.
       -2    1    3    3    0  502 -0.14369313781E+04 -0.31299494077E+02  0.28095349156E+03  0.14644747550E+04  0.25500000920E-02 0. -1.
</event>
<event>
 5   0  0.5003556E-06  0.3024775E+04  0.7818609E-02  0.8236691E-01
        2   -1    0    0  501    0  0.00000000000E+00  0.00000000000E+00  0.14955294867E+04  0.14955294867E+04  0.25500000920E-02 0. -1.
       -2   -1    0    0    0  501  0.00000000000E+00  0.00000000000E+00 -0.15294352998E+04  0.15294352998E+04  0.25500000920E-02 0.  1.
    10030    2    1    2    0    0  0.00000000000E+00  0.00000000000E+00 -0.33905813113E+02  0.30249647865E+04  0.30247747611E+04 0.  0.
        3    1    3    3  502    0 -0.10371035144E+04  0.87694025551E+03 -0.68235751547E+03  0.15199406898E+04  0.10100000352E+00 0.  1.
       -3    1    3    3    0  502  0.10371035144E+04 -0.87694025551E+03  0.64845170235E+03  0.15050240968E+04  0.10100000352E+00 0. -1.
</event>
<event>
 5   0  0.5003556E-06  0.3026246E+04  0.7818609E-02  0.8236276E-01
       -2   -1    0    0    0  501  0.00000000000E+00  0.00000000000E+00  0.10503331590E+04  0.10503331590E+04  0.25500000920E-02 0.  1.
        2   -1    0    0  501    0  0.00000000000E+00  0.00000000000E+00 -0.21798234381E+04  0.21798234381E+04  0.25500000920E-02 0. -1.
    10030    2    1    2    0    0  0.00000000000E+00  0.00000000000E+00 -0.11294902791E+04  0.32301565971E+04  0.30262457519E+04 0.  0.
        3    1    3    3  502    0  0.82150097274E+03 -0.85642621155E+03 -0.15667258707E+04  0.19654413418E+04  0.10100000352E+00 0. -1.
       -3    1    3    3    0  502 -0.82150097274E+03  0.85642621155E+03  0.43723559162E+03  0.12647152552E+04  0.10100000352E+00 0.  1.
</event>
<event>
 5   0  0.1672907E-06  0.3012768E+04  0.7818609E-02  0.8240094E-01
       -1   -1    0    0    0  501  0.00000000000E+00  0.00000000000E+00  0.10659580757E+04  0.10659580758E+04  0.50400001928E-02 0.  1.
        1   -1    0    0  501    0  0.00000000000E+00  0.00000000000E+00 -0.21287820007E+04  0.21287820007E+04  0.50400001928E-02 0. -1.
    10030    2    1    2    0    0  0.00000000000E+00  0.00000000000E+00 -0.10628239250E+04  0.31947400765E+04  0.30127677409E+04 0.  0.
        5    1    3    3  502    0 -0.12530384556E+04 -0.44750167049E+02  0.35391906133E+03  0.13028387239E+04  0.46999998093E+01 0.  1.
       -5    1    3    3    0  502  0.12530384556E+04  0.44750167049E+02 -0.14167429863E+04  0.18919013526E+04  0.46999998093E+01 0. -1.
</event>
<event>
 5   0  0.4935331E-06  0.3021854E+04  0.7818609E-02  0.8237518E-01
        2   -1    0    0  501    0  0.00000000000E+00  0.00000000000E+00  0.16973555608E+04  0.16973555608E+04  0.25500000920E-02 0. -1.
       -2   -1    0    0    0  501  0.00000000000E+00  0.00000000000E+00 -0.13449748990E+04  0.13449748990E+04  0.25500000920E-02 0.  1.
    10030    2    1    2    0    0  0.00000000000E+00  0.00000000000E+00  0.35238066181E+03  0.30423304598E+04  0.30218541487E+04 0.  0.
        5    1    3    3  502    0 -0.17258057664E+03  0.36433807448E+03  0.16422001996E+04  0.16909671415E+04  0.46999998093E+01 0. -1.
       -5    1    3    3    0  502  0.17258057664E+03 -0.36433807448E+03 -0.12898195378E+04  0.13513633183E+04  0.46999998093E+01 0.  1.
</event>
<event>
 5   0  0.5003556E-06  0.2992288E+04  0.7818609E-02  0.8245937E-01
        2   -1    0    0  501    0  0.00000000000E+00  0.00000000000E+00  0.15940221309E+04  0.15940221309E+04  0.25500000920E-02 0.  1.
       -2   -1    0    0    0  501  0.00000000000E+00  0.00000000000E+00 -0.14042758881E+04  0.14042758881E+04  0.25500000920E-02 0. -1.
    10030    2    1    2    0    0  0.00000000000E+00  0.00000000000E+00  0.18974624277E+03  0.29982980190E+04  0.29922879831E+04 0.  0.
        3    1    3    3  502    0 -0.10711148164E+04  0.10445231674E+04  0.10635195993E+03  0.14998754438E+04  0.10100000352E+00 0.  1.
       -3    1    3    3    0  502  0.10711148164E+04 -0.10445231674E+04  0.83394282839E+02  0.14984225752E+04  0.10100000352E+00 0. -1.
</event>
<event>
 5   0  0.1709858E-06  0.2987967E+04  0.7818609E-02  0.8247175E-01
        1   -1    0    0  501    0  0.00000000000E+00  0.00000000000E+00  0.20016470202E+04  0.20016470203E+04  0.50400001928E-02 0. -1.
       -1   -1    0    0    0  501  0.00000000000E+00  0.00000000000E+00 -0.11150753364E+04  0.11150753364E+04  0.50400001928E-02 0.  1.
    10030    2    1    2    0    0  0.00000000000E+00  0.00000000000E+00  0.88657168388E+03  0.31167223566E+04  0.29879673522E+04 0.  0.
        3    1    3    3  502    0 -0.13755993267E+04 -0.55714091566E+03  0.62185776939E+03  0.16091571095E+04  0.10100000352E+00 0. -1.
       -3    1    3    3    0  502  0.13755993267E+04  0.55714091566E+03  0.26471391449E+03  0.15075652471E+04  0.10100000352E+00 0.  1.
</event>
<event>
 5   0  0.1709858E-06  0.2657662E+04  0.7818609E-02  0.8348874E-01
       -1   -1    0    0    0  501  0.00000000000E+00  0.00000000000E+00  0.10040130440E+04  0.10040130440E+04  0.50400001928E-02 0. -1.
        1   -1    0    0  501    0  0.00000000000E+00  0.00000000000E+00 -0.17587345450E+04  0.17587345450E+04  0.50400001928E-02 0.  1.
    10030    2    1    2    0    0  0.00000000000E+00  0.00000000000E+00 -0.75472150103E+03  0.27627475890E+04  0.26576624497E+04 0.  0.
        3    1    3    3  502    0 -0.99061554042E+03  0.13474625155E+02  0.54325880896E+03  0.11298809044E+04  0.10100000352E+00 0. -1.
       -3    1    3    3    0  502  0.99061554042E+03 -0.13474625155E+02 -0.12979803100E+04  0.16328666846E+04  0.10100000352E+00 0.  1.
</event>
<event>
 5   0  0.1686012E-06  0.2978999E+04  0.7818609E-02  0.8249753E-01
        1   -1    0    0  501    0  0.00000000000E+00  0.00000000000E+00  0.18521520369E+04  0.18521520369E+04  0.50400001928E-02 0.  1.
       -1   -1    0    0    0  501  0.00000000000E+00  0.00000000000E+00 -0.11978546834E+04  0.11978546834E+04  0.50400001928E-02 0. -1.
    10030    2    1    2    0    0  0.00000000000E+00  0.00000000000E+00  0.65429735344E+03  0.30500067203E+04  0.29789991553E+04 0.  0.
        4    1    3    3  502    0 -0.31885676177E+02  0.13742217805E+04 -0.26020240864E+03  0.13990028966E+04  0.12699999809E+01 0. -1.
       -4    1    3    3    0  502  0.31885676177E+02 -0.13742217805E+04  0.91449976208E+03  0.16510038237E+04  0.12699999809E+01 0.  1.
</event>
<event>
 5   0  0.4768570E-06  0.3012499E+04  0.7818609E-02  0.8240171E-01
       -2   -1    0    0    0  501  0.00000000000E+00  0.00000000000E+00  0.12095835823E+04  0.12095835823E+04  0.25500000920E-02 0. -1.
        2   -1    0    0  501    0  0.00000000000E+00  0.00000000000E+00 -0.18756760194E+04  0.18756760194E+04  0.25500000920E-02 0.  1.
    10030    2    1    2    0    0  0.00000000000E+00  0.00000000000E+00 -0.66609243714E+03  0.30852596018E+04  0.30124985768E+04 0.  0.
        1    1    3    3  502    0  0.19592200630E+03  0.38806580128E+03 -0.18100320167E+04  0.18615038008E+04  0.50400001928E-02 0.  1.
       -1    1    3    3    0  502 -0.19592200630E+03 -0.38806580128E+03  0.11439395796E+04  0.12237558010E+04  0.50400001928E-02 0. -1.
</event>
<event>
 5   0  0.1734885E-06  0.3027414E+04  0.7818609E-02  0.8235946E-01
       -1   -1    0    0    0  501  0.00000000000E+00  0.00000000000E+00  0.78164548245E+03  0.78164548247E+03  0.50400001928E-02 0. -1.
        1   -1    0    0  501    0  0.00000000000E+00  0.00000000000E+00 -0.29313922866E+04  0.29313922866E+04  0.50400001928E-02 0.  1.
    10030    2    1    2    0    0  0.00000000000E+00  0.00000000000E+00 -0.21497468042E+04  0.37130377691E+04  0.30274144336E+04 0.  0.
        2    1    3    3  502    0 -0.13205373007E+04 -0.73174305523E+03 -0.94028035978E+03  0.17785932127E+04  0.25500000920E-02 0.  1.
       -2    1    3    3    0  502  0.13205373007E+04  0.73174305523E+03 -0.12094664444E+04  0.19344445563E+04  0.25500000920E-02 0. -1.
</event>
<event>
 5   0  0.4702748E-06  0.3088874E+04  0.7818609E-02  0.8218798E-01
       -2   -1    0    0    0  501  0.00000000000E+00  0.00000000000E+00  0.14053359360E+04  0.14053359360E+04  0.25500000920E-02 0.  1.
        2   -1    0    0  501    0  0.00000000000E+00  0.00000000000E+00 -0.16973065963E+04  0.16973065963E+04  0.25500000920E-02 0. -1.
    10030    2    1    2    0    0  0.00000000000E+00  0.00000000000E+00 -0.29197066025E+03  0.31026425323E+04  0.30888741989E+04 0.  0.
        2    1    3    3  502    0 -0.26212606132E+03  0.13398467395E+04 -0.87127493321E+03  0.16195738225E+04  0.25500000920E-02 0. -1.
       -2    1    3    3    0  502  0.26212606132E+03 -0.13398467395E+04  0.57930427295E+03  0.14830687098E+04  0.25500000920E-02 0.  1.
</event>
<event>
 5   0  0.5003556E-06  0.2985281E+04  0.7818609E-02  0.8247947E-01
       -2   -1    0    0    0  501  0.00000000000E+00  0.00000000000E+00  0.72242095237E+03  0.72242095238E+03  0.25500000920E-02 0.  1.
        2   -1    0    0  501    0  0.00000000000E+00  0.00000000000E+00 -0.30840407128E+04  0.30840407128E+04  0.25500000920E-02 0. -1.
    10030    2    1    2    0    0  0.00000000000E+00  0.00000000000E+00 -0.23616197604E+04  0.38064616651E+04  0.29852809777E+04 0.  0.
        3    1    3    3  502    0 -0.12954900239E+03 -0.25789559466E+03  0.68650584495E+03  0.74470354310E+03  0.10100000352E+00 0.  1.
       -3    1    3    3    0  502  0.12954900239E+03  0.25789559466E+03 -0.30481256053E+04  0.30617581220E+04  0.10100000352E+00 0. -1.
</event>
<event>
 5   0  0.1686012E-06  0.3046566E+04  0.7818609E-02  0.8230557E-01
       -1   -1    0    0    0  501  0.00000000000E+00  0.00000000000E+00  0.27048389049E+04  0.27048389049E+04  0.50400001928E-02 0.  1.
        1   -1    0    0  501    0  0.00000000000E+00  0.00000000000E+00 -0.85786660337E+03  0.85786660338E+03  0.50400001928E-02 0. -1.
    10030    2    1    2    0    0  0.00000000000E+00  0.00000000000E+00  0.18469723015E+04  0.35627055083E+04  0.30465659120E+04 0.  0.
        4    1    3    3  502    0 -0.93739551590E+03  0.11201683341E+04  0.41792207521E+03  0.15192590049E+04  0.12699999809E+01 0. -1.
       -4    1    3    3    0  502  0.93739551590E+03 -0.11201683341E+04  0.14290502263E+04  0.20434465034E+04  0.12699999809E+01 0.  1.
</event>
<event>
 5   0  0.1700885E-06  0.2987829E+04  0.7818609E-02  0.8247215E-01
        1   -1    0    0  501    0  0.00000000000E+00  0.00000000000E+00  0.17675252417E+04  0.17675252417E+04  0.50400001928E-02 0. -1.
       -1   -1    0    0    0  501  0.00000000000E+00  0.00000000000E+00 -0.12626585968E+04  0.12626585968E+04  0.50400001928E-02 0.  1.
    10030    2    1    2    0    0  0.00000000000E+00  0.00000000000E+00  0.50486664487E+03  0.30301838385E+04  0.29878292733E+04 0.  0.
        1    1    3    3  502    0  0.57957794149E+03 -0.75532942203E+03 -0.91512378762E+03  0.13205622563E+04  0.50400001928E-02 0.  1.
       -1    1    3    3    0  502 -0.57957794149E+03  0.75532942203E+03  0.14199904325E+04  0.17096215822E+04  0.50400001928E-02 0. -1.
</event>
<event>
 5   0  0.5003556E-06  0.3017963E+04  0.7818609E-02  0.8238620E-01
       -2   -1    0    0    0  501  0.00000000000E+00  0.00000000000E+00  0.12459980049E+04  0.12459980049E+04  0.25500000920E-02 0. -1.
        2   -1    0    0  501    0  0.00000000000E+00  0.00000000000E+00 -0.18274712876E+04  0.18274712876E+04  0.25500000920E-02 0.  1.
    10030    2    1    2    0    0  0.00000000000E+00  0.00000000000E+00 -0.58147328270E+03  0.30734692925E+04  0.30179632724E+04 0.  0.
        3    1    3    3  502    0 -0.31717610548E+03  0.80719910700E+03 -0.15482978408E+04  0.17746541337E+04  0.10100000352E+00 0.  1.
       -3    1    3    3    0  502  0.31717610548E+03 -0.80719910700E+03  0.96682455813E+03  0.12988151588E+04  0.10100000352E+00 0. -1.
</event>
<event>
 5   0  0.4935331E-06  0.3000157E+04  0.7818609E-02  0.8243686E-01
        2   -1    0    0  501    0  0.00000000000E+00  0.00000000000E+00  0.16163179581E+04  0.16163179581E+04  0.25500000920E-02 0. -1.
       -2   -1    0    0    0  501  0.00000000000E+00  0.00000000000E+00 -0.13921983755E+04  0.13921983755E+04  0.25500000920E-02 0.  1.
    10030    2    1    2    0    0  0.00000000000E+00  0.00000000000E+00  0.22411958263E+03  0.30085163336E+04  0.30001568196E+04 0.  0.
        5    1    3    3  502    0 -0.99668943157E+03  0.65860055771E+03 -0.79769937869E+03  0.14364856095E+04  0.46999998093E+01 0.  1.
       -5    1    3    3    0  502  0.99668943157E+03 -0.65860055771E+03  0.10218189613E+04  0.15720307240E+04  0.46999998093E+01 0. -1.
</event>
<event>
 5   0  0.1709858E-06  0.2941306E+04  0.7818609E-02  0.8260693E-01
       -1   -1    0    0    0  501  0.00000000000E+00  0.00000000000E+00  0.12045700322E+04  0.12045700322E+04  0.50400001928E-02 0.  1.
        1   -1    0    0  501    0  0.00000000000E+00  0.00000000000E+00 -0.17955117032E+04  0.17955117032E+04  0.50400001928E-02 0. -1.
    10030    2    1    2    0    0  0.00000000000E+00  0.00000000000E+00 -0.59094167103E+03  0.30000817354E+04  0.29413055538E+04 0.  0.
        3    1    3    3  502    0 -0.10684998772E+04  0.85252050994E+03 -0.84883994310E+03  0.16090408530E+04  0.10100000352E+00 0. -1.
       -3    1    3    3    0  502  0.10684998772E+04 -0.85252050994E+03  0.25789827207E+03  0.13910408824E+04  0.10100000352E+00 0.  1.
</event>
<event>
 5   0  0.1686012E-06  0.3024264E+04  0.7818609E-02  0.8236836E-01
        1   -1    0    0  501    0  0.00000000000E+00  0.00000000000E+00  0.25901433103E+04  0.25901433103E+04  0.50400001928E-02 0. -1.
       -1   -1    0    0    0  501  0.00000000000E+00  0.00000000000E+00 -0.88278661583E+03  0.88278661584E+03  0.50400001928E-02 0.  1.
    10030    2    1    2    0    0  0.00000000000E+00  0.00000000000E+00  0.17073566945E+04  0.34729299262E+04  0.30242644378E+04 0.  0.
        4    1    3    3  502    0 -0.70154165433E+03  0.12967973279E+04  0.46816909159E+03  0.15469414707E+04  0.12699999809E+01 0.  1.
       -4    1    3    3    0  502  0.70154165433E+03 -0.12967973279E+04  0.12391876029E+04  0.19259884555E+04  0.12699999809E+01 0. -1.
</event>
<event>
 5   0  0.1734885E-06  0.3009295E+04  0.7818609E-02  0.8241082E-01
       -1   -1    0    0    0  501  0.00000000000E+00  0.00000000000E+00  0.12158558011E+04  0.12158558011E+04  0.50400001928E-02 0. -1.
        1   -1    0    0  501    0  0.00000000000E+00  0.00000000000E+00 -0.18620339076E+04  0.18620339076E+04  0.50400001928E-02 0.  1.
    10030    2    1    2    0    0  0.00000000000E+00  0.00000000000E+00 -0.64617810645E+03  0.30778897087E+04  0.30092954182E+04 0.  0.
        2    1    3    3  502    0  0.20282009508E+03 -0.88248150835E+03  0.90599084480E+03  0.12809094482E+04  0.25500000920E-02 0. -1.
       -2    1    3    3    0  502 -0.20282009508E+03  0.88248150835E+03 -0.15521689512E+04  0.17969802605E+04  0.25500000920E-02 0.  1.
</event>
<event>
 5   0  0.4532420E-06  0.3032463E+04  0.7818609E-02  0.8234521E-01
        2   -1    0    0  501    0  0.00000000000E+00  0.00000000000E+00  0.18590845547E+04  0.18590845547E+04  0.25500000920E-02 0. -1.
       -2   -1    0    0    0  501  0.00000000000E+00  0.00000000000E+00 -0.12366075516E+04  0.12366075516E+04  0.25500000920E-02 0.  1.
    10030    2    1    2    0    0  0.00000000000E+00  0.00000000000E+00  0.62247700310E+03  0.30956921062E+04  0.30324630249E+04 0.  0.
        4    1    3    3  502    0  0.16513096065E+03  0.54268095932E+03 -0.11242045162E+04  0.12592093809E+04  0.12699999809E+01 0.  1.
       -4    1    3    3    0  502 -0.16513096065E+03 -0.54268095932E+03  0.17466815193E+04  0.18364827253E+04  0.12699999809E+01 0. -1.
</event>
<event>
 5   0  0.1672907E-06  0.2981445E+04  0.7818609E-02  0.8249049E-01
       -1   -1    0    0    0  501  0.00000000000E+00  0.00000000000E+00  0.15472967654E+04  0.15472967654E+04  0.50400001928E-02 0. -1.
        1   -1    0    0  501    0  0.00000000000E+00  0.00000000000E+00 -0.14362164680E+04  0.14362164680E+04  0.50400001928E-02 0.  1.
    10030    2    1    2    0    0  0.00000000000E+00  0.00000000000E+00  0.11108029734E+03  0.29835132334E+04  0.29814446802E+04 0.  0.
        5    1    3    3  502    0 -0.36892075456E+03 -0.12283369256E+04  0.81588102788E+03  0.15200651524E+04  0.46999998093E+01 0. -1.
       -5    1    3    3    0  502  0.36892075456E+03  0.12283369256E+04 -0.70480073054E+03  0.14634480810E+04  0.46999998093E+01 0.  1.
</event>
<event>
 5   0  0.4935331E-06  0.2978958E+04  0.7818609E-02  0.8249765E-01
       -2   -1    0    0    0  501  0.00000000000E+00  0.00000000000E+00  0.15384148266E+04  0.15384148266E+04  0.25500000920E-02 0.  1.
        2   -1    0    0  501    0  0.00000000000E+00  0.00000000000E+00 -0.14421002139E+04  0.14421002139E+04  0.25500000920E-02 0. -1.
    10030    2    1    2    0    0  0.00000000000E+00  0.00000000000E+00  0.96314612751E+02  0.29805150405E+04  0.29789584425E+04 0.  0.
        5    1    3    3  502    0  0.12658949572E+02 -0.51731582960E+03 -0.13492651536E+04  0.14451001561E+04  0.46999998093E+01 0. -1.
       -5    1    3    3    0  502 -0.12658949572E+02  0.51731582960E+03  0.14455797663E+04  0.15354148844E+04  0.46999998093E+01 0.  1.
</event>
<event>
 5   0  0.1734885E-06  0.2994613E+04  0.7818609E-02  0.8245271E-01
        1   -1    0    0  501    0  0.00000000000E+00  0.00000000000E+00  0.11275377636E+04  0.11275377636E+04  0.50400001928E-02 0.  1.
       -1   -1    0    0    0  501  0.00000000000E+00  0.00000000000E+00 -0.19883391468E+04  0.19883391468E+04  0.50400001928E-02 0. -1.
    10030    2    1    2    0    0  0.00000000000E+00  0.00000000000E+00 -0.86080138316E+03  0.31158769104E+04  0.29946134808E+04 0.  0.
        2    1    3    3  502    0  0.47444431548E+03 -0.13522257034E+04  0.21125344366E+02  0.14331985353E+04  0.25500000920E-02 0.  1.
       -2    1    3    3    0  502 -0.47444431548E+03  0.13522257034E+04 -0.88192672752E+03  0.16826783751E+04  0.25500000920E-02 0. -1.
</event>
<event>
 5   0  0.4768570E-06  0.3038146E+04  0.7818609E-02  0.8232921E-01
       -2   -1    0    0    0  501  0.00000000000E+00  0.00000000000E+00  0.14169411770E+04  0.14169411770E+04  0.25500000920E-02 0.  1.
        2   -1    0    0  501    0  0.00000000000E+00  0.00000000000E+00 -0.16285659245E+04  0.16285659245E+04  0.25500000920E-02 0. -1.
    10030    2    1    2    0    0  0.00000000000E+00  0.00000000000E+00 -0.21162474756E+03  0.30455071015E+04  0.30381455645E+04 0.  0.
        1    1    3    3  502    0  0.11254834886E+04  0.10173148134E+03 -0.11234172893E+04  0.15934643966E+04  0.50400001928E-02 0. -1.
       -1    1    3    3    0  502 -0.11254834886E+04 -0.10173148134E+03  0.91179254177E+03  0.14520427048E+04  0.50400001928E-02 0.  1.
</event>
<event>
 5   0  0.1672907E-06  0.3002403E+04  0.7818609E-02  0.8243045E-01
        1   -1    0    0  501    0  0.00000000000E+00  0.00000000000E+00  0.15719877108E+04  0.15719877108E+04  0.50400001928E-02 0.  1.
       -1   -1    0    0    0  501  0.00000000000E+00  0.00000000000E+00 -0.14336026646E+04  0.14336026646E+04  0.50400001928E-02 0. -1.
    10030    2    1    2    0    0  0.00000000000E+00  0.00000000000E+00  0.13838504619E+03  0.30055903754E+04  0.30024028850E+04 0.  0.
        5    1    3    3  502    0 -0.97538829434E+03 -0.62102084200E+02 -0.10714664605E+04  0.14502763390E+04  0.46999998093E+01 0. -1.
       -5    1    3    3    0  502  0.97538829434E+03  0.62102084200E+02  0.12098515067E+04  0.15553140364E+04  0.46999998093E+01 0.  1.
</event>
<event>
 5   0  0.1734885E-06  0.2880257E+04  0.7818609E-02  0.8278776E-01
       -1   -1    0    0    0  501  0.00000000000E+00  0.00000000000E+00  0.13538730256E+04  0.13538730256E+04  0.50400001928E-02 0. -1.
        1   -1    0    0  501    0  0.00000000000E+00  0.00000000000E+00 -0.15318791817E+04  0.15318791817E+04  0.50400001928E-02 0.  1.
    10030    2    1    2    0    0  0.00000000000E+00  0.00000000000E+00 -0.17800615613E+03  0.28857522072E+04  0.28802568653E+04 0.  0.
        2    1    3    3  502    0  0.58216143172E+03 -0.94871150854E+03  0.82652614099E+03  0.13864021497E+04  0.25500000920E-02 0. -1.
       -2    1    3    3    0  502 -0.58216143172E+03  0.94871150854E+03 -0.10045322971E+04  0.14993500575E+04  0.25500000920E-02 0.  1.
</event>
<event>
 5   0  0.4702748E-06  0.2980042E+04  0.7818609E-02  0.8249453E-01
        2   -1    0    0  501    0  0.00000000000E+00  0.00000000000E+00  0.12053664858E+04  0.12053664858E+04  0.25500000920E-02 0.  1.
       -2   -1    0    0    0  501  0.00000000000E+00  0.00000000000E+00 -0.18418982512E+04  0.18418982512E+04  0.25500000920E-02 0. -1.
    10030    2    1    2    0    0  0.00000000000E+00  0.00000000000E+00 -0.63653176545E+03  0.30472647370E+04  0.29800418938E+04 0.  0.
        2    1    3    3  502    0 -0.11009863609E+04 -0.79997185485E+02  0.70510538520E+03  0.13098641612E+04  0.25500000920E-02 0.  1.
       -2    1    3    3    0  502  0.11009863609E+04  0.79997185485E+02 -0.13416371506E+04  0.17374005757E+04  0.25500000920E-02 0. -1.
</event>
<event>
 5   0  0.4702748E-06  0.3001034E+04  0.7818609E-02  0.8243436E-01
        2   -1    0    0  501    0  0.00000000000E+00  0.00000000000E+00  0.17220428368E+04  0.17220428368E+04  0.25500000920E-02 0. -1.
       -2   -1    0    0    0  501  0.00000000000E+00  0.00000000000E+00 -0.13074885417E+04  0.13074885417E+04  0.25500000920E-02 0.  1.
    10030    2    1    2    0    0  0.00000000000E+00  0.00000000000E+00  0.41455429505E+03  0.30295313785E+04  0.30010340068E+04 0.  0.
        2    1    3    3  502    0  0.42126862913E+03  0.11944307806E+04  0.10195413284E+04  0.16259141023E+04  0.25500000920E-02 0. -1.
       -2    1    3    3    0  502 -0.42126862913E+03 -0.11944307806E+04 -0.60498703337E+03  0.14036172762E+04  0.25500000920E-02 0.  1.
</event>
<event>
 5   0  0.4532420E-06  0.3006109E+04  0.7818609E-02  0.8241989E-01
        2   -1    0    0  501    0  0.00000000000E+00  0.00000000000E+00  0.23177071867E+04  0.23177071867E+04  0.25500000920E-02 0.  1.
       -2   -1    0    0    0  501  0.00000000000E+00  0.00000000000E+00 -0.97474483140E+03  0.97474483140E+03  0.25500000920E-02 0. -1.
    10030    2    1    2    0    0  0.00000000000E+00  0.00000000000E+00  0.13429623553E+04  0.32924520181E+04  0.30061091803E+04 0.  0.
        4    1    3    3  502    0 -0.13268693876E+03  0.14375545623E+04  0.21330037719E+03  0.14593380716E+04  0.12699999809E+01 0. -1.
       -4    1    3    3    0  502  0.13268693876E+03 -0.14375545623E+04  0.11296619781E+04  0.18331139465E+04  0.12699999809E+01 0.  1.
</event>
<event>
 5   0  0.4702748E-06  0.3020549E+04  0.7818609E-02  0.8237887E-01
        2   -1    0    0  501    0  0.00000000000E+00  0.00000000000E+00  0.21759056779E+04  0.21759056779E+04  0.25500000920E-02 0. -1.
       -2   -1    0    0    0  501  0.00000000000E+00  0.00000000000E+00 -0.10482668354E+04  0.10482668354E+04  0.25500000920E-02 0.  1.
    10030    2    1    2    0    0  0.00000000000E+00  0.00000000000E+00  0.11276388425E+04  0.32241725134E+04  0.30205494594E+04 0.  0.
        2    1    3    3  502    0 -0.67991035887E+03 -0.39837309324E+02  0.20026760099E+04  0.21153194340E+04  0.25500000920E-02 0. -1.
       -2    1    3    3    0  502  0.67991035887E+03  0.39837309324E+02 -0.87503716738E+03  0.11088530794E+04  0.25500000920E-02 0.  1.
</event>
<event>
 5   0  0.4702748E-06  0.3078226E+04  0.7818609E-02  0.8221739E-01
       -2   -1    0    0    0  501  0.00000000000E+00  0.00000000000E+00  0.15310408384E+04  0.15310408384E+04  0.25500000920E-02 0. -1.
        2   -1    0    0  501    0  0.00000000000E+00  0.00000000000E+00 -0.15472277485E+04  0.15472277485E+04  0.25500000920E-02 0.  1.
    10030    2    1    2    0    0  0.00000000000E+00  0.00000000000E+00 -0.16186910079E+02  0.30782685868E+04  0.30782260276E+04 0.  0.
        2    1    3    3  502    0  0.22986468472E+03 -0.11607935250E+04  0.97608959280E+03  0.15339590197E+04  0.25500000920E-02 0. -1.
       -2    1    3    3    0  502 -0.22986468472E+03  0.11607935250E+04 -0.99227650288E+03  0.15443095671E+04  0.25500000920E-02 0.  1.
</event>
<event>
 5   0  0.5003556E-06  0.3086024E+04  0.7818609E-02  0.8219584E-01
       -2   -1    0    0    0  501  0.00000000000E+00  0.00000000000E+00  0.22918348182E+04  0.22918348182E+04  0.25500000920E-02 0. -1.
        2   -1    0    0  501    0  0.00000000000E+00  0.00000000000E+00 -0.10388561508E+04  0.10388561508E+04  0.25500000920E-02 0.  1.
    10030    2    1    2    0    0  0.00000000000E+00  0.00000000000E+00  0.12529786674E+04  0.33306909691E+04  0.30860244313E+04 0.  0.
        3    1    3    3  502    0  0.44758823160E+03  0.47490567034E+03 -0.88258330525E+03  0.10976447156E+04  0.10100000352E+00 0.  1.
       -3    1    3    3    0  502 -0.44758823160E+03 -0.47490567034E+03  0.21355619727E+04  0.22330462534E+04  0.10100000352E+00 0. -1.
</event>
<event>
 5   0  0.1686012E-06  0.3020950E+04  0.7818609E-02  0.8237774E-01
        1   -1    0    0  501    0  0.00000000000E+00  0.00000000000E+00  0.22366501618E+04  0.22366501618E+04  0.50400001928E-02 0.  1.
       -1   -1    0    0    0  501  0.00000000000E+00  0.00000000000E+00 -0.10200677319E+04  0.10200677319E+04  0.50400001928E-02 0. -1.
    10030    2    1    2    0    0  0.00000000000E+00  0.00000000000E+00  0.12165824299E+04  0.32567178937E+04  0.30209499550E+04 0.  0.
        4    1    3    3  502    0  0.65381687055E+03  0.10694065946E+03  0.20716624977E+04  0.21750172234E+04  0.12699999809E+01 0.  1.
       -4    1    3    3    0  502 -0.65381687055E+03 -0.10694065946E+03 -0.85508006777E+03  0.10817006703E+04  0.12699999809E+01 0. -1.
</event>
<event>
 5   0  0.1700885E-06  0.2943079E+04  0.7818609E-02  0.8260175E-01
       -1   -1    0    0    0  501  0.00000000000E+00  0.00000000000E+00  0.10627204880E+04  0.10627204880E+04  0.50400001928E-02 0. -1.
        1   -1    0    0  501    0  0.00000000000E+00  0.00000000000E+00 -0.20376269367E+04  0.20376269368E+04  0.50400001928E-02 0.  1.
    10030    2    1    2    0    0  0.00000000000E+00  0.00000000000E+00 -0.97490644876E+03  0.31003474248E+04  0.29430785872E+04 0.  0.
        1    1    3    3  502    0  0.57307015462E+03  0.21824643450E+03 -0.18966143104E+04  0.19932854163E+04  0.50400001928E-02 0.  1.
       -1    1    3    3    0  502 -0.57307015462E+03 -0.21824643450E+03  0.92170786167E+03  0.11070620085E+04  0.50400001928E-02 0. -1.
</event>
<event>
 5   0  0.1709858E-06  0.2992150E+04  0.7818609E-02  0.8245976E-01
        1   -1    0    0  501    0  0.00000000000E+00  0.00000000000E+00  0.12797802616E+04  0.12797802616E+04  0.50400001928E-02 0.  1.
       -1   -1    0    0    0  501  0.00000000000E+00  0.00000000000E+00 -0.17489258010E+04  0.17489258010E+04  0.50400001928E-02 0. -1.
    10030    2    1    2    0    0  0.00000000000E+00  0.00000000000E+00 -0.46914553943E+03  0.30287060627E+04  0.29921502096E+04 0.  0.
        3    1    3    3  502    0  0.12978476027E+04  0.36027834417E+03  0.42456008681E+03  0.14122535759E+04  0.10100000352E+00 0.  1.
       -3    1    3    3    0  502 -0.12978476027E+04 -0.36027834417E+03 -0.89370562624E+03  0.16164524867E+04  0.10100000352E+00 0. -1.
</event>
<event>
 5   0  0.1734885E-06  0.3010985E+04  0.7818609E-02  0.8240601E-01
        1   -1    0    0  501    0  0.00000000000E+00  0.00000000000E+00  0.16085177777E+04  0.16085177777E+04  0.50400001928E-02 0. -1.
       -1   -1    0    0    0  501  0.00000000000E+00  0.00000000000E+00 -0.14090658152E+04  0.14090658152E+04  0.50400001928E-02 0.  1.
    10030    2    1    2    0    0  0.00000000000E+00  0.00000000000E+00  0.19945196248E+03  0.30175835929E+04  0.30109848314E+04 0.  0.
        2    1    3    3  502    0 -0.14019654646E+03 -0.59773835447E+03 -0.12778996791E+04  0.14177354485E+04  0.25500000920E-02 0.  1.
       -2    1    3    3    0  502  0.14019654646E+03  0.59773835447E+03  0.14773516416E+04  0.15998481444E+04  0.25500000920E-02 0. -1.
</event>
<event>
 5   0  0.1709858E-06  0.2995892E+04  0.7818609E-02  0.8244905E-01
        1   -1    0    0  501    0  0.00000000000E+00  0.00000000000E+00  0.23780782797E+04  0.23780782797E+04  0.50400001928E-02 0.  1.
       -1   -1    0    0    0  501  0.00000000000E+00  0.00000000000E+00 -0.94355249878E+03  0.94355249880E+03  0.50400001928E-02 0. -1.
    10030    2    1    2    0    0  0.00000000000E+00  0.00000000000E+00  0.14345257809E+04  0.33216307785E+04  0.29958916556E+04 0.  0.
        3    1    3    3  502    0 -0.38330652127E+03 -0.13955348168E+04  0.28871328271E+03  0.14757359804E+04  0.10100000352E+00 0. -1.
       -3    1    3    3    0  502  0.38330652127E+03  0.13955348168E+04  0.11458124982E+04  0.18458947980E+04  0.10100000352E+00 0.  1.
</event>
<event>
 5   0  0.4532420E-06  0.2961728E+04  0.7818609E-02  0.8254745E-01
        2   -1    0    0  501    0  0.00000000000E+00  0.00000000000E+00  0.15239126707E+04  0.15239126707E+04  0.25500000920E-02 0. -1.
       -2   -1    0    0    0  501  0.00000000000E+00  0.00000000000E+00 -0.14390314522E+04  0.14390314522E+04  0.25500000920E-02 0.  1.
    10030    2    1    2    0    0  0.00000000000E+00  0.00000000000E+00  0.84881218532E+02  0.29629441229E+04  0.29617280521E+04 0.  0.
        4    1    3    3  502    0 -0.55972712747E+03 -0.12089439564E+04  0.68932555078E+03  0.15000037583E+04  0.12699999809E+01 0. -1.
       -4    1    3    3    0  502  0.55972712747E+03  0.12089439564E+04 -0.60444433225E+03  0.14629403647E+04  0.12699999809E+01 0.  1.
</event>
<event>
 5   0  0.4532420E-06  0.2888540E+04  0.7818609E-02  0.8276295E-01
        2   -1    0    0  501    0  0.00000000000E+00  0.00000000000E+00  0.11161004494E+04  0.11161004494E+04  0.25500000920E-02 0.  1.
       -2   -1    0    0    0  501  0.00000000000E+00  0.00000000000E+00 -0.18689320606E+04  0.18689320606E+04  0.25500000920E-02 0. -1.
    10030    2    1    2    0    0  0.00000000000E+00  0.00000000000E+00 -0.75283161120E+03  0.29850325100E+04  0.28885400553E+04 0.  0.
        4    1    3    3  502    0 -0.22237107271E+03  0.34559905992E+03  0.10544033688E+04  0.11316605857E+04  0.12699999809E+01 0.  1.
       -4    1    3    3    0  502  0.22237107271E+03 -0.34559905992E+03 -0.18072349800E+04  0.18533719244E+04  0.12699999809E+01 0. -1.
</event>
<event>
 5   0  0.4702748E-06  0.2888687E+04  0.7818609E-02  0.8276251E-01
        2   -1    0    0  501    0  0.00000000000E+00  0.00000000000E+00  0.79802268184E+03  0.79802268184E+03  0.25500000920E-02 0. -1.
       -2   -1    0    0    0  501  0.00000000000E+00  0.00000000000E+00 -0.26141214428E+04  0.26141214428E+04  0.25500000920E-02 0.  1.
    10030    2    1    2    0    0  0.00000000000E+00  0.00000000000E+00 -0.18160987609E+04  0.34121441246E+04  0.28886870405E+04 0.  0.
        2    1    3    3  502    0 -0.45916837310E+03 -0.77430632944E+03  0.42611196820E+03  0.99597052975E+03  0.25500000920E-02 0. -1.
       -2    1    3    3    0  502  0.45916837310E+03  0.77430632944E+03 -0.22422107291E+04  0.24161735949E+04  0.25500000920E-02 0.  1.
</event>
<event>
 5   0  0.1545375E-06  0.3096235E+04  0.7818609E-02  0.8216772E-01
        3   -1    0    0  501    0  0.00000000000E+00  0.00000000000E+00  0.98993733730E+03  0.98993734246E+03  0.10100000352E+00 0. -1.
       -3   -1    0    0    0  501  0.00000000000E+00  0.00000000000E+00 -0.24210291037E+04  0.24210291058E+04  0.10100000352E+00 0.  1.
    10030    2    1    2    0    0  0.00000000000E+00  0.00000000000E+00 -0.14310917663E+04  0.34109664482E+04  0.30962345627E+04 0.  0.
        3    1    3    3  502    0 -0.15150379216E+04 -0.20880273139E+03 -0.45085487448E+03  0.15944304979E+04  0.10100000352E+00 0. -1.
       -3    1    3    3    0  502  0.15150379216E+04  0.20880273139E+03 -0.98023689187E+03  0.18165359503E+04  0.10100000352E+00 0.  1.
</event>
<event>
 5   0  0.1686012E-06  0.3031568E+04  0.7818609E-02  0.8234774E-01
       -1   -1    0    0    0  501  0.00000000000E+00  0.00000000000E+00  0.11524057262E+04  0.11524057262E+04  0.50400001928E-02 0. -1.
        1   -1    0    0  501    0  0.00000000000E+00  0.00000000000E+00 -0.19937426338E+04  0.19937426338E+04  0.50400001928E-02 0.  1.
    10030    2    1    2    0    0  0.00000000000E+00  0.00000000000E+00 -0.84133690764E+03  0.31461483600E+04  0.30315675337E+04 0.  0.
        4    1    3    3  502    0 -0.85243038893E+03  0.33198539752E+03  0.83362583280E+03  0.12376532286E+04  0.12699999809E+01 0. -1.
       -4    1    3    3    0  502  0.85243038893E+03 -0.33198539752E+03 -0.16749627404E+04  0.19084951315E+04  0.12699999809E+01 0.  1.
</event>
<event>
 5   0  0.1709858E-06  0.3048253E+04  0.7818609E-02  0.8230085E-01
        1   -1    0    0  501    0  0.00000000000E+00  0.00000000000E+00  0.21432404033E+04  0.21432404033E+04  0.50400001928E-02 0. -1.
       -1   -1    0    0    0  501  0.00000000000E+00  0.00000000000E+00 -0.10838545860E+04  0.10838545861E+04  0.50400001928E-02 0.  1.
    10030    2    1    2    0    0  0.00000000000E+00  0.00000000000E+00  0.10593858172E+04  0.32270949893E+04  0.30482525749E+04 0.  0.
        3    1    3    3  502    0  0.13403914268E+04  0.42023846678E+03 -0.96366698756E+02  0.14080256024E+04  0.10100000352E+00 0.  1.
       -3    1    3    3    0  502 -0.13403914268E+04 -0.42023846678E+03  0.11557525160E+04  0.18190693869E+04  0.10100000352E+00 0. -1.
</event>
<event>
 5   0  0.1686012E-06  0.2966517E+04  0.7818609E-02  0.8253357E-01
        1   -1    0    0  501    0  0.00000000000E+00  0.00000000000E+00  0.16211752162E+04  0.16211752162E+04  0.50400001928E-02 0.  1.
       -1   -1    0    0    0  501  0.00000000000E+00  0.00000000000E+00 -0.13570748874E+04  0.13570748874E+04  0.50400001928E-02 0. -1.
    10030    2    1    2    0    0  0.00000000000E+00  0.00000000000E+00  0.26410032883E+03  0.29782501036E+04  0.29665172671E+04 0.  0.
        4    1    3    3  502    0 -0.94523764213E+03 -0.27271333267E+02  0.12793018628E+04  0.15908591373E+04  0.12699999809E+01 0.  1.
       -4    1    3    3    0  502  0.94523764213E+03  0.27271333267E+02 -0.10152015340E+04  0.13873909663E+04  0.12699999809E+01 0. -1.
</event>
<event>
 5   0  0.1686012E-06  0.3005874E+04  0.7818609E-02  0.8242056E-01
       -1   -1    0    0    0  501  0.00000000000E+00  0.00000000000E+00  0.17393665063E+04  0.17393665063E+04  0.50400001928E-02 0. -1.
        1   -1    0    0  501    0  0.00000000000E+00  0.00000000000E+00 -0.12986450659E+04  0.12986450659E+04  0.50400001928E-02 0.  1.
    10030    2    1    2    0    0  0.00000000000E+00  0.00000000000E+00  0.44072144044E+03  0.30380115722E+04  0.30058740700E+04 0.  0.
        4    1    3    3  502    0  0.19082430754E+03 -0.67422781370E+03  0.15641704867E+04  0.17139509869E+04  0.12699999809E+01 0. -1.
       -4    1    3    3    0  502 -0.19082430754E+03  0.67422781370E+03 -0.11234490462E+04  0.13240605853E+04  0.12699999809E+01 0.  1.
</event>
<event>
 5   0  0.4768570E-06  0.3015326E+04  0.7818609E-02  0.8239368E-01
       -2   -1    0    0    0  501  0.00000000000E+00  0.00000000000E+00  0.73366075367E+03  0.73366075368E+03  0.25500000920E-02 0.  1.
        2   -1    0    0  501    0  0.00000000000E+00  0.00000000000E+00 -0.30982279025E+04  0.30982279025E+04  0.25500000920E-02 0. -1.
    10030    2    1    2    0    0  0.00000000000E+00  0.00000000000E+00 -0.23645671488E+04  0.38318886561E+04  0.30153263293E+04 0.  0.
        1    1    3    3  502    0 -0.12680000740E+04  0.97998773898E+01 -0.14587457765E+03  0.12764010411E+04  0.50400001928E-02 0.  1.
       -1    1    3    3    0  502  0.12680000740E+04 -0.97998773898E+01 -0.22186925711E+04  0.25554876150E+04  0.50400001928E-02 0. -1.
</event>
<event>
 5   0  0.4702748E-06  0.2985449E+04  0.7818609E-02  0.8247898E-01
       -2   -1    0    0    0  501  0.00000000000E+00  0.00000000000E+00  0.17328055154E+04  0.17328055154E+04  0.25500000920E-02 0. -1.
        2   -1    0    0  501    0  0.00000000000E+00  0.00000000000E+00 -0.12859064364E+04  0.12859064364E+04  0.25500000920E-02 0.  1.
    10030    2    1    2    0    0  0.00000000000E+00  0.00000000000E+00  0.44689907899E+03  0.30187119518E+04  0.29854485528E+04 0.  0.
        2    1    3    3  502    0  0.51299465949E+03  0.58627317199E+03 -0.10640584616E+04  0.13187494692E+04  0.25500000920E-02 0.  1.
       -2    1    3    3    0  502 -0.51299465949E+03 -0.58627317199E+03  0.15109575406E+04  0.16999624826E+04  0.25500000920E-02 0. -1.
</event>
<event>
 5   0  0.5003556E-06  0.3107033E+04  0.7818609E-02  0.8213810E-01
        2   -1    0    0  501    0  0.00000000000E+00  0.00000000000E+00  0.12775081772E+04  0.12775081772E+04  0.25500000920E-02 0. -1.
       -2   -1    0    0    0  501  0.00000000000E+00  0.00000000000E+00 -0.18891571560E+04  0.18891571560E+04  0.25500000920E-02 0.  1.
    10030    2    1    2    0    0  0.00000000000E+00  0.00000000000E+00 -0.61164897883E+03  0.31666653332E+04  0.31070331281E+04 0.  0.
        3    1    3    3  502    0  0.95057991965E+03  0.89388812886E+03  0.55343140290E+03  0.14173653370E+04  0.10100000352E+00 0. -1.
       -3    1    3    3    0  502 -0.95057991965E+03 -0.89388812886E+03 -0.11650803817E+04  0.17492999962E+04  0.10100000352E+00 0.  1.
</event>
<event>
 5   0  0.4935331E-06  0.3034936E+04  0.7818609E-02  0.8233825E-01
        2   -1    0    0  501    0  0.00000000000E+00  0.00000000000E+00  0.18309455147E+04  0.18309455147E+04  0.25500000920E-02 0. -1.
       -2   -1    0    0    0  501  0.00000000000E+00  0.00000000000E+00 -0.12576609964E+04  0.12576609964E+04  0.25500000920E-02 0.  1.
    10030    2    1    2    0    0  0.00000000000E+00  0.00000000000E+00  0.57328451830E+03  0.30886065112E+04  0.30349357558E+04 0.  0.
        5    1    3    3  502    0  0.38768654093E+03 -0.18367980945E+03  0.17679402622E+04  0.18192509413E+04  0.46999998093E+01 0. -1.
       -5    1    3    3    0  502 -0.38768654093E+03  0.18367980945E+03 -0.11946557439E+04  0.12693555699E+04  0.46999998093E+01 0.  1.
</event>
<event>
 5   0  0.1672907E-06  0.2960114E+04  0.7818609E-02  0.8255213E-01
       -1   -1    0    0    0  501  0.00000000000E+00  0.00000000000E+00  0.12267648339E+04  0.12267648339E+04  0.50400001928E-02 0. -1.
        1   -1    0    0  501    0  0.00000000000E+00  0.00000000000E+00 -0.17856466102E+04  0.17856466102E+04  0.50400001928E-02 0.  1.
    10030    2    1    2    0    0  0.00000000000E+00  0.00000000000E+00 -0.55888177633E+03  0.30124114442E+04  0.29601138270E+04 0.  0.
        5    1    3    3  502    0  0.80521625813E+03  0.11024077206E+04 -0.86126760032E+03  0.16141499231E+04  0.46999998093E+01 0.  1.
       -5    1    3    3    0  502 -0.80521625813E+03 -0.11024077206E+04  0.30238582398E+03  0.13982615211E+04  0.46999998093E+01 0. -1.
</event>
<event>
 5   0  0.1734885E-06  0.3018638E+04  0.7818609E-02  0.8238429E-01
        1   -1    0    0  501    0  0.00000000000E+00  0.00000000000E+00  0.19608112639E+04  0.19608112639E+04  0.50400001928E-02 0. -1.
       -1   -1    0    0    0  501  0.00000000000E+00  0.00000000000E+00 -0.11617861588E+04  0.11617861588E+04  0.50400001928E-02 0.  1.
    10030    2    1    2    0    0  0.00000000000E+00  0.00000000000E+00  0.79902510512E+03  0.31225974228E+04  0.30186376971E+04 0.  0.
        2    1    3    3  502    0 -0.11607299928E+04  0.94810078067E+03  0.21488852516E+03  0.15140562357E+04  0.25500000920E-02 0. -1.
       -2    1    3    3    0  502  0.11607299928E+04 -0.94810078067E+03  0.58413657996E+03  0.16085411871E+04  0.25500000920E-02 0.  1.
</event>
<event>
 5   0  0.1672907E-06  0.2799013E+04  0.7818609E-02  0.8303575E-01
        1   -1    0    0  501    0  0.00000000000E+00  0.00000000000E+00  0.89859285773E+03  0.89859285775E+03  0.50400001928E-02 0.  1.
       -1   -1    0    0    0  501  0.00000000000E+00  0.00000000000E+00 -0.21796504837E+04  0.21796504837E+04  0.50400001928E-02 0. -1.
    10030    2    1    2    0    0  0.00000000000E+00  0.00000000000E+00 -0.12810576260E+04  0.30782433415E+04  0.27990129382E+04 0.  0.
        5    1    3    3  502    0 -0.26155942068E+03  0.85306156044E+03  0.54520912698E+03  0.10456588538E+04  0.46999998093E+01 0.  1.
       -5    1    3    3    0  502  0.26155942068E+03 -0.85306156044E+03 -0.18262667530E+04  0.20325844877E+04  0.46999998093E+01 0. -1.
</event>
<event>
 5   0  0.4702748E-06  0.2704359E+04  0.7818609E-02  0.8333592E-01
        2   -1    0    0  501    0  0.00000000000E+00  0.00000000000E+00  0.15719954489E+04  0.15719954489E+04  0.25500000920E-02 0. -1.
       -2   -1    0    0    0  501  0.00000000000E+00  0.00000000000E+00 -0.11631010555E+04  0.11631010555E+04  0.25500000920E-02 0.  1.
    10030    2    1    2    0    0  0.00000000000E+00  0.00000000000E+00  0.40889439336E+03  0.27350965044E+04  0.27043591225E+04 0.  0.
        2    1    3    3  502    0  0.93605658634E+03  0.34660285362E+03  0.11269847904E+04  0.15054667678E+04  0.25500000920E-02 0. -1.
       -2    1    3    3    0  502 -0.93605658634E+03 -0.34660285362E+03 -0.71809039707E+03  0.12296297367E+04  0.25500000920E-02 0.  1.
</event>
<event>
 5   0  0.4768570E-06  0.2987226E+04  0.7818609E-02  0.8247388E-01
       -2   -1    0    0    0  501  0.00000000000E+00  0.00000000000E+00  0.13476216998E+04  0.13476216998E+04  0.25500000920E-02 0. -1.
        2   -1    0    0  501    0  0.00000000000E+00  0.00000000000E+00 -0.16554204020E+04  0.16554204020E+04  0.25500000920E-02 0.  1.
    10030    2    1    2    0    0  0.00000000000E+00  0.00000000000E+00 -0.30779870223E+03  0.30030421019E+04  0.29872264434E+04 0.  0.
        1    1    3    3  502    0 -0.40148248194E+03 -0.13367067009E+04  0.38080717192E+03  0.14467159672E+04  0.50400001928E-02 0.  1.
       -1    1    3    3    0  502  0.40148248194E+03  0.13367067009E+04 -0.68860587416E+03  0.15563261347E+04  0.50400001928E-02 0. -1.
</event>
<event>
 5   0  0.4768570E-06  0.3053098E+04  0.7818609E-02  0.8228729E-01
       -2   -1    0    0    0  501  0.00000000000E+00  0.00000000000E+00  0.14522028573E+04  0.14522028573E+04  0.25500000920E-02 0. -1.
        2   -1    0    0  501    0  0.00000000000E+00  0.00000000000E+00 -0.16047016155E+04  0.16047016155E+04  0.25500000920E-02 0.  1.
    10030    2    1    2    0    0  0.00000000000E+00  0.00000000000E+00 -0.15249875819E+03  0.30569044727E+04  0.30530982762E+04 0.  0.
        1    1    3    3  502    0 -0.51839112148E+03  0.69520632263E+02 -0.15121885345E+04  0.16000864467E+04  0.50400001928E-02 0.  1.
       -1    1    3    3    0  502  0.51839112148E+03 -0.69520632263E+02  0.13596897763E+04  0.14568180260E+04  0.50400001928E-02 0. -1.
</event>
<event>
 5   0  0.5003556E-06  0.2990959E+04  0.7818609E-02  0.8246317E-01
       -2   -1    0    0    0  501  0.00000000000E+00  0.00000000000E+00  0.75043805964E+03  0.75043805964E+03  0.25500000920E-02 0. -1.
        2   -1    0    0  501    0  0.00000000000E+00  0.00000000000E+00 -0.29802038449E+04  0.29802038449E+04  0.25500000920E-02 0.  1.
    10030    2    1    2    0    0  0.00000000000E+00  0.00000000000E+00 -0.22297657852E+04  0.37306419045E+04  0.29909586361E+04 0.  0.
        3    1    3    3  502    0  0.16339218263E+03 -0.92900276792E+03  0.33259201345E+03  0.10001802866E+04  0.10100000352E+00 0. -1.
       -3    1    3    3    0  502 -0.16339218263E+03  0.92900276792E+03 -0.25623577987E+04  0.27304616179E+04  0.10100000352E+00 0.  1.
</event>
<event>
 5   0  0.1686012E-06  0.2990239E+04  0.7818609E-02  0.8246524E-01
        1   -1    0    0  501    0  0.00000000000E+00  0.00000000000E+00  0.21677599426E+04  0.21677599426E+04  0.50400001928E-02 0. -1.
       -1   -1    0    0    0  501  0.00000000000E+00  0.00000000000E+00 -0.10311946097E+04  0.10311946097E+04  0.50400001928E-02 0.  1.
    10030    2    1    2    0    0  0.00000000000E+00  0.00000000000E+00  0.11365653329E+04  0.31989545523E+04  0.29902390325E+04 0.  0.
        4    1    3    3  502    0 -0.10725687726E+04  0.96922105428E+03  0.16009088700E+03  0.14544496997E+04  0.12699999809E+01 0.  1.
       -4    1    3    3    0  502  0.10725687726E+04 -0.96922105428E+03  0.97647444590E+03  0.17445048525E+04  0.12699999809E+01 0. -1.
</event>
<event>
 5   0  0.5003556E-06  0.3003275E+04  0.7818609E-02  0.8242796E-01
       -2   -1    0    0    0  501  0.00000000000E+00  0.00000000000E+00  0.13037207041E+04  0.13037207041E+04  0.25500000920E-02 0. -1.
        2   -1    0    0  501    0  0.00000000000E+00  0.00000000000E+00 -0.17295999683E+04  0.17295999683E+04  0.25500000920E-02 0.  1.
    10030    2    1    2    0    0  0.00000000000E+00  0.00000000000E+00 -0.42587926423E+03  0.30333206723E+04  0.30032750712E+04 0.  0.
        3    1    3    3  502    0  0.97219988019E+03 -0.52904431129E+03 -0.12379097635E+04  0.16605664947E+04  0.10100000352E+00 0.  1.
       -3    1    3    3    0  502 -0.97219988019E+03  0.52904431129E+03  0.81203049930E+03  0.13727541777E+04  0.10100000352E+00 0. -1.
</event>
<event>
 5   0  0.1734885E-06  0.2466384E+04  0.7818609E-02  0.8415060E-01
        1   -1    0    0  501    0  0.00000000000E+00  0.00000000000E+00  0.80618535740E+03  0.80618535742E+03  0.50400001928E-02 0. -1.
       -1   -1    0    0    0  501  0.00000000000E+00  0.00000000000E+00 -0.18863690584E+04  0.18863690584E+04  0.50400001928E-02 0.  1.
    10030    2    1    2    0    0  0.00000000000E+00  0.00000000000E+00 -0.10801837010E+04  0.26925544158E+04  0.24663844904E+04 0.  0.
        2    1    3    3  502    0  0.73492864088E+03 -0.98371289733E+03 -0.66433462870E+03  0.13961202206E+04  0.25500000920E-02 0.  1.
       -2    1    3    3    0  502 -0.73492864088E+03  0.98371289733E+03 -0.41584907231E+03  0.12964341952E+04  0.25500000920E-02 0. -1.
</event>
<event>
 5   0  0.1545375E-06  0.2421482E+04  0.7818609E-02  0.8431504E-01
        4   -1    0    0  501    0  0.00000000000E+00  0.00000000000E+00  0.16032276819E+04  0.16032281849E+04  0.12699999809E+01 0.  1.
       -4   -1    0    0    0  501  0.00000000000E+00  0.00000000000E+00 -0.91433817755E+03  0.91433905955E+03  0.12699999809E+01 0. -1.
    10030    2    1    2    0    0  0.00000000000E+00  0.00000000000E+00  0.68888950431E+03  0.25175672444E+04  0.24214822075E+04 0.  0.
        5    1    3    3  502    0  0.10705609812E+04 -0.14459099331E+03 -0.22393291710E+03  0.11032567295E+04  0.46999998093E+01 0. -1.
       -5    1    3    3    0  502 -0.10705609812E+04  0.14459099331E+03  0.91282242141E+03  0.14143105150E+04  0.46999998093E+01 0.  1.
</event>
<event>
 5   0  0.5003556E-06  0.3017290E+04  0.7818609E-02  0.8238811E-01
       -2   -1    0    0    0  501  0.00000000000E+00  0.00000000000E+00  0.17308496540E+04  0.17308496540E+04  0.25500000920E-02 0. -1.
        2   -1    0    0  501    0  0.00000000000E+00  0.00000000000E+00 -0.13149670656E+04  0.13149670656E+04  0.25500000920E-02 0.  1.
    10030    2    1    2    0    0  0.00000000000E+00  0.00000000000E+00  0.41588258844E+03  0.30458167196E+04  0.30172903675E+04 0.  0.
        3    1    3    3  502    0 -0.16657638005E+03 -0.24420385235E+02  0.17213372559E+04  0.17295508100E+04  0.10100000352E+00 0. -1.
       -3    1    3    3    0  502  0.16657638005E+03  0.24420385235E+02 -0.13054546675E+04  0.13162659096E+04  0.10100000352E+00 0.  1.
</event>
<event>
 5   0  0.1734885E-06  0.3001152E+04  0.7818609E-02  0.8243402E-01
        1   -1    0    0  501    0  0.00000000000E+00  0.00000000000E+00  0.16709862035E+04  0.16709862035E+04  0.50400001928E-02 0. -1.
       -1   -1    0    0    0  501  0.00000000000E+00  0.00000000000E+00 -0.13475446668E+04  0.13475446668E+04  0.50400001928E-02 0.  1.
    10030    2    1    2    0    0  0.00000000000E+00  0.00000000000E+00  0.32344153666E+03  0.30185308703E+04  0.30011521434E+04 0.  0.
        2    1    3    3  502    0  0.14810154367E+04 -0.22161926885E+03  0.65213473321E+02  0.14989244882E+04  0.25500000920E-02 0. -1.
       -2    1    3    3    0  502 -0.14810154367E+04  0.22161926885E+03  0.25822806334E+03  0.15196063822E+04  0.25500000920E-02 0.  1.
</event>
<event>
 5   0  0.1734885E-06  0.2977513E+04  0.7818609E-02  0.8250182E-01
        1   -1    0    0  501    0  0.00000000000E+00  0.00000000000E+00  0.10486583099E+04  0.10486583099E+04  0.50400001928E-02 0.  1.
       -1   -1    0    0    0  501  0.00000000000E+00  0.00000000000E+00 -0.21135535362E+04  0.21135535362E+04  0.50400001928E-02 0. -1.
    10030    2    1    2    0    0  0.00000000000E+00  0.00000000000E+00 -0.10648952263E+04  0.31622118461E+04  0.29775127064E+04 0.  0.
        2    1    3    3  502    0  0.36921302031E+03  0.67765520002E+03  0.81965663677E+03  0.11257760997E+04  0.25500000920E-02 0.  1.
       -2    1    3    3    0  502 -0.36921302031E+03 -0.67765520002E+03 -0.18845518631E+04  0.20364357464E+04  0.25500000920E-02 0. -1.
</event>
<event>
 5   0  0.1545375E-06  0.2998422E+04  0.7818609E-02  0.8244182E-01
        3   -1    0    0  501    0  0.00000000000E+00  0.00000000000E+00  0.13620749498E+04  0.13620749535E+04  0.10100000352E+00 0. -1.
       -3   -1    0    0    0  501  0.00000000000E+00  0.00000000000E+00 -0.16501535995E+04  0.16501536026E+04  0.10100000352E+00 0.  1.
    10030    2    1    2    0    0  0.00000000000E+00  0.00000000000E+00 -0.28807864973E+03  0.30122285561E+04  0.29984215124E+04 0.  0.
        2    1    3    3  502    0 -0.49896756948E+03  0.13720154477E+04  0.19846736067E+03  0.14733581768E+04  0.25500000920E-02 0.  1.
       -2    1    3    3    0  502  0.49896756948E+03 -0.13720154477E+04 -0.48654601039E+03  0.15388703793E+04  0.25500000920E-02 0. -1.
</event>
<event>
 5   0  0.4702748E-06  0.2948253E+04  0.7818609E-02  0.8258664E-01
        2   -1    0    0  501    0  0.00000000000E+00  0.00000000000E+00  0.22588031866E+04  0.22588031866E+04  0.25500000920E-02 0.  1.
       -2   -1    0    0    0  501  0.00000000000E+00  0.00000000000E+00 -0.96203523217E+03  0.96203523217E+03  0.25500000920E-02 0. -1.
    10030    2    1    2    0    0  0.00000000000E+00  0.00000000000E+00  0.12967679544E+04  0.32208384188E+04  0.29482525320E+04 0.  0.
        2    1    3    3  502    0  0.10853457494E+04 -0.11690457671E+03  0.17306366081E+04  0.20461537443E+04  0.25500000920E-02 0.  1.
       -2    1    3    3    0  502 -0.10853457494E+04  0.11690457671E+03 -0.43386865365E+03  0.11746846745E+04  0.25500000920E-02 0. -1.
</event>
<event>
 5   0  0.4702748E-06  0.2989252E+04  0.7818609E-02  0.8246807E-01
        2   -1    0    0  501    0  0.00000000000E+00  0.00000000000E+00  0.24686376390E+04  0.24686376390E+04  0.25500000920E-02 0. -1.
       -2   -1    0    0    0  501  0.00000000000E+00  0.00000000000E+00 -0.90491515164E+03  0.90491515165E+03  0.25500000920E-02 0.  1.
    10030    2    1    2    0    0  0.00000000000E+00  0.00000000000E+00  0.15637224874E+04  0.33735527907E+04  0.29892524841E+04 0.  0.
        2    1    3    3  502    0  0.17449011314E+03  0.47888863516E+03  0.23675297429E+04  0.24217717085E+04  0.25500000920E-02 0. -1.
       -2    1    3    3    0  502 -0.17449011314E+03 -0.47888863516E+03 -0.80380725550E+03  0.95178108222E+03  0.25500000920E-02 0.  1.
</event>
<event>
 5   0  0.1709858E-06  0.3016388E+04  0.7818609E-02  0.8239067E-01
       -1   -1    0    0    0  501  0.00000000000E+00  0.00000000000E+00  0.12919532711E+04  0.12919532712E+04  0.50400001928E-02 0. -1.
        1   -1    0    0  501    0  0.00000000000E+00  0.00000000000E+00 -0.17606275127E+04  0.17606275127E+04  0.50400001928E-02 0.  1.
    10030    2    1    2    0    0  0.00000000000E+00  0.00000000000E+00 -0.46867424156E+03  0.30525807839E+04  0.30163875576E+04 0.  0.
        3    1    3    3  502    0 -0.96517398140E+03  0.85288164724E+03  0.55973096319E+03  0.14043741239E+04  0.10100000352E+00 0. -1.
       -3    1    3    3    0  502  0.96517398140E+03 -0.85288164724E+03 -0.10284052047E+04  0.16482066600E+04  0.10100000352E+00 0.  1.
</event>
<event>
 5   0  0.4532420E-06  0.3054803E+04  0.7818609E-02  0.8228253E-01
        2   -1    0    0  501    0  0.00000000000E+00  0.00000000000E+00  0.15471280063E+04  0.15471280063E+04  0.25500000920E-02 0.  1.
       -2   -1    0    0    0  501  0.00000000000E+00  0.00000000000E+00 -0.15079262029E+04  0.15079262029E+04  0.25500000920E-02 0. -1.
    10030    2    1    2    0    0  0.00000000000E+00  0.00000000000E+00  0.39201803430E+02  0.30550542092E+04  0.30548026843E+04 0.  0.
        4    1    3    3  502    0 -0.41111124759E+03  0.30610286549E+03  0.14585528662E+04  0.15459914290E+04  0.12699999809E+01 0.  1.
       -4    1    3    3    0  502  0.41111124759E+03 -0.30610286549E+03 -0.14193510628E+04  0.15090627802E+04  0.12699999809E+01 0. -1.
</event>
<event>
 5   0  0.1700885E-06  0.3002431E+04  0.7818609E-02  0.8243037E-01
        1   -1    0    0  501    0  0.00000000000E+00  0.00000000000E+00  0.19082908079E+04  0.19082908079E+04  0.50400001928E-02 0.  1.
       -1   -1    0    0    0  501  0.00000000000E+00  0.00000000000E+00 -0.11809771786E+04  0.11809771786E+04  0.50400001928E-02 0. -1.
    10030    2    1    2    0    0  0.00000000000E+00  0.00000000000E+00  0.72731362930E+03  0.30892679864E+04  0.30024309445E+04 0.  0.
        1    1    3    3  502    0  0.25943409122E+02 -0.14799277051E+04  0.62148103999E+03  0.16053341571E+04  0.50400001928E-02 0.  1.
       -1    1    3    3    0  502 -0.25943409122E+02  0.14799277051E+04  0.10583258932E+03  0.14839338293E+04  0.50400001928E-02 0. -1.
</event>
<event>
 5   0  0.4702748E-06  0.2998355E+04  0.7818609E-02  0.8244201E-01
       -2   -1    0    0    0  501  0.00000000000E+00  0.00000000000E+00  0.13949189723E+04  0.13949189723E+04  0.25500000920E-02 0. -1.
        2   -1    0    0  501    0  0.00000000000E+00  0.00000000000E+00 -0.16112287173E+04  0.16112287173E+04  0.25500000920E-02 0.  1.
    10030    2    1    2    0    0  0.00000000000E+00  0.00000000000E+00 -0.21630974502E+03  0.30061476896E+04  0.29983552201E+04 0.  0.
        2    1    3    3  502    0 -0.94451667879E+03 -0.11634039433E+04 -0.64303176685E+02  0.14999184612E+04  0.25500000920E-02 0. -1.
       -2    1    3    3    0  502  0.94451667879E+03  0.11634039433E+04 -0.15200656834E+03  0.15062292284E+04  0.25500000920E-02 0.  1.
</event>
<event>
 5   0  0.1672907E-06  0.3082023E+04  0.7818609E-02  0.8220689E-01
        1   -1    0    0  501    0  0.00000000000E+00  0.00000000000E+00  0.15306522018E+04  0.15306522018E+04  0.50400001928E-02 0.  1.
       -1   -1    0    0    0  501  0.00000000000E+00  0.00000000000E+00 -0.15514409198E+04  0.15514409198E+04  0.50400001928E-02 0. -1.
    10030    2    1    2    0    0  0.00000000000E+00  0.00000000000E+00 -0.20788717937E+02  0.30820931216E+04  0.30820230109E+04 0.  0.
        5    1    3    3  502    0  0.36287558379E+03  0.11850048707E+04  0.90547533640E+03  0.15348690198E+04  0.46999998093E+01 0.  1.
       -5    1    3    3    0  502 -0.36287558379E+03 -0.11850048707E+04 -0.92626405434E+03  0.15472241018E+04  0.46999998093E+01 0. -1.
</event>
<event>
 5   0  0.4768570E-06  0.2996147E+04  0.7818609E-02  0.8244832E-01
        2   -1    0    0  501    0  0.00000000000E+00  0.00000000000E+00  0.12688249851E+04  0.12688249851E+04  0.25500000920E-02 0.  1.
       -2   -1    0    0    0  501  0.00000000000E+00  0.00000000000E+00 -0.17687424826E+04  0.17687424826E+04  0.25500000920E-02 0. -1.
    10030    2    1    2    0    0  0.00000000000E+00  0.00000000000E+00 -0.49991749746E+03  0.30375674677E+04  0.29961472956E+04 0.  0.
        1    1    3    3  502    0 -0.53840369398E+03  0.65155743993E+02 -0.16657241931E+04  0.17517879142E+04  0.50400001928E-02 0. -1.
       -1    1    3    3    0  502  0.53840369398E+03 -0.65155743993E+02  0.11658066957E+04  0.12857795536E+04  0.50400001928E-02 0.  1.
</event>
<event>
 5   0  0.1734885E-06  0.2968174E+04  0.7818609E-02  0.8252878E-01
        1   -1    0    0  501    0  0.00000000000E+00  0.00000000000E+00  0.19623799566E+04  0.19623799566E+04  0.50400001928E-02 0. -1.
       -1   -1    0    0    0  501  0.00000000000E+00  0.00000000000E+00 -0.11223691273E+04  0.11223691273E+04  0.50400001928E-02 0.  1.
    10030    2    1    2    0    0  0.00000000000E+00  0.00000000000E+00  0.84001082929E+03  0.30847490839E+04  0.29681743071E+04 0.  0.
        2    1    3    3  502    0 -0.11260341273E+04  0.74205894660E+03 -0.22393450486E+03  0.13670226767E+04  0.25500000920E-02 0.  1.
       -2    1    3    3    0  502  0.11260341273E+04 -0.74205894660E+03  0.10639453341E+04  0.17177264072E+04  0.25500000920E-02 0. -1.
</event>
<event>
 5   0  0.1700885E-06  0.2884939E+04  0.7818609E-02  0.8277373E-01
       -1   -1    0    0    0  501  0.00000000000E+00  0.00000000000E+00  0.18973871547E+04  0.18973871547E+04  0.50400001928E-02 0. -1.
        1   -1    0    0  501    0  0.00000000000E+00  0.00000000000E+00 -0.10966228898E+04  0.10966228898E+04  0.50400001928E-02 0.  1.
    10030    2    1    2    0    0  0.00000000000E+00  0.00000000000E+00  0.80076426485E+03  0.29940100445E+04  0.28849389489E+04 0.  0.
        1    1    3    3  502    0 -0.17677692162E+03 -0.14021952892E+04  0.10082334010E+03  0.14168863945E+04  0.50400001928E-02 0.  1.
       -1    1    3    3    0  502  0.17677692162E+03  0.14021952892E+04  0.69994092475E+03  0.15771236500E+04  0.50400001928E-02 0. -1.
</event>
<event>
 5   0  0.1686012E-06  0.3086753E+04  0.7818609E-02  0.8219383E-01
       -1   -1    0    0    0  501  0.00000000000E+00  0.00000000000E+00  0.93045493079E+03  0.93045493080E+03  0.50400001928E-02 0. -1.
        1   -1    0    0  501    0  0.00000000000E+00  0.00000000000E+00 -0.25600499266E+04  0.25600499266E+04  0.50400001928E-02 0.  1.
    10030    2    1    2    0    0  0.00000000000E+00  0.00000000000E+00 -0.16295949958E+04  0.34905048574E+04  0.30867530367E+04 0.  0.
        4    1    3    3  502    0 -0.10739709792E+04 -0.77008437080E+03  0.86704396543E+02  0.13243726317E+04  0.12699999809E+01 0. -1.
       -4    1    3    3    0  502  0.10739709792E+04  0.77008437080E+03 -0.17162993924E+04  0.21661322258E+04  0.12699999809E+01 0.  1.
</event>
<event>
 5   0  0.1686012E-06  0.3028966E+04  0.7818609E-02  0.8235507E-01
       -1   -1    0    0    0  501  0.00000000000E+00  0.00000000000E+00  0.86604670633E+03  0.86604670635E+03  0.50400001928E-02 0.  1.
        1   -1    0    0  501    0  0.00000000000E+00  0.00000000000E+00 -0.26484246162E+04  0.26484246162E+04  0.50400001928E-02 0. -1.
    10030    2    1    2    0    0  0.00000000000E+00  0.00000000000E+00 -0.17823779099E+04  0.35144713225E+04  0.30289664348E+04 0.  0.
        4    1    3    3  502    0 -0.19130244480E+03  0.12978689485E+04 -0.13197644645E+02  0.13119589261E+04  0.12699999809E+01 0.  1.
       -4    1    3    3    0  502  0.19130244480E+03 -0.12978689485E+04 -0.17691802652E+04  0.22025123965E+04  0.12699999809E+01 0. -1.
</event>
<event>
 5   0  0.4702748E-06  0.3017647E+04  0.7818609E-02  0.8238710E-01
       -2   -1    0    0    0  501  0.00000000000E+00  0.00000000000E+00  0.12234025881E+04  0.12234025881E+04  0.25500000920E-02 0. -1.
        2   -1    0    0  501    0  0.00000000000E+00  0.00000000000E+00 -0.18608336295E+04  0.18608336295E+04  0.25500000920E-02 0.  1.
    10030    2    1    2    0    0  0.00000000000E+00  0.00000000000E+00 -0.63743104136E+03  0.30842362176E+04  0.30176472149E+04 0.  0.
        2    1    3    3  502    0  0.57199809161E+03  0.12978826003E+04  0.20729399281E+03  0.14334056859E+04  0.25500000920E-02 0. -1.
       -2    1    3    3    0  502 -0.57199809161E+03 -0.12978826003E+04 -0.84472503418E+03  0.16508305317E+04  0.25500000920E-02 0.  1.
</event>
<event>
 5   0  0.4702748E-06  0.2958006E+04  0.7818609E-02  0.8255825E-01
        2   -1    0    0  501    0  0.00000000000E+00  0.00000000000E+00  0.17730250517E+04  0.17730250517E+04  0.25500000920E-02 0.  1.
       -2   -1    0    0    0  501  0.00000000000E+00  0.00000000000E+00 -0.12337392487E+04  0.12337392487E+04  0.25500000920E-02 0. -1.
    10030    2    1    2    0    0  0.00000000000E+00  0.00000000000E+00  0.53928580298E+03  0.30067643003E+04  0.29580064876E+04 0.  0.
        2    1    3    3  502    0  0.10540046278E+04  0.20586871929E+03 -0.76404764015E+03  0.13179819731E+04  0.25500000920E-02 0. -1.
       -2    1    3    3    0  502 -0.10540046278E+04 -0.20586871929E+03  0.13033334431E+04  0.16887823273E+04  0.25500000920E-02 0.  1.
</event>
<event>
 5   0  0.4532420E-06  0.2937122E+04  0.7818609E-02  0.8261917E-01
       -2   -1    0    0    0  501  0.00000000000E+00  0.00000000000E+00  0.10318588642E+04  0.10318588642E+04  0.25500000920E-02 0.  1.
        2   -1    0    0  501    0  0.00000000000E+00  0.00000000000E+00 -0.20900841807E+04  0.20900841807E+04  0.25500000920E-02 0. -1.
    10030    2    1    2    0    0  0.00000000000E+00  0.00000000000E+00 -0.10582253165E+04  0.31219430449E+04  0.29371223256E+04 0.  0.
        4    1    3    3  502    0  0.68317072822E+03 -0.10801037954E+04  0.23981980053E+03  0.13003313433E+04  0.12699999809E+01 0.  1.
       -4    1    3    3    0  502 -0.68317072822E+03  0.10801037954E+04 -0.12980451170E+04  0.18216117016E+04  0.12699999809E+01 0. -1.
</event>
<event>
 5   0  0.4935331E-06  0.3020947E+04  0.7818609E-02  0.8237774E-01
       -2   -1    0    0    0  501  0.00000000000E+00  0.00000000000E+00  0.15103412780E+04  0.15103412780E+04  0.25500000920E-02 0. -1.
        2   -1    0    0  501    0  0.00000000000E+00  0.00000000000E+00 -0.15106061501E+04  0.15106061501E+04  0.25500000920E-02 0.  1.
    10030    2    1    2    0    0  0.00000000000E+00  0.00000000000E+00 -0.26487210624E+00  0.30209474280E+04  0.30209474164E+04 0.  0.
        5    1    3    3  502    0  0.97932143802E+03 -0.51566682018E+03  0.10277420665E+04  0.15103835915E+04  0.46999998093E+01 0. -1.
       -5    1    3    3    0  502 -0.97932143802E+03  0.51566682018E+03 -0.10280069386E+04  0.15105638365E+04  0.46999998093E+01 0.  1.
</event>
<event>
 5   0  0.4702748E-06  0.2991223E+04  0.7818609E-02  0.8246242E-01
       -2   -1    0    0    0  501  0.00000000000E+00  0.00000000000E+00  0.97253809889E+03  0.97253809889E+03  0.25500000920E-02 0.  1.
        2   -1    0    0  501    0  0.00000000000E+00  0.00000000000E+00 -0.23000167110E+04  0.23000167110E+04  0.25500000920E-02 0. -1.
    10030    2    1    2    0    0  0.00000000000E+00  0.00000000000E+00 -0.13274786121E+04  0.32725548099E+04  0.29912230806E+04 0.  0.
        2    1    3    3  502    0  0.23339144583E+03  0.74980746743E+03  0.72883559324E+03  0.10713935445E+04  0.25500000920E-02 0.  1.
       -2    1    3    3    0  502 -0.23339144583E+03 -0.74980746743E+03 -0.20563142053E+04  0.22011612654E+04  0.25500000920E-02 0. -1.
</event>
<event>
 5   0  0.4768570E-06  0.3081370E+04  0.7818609E-02  0.8220870E-01
       -2   -1    0    0    0  501  0.00000000000E+00  0.00000000000E+00  0.10477293682E+04  0.10477293682E+04  0.25500000920E-02 0.  1.
        2   -1    0    0  501    0  0.00000000000E+00  0.00000000000E+00 -0.22655751428E+04  0.22655751428E+04  0.25500000920E-02 0. -1.
    10030    2    1    2    0    0  0.00000000000E+00  0.00000000000E+00 -0.12178457745E+04  0.33133045110E+04  0.30813695741E+04 0.  0.
        1    1    3    3  502    0 -0.94516847484E+03  0.80818132976E+02 -0.19143178582E+04  0.21364662129E+04  0.50400001928E-02 0. -1.
       -1    1    3    3    0  502  0.94516847484E+03 -0.80818132976E+02  0.69647208371E+03  0.11768382981E+04  0.50400001928E-02 0.  1.
</event>
<event>
 5   0  0.4532420E-06  0.2998647E+04  0.7818609E-02  0.8244117E-01
       -2   -1    0    0    0  501  0.00000000000E+00  0.00000000000E+00  0.11017019998E+04  0.11017019998E+04  0.25500000920E-02 0. -1.
        2   -1    0    0  501    0  0.00000000000E+00  0.00000000000E+00 -0.20404525420E+04  0.20404525420E+04  0.25500000920E-02 0.  1.
    10030    2    1    2    0    0  0.00000000000E+00  0.00000000000E+00 -0.93875054220E+03  0.31421545419E+04  0.29986467922E+04 0.  0.
        4    1    3    3  502    0  0.78426800354E+03  0.13893168198E+03  0.86168867904E+03  0.11734084140E+04  0.12699999809E+01 0. -1.
       -4    1    3    3    0  502 -0.78426800354E+03 -0.13893168198E+03 -0.18004392212E+04  0.19687461279E+04  0.12699999809E+01 0.  1.
</event>
<event>
 5   0  0.4532420E-06  0.2937553E+04  0.7818609E-02  0.8261791E-01
       -2   -1    0    0    0  501  0.00000000000E+00  0.00000000000E+00  0.14442729053E+04  0.14442729053E+04  0.25500000920E-02 0. -1.
        2   -1    0    0  501    0  0.00000000000E+00  0.00000000000E+00 -0.14936957058E+04  0.14936957058E+04  0.25500000920E-02 0.  1.
    10030    2    1    2    0    0  0.00000000000E+00  0.00000000000E+00 -0.49422800551E+02  0.29379686111E+04  0.29375528841E+04 0.  0.
        4    1    3    3  502    0  0.49992748680E+03 -0.13734169951E+03 -0.13991374469E+04  0.14921050374E+04  0.12699999809E+01 0.  1.
       -4    1    3    3    0  502 -0.49992748680E+03  0.13734169951E+03  0.13497146463E+04  0.14458635737E+04  0.12699999809E+01 0. -1.
</event>
<event>
 5   0  0.4935331E-06  0.2994627E+04  0.7818609E-02  0.8245267E-01
       -2   -1    0    0    0  501  0.00000000000E+00  0.00000000000E+00  0.13572674245E+04  0.13572674245E+04  0.25500000920E-02 0.  1.
        2   -1    0    0  501    0  0.00000000000E+00  0.00000000000E+00 -0.16518094956E+04  0.16518094956E+04  0.25500000920E-02 0. -1.
    10030    2    1    2    0    0  0.00000000000E+00  0.00000000000E+00 -0.29454207105E+03  0.30090769201E+04  0.29946266678E+04 0.  0.
        5    1    3    3  502    0 -0.12843747975E+04  0.76046504726E+03 -0.28380949018E+02  0.14929009602E+04  0.46999998093E+01 0. -1.
       -5    1    3    3    0  502  0.12843747975E+04 -0.76046504726E+03 -0.26616112203E+03  0.15161759599E+04  0.46999998093E+01 0.  1.
</event>
<event>
 5   0  0.1686012E-06  0.2998109E+04  0.7818609E-02  0.8244271E-01
        1   -1    0    0  501    0  0.00000000000E+00  0.00000000000E+00  0.17508710098E+04  0.17508710098E+04  0.50400001928E-02 0. -1.
       -1   -1    0    0    0  501  0.00000000000E+00  0.00000000000E+00 -0.12834553816E+04  0.12834553816E+04  0.50400001928E-02 0.  1.
    10030    2    1    2    0    0  0.00000000000E+00  0.00000000000E+00  0.46741562821E+03  0.30343263914E+04  0.29981092842E+04 0.  0.
        4    1    3    3  502    0 -0.57351987456E+03  0.92768890036E+03  0.12745431226E+04  0.16774962077E+04  0.12699999809E+01 0. -1.
       -4    1    3    3    0  502  0.57351987456E+03 -0.92768890036E+03 -0.80712749443E+03  0.13568301837E+04  0.12699999809E+01 0.  1.
</event>
<event>
 5   0  0.4935331E-06  0.2909223E+04  0.7818609E-02  0.8270139E-01
       -2   -1    0    0    0  501  0.00000000000E+00  0.00000000000E+00  0.26411441592E+04  0.26411441592E+04  0.25500000920E-02 0.  1.
        2   -1    0    0  501    0  0.00000000000E+00  0.00000000000E+00 -0.80112808235E+03  0.80112808235E+03  0.25500000920E-02 0. -1.
    10030    2    1    2    0    0  0.00000000000E+00  0.00000000000E+00  0.18400160769E+04  0.34422722416E+04  0.29092230960E+04 0.  0.
        5    1    3    3  502    0  0.95607555789E+03 -0.16053452151E+02  0.22169970810E+04  0.24144225672E+04  0.46999998093E+01 0.  1.
       -5    1    3    3    0  502 -0.95607555789E+03  0.16053452151E+02 -0.37698100412E+03  0.10278496744E+04  0.46999998093E+01 0. -1.
</event>
<event>
 5   0  0.5003556E-06  0.3021539E+04  0.7818609E-02  0.8237607E-01
       -2   -1    0    0    0  501  0.00000000000E+00  0.00000000000E+00  0.11341619040E+04  0.11341619040E+04  0.25500000920E-02 0.  1.
        2   -1    0    0  501    0  0.00000000000E+00  0.00000000000E+00 -0.20124331967E+04  0.20124331967E+04  0.25500000920E-02 0. -1.
    10030    2    1    2    0    0  0.00000000000E+00  0.00000000000E+00 -0.87827129271E+03  0.31465951007E+04  0.30215393865E+04 0.  0.
        3    1    3    3  502    0  0.84472905116E+03  0.10142268216E+03  0.86096191386E+03  0.12104169355E+04  0.10100000352E+00 0.  1.
       -3    1    3    3    0  502 -0.84472905116E+03 -0.10142268216E+03 -0.17392332066E+04  0.19361781652E+04  0.10100000352E+00 0. -1.
</event>
<event>
 5   0  0.1734885E-06  0.2998124E+04  0.7818609E-02  0.8244267E-01
       -1   -1    0    0    0  501  0.00000000000E+00  0.00000000000E+00  0.31151675801E+04  0.31151675801E+04  0.50400001928E-02 0. -1.
        1   -1    0    0  501    0  0.00000000000E+00  0.00000000000E+00 -0.72136972130E+03  0.72136972131E+03  0.50400001928E-02 0.  1.
    10030    2    1    2    0    0  0.00000000000E+00  0.00000000000E+00  0.23937978588E+04  0.38365373014E+04  0.29981244598E+04 0.  0.
        2    1    3    3  502    0  0.79708411792E+03 -0.67644011922E+03 -0.17791550042E+03  0.10604566239E+04  0.25500000920E-02 0.  1.
       -2    1    3    3    0  502 -0.79708411792E+03  0.67644011922E+03  0.25717133592E+04  0.27760806774E+04  0.25500000920E-02 0. -1.
</event>
<event>
 5   0  0.1700885E-06  0.2967674E+04  0.7818609E-02  0.8253023E-01
       -1   -1    0    0    0  501  0.00000000000E+00  0.00000000000E+00  0.89636810317E+03  0.89636810319E+03  0.50400001928E-02 0.  1.
        1   -1    0    0  501    0  0.00000000000E+00  0.00000000000E+00 -0.24563251340E+04  0.24563251340E+04  0.50400001928E-02 0. -1.
    10030    2    1    2    0    0  0.00000000000E+00  0.00000000000E+00 -0.15599570309E+04  0.33526932372E+04  0.29676735004E+04 0.  0.
        1    1    3    3  502    0  0.12086957746E+04  0.86059606741E+03 -0.79597276528E+03  0.16837884991E+04  0.50400001928E-02 0.  1.
       -1    1    3    3    0  502 -0.12086957746E+04 -0.86059606741E+03 -0.76398426559E+03  0.16689047381E+04  0.50400001928E-02 0. -1.
</event>
<event>
 5   0  0.1672907E-06  0.3002880E+04  0.7818609E-02  0.8242909E-01
        1   -1    0    0  501    0  0.00000000000E+00  0.00000000000E+00  0.12576305048E+04  0.12576305048E+04  0.50400001928E-02 0.  1.
       -1   -1    0    0    0  501  0.00000000000E+00  0.00000000000E+00 -0.17925156527E+04  0.17925156527E+04  0.50400001928E-02 0. -1.
    10030    2    1    2    0    0  0.00000000000E+00  0.00000000000E+00 -0.53488514788E+03  0.30501461575E+04  0.30028801942E+04 0.  0.
        5    1    3    3  502    0  0.28108139466E+03 -0.19472298902E+03  0.12175461578E+04  0.12646598472E+04  0.46999998093E+01 0.  1.
       -5    1    3    3    0  502 -0.28108139466E+03  0.19472298902E+03 -0.17524313057E+04  0.17854863102E+04  0.46999998093E+01 0. -1.
</event>
<event>
 5   0  0.1672907E-06  0.2980397E+04  0.7818609E-02  0.8249351E-01
        1   -1    0    0  501    0  0.00000000000E+00  0.00000000000E+00  0.23565572662E+04  0.23565572662E+04  0.50400001928E-02 0.  1.
       -1   -1    0    0    0  501  0.00000000000E+00  0.00000000000E+00 -0.94234554708E+03  0.94234554709E+03  0.50400001928E-02 0. -1.
    10030    2    1    2    0    0  0.00000000000E+00  0.00000000000E+00  0.14142117191E+04  0.32989028133E+04  0.29803967831E+04 0.  0.
        5    1    3    3  502    0 -0.13064925162E+04  0.76603660233E+02  0.14959210789E+04  0.19876098158E+04  0.46999998093E+01 0.  1.
       -5    1    3    3    0  502  0.13064925162E+04 -0.76603660233E+02 -0.81709359877E+02  0.13112929974E+04  0.46999998093E+01 0. -1.
</event>
<event>
 5   0  0.4768570E-06  0.2753718E+04  0.7818609E-02  0.8317783E-01
       -2   -1    0    0    0  501  0.00000000000E+00  0.00000000000E+00  0.93213580235E+03  0.93213580235E+03  0.25500000920E-02 0.  1.
        2   -1    0    0  501    0  0.00000000000E+00  0.00000000000E+00 -0.20337596602E+04  0.20337596602E+04  0.25500000920E-02 0. -1.
    10030    2    1    2    0    0  0.00000000000E+00  0.00000000000E+00 -0.11016238579E+04  0.29658954626E+04  0.27537176273E+04 0.  0.
        1    1    3    3  502    0  0.49751487331E+03  0.12756293408E+04 -0.39477350028E+03  0.14249903090E+04  0.50400001928E-02 0. -1.
       -1    1    3    3    0  502 -0.49751487331E+03 -0.12756293408E+04 -0.70685035761E+03  0.15409051536E+04  0.50400001928E-02 0.  1.
</event>
<event>
 5   0  0.4768570E-06  0.2990884E+04  0.7818609E-02  0.8246339E-01
       -2   -1    0    0    0  501  0.00000000000E+00  0.00000000000E+00  0.20376740230E+04  0.20376740230E+04  0.25500000920E-02 0.  1.
        2   -1    0    0  501    0  0.00000000000E+00  0.00000000000E+00 -0.10974997651E+04  0.10974997651E+04  0.25500000920E-02 0. -1.
    10030    2    1    2    0    0  0.00000000000E+00  0.00000000000E+00  0.94017425790E+03  0.31351737880E+04  0.29908839907E+04 0.  0.
        1    1    3    3  502    0 -0.95666091190E+02 -0.14918842179E+04  0.42981165333E+03  0.15555091057E+04  0.50400001928E-02 0. -1.
       -1    1    3    3    0  502  0.95666091190E+02  0.14918842179E+04  0.51036260457E+03  0.15796646824E+04  0.50400001928E-02 0.  1.
</event>
<event>
 5   0  0.1700885E-06  0.2975312E+04  0.7818609E-02  0.8250816E-01
        1   -1    0    0  501    0  0.00000000000E+00  0.00000000000E+00  0.20530241975E+04  0.20530241975E+04  0.50400001928E-02 0.  1.
       -1   -1    0    0    0  501  0.00000000000E+00  0.00000000000E+00 -0.10779804853E+04  0.10779804853E+04  0.50400001928E-02 0. -1.
    10030    2    1    2    0    0  0.00000000000E+00  0.00000000000E+00  0.97504371216E+03  0.31310046828E+04  0.29753117623E+04 0.  0.
        1    1    3    3  502    0 -0.11802382962E+04  0.32115566750E+03  0.13786001197E+04  0.18429980164E+04  0.50400001928E-02 0.  1.
       -1    1    3    3    0  502  0.11802382962E+04 -0.32115566750E+03 -0.40355640752E+03  0.12880066664E+04  0.50400001928E-02 0. -1.
</event>
<event>
 5   0  0.4702748E-06  0.3004677E+04  0.7818609E-02  0.8242397E-01
        2   -1    0    0  501    0  0.00000000000E+00  0.00000000000E+00  0.74281049963E+03  0.74281049963E+03  0.25500000920E-02 0. -1.
       -2   -1    0    0    0  501  0.00000000000E+00  0.00000000000E+00 -0.30384885608E+04  0.30384885608E+04  0.25500000920E-02 0.  1.
    10030    2    1    2    0    0  0.00000000000E+00  0.00000000000E+00 -0.22956780612E+04  0.37812990604E+04  0.30046771580E+04 0.  0.
        2    1    3    3  502    0  0.79541804876E+03 -0.17217429379E+03  0.44136985793E+03  0.92581921088E+03  0.25500000920E-02 0. -1.
       -2    1    3    3    0  502 -0.79541804876E+03  0.17217429379E+03 -0.27370479191E+04  0.28554798496E+04  0.25500000920E-02 0.  1.
</event>
<event>
 5   0  0.4935331E-06  0.2993758E+04  0.7818609E-02  0.8245516E-01
       -2   -1    0    0    0  501  0.00000000000E+00  0.00000000000E+00  0.15995554764E+04  0.15995554764E+04  0.25500000920E-02 0.  1.
        2   -1    0    0  501    0  0.00000000000E+00  0.00000000000E+00 -0.14007932356E+04  0.14007932356E+04  0.25500000920E-02 0. -1.
    10030    2    1    2    0    0  0.00000000000E+00  0.00000000000E+00  0.19876224085E+03  0.30003487120E+04  0.29937578334E+04 0.  0.
        5    1    3    3  502    0  0.11927190439E+04 -0.55143412041E+03 -0.61911148207E+03  0.14525768221E+04  0.46999998093E+01 0.  1.
       -5    1    3    3    0  502 -0.11927190439E+04  0.55143412041E+03  0.81787372291E+03  0.15477718900E+04  0.46999998093E+01 0. -1.
</event>
<event>
 5   0  0.4935331E-06  0.2987454E+04  0.7818609E-02  0.8247323E-01
        2   -1    0    0  501    0  0.00000000000E+00  0.00000000000E+00  0.29700342208E+04  0.29700342208E+04  0.25500000920E-02 0.  1.
       -2   -1    0    0    0  501  0.00000000000E+00  0.00000000000E+00 -0.75124408154E+03  0.75124408154E+03  0.25500000920E-02 0. -1.
    10030    2    1    2    0    0  0.00000000000E+00  0.00000000000E+00  0.22187901393E+04  0.37212783024E+04  0.29874541873E+04 0.  0.
        5    1    3    3  502    0 -0.31785161886E+03 -0.14459855984E+04  0.13563154801E+04  0.20078639829E+04  0.46999998093E+01 0.  1.
       -5    1    3    3    0  502  0.31785161886E+03  0.14459855984E+04  0.86247465922E+03  0.17134143195E+04  0.46999998093E+01 0. -1.
</event>
<event>
 5   0  0.1700885E-06  0.2969629E+04  0.7818609E-02  0.8252457E-01
       -1   -1    0    0    0  501  0.00000000000E+00  0.00000000000E+00  0.15525779254E+04  0.15525779254E+04  0.50400001928E-02 0. -1.
        1   -1    0    0  501    0  0.00000000000E+00  0.00000000000E+00 -0.14200083908E+04  0.14200083908E+04  0.50400001928E-02 0.  1.
    10030    2    1    2    0    0  0.00000000000E+00  0.00000000000E+00  0.13256953459E+03  0.29725863163E+04  0.29696287186E+04 0.  0.
        1    1    3    3  502    0 -0.13986487328E+04  0.14316354636E+02  0.56502837012E+03  0.15085358116E+04  0.50400001928E-02 0.  1.
       -1    1    3    3    0  502  0.13986487328E+04 -0.14316354636E+02 -0.43245883553E+03  0.14640505047E+04  0.50400001928E-02 0. -1.
</event>
<event>
 5   0  0.1686012E-06  0.2877580E+04  0.7818609E-02  0.8279579E-01
       -1   -1    0    0    0  501  0.00000000000E+00  0.00000000000E+00  0.12863187353E+04  0.12863187353E+04  0.50400001928E-02 0. -1.
        1   -1    0    0  501    0  0.00000000000E+00  0.00000000000E+00 -0.16093346742E+04  0.16093346742E+04  0.50400001928E-02 0.  1.
    10030    2    1    2    0    0  0.00000000000E+00  0.00000000000E+00 -0.32301593896E+03  0.28956534095E+04  0.28775804717E+04 0.  0.
        4    1    3    3  502    0 -0.37399136903E+03 -0.26658323173E+03  0.12105730913E+04  0.12947683136E+04  0.12699999809E+01 0. -1.
       -4    1    3    3    0  502  0.37399136903E+03  0.26658323173E+03 -0.15335890303E+04  0.16008850959E+04  0.12699999809E+01 0.  1.
</event>
<event>
 5   0  0.5003556E-06  0.3011148E+04  0.7818609E-02  0.8240555E-01
       -2   -1    0    0    0  501  0.00000000000E+00  0.00000000000E+00  0.10805420859E+04  0.10805420859E+04  0.25500000920E-02 0. -1.
        2   -1    0    0  501    0  0.00000000000E+00  0.00000000000E+00 -0.20977926458E+04  0.20977926459E+04  0.25500000920E-02 0.  1.
    10030    2    1    2    0    0  0.00000000000E+00  0.00000000000E+00 -0.10172505599E+04  0.31783347318E+04  0.30111481142E+04 0.  0.
        3    1    3    3  502    0  0.72378267914E+03  0.70016436933E+03  0.67274058641E+03  0.12110621031E+04  0.10100000352E+00 0. -1.
       -3    1    3    3    0  502 -0.72378267914E+03 -0.70016436933E+03 -0.16899911463E+04  0.19672726287E+04  0.10100000352E+00 0.  1.
</event>
<event>
 5   0  0.4768570E-06  0.2911670E+04  0.7818609E-02  0.8269414E-01
       -2   -1    0    0    0  501  0.00000000000E+00  0.00000000000E+00  0.10833401247E+04  0.10833401247E+04  0.25500000920E-02 0.  1.
        2   -1    0    0  501    0  0.00000000000E+00  0.00000000000E+00 -0.19564084018E+04  0.19564084018E+04  0.25500000920E-02 0. -1.
    10030    2    1    2    0    0  0.00000000000E+00  0.00000000000E+00 -0.87306827712E+03  0.30397485264E+04  0.29116701200E+04 0.  0.
        1    1    3    3  502    0 -0.43685343150E+03  0.13815526689E+04 -0.28916154997E+03  0.14775463105E+04  0.50400001928E-02 0.  1.
       -1    1    3    3    0  502  0.43685343150E+03 -0.13815526689E+04 -0.58390672715E+03  0.15622022160E+04  0.50400001928E-02 0. -1.
</event>
<event>
 5   0  0.4935331E-06  0.2809434E+04  0.7818609E-02  0.8300345E-01
       -2   -1    0    0    0  501  0.00000000000E+00  0.00000000000E+00  0.13217987037E+04  0.13217987037E+04  0.25500000920E-02 0. -1.
        2   -1    0    0  501    0  0.00000000000E+00  0.00000000000E+00 -0.14928373080E+04  0.14928373080E+04  0.25500000920E-02 0.  1.
    10030    2    1    2    0    0  0.00000000000E+00  0.00000000000E+00 -0.17103860429E+03  0.28146360117E+04  0.28094344047E+04 0.  0.
        5    1    3    3  502    0 -0.12056988154E+04 -0.53644649273E+03 -0.56778760228E+03  0.14366242809E+04  0.46999998093E+01 0.  1.
       -5    1    3    3    0  502  0.12056988154E+04  0.53644649273E+03  0.39674899799E+03  0.13780117309E+04  0.46999998093E+01 0. -1.
</event>
<event>
 5   0  0.1734885E-06  0.2943136E+04  0.7818609E-02  0.8260158E-01
        1   -1    0    0  501    0  0.00000000000E+00  0.00000000000E+00  0.13690464361E+04  0.13690464361E+04  0.50400001928E-02 0.  1.
       -1   -1    0    0    0  501  0.00000000000E+00  0.00000000000E+00 -0.15817670266E+04  0.15817670266E+04  0.50400001928E-02 0. -1.
    10030    2    1    2    0    0  0.00000000000E+00  0.00000000000E+00 -0.21272059047E+03  0.29508134627E+04  0.29431360896E+04 0.  0.
        2    1    3    3  502    0  0.13557490353E+04  0.56822342800E+03 -0.17420660042E+03  0.14802976898E+04  0.25500000920E-02 0. -1.
       -2    1    3    3    0  502 -0.13557490353E+04 -0.56822342800E+03 -0.38513990052E+02  0.14705157729E+04  0.25500000920E-02 0.  1.
</event>
<event>
 5   0  0.5003556E-06  0.2870771E+04  0.7818609E-02  0.8281627E-01
       -2   -1    0    0    0  501  0.00000000000E+00  0.00000000000E+00  0.68360786573E+03  0.68360786574E+03  0.25500000920E-02 0.  1.
        2   -1    0    0  501    0  0.00000000000E+00  0.00000000000E+00 -0.30139091999E+04  0.30139091999E+04  0.25500000920E-02 0. -1.
    10030    2    1    2    0    0  0.00000000000E+00  0.00000000000E+00 -0.23303013341E+04  0.36975170656E+04  0.28707713498E+04 0.  0.
        3    1    3    3  502    0  0.30131528126E+02 -0.13011509749E+04 -0.19448142464E+04  0.23401291058E+04  0.10100000352E+00 0. -1.
       -3    1    3    3    0  502 -0.30131528126E+02  0.13011509749E+04 -0.38548708773E+03  0.13573879598E+04  0.10100000352E+00 0.  1.
</event>
<event>
 5   0  0.4532420E-06  0.2982732E+04  0.7818609E-02  0.8248679E-01
        2   -1    0    0  501    0  0.00000000000E+00  0.00000000000E+00  0.94388992286E+03  0.94388992286E+03  0.25500000920E-02 0. -1.
       -2   -1    0    0    0  501  0.00000000000E+00  0.00000000000E+00 -0.23563899548E+04  0.23563899548E+04  0.25500000920E-02 0.  1.
    10030    2    1    2    0    0  0.00000000000E+00  0.00000000000E+00 -0.14125000320E+04  0.33002798777E+04  0.29827321252E+04 0.  0.
        4    1    3    3  502    0 -0.14231712291E+04 -0.17386738471E+02 -0.21334325176E+03  0.14391787943E+04  0.12699999809E+01 0. -1.
       -4    1    3    3    0  502  0.14231712291E+04  0.17386738471E+02 -0.11991567802E+04  0.18611010834E+04  0.12699999809E+01 0.  1.
</event>
<event>
 5   0  0.1545375E-06  0.3002752E+04  0.7818609E-02  0.8242946E-01
       -3   -1    0    0    0  501  0.00000000000E+00  0.00000000000E+00  0.14466246536E+04  0.14466246571E+04  0.10100000352E+00 0. -1.
        3   -1    0    0  501    0  0.00000000000E+00  0.00000000000E+00 -0.15581991555E+04  0.15581991588E+04  0.10100000352E+00 0.  1.
    10030    2    1    2    0    0  0.00000000000E+00  0.00000000000E+00 -0.11157450190E+03  0.30048238159E+04  0.30027516206E+04 0.  0.
        3    1    3    3  502    0 -0.78531965927E+03 -0.99362508166E+03 -0.86263862231E+03  0.15323717477E+04  0.10100000352E+00 0.  1.
       -3    1    3    3    0  502  0.78531965927E+03  0.99362508166E+03  0.75106412041E+03  0.14724520683E+04  0.10100000352E+00 0. -1.
</event>
<event>
 5   0  0.5003556E-06  0.3006324E+04  0.7818609E-02  0.8241927E-01
        2   -1    0    0  501    0  0.00000000000E+00  0.00000000000E+00  0.28994330277E+04  0.28994330277E+04  0.25500000920E-02 0.  1.
       -2   -1    0    0    0  501  0.00000000000E+00  0.00000000000E+00 -0.77928874158E+03  0.77928874158E+03  0.25500000920E-02 0. -1.
    10030    2    1    2    0    0  0.00000000000E+00  0.00000000000E+00  0.21201442861E+04  0.36787217693E+04  0.30063236788E+04 0.  0.
        3    1    3    3  502    0  0.55510372604E+03 -0.60812039598E+03  0.25989422864E+04  0.27262522959E+04  0.10100000352E+00 0.  1.
       -3    1    3    3    0  502 -0.55510372604E+03  0.60812039598E+03 -0.47879800020E+03  0.95246947346E+03  0.10100000352E+00 0. -1.
</event>
<event>
 5   0  0.4532420E-06  0.2983185E+04  0.7818609E-02  0.8248549E-01
       -2   -1    0    0    0  501  0.00000000000E+00  0.00000000000E+00  0.80267946971E+03  0.80267946972E+03  0.25500000920E-02 0. -1.
        2   -1    0    0  501    0  0.00000000000E+00  0.00000000000E+00 -0.27717765246E+04  0.27717765246E+04  0.25500000920E-02 0.  1.
    10030    2    1    2    0    0  0.00000000000E+00  0.00000000000E+00 -0.19690970549E+04  0.35744559943E+04  0.29831849496E+04 0.  0.
        4    1    3    3  502    0 -0.36122476490E+01  0.14500058769E+04 -0.14036045943E+04  0.20180776896E+04  0.12699999809E+01 0.  1.
       -4    1    3    3    0  502  0.36122476490E+01 -0.14500058769E+04 -0.56549246057E+03  0.15563783047E+04  0.12699999809E+01 0. -1.
</event>
<event>
 5   0  0.4768570E-06  0.2992965E+04  0.7818609E-02  0.8245743E-01
        2   -1    0    0  501    0  0.00000000000E+00  0.00000000000E+00  0.13679006850E+04  0.13679006850E+04  0.25500000920E-02 0.  1.
       -2   -1    0    0    0  501  0.00000000000E+00  0.00000000000E+00 -0.16371505411E+04  0.16371505411E+04  0.25500000920E-02 0. -1.
    10030    2    1    2    0    0  0.00000000000E+00  0.00000000000E+00 -0.26924985610E+03  0.30050512260E+04  0.29929646483E+04 0.  0.
        1    1    3    3  502    0 -0.14116465701E+03  0.87991600117E+03  0.10724278125E+04  0.13943747855E+04  0.50400001928E-02 0.  1.
       -1    1    3    3    0  502  0.14116465701E+03 -0.87991600117E+03 -0.13416776686E+04  0.16106764405E+04  0.50400001928E-02 0. -1.
</event>
<event>
 5   0  0.1686012E-06  0.3046708E+04  0.7818609E-02  0.8230517E-01
        1   -1    0    0  501    0  0.00000000000E+00  0.00000000000E+00  0.17734572923E+04  0.17734572923E+04  0.50400001928E-02 0.  1.
       -1   -1    0    0    0  501  0.00000000000E+00  0.00000000000E+00 -0.13085220222E+04  0.13085220223E+04  0.50400001928E-02 0. -1.
    10030    2    1    2    0    0  0.00000000000E+00  0.00000000000E+00  0.46493527002E+03  0.30819793145E+04  0.30467083369E+04 0.  0.
        4    1    3    3  502    0  0.69381056387E+03  0.67756910904E+03  0.14208586458E+04  0.17202656481E+04  0.12699999809E+01 0.  1.
       -4    1    3    3    0  502 -0.69381056387E+03 -0.67756910904E+03 -0.95592337573E+03  0.13617136664E+04  0.12699999809E+01 0. -1.
</event>
<event>
 5   0  0.5003556E-06  0.3017808E+04  0.7818609E-02  0.8238664E-01
       -2   -1    0    0    0  501  0.00000000000E+00  0.00000000000E+00  0.14085093932E+04  0.14085093932E+04  0.25500000920E-02 0. -1.
        2   -1    0    0  501    0  0.00000000000E+00  0.00000000000E+00 -0.16164542312E+04  0.16164542312E+04  0.25500000920E-02 0.  1.
    10030    2    1    2    0    0  0.00000000000E+00  0.00000000000E+00 -0.20794483795E+03  0.30249636244E+04  0.30178077926E+04 0.  0.
        3    1    3    3  502    0 -0.94667686898E+03  0.28733700831E+03  0.10380408886E+04  0.14339764807E+04  0.10100000352E+00 0. -1.
       -3    1    3    3    0  502  0.94667686898E+03 -0.28733700831E+03 -0.12459857265E+04  0.15909871437E+04  0.10100000352E+00 0.  1.
</event>
<event>
 5   0  0.4935331E-06  0.2980681E+04  0.7818609E-02  0.8249269E-01
        2   -1    0    0  501    0  0.00000000000E+00  0.00000000000E+00  0.22020313080E+04  0.22020313080E+04  0.25500000920E-02 0.  1.
       -2   -1    0    0    0  501  0.00000000000E+00  0.00000000000E+00 -0.10086663901E+04  0.10086663901E+04  0.25500000920E-02 0. -1.
    10030    2    1    2    0    0  0.00000000000E+00  0.00000000000E+00  0.11933649180E+04  0.32106976981E+04  0.29806811102E+04 0.  0.
        5    1    3    3  502    0 -0.34616792986E+03 -0.44648101822E+03 -0.88884092518E+03  0.10532035964E+04  0.46999998093E+01 0. -1.
       -5    1    3    3    0  502  0.34616792986E+03  0.44648101822E+03  0.20822058431E+04  0.21574941016E+04  0.46999998093E+01 0.  1.
</event>
<event>
 5   0  0.1709858E-06  0.3009666E+04  0.7818609E-02  0.8240976E-01
        1   -1    0    0  501    0  0.00000000000E+00  0.00000000000E+00  0.15230412725E+04  0.15230412725E+04  0.50400001928E-02 0.  1.
       -1   -1    0    0    0  501  0.00000000000E+00  0.00000000000E+00 -0.14868427494E+04  0.14868427494E+04  0.50400001928E-02 0. -1.
    10030    2    1    2    0    0  0.00000000000E+00  0.00000000000E+00  0.36198523090E+02  0.30098840220E+04  0.30096663424E+04 0.  0.
        3    1    3    3  502    0  0.10878965612E+04 -0.66793021138E+03 -0.77874765460E+03  0.14953586911E+04  0.10100000352E+00 0. -1.
       -3    1    3    3    0  502 -0.10878965612E+04  0.66793021138E+03  0.81494617769E+03  0.15145253309E+04  0.10100000352E+00 0.  1.
</event>
<event>
 5   0  0.1686012E-06  0.2982585E+04  0.7818609E-02  0.8248721E-01
        1   -1    0    0  501    0  0.00000000000E+00  0.00000000000E+00  0.15047105262E+04  0.15047105262E+04  0.50400001928E-02 0.  1.
       -1   -1    0    0    0  501  0.00000000000E+00  0.00000000000E+00 -0.14779946136E+04  0.14779946136E+04  0.50400001928E-02 0. -1.
    10030    2    1    2    0    0  0.00000000000E+00  0.00000000000E+00  0.26715912581E+02  0.29827051399E+04  0.29825854910E+04 0.  0.
        4    1    3    3  502    0 -0.99237599096E+03  0.10018040670E+04  0.49869272873E+03  0.14956996846E+04  0.12699999809E+01 0.  1.
       -4    1    3    3    0  502  0.99237599096E+03 -0.10018040670E+04 -0.47197681615E+03  0.14870054552E+04  0.12699999809E+01 0. -1.
</event>
<event>
 5   0  0.4532420E-06  0.3018426E+04  0.7818609E-02  0.8238489E-01
        2   -1    0    0  501    0  0.00000000000E+00  0.00000000000E+00  0.17536748578E+04  0.17536748578E+04  0.25500000920E-02 0.  1.
       -2   -1    0    0    0  501  0.00000000000E+00  0.00000000000E+00 -0.12988292807E+04  0.12988292807E+04  0.25500000920E-02 0. -1.
    10030    2    1    2    0    0  0.00000000000E+00  0.00000000000E+00  0.45484557713E+03  0.30525041385E+04  0.30184262483E+04 0.  0.
        4    1    3    3  502    0  0.40888060134E+03 -0.49624423302E+03  0.16082246830E+04  0.17320017115E+04  0.12699999809E+01 0.  1.
       -4    1    3    3    0  502 -0.40888060134E+03  0.49624423302E+03 -0.11533791058E+04  0.13205024270E+04  0.12699999809E+01 0. -1.
</event>
<event>
 5   0  0.1709858E-06  0.2982662E+04  0.7818609E-02  0.8248699E-01
       -1   -1    0    0    0  501  0.00000000000E+00  0.00000000000E+00  0.13225257558E+04  0.13225257558E+04  0.50400001928E-02 0. -1.
        1   -1    0    0  501    0  0.00000000000E+00  0.00000000000E+00 -0.16816823505E+04  0.16816823505E+04  0.50400001928E-02 0.  1.
    10030    2    1    2    0    0  0.00000000000E+00  0.00000000000E+00 -0.35915659475E+03  0.30042081063E+04  0.29826620470E+04 0.  0.
        3    1    3    3  502    0  0.43287144302E+03  0.51189652361E+03  0.11622057527E+04  0.13416921998E+04  0.10100000352E+00 0. -1.
       -3    1    3    3    0  502 -0.43287144302E+03 -0.51189652361E+03 -0.15213623475E+04  0.16625159065E+04  0.10100000352E+00 0.  1.
</event>
<event>
 5   0  0.4935331E-06  0.2588541E+04  0.7818609E-02  0.8372104E-01
       -2   -1    0    0    0  501  0.00000000000E+00  0.00000000000E+00  0.13293517448E+04  0.13293517448E+04  0.25500000920E-02 0. -1.
        2   -1    0    0  501    0  0.00000000000E+00  0.00000000000E+00 -0.12601153763E+04  0.12601153763E+04  0.25500000920E-02 0.  1.
    10030    2    1    2    0    0  0.00000000000E+00  0.00000000000E+00  0.69236368459E+02  0.25894671211E+04  0.25885413453E+04 0.  0.
        5    1    3    3  502    0 -0.11795117042E+04  0.52554607780E+03 -0.52979930621E+02  0.12923913893E+04  0.46999998093E+01 0.  1.
       -5    1    3    3    0  502  0.11795117042E+04 -0.52554607780E+03  0.12221629908E+03  0.12970757318E+04  0.46999998093E+01 0. -1.
</event>
<event>
 5   0  0.4702748E-06  0.3045048E+04  0.7818609E-02  0.8230983E-01
       -2   -1    0    0    0  501  0.00000000000E+00  0.00000000000E+00  0.16665116965E+04  0.16665116965E+04  0.25500000920E-02 0. -1.
        2   -1    0    0  501    0  0.00000000000E+00  0.00000000000E+00 -0.13909771298E+04  0.13909771298E+04  0.25500000920E-02 0.  1.
    10030    2    1    2    0    0  0.00000000000E+00  0.00000000000E+00  0.27553456668E+03  0.30574888264E+04  0.30450482141E+04 0.  0.
        2    1    3    3  502    0 -0.11102661991E+04 -0.68119247971E+03 -0.65372055950E+03  0.14574171665E+04  0.25500000920E-02 0.  1.
       -2    1    3    3    0  502  0.11102661991E+04  0.68119247971E+03  0.92925512618E+03  0.16000716599E+04  0.25500000920E-02 0. -1.
</event>
<event>
 5   0  0.4935331E-06  0.2966697E+04  0.7818609E-02  0.8253305E-01
       -2   -1    0    0    0  501  0.00000000000E+00  0.00000000000E+00  0.10239000865E+04  0.10239000865E+04  0.25500000920E-02 0.  1.
        2   -1    0    0  501    0  0.00000000000E+00  0.00000000000E+00 -0.21489629861E+04  0.21489629861E+04  0.25500000920E-02 0. -1.
    10030    2    1    2    0    0  0.00000000000E+00  0.00000000000E+00 -0.11250628996E+04  0.31728630726E+04  0.29666974145E+04 0.  0.
        5    1    3    3  502    0 -0.68002671817E+03  0.67630159873E+03  0.64768949448E+03  0.11573002900E+04  0.46999998093E+01 0.  1.
       -5    1    3    3    0  502  0.68002671817E+03 -0.67630159873E+03 -0.17727523941E+04  0.20155627826E+04  0.46999998093E+01 0. -1.
</event>
<event>
 5   0  0.1672907E-06  0.2812335E+04  0.7818609E-02  0.8299449E-01
       -1   -1    0    0    0  501  0.00000000000E+00  0.00000000000E+00  0.11854336786E+04  0.11854336786E+04  0.50400001928E-02 0. -1.
        1   -1    0    0  501    0  0.00000000000E+00  0.00000000000E+00 -0.16680036478E+04  0.16680036478E+04  0.50400001928E-02 0.  1.
    10030    2    1    2    0    0  0.00000000000E+00  0.00000000000E+00 -0.48256996918E+03  0.28534373265E+04  0.28123354709E+04 0.  0.
        5    1    3    3  502    0 -0.95352616860E+03 -0.94123563185E+03 -0.67431154897E+03  0.14999516072E+04  0.46999998093E+01 0.  1.
       -5    1    3    3    0  502  0.95352616860E+03  0.94123563185E+03  0.19174157979E+03  0.13534857193E+04  0.46999998093E+01 0. -1.
</event>
<event>
 5   0  0.1686012E-06  0.2992385E+04  0.7818609E-02  0.8245909E-01
        1   -1    0    0  501    0  0.00000000000E+00  0.00000000000E+00  0.16346329173E+04  0.16346329173E+04  0.50400001928E-02 0. -1.
       -1   -1    0    0    0  501  0.00000000000E+00  0.00000000000E+00 -0.13694771990E+04  0.13694771990E+04  0.50400001928E-02 0.  1.
    10030    2    1    2    0    0  0.00000000000E+00  0.00000000000E+00  0.26515571829E+03  0.30041101163E+04  0.29923853421E+04 0.  0.
        4    1    3    3  502    0 -0.10098424479E+04  0.10864745602E+04  0.32925913400E+03  0.15194149959E+04  0.12699999809E+01 0.  1.
       -4    1    3    3    0  502  0.10098424479E+04 -0.10864745602E+04 -0.64103415708E+02  0.14846951204E+04  0.12699999809E+01 0. -1.
</event>
<event>
 5   0  0.5003556E-06  0.2907797E+04  0.7818609E-02  0.8270561E-01
        2   -1    0    0  501    0  0.00000000000E+00  0.00000000000E+00  0.20308768285E+04  0.20308768285E+04  0.25500000920E-02 0.  1.
       -2   -1    0    0    0  501  0.00000000000E+00  0.00000000000E+00 -0.10408413453E+04  0.10408413453E+04  0.25500000920E-02 0. -1.
    10030    2    1    2    0    0  0.00000000000E+00  0.00000000000E+00  0.99003548320E+03  0.30717181739E+04  0.29077968089E+04 0.  0.
        3    1    3    3  502    0  0.12595680927E+04  0.66021610520E+03  0.17560945961E+03  0.14329116435E+04  0.10100000352E+00 0. -1.
       -3    1    3    3    0  502 -0.12595680927E+04 -0.66021610520E+03  0.81442602359E+03  0.16388065303E+04  0.10100000352E+00 0.  1.
</event>
<event>
 5   0  0.1734885E-06  0.3007487E+04  0.7818609E-02  0.8241596E-01
       -1   -1    0    0    0  501  0.00000000000E+00  0.00000000000E+00  0.13255658881E+04  0.13255658881E+04  0.50400001928E-02 0. -1.
        1   -1    0    0  501    0  0.00000000000E+00  0.00000000000E+00 -0.17058711158E+04  0.17058711158E+04  0.50400001928E-02 0.  1.
    10030    2    1    2    0    0  0.00000000000E+00  0.00000000000E+00 -0.38030522769E+03  0.30314370039E+04  0.30074870311E+04 0.  0.
        2    1    3    3  502    0  0.13856777283E+03  0.70292822327E+03 -0.15227761492E+04  0.16829011603E+04  0.25500000920E-02 0.  1.
       -2    1    3    3    0  502 -0.13856777283E+03 -0.70292822327E+03  0.11424709215E+04  0.13485358435E+04  0.25500000920E-02 0. -1.
</event>
<event>
 5   0  0.4532420E-06  0.3012156E+04  0.7818609E-02  0.8240268E-01
       -2   -1    0    0    0  501  0.00000000000E+00  0.00000000000E+00  0.23049661996E+04  0.23049661996E+04  0.25500000920E-02 0. -1.
        2   -1    0    0  501    0  0.00000000000E+00  0.00000000000E+00 -0.98407989078E+03  0.98407989078E+03  0.25500000920E-02 0.  1.
    10030    2    1    2    0    0  0.00000000000E+00  0.00000000000E+00  0.13208863088E+04  0.32890460904E+04  0.30121559627E+04 0.  0.
        4    1    3    3  502    0  0.69103624276E+03  0.37761506801E+02 -0.80017122704E+03  0.10579379120E+04  0.12699999809E+01 0.  1.
       -4    1    3    3    0  502 -0.69103624276E+03 -0.37761506801E+02  0.21210575359E+04  0.22311081784E+04  0.12699999809E+01 0. -1.
</event>
<event>
 5   0  0.1686012E-06  0.3083677E+04  0.7818609E-02  0.8220232E-01
        1   -1    0    0  501    0  0.00000000000E+00  0.00000000000E+00  0.14803789883E+04  0.14803789883E+04  0.50400001928E-02 0. -1.
       -1   -1    0    0    0  501  0.00000000000E+00  0.00000000000E+00 -0.16058490513E+04  0.16058490513E+04  0.50400001928E-02 0.  1.
    10030    2    1    2    0    0  0.00000000000E+00  0.00000000000E+00 -0.12547006301E+03  0.30862280396E+04  0.30836765031E+04 0.  0.
        4    1    3    3  502    0 -0.11867785643E+03 -0.11152799284E+04 -0.11215942934E+04  0.15861617585E+04  0.12699999809E+01 0.  1.
       -4    1    3    3    0  502  0.11867785643E+03  0.11152799284E+04  0.99612423043E+03  0.15000662811E+04  0.12699999809E+01 0. -1.
</event>
<event>
 5   0  0.1700885E-06  0.2965061E+04  0.7818609E-02  0.8253779E-01
       -1   -1    0    0    0  501  0.00000000000E+00  0.00000000000E+00  0.13769817336E+04  0.13769817336E+04  0.50400001928E-02 0. -1.
        1   -1    0    0  501    0  0.00000000000E+00  0.00000000000E+00 -0.15961692911E+04  0.15961692911E+04  0.50400001928E-02 0.  1.
    10030    2    1    2    0    0  0.00000000000E+00  0.00000000000E+00 -0.21918755745E+03  0.29731510247E+04  0.29650605104E+04 0.  0.
        1    1    3    3  502    0 -0.41934620610E+03 -0.10075284434E+04 -0.11157914276E+04  0.15607547260E+04  0.50400001928E-02 0.  1.
       -1    1    3    3    0  502  0.41934620610E+03  0.10075284434E+04  0.89660387012E+03  0.14123962987E+04  0.50400001928E-02 0. -1.
</event>
<event>
 5   0  0.1672907E-06  0.2985803E+04  0.7818609E-02  0.8247797E-01
       -1   -1    0    0    0  501  0.00000000000E+00  0.00000000000E+00  0.14875268238E+04  0.14875268238E+04  0.50400001928E-02 0.  1.
        1   -1    0    0  501    0  0.00000000000E+00  0.00000000000E+00 -0.14982957316E+04  0.14982957316E+04  0.50400001928E-02 0. -1.
    10030    2    1    2    0    0  0.00000000000E+00  0.00000000000E+00 -0.10768907805E+02  0.29858225554E+04  0.29858031354E+04 0.  0.
        5    1    3    3  502    0  0.47202366567E+03 -0.14140071449E+04 -0.86072363236E+02  0.14932022932E+04  0.46999998093E+01 0. -1.
       -5    1    3    3    0  502 -0.47202366567E+03  0.14140071449E+04  0.75303455431E+02  0.14926202622E+04  0.46999998093E+01 0.  1.
</event>
<event>
 5   0  0.1709858E-06  0.2972931E+04  0.7818609E-02  0.8251503E-01
        1   -1    0    0  501    0  0.00000000000E+00  0.00000000000E+00  0.15190952510E+04  0.15190952510E+04  0.50400001928E-02 0. -1.
       -1   -1    0    0    0  501  0.00000000000E+00  0.00000000000E+00 -0.14545367368E+04  0.14545367368E+04  0.50400001928E-02 0.  1.
    10030    2    1    2    0    0  0.00000000000E+00  0.00000000000E+00  0.64558514203E+02  0.29736319879E+04  0.29729311122E+04 0.  0.
        3    1    3    3  502    0 -0.84181033617E+03 -0.15851743752E+03  0.12473937997E+04  0.15131965245E+04  0.10100000352E+00 0. -1.
       -3    1    3    3    0  502  0.84181033617E+03  0.15851743752E+03 -0.11828352855E+04  0.14604354634E+04  0.10100000352E+00 0.  1.
</event>
<event>
 5   0  0.4702748E-06  0.2995878E+04  0.7818609E-02  0.8244909E-01
       -2   -1    0    0    0  501  0.00000000000E+00  0.00000000000E+00  0.10158508332E+04  0.10158508332E+04  0.25500000920E-02 0. -1.
        2   -1    0    0  501    0  0.00000000000E+00  0.00000000000E+00 -0.22088096149E+04  0.22088096149E+04  0.25500000920E-02 0.  1.
    10030    2    1    2    0    0  0.00000000000E+00  0.00000000000E+00 -0.11929587817E+04  0.32246604481E+04  0.29958778931E+04 0.  0.
        2    1    3    3  502    0  0.72197307727E+03  0.95380013595E+03 -0.15669061282E+04  0.19713382861E+04  0.25500000920E-02 0.  1.
       -2    1    3    3    0  502 -0.72197307727E+03 -0.95380013595E+03  0.37394734652E+03  0.12533221619E+04  0.25500000920E-02 0. -1.
</event>
<event>
 5   0  0.1686012E-06  0.2746892E+04  0.7818609E-02  0.8319949E-01
        1   -1    0    0  501    0  0.00000000000E+00  0.00000000000E+00  0.15302212001E+04  0.15302212001E+04  0.50400001928E-02 0. -1.
       -1   -1    0    0    0  501  0.00000000000E+00  0.00000000000E+00 -0.12327325162E+04  0.12327325162E+04  0.50400001928E-02 0.  1.
    10030    2    1    2    0    0  0.00000000000E+00  0.00000000000E+00  0.29748868382E+03  0.27629537163E+04  0.27468916472E+04 0.  0.
        4    1    3    3  502    0 -0.11278252737E+04  0.67629372682E+03  0.54727924925E+03  0.14243873218E+04  0.12699999809E+01 0.  1.
       -4    1    3    3    0  502  0.11278252737E+04 -0.67629372682E+03 -0.24979056543E+03  0.13385663945E+04  0.12699999809E+01 0. -1.
</event>
<event>
 5   0  0.4935331E-06  0.3028315E+04  0.7818609E-02  0.8235691E-01
       -2   -1    0    0    0  501  0.00000000000E+00  0.00000000000E+00  0.13705355595E+04  0.13705355595E+04  0.25500000920E-02 0. -1.
        2   -1    0    0  501    0  0.00000000000E+00  0.00000000000E+00 -0.16728304089E+04  0.16728304089E+04  0.25500000920E-02 0.  1.
    10030    2    1    2    0    0  0.00000000000E+00  0.00000000000E+00 -0.30229484932E+03  0.30433659684E+04  0.30283154132E+04 0.  0.
        5    1    3    3  502    0  0.47196536342E+03  0.81734530171E+02 -0.15946773908E+04  0.16650675387E+04  0.46999998093E+01 0.  1.
       -5    1    3    3    0  502 -0.47196536342E+03 -0.81734530171E+02  0.12923825415E+04  0.13782984297E+04  0.46999998093E+01 0. -1.
</event>
<event>
 5   0  0.4532420E-06  0.3063545E+04  0.7818609E-02  0.8225814E-01
       -2   -1    0    0    0  501  0.00000000000E+00  0.00000000000E+00  0.14282758280E+04  0.14282758280E+04  0.25500000920E-02 0.  1.
        2   -1    0    0  501    0  0.00000000000E+00  0.00000000000E+00 -0.16427691120E+04  0.16427691120E+04  0.25500000920E-02 0. -1.
    10030    2    1    2    0    0  0.00000000000E+00  0.00000000000E+00 -0.21449328397E+03  0.30710449400E+04  0.30635452754E+04 0.  0.
        4    1    3    3  502    0 -0.13793092625E+04 -0.55130129973E+03 -0.48219254175E+03  0.15617100963E+04  0.12699999809E+01 0.  1.
       -4    1    3    3    0  502  0.13793092625E+04  0.55130129973E+03  0.26769925777E+03  0.15093348437E+04  0.12699999809E+01 0. -1.
</event>
<event>
 5   0  0.1700885E-06  0.2924778E+04  0.7818609E-02  0.8265543E-01
        1   -1    0    0  501    0  0.00000000000E+00  0.00000000000E+00  0.15642453832E+04  0.15642453832E+04  0.50400001928E-02 0.  1.
       -1   -1    0    0    0  501  0.00000000000E+00  0.00000000000E+00 -0.13671651769E+04  0.13671651769E+04  0.50400001928E-02 0. -1.
    10030    2    1    2    0    0  0.00000000000E+00  0.00000000000E+00  0.19708020623E+03  0.29314105601E+04  0.29247781564E+04 0.  0.
        1    1    3    3  502    0  0.23452938610E+03  0.87347917118E+03 -0.10532446469E+04  0.13882702120E+04  0.50400001928E-02 0. -1.
       -1    1    3    3    0  502 -0.23452938610E+03 -0.87347917118E+03  0.12503248531E+04  0.15431403481E+04  0.50400001928E-02 0.  1.
</event>
<event>
 5   0  0.4935331E-06  0.2998268E+04  0.7818609E-02  0.8244226E-01
        2   -1    0    0  501    0  0.00000000000E+00  0.00000000000E+00  0.18350965202E+04  0.18350965202E+04  0.25500000920E-02 0. -1.
       -2   -1    0    0    0  501  0.00000000000E+00  0.00000000000E+00 -0.12246785857E+04  0.12246785857E+04  0.25500000920E-02 0.  1.
    10030    2    1    2    0    0  0.00000000000E+00  0.00000000000E+00  0.61041793450E+03  0.30597751059E+04  0.29982684409E+04 0.  0.
        5    1    3    3  502    0  0.46055462026E+03 -0.12913631479E+04  0.92399065078E+03  0.16533330429E+04  0.46999998093E+01 0. -1.
       -5    1    3    3    0  502 -0.46055462026E+03  0.12913631479E+04 -0.31357271628E+03  0.14064420629E+04  0.46999998093E+01 0.  1.
</event>
<event>
 5   0  0.4768570E-06  0.3035859E+04  0.7818609E-02  0.8233565E-01
        2   -1    0    0  501    0  0.00000000000E+00  0.00000000000E+00  0.22917837762E+04  0.22917837762E+04  0.25500000920E-02 0.  1.
       -2   -1    0    0    0  501  0.00000000000E+00  0.00000000000E+00 -0.10053784292E+04  0.10053784292E+04  0.25500000920E-02 0. -1.
    10030    2    1    2    0    0  0.00000000000E+00  0.00000000000E+00  0.12864053469E+04  0.32971622054E+04  0.30358590040E+04 0.  0.
        1    1    3    3  502    0  0.69105077982E+03  0.97408449422E+02  0.21072145193E+04  0.22197731003E+04  0.50400001928E-02 0.  1.
       -1    1    3    3    0  502 -0.69105077982E+03 -0.97408449422E+02 -0.82080917239E+03  0.10773891051E+04  0.50400001928E-02 0. -1.
</event>
<event>
 5   0  0.5003556E-06  0.2923760E+04  0.7818609E-02  0.8265843E-01
       -2   -1    0    0    0  501  0.00000000000E+00  0.00000000000E+00  0.95810637858E+03  0.95810637858E+03  0.25500000920E-02 0. -1.
        2   -1    0    0  501    0  0.00000000000E+00  0.00000000000E+00 -0.22305387463E+04  0.22305387463E+04  0.25500000920E-02 0.  1.
    10030    2    1    2    0    0  0.00000000000E+00  0.00000000000E+00 -0.12724323677E+04  0.31886451249E+04  0.29237601820E+04 0.  0.
        3    1    3    3  502    0 -0.75861275823E+03 -0.11139003148E+04 -0.18485280332E+02  0.13478163614E+04  0.10100000352E+00 0. -1.
       -3    1    3    3    0  502  0.75861275823E+03  0.11139003148E+04 -0.12539470874E+04  0.18408287635E+04  0.10100000352E+00 0.  1.
</event>
<event>
 5   0  0.1700885E-06  0.3079855E+04  0.7818609E-02  0.8221288E-01
        1   -1    0    0  501    0  0.00000000000E+00  0.00000000000E+00  0.14777138246E+04  0.14777138246E+04  0.50400001928E-02 0.  1.
       -1   -1    0    0    0  501  0.00000000000E+00  0.00000000000E+00 -0.16047599660E+04  0.16047599660E+04  0.50400001928E-02 0. -1.
    10030    2    1    2    0    0  0.00000000000E+00  0.00000000000E+00 -0.12704614136E+03  0.30824737906E+04  0.30798545335E+04 0.  0.
        1    1    3    3  502    0  0.22921378316E+03 -0.14821090096E+04  0.28633094581E+03  0.15268174368E+04  0.50400001928E-02 0.  1.
       -1    1    3    3    0  502 -0.22921378316E+03  0.14821090096E+04 -0.41337708717E+03  0.15556563538E+04  0.50400001928E-02 0. -1.
</event>
<event>
 5   0  0.1734885E-06  0.2997594E+04  0.7818609E-02  0.8244418E-01
       -1   -1    0    0    0  501  0.00000000000E+00  0.00000000000E+00  0.31644731507E+04  0.31644731507E+04  0.50400001928E-02 0. -1.
        1   -1    0    0  501    0  0.00000000000E+00  0.00000000000E+00 -0.70987859664E+03  0.70987859666E+03  0.50400001928E-02 0.  1.
    10030    2    1    2    0    0  0.00000000000E+00  0.00000000000E+00  0.24545945540E+04  0.38743517473E+04  0.29975935410E+04 0.  0.
        2    1    3    3  502    0  0.11597074638E+04  0.43643298186E+03  0.13746399151E+03  0.12467122757E+04  0.25500000920E-02 0.  1.
       -2    1    3    3    0  502 -0.11597074638E+04 -0.43643298186E+03  0.23171305625E+04  0.26276394717E+04  0.25500000920E-02 0. -1.
</event>
<event>
 5   0  0.4768570E-06  0.2991513E+04  0.7818609E-02  0.8246159E-01
       -2   -1    0    0    0  501  0.00000000000E+00  0.00000000000E+00  0.79691096060E+03  0.79691096061E+03  0.25500000920E-02 0. -1.
        2   -1    0    0  501    0  0.00000000000E+00  0.00000000000E+00 -0.28074492040E+04  0.28074492040E+04  0.25500000920E-02 0.  1.
    10030    2    1    2    0    0  0.00000000000E+00  0.00000000000E+00 -0.20105382434E+04  0.36043601646E+04  0.29915126890E+04 0.  0.
        1    1    3    3  502    0 -0.11823073568E+04 -0.35857584127E+03 -0.20211184216E+04  0.23688281901E+04  0.50400001928E-02 0.  1.
       -1    1    3    3    0  502  0.11823073568E+04  0.35857584127E+03  0.10580178145E+02  0.12355319746E+04  0.50400001928E-02 0. -1.
</event>
<event>
 5   0  0.5003556E-06  0.2993502E+04  0.7818609E-02  0.8245589E-01
        2   -1    0    0  501    0  0.00000000000E+00  0.00000000000E+00  0.15652362264E+04  0.15652362264E+04  0.25500000920E-02 0. -1.
       -2   -1    0    0    0  501  0.00000000000E+00  0.00000000000E+00 -0.14312625425E+04  0.14312625425E+04  0.25500000920E-02 0.  1.
    10030    2    1    2    0    0  0.00000000000E+00  0.00000000000E+00  0.13397368386E+03  0.29964987689E+04  0.29935022839E+04 0.  0.
        3    1    3    3  502    0  0.77362895531E+03  0.11985967136E+04 -0.38637724921E+03  0.14779794421E+04  0.10100000352E+00 0.  1.
       -3    1    3    3    0  502 -0.77362895531E+03 -0.11985967136E+04  0.52035093306E+03  0.15185193268E+04  0.10100000352E+00 0. -1.
</event>
<event>
 5   0  0.1672907E-06  0.2987171E+04  0.7818609E-02  0.8247404E-01
       -1   -1    0    0    0  501  0.00000000000E+00  0.00000000000E+00  0.10304668851E+04  0.10304668851E+04  0.50400001928E-02 0.  1.
        1   -1    0    0  501    0  0.00000000000E+00  0.00000000000E+00 -0.21648412825E+04  0.21648412825E+04  0.50400001928E-02 0. -1.
    10030    2    1    2    0    0  0.00000000000E+00  0.00000000000E+00 -0.11343743974E+04  0.31953081676E+04  0.29871707371E+04 0.  0.
        5    1    3    3  502    0  0.27644843773E+03 -0.18086114773E+03  0.99088873419E+03  0.10445176241E+04  0.46999998093E+01 0.  1.
       -5    1    3    3    0  502 -0.27644843773E+03  0.18086114773E+03 -0.21252631316E+04  0.21507905435E+04  0.46999998093E+01 0. -1.
</event>
<event>
 5   0  0.5003556E-06  0.3002921E+04  0.7818609E-02  0.8242897E-01
       -2   -1    0    0    0  501  0.00000000000E+00  0.00000000000E+00  0.10490495876E+04  0.10490495876E+04  0.25500000920E-02 0. -1.
        2   -1    0    0  501    0  0.00000000000E+00  0.00000000000E+00 -0.21489773717E+04  0.21489773717E+04  0.25500000920E-02 0.  1.
    10030    2    1    2    0    0  0.00000000000E+00  0.00000000000E+00 -0.10999277841E+04  0.31980269593E+04  0.30029211282E+04 0.  0.
        3    1    3    3  502    0  0.36796298058E+03  0.14751293752E+03  0.99230789613E+03  0.10685652964E+04  0.10100000352E+00 0. -1.
       -3    1    3    3    0  502 -0.36796298058E+03 -0.14751293752E+03 -0.20922356802E+04  0.21294616629E+04  0.10100000352E+00 0.  1.
</event>
<event>
 5   0  0.1686012E-06  0.2952916E+04  0.7818609E-02  0.8257305E-01
       -1   -1    0    0    0  501  0.00000000000E+00  0.00000000000E+00  0.13145481320E+04  0.13145481320E+04  0.50400001928E-02 0. -1.
        1   -1    0    0  501    0  0.00000000000E+00  0.00000000000E+00 -0.16583094862E+04  0.16583094862E+04  0.50400001928E-02 0.  1.
    10030    2    1    2    0    0  0.00000000000E+00  0.00000000000E+00 -0.34376135414E+03  0.29728576182E+04  0.29529156015E+04 0.  0.
        4    1    3    3  502    0  0.12883922868E+02 -0.10227277079E+04 -0.12438664354E+04  0.16103860661E+04  0.12699999809E+01 0.  1.
       -4    1    3    3    0  502 -0.12883922868E+02  0.10227277079E+04  0.90010508125E+03  0.13624715521E+04  0.12699999809E+01 0. -1.
</event>
<event>
 5   0  0.1686012E-06  0.2985234E+04  0.7818609E-02  0.8247960E-01
        1   -1    0    0  501    0  0.00000000000E+00  0.00000000000E+00  0.22408261933E+04  0.22408261933E+04  0.50400001928E-02 0.  1.
       -1   -1    0    0    0  501  0.00000000000E+00  0.00000000000E+00 -0.99423380020E+03  0.99423380022E+03  0.50400001928E-02 0. -1.
    10030    2    1    2    0    0  0.00000000000E+00  0.00000000000E+00  0.12465923931E+04  0.32350599936E+04  0.29852337542E+04 0.  0.
        4    1    3    3  502    0 -0.14465597682E+04 -0.33266075259E+03  0.45296347316E+03  0.15518942813E+04  0.12699999809E+01 0.  1.
       -4    1    3    3    0  502  0.14465597682E+04  0.33266075259E+03  0.79362891998E+03  0.16831657123E+04  0.12699999809E+01 0. -1.
</event>
<event>
 5   0  0.5003556E-06  0.2954753E+04  0.7818609E-02  0.8256771E-01
        2   -1    0    0  501    0  0.00000000000E+00  0.00000000000E+00  0.24093911836E+04  0.24093911836E+04  0.25500000920E-02 0.  1.
       -2   -1    0    0    0  501  0.00000000000E+00  0.00000000000E+00 -0.90588944423E+03  0.90588944423E+03  0.25500000920E-02 0. -1.
    10030    2    1    2    0    0  0.00000000000E+00  0.00000000000E+00  0.15035017394E+04  0.33152806278E+04  0.29547534856E+04 0.  0.
        3    1    3    3  502    0  0.13860240132E+04 -0.42243259720E+03  0.10752539092E+04  0.18043510866E+04  0.10100000352E+00 0.  1.
       -3    1    3    3    0  502 -0.13860240132E+04  0.42243259720E+03  0.42824783012E+03  0.15109295412E+04  0.10100000352E+00 0. -1.
</event>
<event>
 5   0  0.1672907E-06  0.3030614E+04  0.7818609E-02  0.8235042E-01
       -1   -1    0    0    0  501  0.00000000000E+00  0.00000000000E+00  0.19397960040E+04  0.19397960040E+04  0.50400001928E-02 0. -1.
        1   -1    0    0  501    0  0.00000000000E+00  0.00000000000E+00 -0.11837097859E+04  0.11837097859E+04  0.50400001928E-02 0.  1.
    10030    2    1    2    0    0  0.00000000000E+00  0.00000000000E+00  0.75608621811E+03  0.31235057899E+04  0.30306141375E+04 0.  0.
        5    1    3    3  502    0  0.96939998134E+03 -0.97902450867E+03 -0.27209117103E+03  0.14043792251E+04  0.46999998093E+01 0.  1.
       -5    1    3    3    0  502 -0.96939998134E+03  0.97902450867E+03  0.10281773891E+04  0.17191265648E+04  0.46999998093E+01 0. -1.
</event>
<event>
 5   0  0.1700885E-06  0.3001907E+04  0.7818609E-02  0.8243187E-01
       -1   -1    0    0    0  501  0.00000000000E+00  0.00000000000E+00  0.20880408952E+04  0.20880408952E+04  0.50400001928E-02 0.  1.
        1   -1    0    0  501    0  0.00000000000E+00  0.00000000000E+00 -0.10789354918E+04  0.10789354918E+04  0.50400001928E-02 0. -1.
    10030    2    1    2    0    0  0.00000000000E+00  0.00000000000E+00  0.10091054034E+04  0.31669763871E+04  0.30019070141E+04 0.  0.
        1    1    3    3  502    0  0.11264149673E+04  0.41928634781E+03 -0.44391024365E+03  0.12812759361E+04  0.50400001928E-02 0. -1.
       -1    1    3    3    0  502 -0.11264149673E+04 -0.41928634781E+03  0.14530156470E+04  0.18857004509E+04  0.50400001928E-02 0.  1.
</event>
<event>
 5   0  0.1686012E-06  0.2991403E+04  0.7818609E-02  0.8246190E-01
       -1   -1    0    0    0  501  0.00000000000E+00  0.00000000000E+00  0.12685021997E+04  0.12685021997E+04  0.50400001928E-02 0.  1.
        1   -1    0    0  501    0  0.00000000000E+00  0.00000000000E+00 -0.17635946613E+04  0.17635946613E+04  0.50400001928E-02 0. -1.
    10030    2    1    2    0    0  0.00000000000E+00  0.00000000000E+00 -0.49509246157E+03  0.30320968610E+04  0.29914034882E+04 0.  0.
        4    1    3    3  502    0  0.12520263337E+04  0.72168836798E+03  0.14333959427E+03  0.14522230865E+04  0.12699999809E+01 0.  1.
       -4    1    3    3    0  502 -0.12520263337E+04 -0.72168836798E+03 -0.63843205584E+03  0.15798737746E+04  0.12699999809E+01 0. -1.
</event>
<event>
 5   0  0.4702748E-06  0.2777509E+04  0.7818609E-02  0.8310285E-01
        2   -1    0    0  501    0  0.00000000000E+00  0.00000000000E+00  0.14206782565E+04  0.14206782565E+04  0.25500000920E-02 0. -1.
       -2   -1    0    0    0  501  0.00000000000E+00  0.00000000000E+00 -0.13575482716E+04  0.13575482716E+04  0.25500000920E-02 0.  1.
    10030    2    1    2    0    0  0.00000000000E+00  0.00000000000E+00  0.63129984970E+02  0.27782265281E+04  0.27775091803E+04 0.  0.
        2    1    3    3  502    0 -0.40890521053E+03  0.11459430412E+04  0.70125294671E+03  0.14043306662E+04  0.25500000920E-02 0. -1.
       -2    1    3    3    0  502  0.40890521053E+03 -0.11459430412E+04 -0.63812296174E+03  0.13738958618E+04  0.25500000920E-02 0.  1.
</event>
<event>
 5   0  0.4702748E-06  0.2888752E+04  0.7818609E-02  0.8276232E-01
       -2   -1    0    0    0  501  0.00000000000E+00  0.00000000000E+00  0.89788097924E+03  0.89788097924E+03  0.25500000920E-02 0.  1.
        2   -1    0    0  501    0  0.00000000000E+00  0.00000000000E+00 -0.23234951880E+04  0.23234951880E+04  0.25500000920E-02 0. -1.
    10030    2    1    2    0    0  0.00000000000E+00  0.00000000000E+00 -0.14256142087E+04  0.32213761672E+04  0.28887520729E+04 0.  0.
        2    1    3    3  502    0 -0.10773540276E+04 -0.37377934109E+03 -0.17013432523E+04  0.20481629717E+04  0.25500000920E-02 0. -1.
       -2    1    3    3    0  502  0.10773540276E+04  0.37377934109E+03  0.27572904359E+03  0.11732131955E+04  0.25500000920E-02 0.  1.
</event>
<event>
 5   0  0.4702748E-06  0.2882482E+04  0.7818609E-02  0.8278109E-01
        2   -1    0    0  501    0  0.00000000000E+00  0.00000000000E+00  0.16571537187E+04  0.16571537187E+04  0.25500000920E-02 0.  1.
       -2   -1    0    0    0  501  0.00000000000E+00  0.00000000000E+00 -0.12534601347E+04  0.12534601347E+04  0.25500000920E-02 0. -1.
    10030    2    1    2    0    0  0.00000000000E+00  0.00000000000E+00  0.40369358394E+03  0.29106138534E+04  0.28824823493E+04 0.  0.
        2    1    3    3  502    0 -0.91448080096E+02  0.14139850391E+04 -0.64277383391E+02  0.14183962860E+04  0.25500000920E-02 0.  1.
       -2    1    3    3    0  502  0.91448080096E+02 -0.14139850391E+04  0.46797096733E+03  0.14922175674E+04  0.25500000920E-02 0. -1.
</event>
<event>
 5   0  0.1734885E-06  0.2939813E+04  0.7818609E-02  0.8261130E-01
        1   -1    0    0  501    0  0.00000000000E+00  0.00000000000E+00  0.10596021236E+04  0.10596021236E+04  0.50400001928E-02 0.  1.
       -1   -1    0    0    0  501  0.00000000000E+00  0.00000000000E+00 -0.20390910021E+04  0.20390910021E+04  0.50400001928E-02 0. -1.
    10030    2    1    2    0    0  0.00000000000E+00  0.00000000000E+00 -0.97948887849E+03  0.30986931257E+04  0.29398130254E+04 0.  0.
        2    1    3    3  502    0  0.97610708959E+03 -0.10456369154E+04 -0.84638472321E+03  0.16620796337E+04  0.25500000920E-02 0. -1.
       -2    1    3    3    0  502 -0.97610708959E+03  0.10456369154E+04 -0.13310415527E+03  0.14366134920E+04  0.25500000920E-02 0.  1.
</event>
<event>
 5   0  0.1686012E-06  0.2935710E+04  0.7818609E-02  0.8262331E-01
        1   -1    0    0  501    0  0.00000000000E+00  0.00000000000E+00  0.25038606986E+04  0.25038606986E+04  0.50400001928E-02 0.  1.
       -1   -1    0    0    0  501  0.00000000000E+00  0.00000000000E+00 -0.86051044041E+03  0.86051044042E+03  0.50400001928E-02 0. -1.
    10030    2    1    2    0    0  0.00000000000E+00  0.00000000000E+00  0.16433502582E+04  0.33643711390E+04  0.29357099806E+04 0.  0.
        4    1    3    3  502    0 -0.96286370609E+03 -0.72235870065E+03  0.17843887828E+04  0.21524296853E+04  0.12699999809E+01 0.  1.
       -4    1    3    3    0  502  0.96286370609E+03  0.72235870065E+03 -0.14103852466E+03  0.12119414537E+04  0.12699999809E+01 0. -1.
</event>
<event>
 5   0  0.1709858E-06  0.2999781E+04  0.7818609E-02  0.8243794E-01
        1   -1    0    0  501    0  0.00000000000E+00  0.00000000000E+00  0.14142996349E+04  0.14142996349E+04  0.50400001928E-02 0.  1.
       -1   -1    0    0    0  501  0.00000000000E+00  0.00000000000E+00 -0.15906606742E+04  0.15906606742E+04  0.50400001928E-02 0. -1.
    10030    2    1    2    0    0  0.00000000000E+00  0.00000000000E+00 -0.17636103923E+03  0.30049603091E+04  0.29997805325E+04 0.  0.
        3    1    3    3  502    0 -0.23257488164E+02 -0.83672520008E+03 -0.13349262410E+04  0.15756516272E+04  0.10100000352E+00 0. -1.
       -3    1    3    3    0  502  0.23257488164E+02  0.83672520008E+03  0.11585652018E+04  0.14293086819E+04  0.10100000352E+00 0.  1.
</event>
<event>
 5   0  0.4935331E-06  0.2975326E+04  0.7818609E-02  0.8250812E-01
        2   -1    0    0  501    0  0.00000000000E+00  0.00000000000E+00  0.15701959785E+04  0.15701959785E+04  0.25500000920E-02 0.  1.
       -2   -1    0    0    0  501  0.00000000000E+00  0.00000000000E+00 -0.14094684708E+04  0.14094684708E+04  0.25500000920E-02 0. -1.
    10030    2    1    2    0    0  0.00000000000E+00  0.00000000000E+00  0.16072750772E+03  0.29796644494E+04  0.29753263517E+04 0.  0.
        5    1    3    3  502    0 -0.26343648920E+03 -0.41622208093E+03  0.14861483156E+04  0.15656623233E+04  0.46999998093E+01 0.  1.
       -5    1    3    3    0  502  0.26343648920E+03  0.41622208093E+03 -0.13254208079E+04  0.14140021261E+04  0.46999998093E+01 0. -1.
</event>
<event>
 5   0  0.1686012E-06  0.2992087E+04  0.7818609E-02  0.8245994E-01
        1   -1    0    0  501    0  0.00000000000E+00  0.00000000000E+00  0.24163763930E+04  0.24163763930E+04  0.50400001928E-02 0.  1.
       -1   -1    0    0    0  501  0.00000000000E+00  0.00000000000E+00 -0.92624090328E+03  0.92624090330E+03  0.50400001928E-02 0. -1.
    10030    2    1    2    0    0  0.00000000000E+00  0.00000000000E+00  0.14901354897E+04  0.33426172963E+04  0.29920873336E+04 0.  0.
        4    1    3    3  502    0 -0.62852099463E+02 -0.92627011054E+03 -0.56548969552E+03  0.10870634355E+04  0.12699999809E+01 0. -1.
       -4    1    3    3    0  502  0.62852099463E+02  0.92627011054E+03  0.20556251853E+04  0.22555538609E+04  0.12699999809E+01 0.  1.
</event>
<event>
 5   0  0.4935331E-06  0.2943198E+04  0.7818609E-02  0.8260140E-01
       -2   -1    0    0    0  501  0.00000000000E+00  0.00000000000E+00  0.14703120826E+04  0.14703120827E+04  0.25500000920E-02 0. -1.
        2   -1    0    0  501    0  0.00000000000E+00  0.00000000000E+00 -0.14728870870E+04  0.14728870871E+04  0.25500000920E-02 0.  1.
    10030    2    1    2    0    0  0.00000000000E+00  0.00000000000E+00 -0.25750044004E+01  0.29431991697E+04  0.29431980433E+04 0.  0.
        5    1    3    3  502    0  0.94768634390E+03  0.10916730966E+04  0.27388897245E+03  0.14713588330E+04  0.46999998093E+01 0. -1.
       -5    1    3    3    0  502 -0.94768634390E+03 -0.10916730966E+04 -0.27646397685E+03  0.14718403367E+04  0.46999998093E+01 0.  1.
</event>
<event>
 5   0  0.1686012E-06  0.2985349E+04  0.7818609E-02  0.8247927E-01
        1   -1    0    0  501    0  0.00000000000E+00  0.00000000000E+00  0.18296592016E+04  0.18296592017E+04  0.50400001928E-02 0. -1.
       -1   -1    0    0    0  501  0.00000000000E+00  0.00000000000E+00 -0.12177553511E+04  0.12177553511E+04  0.50400001928E-02 0.  1.
    10030    2    1    2    0    0  0.00000000000E+00  0.00000000000E+00  0.61190385059E+03  0.30474145527E+04  0.29853490807E+04 0.  0.
        4    1    3    3  502    0 -0.14532587441E+04  0.32905630310E+03  0.39631717206E+03  0.15418521141E+04  0.12699999809E+01 0.  1.
       -4    1    3    3    0  502  0.14532587441E+04 -0.32905630310E+03  0.21558667853E+03  0.15055624387E+04  0.12699999809E+01 0. -1.
</event>
<event>
 5   0  0.1545375E-06  0.2974023E+04  0.7818609E-02  0.8251188E-01
        3   -1    0    0  501    0  0.00000000000E+00  0.00000000000E+00  0.14687170459E+04  0.14687170494E+04  0.10100000352E+00 0. -1.
       -3   -1    0    0    0  501  0.00000000000E+00  0.00000000000E+00 -0.15055335982E+04  0.15055336016E+04  0.10100000352E+00 0.  1.
    10030    2    1    2    0    0  0.00000000000E+00  0.00000000000E+00 -0.36816552334E+02  0.29742506510E+04  0.29740227767E+04 0.  0.
        4    1    3    3  502    0  0.10007616733E+04  0.58920783972E+03 -0.94719438190E+03  0.14986222389E+04  0.12699999809E+01 0.  1.
       -4    1    3    3    0  502 -0.10007616733E+04 -0.58920783972E+03  0.91037782957E+03  0.14756284121E+04  0.12699999809E+01 0. -1.
</event>
<event>
 5   0  0.1709858E-06  0.3000954E+04  0.7818609E-02  0.8243459E-01
       -1   -1    0    0    0  501  0.00000000000E+00  0.00000000000E+00  0.15501944061E+04  0.15501944062E+04  0.50400001928E-02 0.  1.
        1   -1    0    0  501    0  0.00000000000E+00  0.00000000000E+00 -0.14523537630E+04  0.14523537630E+04  0.50400001928E-02 0. -1.
    10030    2    1    2    0    0  0.00000000000E+00  0.00000000000E+00  0.97840643161E+02  0.30025481691E+04  0.30009536345E+04 0.  0.
        3    1    3    3  502    0 -0.22137922560E+03  0.80792257080E+03 -0.11966037809E+04  0.14606875986E+04  0.10100000352E+00 0. -1.
       -3    1    3    3    0  502  0.22137922560E+03 -0.80792257080E+03  0.12944444241E+04  0.15418605706E+04  0.10100000352E+00 0.  1.
</event>
<event>
 5   0  0.1709858E-06  0.2974991E+04  0.7818609E-02  0.8250909E-01
        1   -1    0    0  501    0  0.00000000000E+00  0.00000000000E+00  0.16844513291E+04  0.16844513291E+04  0.50400001928E-02 0.  1.
       -1   -1    0    0    0  501  0.00000000000E+00  0.00000000000E+00 -0.13135690549E+04  0.13135690549E+04  0.50400001928E-02 0. -1.
    10030    2    1    2    0    0  0.00000000000E+00  0.00000000000E+00  0.37088227419E+03  0.29980203840E+04  0.29749911868E+04 0.  0.
        3    1    3    3  502    0 -0.78993145840E+02  0.54819600762E+03 -0.12057832113E+04  0.13269031399E+04  0.10100000352E+00 0. -1.
       -3    1    3    3    0  502  0.78993145840E+02 -0.54819600762E+03  0.15766654855E+04  0.16711172440E+04  0.10100000352E+00 0.  1.
</event>
<event>
 5   0  0.4532420E-06  0.3054115E+04  0.7818609E-02  0.8228445E-01
       -2   -1    0    0    0  501  0.00000000000E+00  0.00000000000E+00  0.10206217135E+04  0.10206217135E+04  0.25500000920E-02 0.  1.
        2   -1    0    0  501    0  0.00000000000E+00  0.00000000000E+00 -0.22847887444E+04  0.22847887444E+04  0.25500000920E-02 0. -1.
    10030    2    1    2    0    0  0.00000000000E+00  0.00000000000E+00 -0.12641670309E+04  0.33054104578E+04  0.30541152586E+04 0.  0.
        4    1    3    3  502    0  0.79473626108E+03 -0.65412380108E+03 -0.18529134494E+04  0.21196163652E+04  0.12699999809E+01 0.  1.
       -4    1    3    3    0  502 -0.79473626108E+03  0.65412380108E+03  0.58874641855E+03  0.11857940926E+04  0.12699999809E+01 0. -1.
</event>
<event>
 5   0  0.4702748E-06  0.2613440E+04  0.7818609E-02  0.8363650E-01
        2   -1    0    0  501    0  0.00000000000E+00  0.00000000000E+00  0.15653139812E+04  0.15653139812E+04  0.25500000920E-02 0.  1.
       -2   -1    0    0    0  501  0.00000000000E+00  0.00000000000E+00 -0.10908466544E+04  0.10908466544E+04  0.25500000920E-02 0. -1.
    10030    2    1    2    0    0  0.00000000000E+00  0.00000000000E+00  0.47446732675E+03  0.26561606356E+04  0.26134402763E+04 0.  0.
        2    1    3    3  502    0 -0.86321567847E+03 -0.65727145407E+03  0.97740355464E+03  0.14602961277E+04  0.25500000920E-02 0.  1.
       -2    1    3    3    0  502  0.86321567847E+03  0.65727145407E+03 -0.50293622789E+03  0.11958645079E+04  0.25500000920E-02 0. -1.
</event>
<event>
 5   0  0.1709858E-06  0.2983547E+04  0.7818609E-02  0.8248445E-01
       -1   -1    0    0    0  501  0.00000000000E+00  0.00000000000E+00  0.19175676641E+04  0.19175676641E+04  0.50400001928E-02 0.  1.
        1   -1    0    0  501    0  0.00000000000E+00  0.00000000000E+00 -0.11605264089E+04  0.11605264089E+04  0.50400001928E-02 0. -1.
    10030    2    1    2    0    0  0.00000000000E+00  0.00000000000E+00  0.75704125513E+03  0.30780940730E+04  0.29835468255E+04 0.  0.
        3    1    3    3  502    0  0.64696474880E+03  0.27427841961E+03 -0.97908084582E+03  0.12051520031E+04  0.10100000352E+00 0. -1.
       -3    1    3    3    0  502 -0.64696474880E+03 -0.27427841961E+03  0.17361221010E+04  0.18729420699E+04  0.10100000352E+00 0.  1.
</event>
<event>
 5   0  0.5003556E-06  0.2885647E+04  0.7818609E-02  0.8277161E-01
       -2   -1    0    0    0  501  0.00000000000E+00  0.00000000000E+00  0.12988710549E+04  0.12988710549E+04  0.25500000920E-02 0. -1.
        2   -1    0    0  501    0  0.00000000000E+00  0.00000000000E+00 -0.16027305896E+04  0.16027305896E+04  0.25500000920E-02 0.  1.
    10030    2    1    2    0    0  0.00000000000E+00  0.00000000000E+00 -0.30385953471E+03  0.29016016445E+04  0.28856474987E+04 0.  0.
        3    1    3    3  502    0  0.37499656765E+03  0.10707449959E+04  0.74441502748E+03  0.13569344182E+04  0.10100000352E+00 0. -1.
       -3    1    3    3    0  502 -0.37499656765E+03 -0.10707449959E+04 -0.10482745622E+04  0.15446672263E+04  0.10100000352E+00 0.  1.
</event>
<event>
 5   0  0.1700885E-06  0.2987534E+04  0.7818609E-02  0.8247300E-01
       -1   -1    0    0    0  501  0.00000000000E+00  0.00000000000E+00  0.17929266411E+04  0.17929266411E+04  0.50400001928E-02 0.  1.
        1   -1    0    0  501    0  0.00000000000E+00  0.00000000000E+00 -0.12445240537E+04  0.12445240537E+04  0.50400001928E-02 0. -1.
    10030    2    1    2    0    0  0.00000000000E+00  0.00000000000E+00  0.54840258736E+03  0.30374506948E+04  0.29875343221E+04 0.  0.
        1    1    3    3  502    0  0.72241813911E+03 -0.36467421950E+03  0.15507532953E+04  0.17492029719E+04  0.50400001928E-02 0.  1.
       -1    1    3    3    0  502 -0.72241813911E+03  0.36467421950E+03 -0.10023507079E+04  0.12882477230E+04  0.50400001928E-02 0. -1.
</event>
<event>
 5   0  0.1686012E-06  0.3034576E+04  0.7818609E-02  0.8233926E-01
        1   -1    0    0  501    0  0.00000000000E+00  0.00000000000E+00  0.21363091329E+04  0.21363091329E+04  0.50400001928E-02 0. -1.
       -1   -1    0    0    0  501  0.00000000000E+00  0.00000000000E+00 -0.10776355559E+04  0.10776355559E+04  0.50400001928E-02 0.  1.
    10030    2    1    2    0    0  0.00000000000E+00  0.00000000000E+00  0.10586735770E+04  0.32139446888E+04  0.30345758715E+04 0.  0.
        4    1    3    3  502    0  0.24012747903E+03  0.10856202840E+04 -0.56412705439E+03  0.12467852877E+04  0.12699999809E+01 0.  1.
       -4    1    3    3    0  502 -0.24012747903E+03 -0.10856202840E+04  0.16228006313E+04  0.19671594011E+04  0.12699999809E+01 0. -1.
</event>
<event>
 5   0  0.1672907E-06  0.3003797E+04  0.7818609E-02  0.8242647E-01
       -1   -1    0    0    0  501  0.00000000000E+00  0.00000000000E+00  0.10980123736E+04  0.10980123736E+04  0.50400001928E-02 0. -1.
        1   -1    0    0  501    0  0.00000000000E+00  0.00000000000E+00 -0.20543481114E+04  0.20543481114E+04  0.50400001928E-02 0.  1.
    10030    2    1    2    0    0  0.00000000000E+00  0.00000000000E+00 -0.95633573778E+03  0.31523604849E+04  0.30037973606E+04 0.  0.
        5    1    3    3  502    0 -0.11924700758E+04 -0.60393813036E+02  0.47796033886E+03  0.12861183732E+04  0.46999998093E+01 0. -1.
       -5    1    3    3    0  502  0.11924700758E+04  0.60393813036E+02 -0.14342960766E+04  0.18662421118E+04  0.46999998093E+01 0.  1.
</event>
<event>
 5   0  0.5003556E-06  0.3006554E+04  0.7818609E-02  0.8241862E-01
        2   -1    0    0  501    0  0.00000000000E+00  0.00000000000E+00  0.10909321342E+04  0.10909321342E+04  0.25500000920E-02 0.  1.
       -2   -1    0    0    0  501  0.00000000000E+00  0.00000000000E+00 -0.20714782708E+04  0.20714782708E+04  0.25500000920E-02 0. -1.
    10030    2    1    2    0    0  0.00000000000E+00  0.00000000000E+00 -0.98054613654E+03  0.31624104050E+04  0.30065543141E+04 0.  0.
        3    1    3    3  502    0 -0.77441375139E+03  0.52496001902E+03  0.74738969652E+03  0.11974518982E+04  0.10100000352E+00 0.  1.
       -3    1    3    3    0  502  0.77441375139E+03 -0.52496001902E+03 -0.17279358331E+04  0.19649585068E+04  0.10100000352E+00 0. -1.
</event>
<event>
 5   0  0.1700885E-06  0.3075793E+04  0.7818609E-02  0.8222413E-01
       -1   -1    0    0    0  501  0.00000000000E+00  0.00000000000E+00  0.22520640767E+04  0.22520640767E+04  0.50400001928E-02 0. -1.
        1   -1    0    0  501    0  0.00000000000E+00  0.00000000000E+00 -0.10502037456E+04  0.10502037456E+04  0.50400001928E-02 0.  1.
    10030    2    1    2    0    0  0.00000000000E+00  0.00000000000E+00  0.12018603311E+04  0.33022678222E+04  0.30757933146E+04 0.  0.
        1    1    3    3  502    0  0.14106637277E+04  0.10438056090E+03  0.12489079184E+04  0.18869654059E+04  0.50400001928E-02 0. -1.
       -1    1    3    3    0  502 -0.14106637277E+04 -0.10438056090E+03 -0.47047587288E+02  0.14153024164E+04  0.50400001928E-02 0.  1.
</event>
<event>
 5   0  0.4768570E-06  0.3014096E+04  0.7818609E-02  0.8239717E-01
       -2   -1    0    0    0  501  0.00000000000E+00  0.00000000000E+00  0.11390768860E+04  0.11390768860E+04  0.25500000920E-02 0. -1.
        2   -1    0    0  501    0  0.00000000000E+00  0.00000000000E+00 -0.19938890544E+04  0.19938890544E+04  0.25500000920E-02 0.  1.
    10030    2    1    2    0    0  0.00000000000E+00  0.00000000000E+00 -0.85481216842E+03  0.31329659405E+04  0.30140955096E+04 0.  0.
        1    1    3    3  502    0  0.11810875146E+04 -0.47259442460E+03 -0.12672822472E+04  0.17956384663E+04  0.50400001928E-02 0.  1.
       -1    1    3    3    0  502 -0.11810875146E+04  0.47259442460E+03  0.41247007879E+03  0.13373274742E+04  0.50400001928E-02 0. -1.
</event>
<event>
 5   0  0.1686012E-06  0.2991740E+04  0.7818609E-02  0.8246093E-01
        1   -1    0    0  501    0  0.00000000000E+00  0.00000000000E+00  0.27550774621E+04  0.27550774621E+04  0.50400001928E-02 0. -1.
       -1   -1    0    0    0  501  0.00000000000E+00  0.00000000000E+00 -0.81218313353E+03  0.81218313354E+03  0.50400001928E-02 0.  1.
    10030    2    1    2    0    0  0.00000000000E+00  0.00000000000E+00  0.19428943286E+04  0.35672605957E+04  0.29917402603E+04 0.  0.
        4    1    3    3  502    0  0.12396793309E+04 -0.68689639229E+03  0.15420360674E+04  0.20943992798E+04  0.12699999809E+01 0.  1.
       -4    1    3    3    0  502 -0.12396793309E+04  0.68689639229E+03  0.40085826117E+03  0.14728613158E+04  0.12699999809E+01 0. -1.
</event>
<event>
 5   0  0.1672907E-06  0.2992799E+04  0.7818609E-02  0.8245790E-01
        1   -1    0    0  501    0  0.00000000000E+00  0.00000000000E+00  0.72506534382E+03  0.72506534383E+03  0.50400001928E-02 0. -1.
       -1   -1    0    0    0  501  0.00000000000E+00  0.00000000000E+00 -0.30882902133E+04  0.30882902133E+04  0.50400001928E-02 0.  1.
    10030    2    1    2    0    0  0.00000000000E+00  0.00000000000E+00 -0.23632248695E+04  0.38133555572E+04  0.29927994957E+04 0.  0.
        5    1    3    3  502    0 -0.68606886486E+03  0.13201413400E+04 -0.97724119388E+03  0.17800241813E+04  0.46999998093E+01 0. -1.
       -5    1    3    3    0  502  0.68606886486E+03 -0.13201413400E+04 -0.13859836756E+04  0.20333313759E+04  0.46999998093E+01 0.  1.
</event>
<event>
 5   0  0.1734885E-06  0.2948739E+04  0.7818609E-02  0.8258522E-01
        1   -1    0    0  501    0  0.00000000000E+00  0.00000000000E+00  0.12281862960E+04  0.12281862961E+04  0.50400001928E-02 0.  1.
       -1   -1    0    0    0  501  0.00000000000E+00  0.00000000000E+00 -0.17698982745E+04  0.17698982745E+04  0.50400001928E-02 0. -1.
    10030    2    1    2    0    0  0.00000000000E+00  0.00000000000E+00 -0.54171197841E+03  0.29980845705E+04  0.29487385819E+04 0.  0.
        2    1    3    3  502    0  0.34254692218E+03  0.58321598731E+03  0.10611383431E+04  0.12583695264E+04  0.25500000920E-02 0.  1.
       -2    1    3    3    0  502 -0.34254692218E+03 -0.58321598731E+03 -0.16028503215E+04  0.17397150441E+04  0.25500000920E-02 0. -1.
</event>
<event>
 5   0  0.1686012E-06  0.2997963E+04  0.7818609E-02  0.8244313E-01
        1   -1    0    0  501    0  0.00000000000E+00  0.00000000000E+00  0.22782580466E+04  0.22782580466E+04  0.50400001928E-02 0.  1.
       -1   -1    0    0    0  501  0.00000000000E+00  0.00000000000E+00 -0.98625598582E+03  0.98625598584E+03  0.50400001928E-02 0. -1.
    10030    2    1    2    0    0  0.00000000000E+00  0.00000000000E+00  0.12920020607E+04  0.32645140324E+04  0.29979630656E+04 0.  0.
        4    1    3    3  502    0 -0.14789607875E+03  0.29116263524E+03 -0.94704780519E+03  0.10017734716E+04  0.12699999809E+01 0. -1.
       -4    1    3    3    0  502  0.14789607875E+03 -0.29116263524E+03  0.22390498659E+04  0.22627405608E+04  0.12699999809E+01 0.  1.
</event>
<event>
 5   0  0.1672907E-06  0.2982844E+04  0.7818609E-02  0.8248647E-01
        1   -1    0    0  501    0  0.00000000000E+00  0.00000000000E+00  0.18165946976E+04  0.18165946976E+04  0.50400001928E-02 0.  1.
       -1   -1    0    0    0  501  0.00000000000E+00  0.00000000000E+00 -0.12244553948E+04  0.12244553948E+04  0.50400001928E-02 0. -1.
    10030    2    1    2    0    0  0.00000000000E+00  0.00000000000E+00  0.59213930288E+03  0.30410500924E+04  0.29828437288E+04 0.  0.
        5    1    3    3  502    0 -0.25164378698E+03 -0.25056084499E+03  0.17728562091E+04  0.18080781401E+04  0.46999998093E+01 0.  1.
       -5    1    3    3    0  502  0.25164378698E+03  0.25056084499E+03 -0.11807169062E+04  0.12329719523E+04  0.46999998093E+01 0. -1.
</event>
<event>
 5   0  0.4702748E-06  0.3022440E+04  0.7818609E-02  0.8237352E-01
        2   -1    0    0  501    0  0.00000000000E+00  0.00000000000E+00  0.19970872096E+04  0.19970872096E+04  0.25500000920E-02 0. -1.
       -2   -1    0    0    0  501  0.00000000000E+00  0.00000000000E+00 -0.11435582421E+04  0.11435582421E+04  0.25500000920E-02 0.  1.
    10030    2    1    2    0    0  0.00000000000E+00  0.00000000000E+00  0.85352896747E+03  0.31406454517E+04  0.30224397686E+04 0.  0.
        2    1    3    3  502    0 -0.72968626967E+03 -0.12440243330E+04  0.89580116675E+03  0.16977921909E+04  0.25500000920E-02 0. -1.
       -2    1    3    3    0  502  0.72968626967E+03  0.12440243330E+04 -0.42272199274E+02  0.14428532607E+04  0.25500000920E-02 0.  1.
</event>
<event>
 5   0  0.1700885E-06  0.3005074E+04  0.7818609E-02  0.8242283E-01
        1   -1    0    0  501    0  0.00000000000E+00  0.00000000000E+00  0.18283264420E+04  0.18283264420E+04  0.50400001928E-02 0.  1.
       -1   -1    0    0    0  501  0.00000000000E+00  0.00000000000E+00 -0.12348000075E+04  0.12348000075E+04  0.50400001928E-02 0. -1.
    10030    2    1    2    0    0  0.00000000000E+00  0.00000000000E+00  0.59352643453E+03  0.30631264495E+04  0.30050740452E+04 0.  0.
        1    1    3    3  502    0  0.48077342099E+03 -0.30572761904E+03  0.17139472208E+04  0.18061637620E+04  0.50400001928E-02 0.  1.
       -1    1    3    3    0  502 -0.48077342099E+03  0.30572761904E+03 -0.11204207863E+04  0.12569626875E+04  0.50400001928E-02 0. -1.
</event>
<event>
 5   0  0.1700885E-06  0.3012270E+04  0.7818609E-02  0.8240236E-01
       -1   -1    0    0    0  501  0.00000000000E+00  0.00000000000E+00  0.11283596811E+04  0.11283596811E+04  0.50400001928E-02 0.  1.
        1   -1    0    0  501    0  0.00000000000E+00  0.00000000000E+00 -0.20103894757E+04  0.20103894757E+04  0.50400001928E-02 0. -1.
    10030    2    1    2    0    0  0.00000000000E+00  0.00000000000E+00 -0.88202979463E+03  0.31387491568E+04  0.30122698602E+04 0.  0.
        1    1    3    3  502    0  0.48350080615E+03 -0.12409320742E+04 -0.11739384869E+04  0.17753357466E+04  0.50400001928E-02 0. -1.
       -1    1    3    3    0  502 -0.48350080615E+03  0.12409320742E+04  0.29190869224E+03  0.13634134101E+04  0.50400001928E-02 0.  1.
</event>
<event>
 5   0  0.1700885E-06  0.2993497E+04  0.7818609E-02  0.8245590E-01
        1   -1    0    0  501    0  0.00000000000E+00  0.00000000000E+00  0.29070826747E+04  0.29070826747E+04  0.50400001928E-02 0.  1.
       -1   -1    0    0    0  501  0.00000000000E+00  0.00000000000E+00 -0.77062017902E+03  0.77062017903E+03  0.50400001928E-02 0. -1.
    10030    2    1    2    0    0  0.00000000000E+00  0.00000000000E+00  0.21364624957E+04  0.36777028537E+04  0.29934973334E+04 0.  0.
        1    1    3    3  502    0  0.14215920442E+04 -0.46405751982E+03  0.99069290698E+03  0.17938076145E+04  0.50400001928E-02 0. -1.
       -1    1    3    3    0  502 -0.14215920442E+04  0.46405751982E+03  0.11457695887E+04  0.18838952392E+04  0.50400001928E-02 0.  1.
</event>
<event>
 5   0  0.4532420E-06  0.2992838E+04  0.7818609E-02  0.8245779E-01
       -2   -1    0    0    0  501  0.00000000000E+00  0.00000000000E+00  0.11992927278E+04  0.11992927278E+04  0.25500000920E-02 0.  1.
        2   -1    0    0  501    0  0.00000000000E+00  0.00000000000E+00 -0.18671582248E+04  0.18671582248E+04  0.25500000920E-02 0. -1.
    10030    2    1    2    0    0  0.00000000000E+00  0.00000000000E+00 -0.66786549703E+03  0.30664509526E+04  0.29928376372E+04 0.  0.
        4    1    3    3  502    0 -0.30925890091E+03 -0.13071712946E+04 -0.10096460244E+04  0.16803941706E+04  0.12699999809E+01 0. -1.
       -4    1    3    3    0  502  0.30925890091E+03  0.13071712946E+04  0.34178052737E+03  0.13860567820E+04  0.12699999809E+01 0.  1.
</event>
<event>
 5   0  0.1709858E-06  0.2580887E+04  0.7818609E-02  0.8374722E-01
        1   -1    0    0  501    0  0.00000000000E+00  0.00000000000E+00  0.11246149168E+04  0.11246149168E+04  0.50400001928E-02 0.  1.
       -1   -1    0    0    0  501  0.00000000000E+00  0.00000000000E+00 -0.14807244934E+04  0.14807244934E+04  0.50400001928E-02 0. -1.
    10030    2    1    2    0    0  0.00000000000E+00  0.00000000000E+00 -0.35610957660E+03  0.26053394102E+04  0.25808873303E+04 0.  0.
        3    1    3    3  502    0  0.75205811974E+03  0.10227162038E+04 -0.41199377193E+03  0.13346455437E+04  0.10100000352E+00 0.  1.
       -3    1    3    3    0  502 -0.75205811974E+03 -0.10227162038E+04  0.55884195333E+02  0.12706938665E+04  0.10100000352E+00 0. -1.
</event>
<event>
 5   0  0.4532420E-06  0.2926604E+04  0.7818609E-02  0.8265006E-01
       -2   -1    0    0    0  501  0.00000000000E+00  0.00000000000E+00  0.11927078228E+04  0.11927078228E+04  0.25500000920E-02 0.  1.
        2   -1    0    0  501    0  0.00000000000E+00  0.00000000000E+00 -0.17952866631E+04  0.17952866631E+04  0.25500000920E-02 0. -1.
    10030    2    1    2    0    0  0.00000000000E+00  0.00000000000E+00 -0.60257884031E+03  0.29879944860E+04  0.29266037978E+04 0.  0.
        4    1    3    3  502    0  0.48360142828E+03 -0.88357867481E+02  0.11058719277E+04  0.12102197270E+04  0.12699999809E+01 0.  1.
       -4    1    3    3    0  502 -0.48360142828E+03  0.88357867481E+02 -0.17084507680E+04  0.17777747590E+04  0.12699999809E+01 0. -1.
</event>
<event>
 5   0  0.5003556E-06  0.2998240E+04  0.7818609E-02  0.8244234E-01
       -2   -1    0    0    0  501  0.00000000000E+00  0.00000000000E+00  0.10550022156E+04  0.10550022156E+04  0.25500000920E-02 0.  1.
        2   -1    0    0  501    0  0.00000000000E+00  0.00000000000E+00 -0.21301953430E+04  0.21301953430E+04  0.25500000920E-02 0. -1.
    10030    2    1    2    0    0  0.00000000000E+00  0.00000000000E+00 -0.10751931273E+04  0.31851975586E+04  0.29982400214E+04 0.  0.
        3    1    3    3  502    0  0.10037823509E+04 -0.54913125600E+03  0.49142902513E+03  0.12452415995E+04  0.10100000352E+00 0.  1.
       -3    1    3    3    0  502 -0.10037823509E+04  0.54913125600E+03 -0.15666221525E+04  0.19399559591E+04  0.10100000352E+00 0. -1.
</event>
<event>
 5   0  0.4768570E-06  0.2985774E+04  0.7818609E-02  0.8247805E-01
       -2   -1    0    0    0  501  0.00000000000E+00  0.00000000000E+00  0.13049911178E+04  0.13049911178E+04  0.25500000920E-02 0.  1.
        2   -1    0    0  501    0  0.00000000000E+00  0.00000000000E+00 -0.17078362978E+04  0.17078362978E+04  0.25500000920E-02 0. -1.
    10030    2    1    2    0    0  0.00000000000E+00  0.00000000000E+00 -0.40284517999E+03  0.30128274156E+04  0.29857737351E+04 0.  0.
        1    1    3    3  502    0  0.36911919690E+03 -0.44470832167E+03  0.11875293338E+04  0.13206969340E+04  0.50400001928E-02 0.  1.
       -1    1    3    3    0  502 -0.36911919690E+03  0.44470832167E+03 -0.15903745137E+04  0.16921304816E+04  0.50400001928E-02 0. -1.
</event>
<event>
 5   0  0.4532420E-06  0.3008068E+04  0.7818609E-02  0.8241431E-01
        2   -1    0    0  501    0  0.00000000000E+00  0.00000000000E+00  0.16365885580E+04  0.16365885580E+04  0.25500000920E-02 0.  1.
       -2   -1    0    0    0  501  0.00000000000E+00  0.00000000000E+00 -0.13822160014E+04  0.13822160014E+04  0.25500000920E-02 0. -1.
    10030    2    1    2    0    0  0.00000000000E+00  0.00000000000E+00  0.25437255664E+03  0.30188045594E+04  0.30080684119E+04 0.  0.
        4    1    3    3  502    0 -0.32955163781E+03 -0.36878260784E+01 -0.13455319609E+04  0.13853070969E+04  0.12699999809E+01 0. -1.
       -4    1    3    3    0  502  0.32955163781E+03  0.36878260784E+01  0.15999045175E+04  0.16334974625E+04  0.12699999809E+01 0.  1.
</event>
<event>
 5   0  0.1709858E-06  0.3002232E+04  0.7818609E-02  0.8243094E-01
       -1   -1    0    0    0  501  0.00000000000E+00  0.00000000000E+00  0.13215215798E+04  0.13215215798E+04  0.50400001928E-02 0. -1.
        1   -1    0    0  501    0  0.00000000000E+00  0.00000000000E+00 -0.17051174069E+04  0.17051174069E+04  0.50400001928E-02 0.  1.
    10030    2    1    2    0    0  0.00000000000E+00  0.00000000000E+00 -0.38359582712E+03  0.30266389868E+04  0.30022321359E+04 0.  0.
        3    1    3    3  502    0  0.13775034064E+04 -0.57805844745E+03 -0.43351952660E+02  0.14945054718E+04  0.10100000352E+00 0. -1.
       -3    1    3    3    0  502 -0.13775034064E+04  0.57805844745E+03 -0.34024387446E+03  0.15321335149E+04  0.10100000352E+00 0.  1.
</event>
<event>
 5   0  0.5003556E-06  0.2980685E+04  0.7818609E-02  0.8249268E-01
        2   -1    0    0  501    0  0.00000000000E+00  0.00000000000E+00  0.15943050176E+04  0.15943050176E+04  0.25500000920E-02 0. -1.
       -2   -1    0    0    0  501  0.00000000000E+00  0.00000000000E+00 -0.13931593398E+04  0.13931593398E+04  0.25500000920E-02 0.  1.
    10030    2    1    2    0    0  0.00000000000E+00  0.00000000000E+00  0.20114567783E+03  0.29874643574E+04  0.29806851063E+04 0.  0.
        3    1    3    3  502    0 -0.46112137943E+03 -0.60788359719E+03 -0.11825597750E+04  0.14073389875E+04  0.10100000352E+00 0.  1.
       -3    1    3    3    0  502  0.46112137943E+03  0.60788359719E+03  0.13837054528E+04  0.15801253699E+04  0.10100000352E+00 0. -1.
</event>
<event>
 5   0  0.1709858E-06  0.3051112E+04  0.7818609E-02  0.8229284E-01
       -1   -1    0    0    0  501  0.00000000000E+00  0.00000000000E+00  0.15328370678E+04  0.15328370678E+04  0.50400001928E-02 0.  1.
        1   -1    0    0  501    0  0.00000000000E+00  0.00000000000E+00 -0.15183094622E+04  0.15183094623E+04  0.50400001928E-02 0. -1.
    10030    2    1    2    0    0  0.00000000000E+00  0.00000000000E+00  0.14527605582E+02  0.30511465301E+04  0.30511119443E+04 0.  0.
        3    1    3    3  502    0 -0.13166473544E+04  0.72834610464E+03 -0.24427972100E+03  0.15243755759E+04  0.10100000352E+00 0.  1.
       -3    1    3    3    0  502  0.13166473544E+04 -0.72834610464E+03  0.25880732658E+03  0.15267709542E+04  0.10100000352E+00 0. -1.
</event>
<event>
 5   0  0.4532420E-06  0.2983262E+04  0.7818609E-02  0.8248527E-01
       -2   -1    0    0    0  501  0.00000000000E+00  0.00000000000E+00  0.11031079709E+04  0.11031079709E+04  0.25500000920E-02 0. -1.
        2   -1    0    0  501    0  0.00000000000E+00  0.00000000000E+00 -0.20169952450E+04  0.20169952450E+04  0.25500000920E-02 0.  1.
    10030    2    1    2    0    0  0.00000000000E+00  0.00000000000E+00 -0.91388727412E+03  0.31201032160E+04  0.29832623298E+04 0.  0.
        4    1    3    3  502    0  0.10256651236E+04  0.64899293005E+03 -0.13637681118E+04  0.18256631247E+04  0.12699999809E+01 0.  1.
       -4    1    3    3    0  502 -0.10256651236E+04 -0.64899293005E+03  0.44988083770E+03  0.12944400913E+04  0.12699999809E+01 0. -1.
</event>
<event>
 5   0  0.4702748E-06  0.2992085E+04  0.7818609E-02  0.8245995E-01
       -2   -1    0    0    0  501  0.00000000000E+00  0.00000000000E+00  0.15834966302E+04  0.15834966302E+04  0.25500000920E-02 0. -1.
        2   -1    0    0  501    0  0.00000000000E+00  0.00000000000E+00 -0.14134184719E+04  0.14134184719E+04  0.25500000920E-02 0.  1.
    10030    2    1    2    0    0  0.00000000000E+00  0.00000000000E+00  0.17007815831E+03  0.29969151021E+04  0.29920851507E+04 0.  0.
        2    1    3    3  502    0  0.65826612997E+03  0.13179811730E+04 -0.17567846683E+03  0.14836615496E+04  0.25500000920E-02 0. -1.
       -2    1    3    3    0  502 -0.65826612997E+03 -0.13179811730E+04  0.34575662513E+03  0.15132535524E+04  0.25500000920E-02 0.  1.
</event>
<event>
 5   0  0.4768570E-06  0.3035299E+04  0.7818609E-02  0.8233722E-01
       -2   -1    0    0    0  501  0.00000000000E+00  0.00000000000E+00  0.98588295052E+03  0.98588295053E+03  0.25500000920E-02 0. -1.
        2   -1    0    0  501    0  0.00000000000E+00  0.00000000000E+00 -0.23362405116E+04  0.23362405116E+04  0.25500000920E-02 0.  1.
    10030    2    1    2    0    0  0.00000000000E+00  0.00000000000E+00 -0.13503575610E+04  0.33221234621E+04  0.30352987917E+04 0.  0.
        1    1    3    3  502    0  0.41197101747E+03  0.14110418641E+04 -0.26201484810E+03  0.14931212416E+04  0.50400001928E-02 0. -1.
       -1    1    3    3    0  502 -0.41197101747E+03 -0.14110418641E+04 -0.10883427129E+04  0.18290022204E+04  0.50400001928E-02 0.  1.
</event>
<event>
 5   0  0.5003556E-06  0.2974166E+04  0.7818609E-02  0.8251147E-01
        2   -1    0    0  501    0  0.00000000000E+00  0.00000000000E+00  0.16344259811E+04  0.16344259811E+04  0.25500000920E-02 0.  1.
       -2   -1    0    0    0  501  0.00000000000E+00  0.00000000000E+00 -0.13530228022E+04  0.13530228022E+04  0.25500000920E-02 0. -1.
    10030    2    1    2    0    0  0.00000000000E+00  0.00000000000E+00  0.28140317887E+03  0.29874487833E+04  0.29741658467E+04 0.  0.
        3    1    3    3  502    0 -0.26369057827E+03  0.12100244283E+03  0.16057219627E+04  0.16317222018E+04  0.10100000352E+00 0.  1.
       -3    1    3    3    0  502  0.26369057827E+03 -0.12100244283E+03 -0.13243187838E+04  0.13557265814E+04  0.10100000352E+00 0. -1.
</event>
<event>
 5   0  0.4702748E-06  0.3029247E+04  0.7818609E-02  0.8235428E-01
        2   -1    0    0  501    0  0.00000000000E+00  0.00000000000E+00  0.18536860493E+04  0.18536860493E+04  0.25500000920E-02 0.  1.
       -2   -1    0    0    0  501  0.00000000000E+00  0.00000000000E+00 -0.12375796085E+04  0.12375796085E+04  0.25500000920E-02 0. -1.
    10030    2    1    2    0    0  0.00000000000E+00  0.00000000000E+00  0.61610644085E+03  0.30912656578E+04  0.30292468075E+04 0.  0.
        2    1    3    3  502    0 -0.46667266240E+03 -0.56942859436E+03 -0.10426972766E+04  0.12764207412E+04  0.25500000920E-02 0. -1.
       -2    1    3    3    0  502  0.46667266240E+03  0.56942859436E+03  0.16588037175E+04  0.18148449165E+04  0.25500000920E-02 0.  1.
</event>
<event>
 5   0  0.1686012E-06  0.2963918E+04  0.7818609E-02  0.8254110E-01
       -1   -1    0    0    0  501  0.00000000000E+00  0.00000000000E+00  0.12871508444E+04  0.12871508444E+04  0.50400001928E-02 0.  1.
        1   -1    0    0  501    0  0.00000000000E+00  0.00000000000E+00 -0.17062508758E+04  0.17062508758E+04  0.50400001928E-02 0. -1.
    10030    2    1    2    0    0  0.00000000000E+00  0.00000000000E+00 -0.41910003140E+03  0.29934017202E+04  0.29639178501E+04 0.  0.
        4    1    3    3  502    0  0.73994007691E+02 -0.14692215943E+04 -0.39053486999E+03  0.15220401781E+04  0.12699999809E+01 0.  1.
       -4    1    3    3    0  502 -0.73994007691E+02  0.14692215943E+04 -0.28565161404E+02  0.14713615421E+04  0.12699999809E+01 0. -1.
</event>
<event>
 5   0  0.1734885E-06  0.2976954E+04  0.7818609E-02  0.8250343E-01
       -1   -1    0    0    0  501  0.00000000000E+00  0.00000000000E+00  0.96222626347E+03  0.96222626349E+03  0.50400001928E-02 0.  1.
        1   -1    0    0  501    0  0.00000000000E+00  0.00000000000E+00 -0.23025392880E+04  0.23025392880E+04  0.50400001928E-02 0. -1.
    10030    2    1    2    0    0  0.00000000000E+00  0.00000000000E+00 -0.13403130245E+04  0.32647655515E+04  0.29769539974E+04 0.  0.
        2    1    3    3  502    0  0.35546233139E+03  0.12317637145E+04  0.15924708696E+03  0.12918803938E+04  0.25500000920E-02 0.  1.
       -2    1    3    3    0  502 -0.35546233139E+03 -0.12317637145E+04 -0.14995601115E+04  0.19728851577E+04  0.25500000920E-02 0. -1.
</event>
<event>
 5   0  0.1686012E-06  0.3042049E+04  0.7818609E-02  0.8231825E-01
        1   -1    0    0  501    0  0.00000000000E+00  0.00000000000E+00  0.20234762741E+04  0.20234762741E+04  0.50400001928E-02 0.  1.
       -1   -1    0    0    0  501  0.00000000000E+00  0.00000000000E+00 -0.11433368325E+04  0.11433368325E+04  0.50400001928E-02 0. -1.
    10030    2    1    2    0    0  0.00000000000E+00  0.00000000000E+00  0.88013944163E+03  0.31668131066E+04  0.30420486215E+04 0.  0.
        4    1    3    3  502    0 -0.13080497206E+04 -0.57795349612E+03  0.97948041466E+03  0.17333227659E+04  0.12699999809E+01 0. -1.
       -4    1    3    3    0  502  0.13080497206E+04  0.57795349612E+03 -0.99340973026E+02  0.14334903407E+04  0.12699999809E+01 0.  1.
</event>
<event>
 5   0  0.1672907E-06  0.3096190E+04  0.7818609E-02  0.8216784E-01
       -1   -1    0    0    0  501  0.00000000000E+00  0.00000000000E+00  0.20787734046E+04  0.20787734046E+04  0.50400001928E-02 0. -1.
        1   -1    0    0  501    0  0.00000000000E+00  0.00000000000E+00 -0.11528905262E+04  0.11528905262E+04  0.50400001928E-02 0.  1.
    10030    2    1    2    0    0  0.00000000000E+00  0.00000000000E+00  0.92588287840E+03  0.32316639309E+04  0.30961900228E+04 0.  0.
        5    1    3    3  502    0  0.88469507500E+03  0.94493544463E+03 -0.42332134593E+03  0.13619146163E+04  0.46999998093E+01 0. -1.
       -5    1    3    3    0  502 -0.88469507500E+03 -0.94493544463E+03  0.13492042243E+04  0.18697493145E+04  0.46999998093E+01 0.  1.
</event>
<event>
 5   0  0.1672907E-06  0.3020707E+04  0.7818609E-02  0.8237842E-01
       -1   -1    0    0    0  501  0.00000000000E+00  0.00000000000E+00  0.91198109760E+03  0.91198109761E+03  0.50400001928E-02 0. -1.
        1   -1    0    0  501    0  0.00000000000E+00  0.00000000000E+00 -0.25013323147E+04  0.25013323147E+04  0.50400001928E-02 0.  1.
    10030    2    1    2    0    0  0.00000000000E+00  0.00000000000E+00 -0.15893512171E+04  0.34133134123E+04  0.30207070628E+04 0.  0.
        5    1    3    3  502    0  0.27291670440E+03 -0.86386320589E+03  0.57086256443E+03  0.10708171289E+04  0.46999998093E+01 0. -1.
       -5    1    3    3    0  502 -0.27291670440E+03  0.86386320589E+03 -0.21602137815E+04  0.23424962834E+04  0.46999998093E+01 0.  1.
</event>
<event>
 5   0  0.5003556E-06  0.2990161E+04  0.7818609E-02  0.8246546E-01
       -2   -1    0    0    0  501  0.00000000000E+00  0.00000000000E+00  0.87587632304E+03  0.87587632305E+03  0.25500000920E-02 0. -1.
        2   -1    0    0  501    0  0.00000000000E+00  0.00000000000E+00 -0.25520330424E+04  0.25520330424E+04  0.25500000920E-02 0.  1.
    10030    2    1    2    0    0  0.00000000000E+00  0.00000000000E+00 -0.16761567193E+04  0.34279093654E+04  0.29901607431E+04 0.  0.
        3    1    3    3  502    0  0.82606109340E+03  0.12352566041E+04 -0.64960334099E+03  0.16217953998E+04  0.10100000352E+00 0. -1.
       -3    1    3    3    0  502 -0.82606109340E+03 -0.12352566041E+04 -0.10265533783E+04  0.18061139656E+04  0.10100000352E+00 0.  1.
</event>
<event>
 5   0  0.5003556E-06  0.2882856E+04  0.7818609E-02  0.8277997E-01
       -2   -1    0    0    0  501  0.00000000000E+00  0.00000000000E+00  0.69442257952E+03  0.69442257952E+03  0.25500000920E-02 0. -1.
        2   -1    0    0  501    0  0.00000000000E+00  0.00000000000E+00 -0.29920023834E+04  0.29920023834E+04  0.25500000920E-02 0.  1.
    10030    2    1    2    0    0  0.00000000000E+00  0.00000000000E+00 -0.22975798038E+04  0.36864249629E+04  0.28828555378E+04 0.  0.
        3    1    3    3  502    0  0.79301340028E+03  0.61160824762E+03 -0.24744803428E+04  0.26694546032E+04  0.10100000352E+00 0.  1.
       -3    1    3    3    0  502 -0.79301340028E+03 -0.61160824762E+03  0.17690053894E+03  0.10169703597E+04  0.10100000352E+00 0. -1.
</event>
<event>
 5   0  0.1545375E-06  0.2694696E+04  0.7818609E-02  0.8336728E-01
       -3   -1    0    0    0  501  0.00000000000E+00  0.00000000000E+00  0.11916958408E+04  0.11916958451E+04  0.10100000352E+00 0.  1.
        3   -1    0    0  501    0  0.00000000000E+00  0.00000000000E+00 -0.15233308188E+04  0.15233308222E+04  0.10100000352E+00 0. -1.
    10030    2    1    2    0    0  0.00000000000E+00  0.00000000000E+00 -0.33163497799E+03  0.27150266673E+04  0.26946962807E+04 0.  0.
        4    1    3    3  502    0 -0.84260587618E+02 -0.13059826546E+04  0.15699775082E+03  0.13180821095E+04  0.12699999809E+01 0. -1.
       -4    1    3    3    0  502  0.84260587618E+02  0.13059826546E+04 -0.48863272881E+03  0.13969445577E+04  0.12699999809E+01 0.  1.
</event>
<event>
 5   0  0.4768570E-06  0.2939680E+04  0.7818609E-02  0.8261168E-01
        2   -1    0    0  501    0  0.00000000000E+00  0.00000000000E+00  0.19041215770E+04  0.19041215770E+04  0.25500000920E-02 0. -1.
       -2   -1    0    0    0  501  0.00000000000E+00  0.00000000000E+00 -0.11346069900E+04  0.11346069900E+04  0.25500000920E-02 0.  1.
    10030    2    1    2    0    0  0.00000000000E+00  0.00000000000E+00  0.76951458698E+03  0.30387285671E+04  0.29396800174E+04 0.  0.
        1    1    3    3  502    0 -0.97490303614E+03  0.24908613306E+03  0.14922816871E+04  0.17998290100E+04  0.50400001928E-02 0. -1.
       -1    1    3    3    0  502  0.97490303614E+03 -0.24908613306E+03 -0.72276710009E+03  0.12388995571E+04  0.50400001928E-02 0.  1.
</event>
<event>
 5   0  0.1734885E-06  0.2859948E+04  0.7818609E-02  0.8284895E-01
       -1   -1    0    0    0  501  0.00000000000E+00  0.00000000000E+00  0.12127513927E+04  0.12127513927E+04  0.50400001928E-02 0. -1.
        1   -1    0    0  501    0  0.00000000000E+00  0.00000000000E+00 -0.16861041798E+04  0.16861041798E+04  0.50400001928E-02 0.  1.
    10030    2    1    2    0    0  0.00000000000E+00  0.00000000000E+00 -0.47335278709E+03  0.28988555725E+04  0.28599476864E+04 0.  0.
        2    1    3    3  502    0  0.45326139443E+03 -0.78430939877E+03  0.88482916144E+03  0.12662976623E+04  0.25500000920E-02 0. -1.
       -2    1    3    3    0  502 -0.45326139443E+03  0.78430939877E+03 -0.13581819485E+04  0.16325579102E+04  0.25500000920E-02 0.  1.
</event>
<event>
 5   0  0.5003556E-06  0.2997387E+04  0.7818609E-02  0.8244477E-01
        2   -1    0    0  501    0  0.00000000000E+00  0.00000000000E+00  0.23436581108E+04  0.23436581108E+04  0.25500000920E-02 0.  1.
       -2   -1    0    0    0  501  0.00000000000E+00  0.00000000000E+00 -0.95836594421E+03  0.95836594421E+03  0.25500000920E-02 0. -1.
    10030    2    1    2    0    0  0.00000000000E+00  0.00000000000E+00  0.13852921666E+04  0.33020240550E+04  0.29973869408E+04 0.  0.
        3    1    3    3  502    0  0.42921343252E+03  0.66617575510E+03 -0.70866894540E+03  0.10631208735E+04  0.10100000352E+00 0. -1.
       -3    1    3    3    0  502 -0.42921343252E+03 -0.66617575510E+03  0.20939611120E+04  0.22389031815E+04  0.10100000352E+00 0.  1.
</event>
<event>
 5   0  0.4532420E-06  0.3031749E+04  0.7818609E-02  0.8234722E-01
       -2   -1    0    0    0  501  0.00000000000E+00  0.00000000000E+00  0.15900706794E+04  0.15900706794E+04  0.25500000920E-02 0. -1.
        2   -1    0    0  501    0  0.00000000000E+00  0.00000000000E+00 -0.14451408859E+04  0.14451408859E+04  0.25500000920E-02 0.  1.
    10030    2    1    2    0    0  0.00000000000E+00  0.00000000000E+00  0.14492979352E+03  0.30352115653E+04  0.30317494291E+04 0.  0.
        4    1    3    3  502    0  0.38821644791E+03 -0.14078028506E+04 -0.33451336103E+03  0.14981727798E+04  0.12699999809E+01 0.  1.
       -4    1    3    3    0  502 -0.38821644791E+03  0.14078028506E+04  0.47944315455E+03  0.15370387854E+04  0.12699999809E+01 0. -1.
</event>
<event>
 5   0  0.4935331E-06  0.3012642E+04  0.7818609E-02  0.8240130E-01
        2   -1    0    0  501    0  0.00000000000E+00  0.00000000000E+00  0.20176882769E+04  0.20176882769E+04  0.25500000920E-02 0.  1.
       -2   -1    0    0    0  501  0.00000000000E+00  0.00000000000E+00 -0.11245560696E+04  0.11245560696E+04  0.25500000920E-02 0. -1.
    10030    2    1    2    0    0  0.00000000000E+00  0.00000000000E+00  0.89313220730E+03  0.31422443465E+04  0.30126424271E+04 0.  0.
        5    1    3    3  502    0  0.12283989914E+04  0.40990547736E+03 -0.35594556857E+03  0.13430211912E+04  0.46999998093E+01 0. -1.
       -5    1    3    3    0  502 -0.12283989914E+04 -0.40990547736E+03  0.12490777759E+04  0.17992231553E+04  0.46999998093E+01 0.  1.
</event>
<event>
 5   0  0.1700885E-06  0.2983434E+04  0.7818609E-02  0.8248477E-01
        1   -1    0    0  501    0  0.00000000000E+00  0.00000000000E+00  0.16131815472E+04  0.16131815472E+04  0.50400001928E-02 0.  1.
       -1   -1    0    0    0  501  0.00000000000E+00  0.00000000000E+00 -0.13793980526E+04  0.13793980527E+04  0.50400001928E-02 0. -1.
    10030    2    1    2    0    0  0.00000000000E+00  0.00000000000E+00  0.23378349458E+03  0.29925795999E+04  0.29834339174E+04 0.  0.
        1    1    3    3  502    0  0.91586604183E+02 -0.11963850398E+04 -0.77210625262E+03  0.14268403326E+04  0.50400001928E-02 0. -1.
       -1    1    3    3    0  502 -0.91586604183E+02  0.11963850398E+04  0.10058897472E+04  0.15657392672E+04  0.50400001928E-02 0.  1.
</event>
<event>
 5   0  0.1709858E-06  0.2999604E+04  0.7818609E-02  0.8243844E-01
       -1   -1    0    0    0  501  0.00000000000E+00  0.00000000000E+00  0.95124891668E+03  0.95124891670E+03  0.50400001928E-02 0.  1.
        1   -1    0    0  501    0  0.00000000000E+00  0.00000000000E+00 -0.23646869692E+04  0.23646869692E+04  0.50400001928E-02 0. -1.
    10030    2    1    2    0    0  0.00000000000E+00  0.00000000000E+00 -0.14134380525E+04  0.33159358859E+04  0.29996039191E+04 0.  0.
        3    1    3    3  502    0  0.34428193303E+03 -0.14397216889E+04 -0.44031211712E+03  0.15444103605E+04  0.10100000352E+00 0. -1.
       -3    1    3    3    0  502 -0.34428193303E+03  0.14397216889E+04 -0.97312593542E+03  0.17715255254E+04  0.10100000352E+00 0.  1.
</event>
<event>
 5   0  0.1686012E-06  0.2978199E+04  0.7818609E-02  0.8249984E-01
       -1   -1    0    0    0  501  0.00000000000E+00  0.00000000000E+00  0.12244548589E+04  0.12244548589E+04  0.50400001928E-02 0.  1.
        1   -1    0    0  501    0  0.00000000000E+00  0.00000000000E+00 -0.18109426682E+04  0.18109426682E+04  0.50400001928E-02 0. -1.
    10030    2    1    2    0    0  0.00000000000E+00  0.00000000000E+00 -0.58648780923E+03  0.30353975271E+04  0.29781991534E+04 0.  0.
        4    1    3    3  502    0  0.14040629151E+04 -0.69292550413E+02  0.20733221279E+03  0.14209793758E+04  0.12699999809E+01 0.  1.
       -4    1    3    3    0  502 -0.14040629151E+04  0.69292550413E+02 -0.79382002202E+03  0.16144181513E+04  0.12699999809E+01 0. -1.
</event>
<event>
 5   0  0.1672907E-06  0.2880838E+04  0.7818609E-02  0.8278602E-01
        1   -1    0    0  501    0  0.00000000000E+00  0.00000000000E+00  0.16974692822E+04  0.16974692822E+04  0.50400001928E-02 0.  1.
       -1   -1    0    0    0  501  0.00000000000E+00  0.00000000000E+00 -0.12222943385E+04  0.12222943386E+04  0.50400001928E-02 0. -1.
    10030    2    1    2    0    0  0.00000000000E+00  0.00000000000E+00  0.47517494362E+03  0.29197636207E+04  0.28808381374E+04 0.  0.
        5    1    3    3  502    0 -0.18530780304E+03 -0.13376927225E+04  0.74538038166E+03  0.15425222219E+04  0.46999998093E+01 0. -1.
       -5    1    3    3    0  502  0.18530780304E+03  0.13376927225E+04 -0.27020543804E+03  0.13772413988E+04  0.46999998093E+01 0.  1.
</event>
<event>
 5   0  0.5003556E-06  0.3014199E+04  0.7818609E-02  0.8239688E-01
        2   -1    0    0  501    0  0.00000000000E+00  0.00000000000E+00  0.14486014105E+04  0.14486014105E+04  0.25500000920E-02 0.  1.
       -2   -1    0    0    0  501  0.00000000000E+00  0.00000000000E+00 -0.15679596813E+04  0.15679596813E+04  0.25500000920E-02 0. -1.
    10030    2    1    2    0    0  0.00000000000E+00  0.00000000000E+00 -0.11935827076E+03  0.30165610918E+04  0.30141988029E+04 0.  0.
        3    1    3    3  502    0  0.29389365478E+03 -0.10528535962E+04 -0.10980251236E+04  0.15493654693E+04  0.10100000352E+00 0. -1.
       -3    1    3    3    0  502 -0.29389365478E+03  0.10528535962E+04  0.97866685289E+03  0.14671956224E+04  0.10100000352E+00 0.  1.
</event>
<event>
 5   0  0.1734885E-06  0.2993394E+04  0.7818609E-02  0.8245620E-01
        1   -1    0    0  501    0  0.00000000000E+00  0.00000000000E+00  0.12850842957E+04  0.12850842957E+04  0.50400001928E-02 0. -1.
       -1   -1    0    0    0  501  0.00000000000E+00  0.00000000000E+00 -0.17431557965E+04  0.17431557965E+04  0.50400001928E-02 0.  1.
    10030    2    1    2    0    0  0.00000000000E+00  0.00000000000E+00 -0.45807150087E+03  0.30282400922E+04  0.29933941532E+04 0.  0.
        2    1    3    3  502    0  0.63881443294E+03  0.19225900921E+03 -0.15844287758E+04  0.17191457041E+04  0.25500000920E-02 0.  1.
       -2    1    3    3    0  502 -0.63881443294E+03 -0.19225900921E+03  0.11263572749E+04  0.13090943881E+04  0.25500000920E-02 0. -1.
</event>
<event>
 5   0  0.1686012E-06  0.2995145E+04  0.7818609E-02  0.8245119E-01
       -1   -1    0    0    0  501  0.00000000000E+00  0.00000000000E+00  0.11064758135E+04  0.11064758135E+04  0.50400001928E-02 0. -1.
        1   -1    0    0  501    0  0.00000000000E+00  0.00000000000E+00 -0.20269063685E+04  0.20269063685E+04  0.50400001928E-02 0.  1.
    10030    2    1    2    0    0  0.00000000000E+00  0.00000000000E+00 -0.92043055501E+03  0.31333821819E+04  0.29951446528E+04 0.  0.
        4    1    3    3  502    0  0.27056699438E+01  0.69318079426E+02 -0.20252240402E+04  0.20264121848E+04  0.12699999809E+01 0.  1.
       -4    1    3    3    0  502 -0.27056699438E+01 -0.69318079426E+02  0.11047934852E+04  0.11069699971E+04  0.12699999809E+01 0. -1.
</event>
<event>
 5   0  0.1709858E-06  0.3012825E+04  0.7818609E-02  0.8240078E-01
        1   -1    0    0  501    0  0.00000000000E+00  0.00000000000E+00  0.14097388593E+04  0.14097388593E+04  0.50400001928E-02 0.  1.
       -1   -1    0    0    0  501  0.00000000000E+00  0.00000000000E+00 -0.16097155926E+04  0.16097155926E+04  0.50400001928E-02 0. -1.
    10030    2    1    2    0    0  0.00000000000E+00  0.00000000000E+00 -0.19997673329E+03  0.30194544519E+04  0.30128250020E+04 0.  0.
        3    1    3    3  502    0 -0.10788415062E+04  0.32415097161E+03 -0.11023419837E+04  0.15761125300E+04  0.10100000352E+00 0. -1.
       -3    1    3    3    0  502  0.10788415062E+04 -0.32415097161E+03  0.90236525042E+03  0.14433419218E+04  0.10100000352E+00 0.  1.
</event>
<event>
 5   0  0.1686012E-06  0.3016114E+04  0.7818609E-02  0.8239144E-01
        1   -1    0    0  501    0  0.00000000000E+00  0.00000000000E+00  0.20983550847E+04  0.20983550847E+04  0.50400001928E-02 0. -1.
       -1   -1    0    0    0  501  0.00000000000E+00  0.00000000000E+00 -0.10838180986E+04  0.10838180986E+04  0.50400001928E-02 0.  1.
    10030    2    1    2    0    0  0.00000000000E+00  0.00000000000E+00  0.10145369861E+04  0.31821731833E+04  0.30161135377E+04 0.  0.
        4    1    3    3  502    0  0.92058652975E+03  0.47105298847E+03  0.16653656159E+04  0.19603098542E+04  0.12699999809E+01 0. -1.
       -4    1    3    3    0  502 -0.92058652975E+03 -0.47105298847E+03 -0.65082862982E+03  0.12218633291E+04  0.12699999809E+01 0.  1.
</event>
<event>
 5   0  0.4702748E-06  0.3009899E+04  0.7818609E-02  0.8240910E-01
       -2   -1    0    0    0  501  0.00000000000E+00  0.00000000000E+00  0.12694833082E+04  0.12694833082E+04  0.25500000920E-02 0. -1.
        2   -1    0    0  501    0  0.00000000000E+00  0.00000000000E+00 -0.17840899518E+04  0.17840899518E+04  0.25500000920E-02 0.  1.
    10030    2    1    2    0    0  0.00000000000E+00  0.00000000000E+00 -0.51460664358E+03  0.30535732600E+04  0.30098986124E+04 0.  0.
        2    1    3    3  502    0 -0.11935642705E+04 -0.86819543331E+03  0.41096292493E+02  0.14764985213E+04  0.25500000920E-02 0. -1.
       -2    1    3    3    0  502  0.11935642705E+04  0.86819543331E+03 -0.55570293607E+03  0.15770747387E+04  0.25500000920E-02 0.  1.
</event>
<event>
 5   0  0.4935331E-06  0.2955027E+04  0.7818609E-02  0.8256691E-01
        2   -1    0    0  501    0  0.00000000000E+00  0.00000000000E+00  0.19951433707E+04  0.19951433707E+04  0.25500000920E-02 0. -1.
       -2   -1    0    0    0  501  0.00000000000E+00  0.00000000000E+00 -0.10941804083E+04  0.10941804083E+04  0.25500000920E-02 0.  1.
    10030    2    1    2    0    0  0.00000000000E+00  0.00000000000E+00  0.90096296237E+03  0.30893237790E+04  0.29550274368E+04 0.  0.
        5    1    3    3  502    0  0.77873482345E+01 -0.81235363456E+03 -0.83972246773E+03  0.11683899106E+04  0.46999998093E+01 0.  1.
       -5    1    3    3    0  502 -0.77873482345E+01  0.81235363456E+03  0.17406854301E+04  0.19209338684E+04  0.46999998093E+01 0. -1.
</event>
<event>
 5   0  0.5003556E-06  0.2981384E+04  0.7818609E-02  0.8249067E-01
        2   -1    0    0  501    0  0.00000000000E+00  0.00000000000E+00  0.11745998193E+04  0.11745998193E+04  0.25500000920E-02 0.  1.
       -2   -1    0    0    0  501  0.00000000000E+00  0.00000000000E+00 -0.18918467614E+04  0.18918467614E+04  0.25500000920E-02 0. -1.
    10030    2    1    2    0    0  0.00000000000E+00  0.00000000000E+00 -0.71724694212E+03  0.30664465807E+04  0.29813841511E+04 0.  0.
        3    1    3    3  502    0  0.52691621144E+03  0.19740490162E+03  0.10611793482E+04  0.12011290557E+04  0.10100000352E+00 0.  1.
       -3    1    3    3    0  502 -0.52691621144E+03 -0.19740490162E+03 -0.17784262903E+04  0.18653175251E+04  0.10100000352E+00 0. -1.
</event>
<event>
 5   0  0.4935331E-06  0.3038206E+04  0.7818609E-02  0.8232904E-01
       -2   -1    0    0    0  501  0.00000000000E+00  0.00000000000E+00  0.12258171675E+04  0.12258171675E+04  0.25500000920E-02 0. -1.
        2   -1    0    0  501    0  0.00000000000E+00  0.00000000000E+00 -0.18825592684E+04  0.18825592684E+04  0.25500000920E-02 0.  1.
    10030    2    1    2    0    0  0.00000000000E+00  0.00000000000E+00 -0.65674210090E+03  0.31083764359E+04  0.30382057008E+04 0.  0.
        5    1    3    3  502    0 -0.10434563155E+03  0.13974614244E+04  0.27157248827E+03  0.14274313118E+04  0.46999998093E+01 0. -1.
       -5    1    3    3    0  502  0.10434563155E+03 -0.13974614244E+04 -0.92831458916E+03  0.16809451241E+04  0.46999998093E+01 0.  1.
</event>
<event>
 5   0  0.1686012E-06  0.2929189E+04  0.7818609E-02  0.8264246E-01
       -1   -1    0    0    0  501  0.00000000000E+00  0.00000000000E+00  0.10534872377E+04  0.10534872377E+04  0.50400001928E-02 0. -1.
        1   -1    0    0  501    0  0.00000000000E+00  0.00000000000E+00 -0.20361299050E+04  0.20361299050E+04  0.50400001928E-02 0.  1.
    10030    2    1    2    0    0  0.00000000000E+00  0.00000000000E+00 -0.98264266734E+03  0.30896171427E+04  0.29291888770E+04 0.  0.
        4    1    3    3  502    0  0.27061472779E+03 -0.11384015745E+04  0.43774069638E+03  0.12493234193E+04  0.12699999809E+01 0. -1.
       -4    1    3    3    0  502 -0.27061472779E+03  0.11384015745E+04 -0.14203833637E+04  0.18402937235E+04  0.12699999809E+01 0.  1.
</event>
<event>
 5   0  0.1672907E-06  0.3000917E+04  0.7818609E-02  0.8243469E-01
       -1   -1    0    0    0  501  0.00000000000E+00  0.00000000000E+00  0.11622542796E+04  0.11622542796E+04  0.50400001928E-02 0.  1.
        1   -1    0    0  501    0  0.00000000000E+00  0.00000000000E+00 -0.19370771034E+04  0.19370771034E+04  0.50400001928E-02 0. -1.
    10030    2    1    2    0    0  0.00000000000E+00  0.00000000000E+00 -0.77482282384E+03  0.30993313831E+04  0.30009172954E+04 0.  0.
        5    1    3    3  502    0 -0.87132316991E+03 -0.56354499753E+03 -0.15067278734E+04  0.18294911875E+04  0.46999998093E+01 0. -1.
       -5    1    3    3    0  502  0.87132316991E+03  0.56354499753E+03  0.73190504957E+03  0.12698401956E+04  0.46999998093E+01 0.  1.
</event>
<event>
 5   0  0.1709858E-06  0.3008540E+04  0.7818609E-02  0.8241296E-01
        1   -1    0    0  501    0  0.00000000000E+00  0.00000000000E+00  0.28708327383E+04  0.28708327384E+04  0.50400001928E-02 0. -1.
       -1   -1    0    0    0  501  0.00000000000E+00  0.00000000000E+00 -0.78821326791E+03  0.78821326793E+03  0.50400001928E-02 0.  1.
    10030    2    1    2    0    0  0.00000000000E+00  0.00000000000E+00  0.20826194704E+04  0.36590460063E+04  0.30085401472E+04 0.  0.
        3    1    3    3  502    0  0.18146822650E+03  0.11230520771E+04  0.22383145424E+04  0.25108223127E+04  0.10100000352E+00 0. -1.
       -3    1    3    3    0  502 -0.18146822650E+03 -0.11230520771E+04 -0.15569507192E+03  0.11482236936E+04  0.10100000352E+00 0.  1.
</event>
<event>
 5   0  0.1672907E-06  0.3009080E+04  0.7818609E-02  0.8241143E-01
       -1   -1    0    0    0  501  0.00000000000E+00  0.00000000000E+00  0.81779848735E+03  0.81779848737E+03  0.50400001928E-02 0. -1.
        1   -1    0    0  501    0  0.00000000000E+00  0.00000000000E+00 -0.27679696140E+04  0.27679696140E+04  0.50400001928E-02 0.  1.
    10030    2    1    2    0    0  0.00000000000E+00  0.00000000000E+00 -0.19501711266E+04  0.35857681013E+04  0.30090804997E+04 0.  0.
        5    1    3    3  502    0 -0.58672226936E+03  0.14526734900E+03  0.66674298437E+03  0.89995217720E+03  0.46999998093E+01 0. -1.
       -5    1    3    3    0  502  0.58672226936E+03 -0.14526734900E+03 -0.26169141110E+04  0.26858159241E+04  0.46999998093E+01 0.  1.
</event>
<event>
 5   0  0.4702748E-06  0.2987456E+04  0.7818609E-02  0.8247322E-01
        2   -1    0    0  501    0  0.00000000000E+00  0.00000000000E+00  0.15349007679E+04  0.15349007679E+04  0.25500000920E-02 0.  1.
       -2   -1    0    0    0  501  0.00000000000E+00  0.00000000000E+00 -0.14536591884E+04  0.14536591884E+04  0.25500000920E-02 0. -1.
    10030    2    1    2    0    0  0.00000000000E+00  0.00000000000E+00  0.81241579500E+02  0.29885599563E+04  0.29874555090E+04 0.  0.
        2    1    3    3  502    0  0.11297826630E+04  0.69523718762E+03  0.72750334761E+03  0.15129523236E+04  0.25500000920E-02 0.  1.
       -2    1    3    3    0  502 -0.11297826630E+04 -0.69523718762E+03 -0.64626176811E+03  0.14756076327E+04  0.25500000920E-02 0. -1.
</event>
<event>
 5   0  0.5003556E-06  0.2962790E+04  0.7818609E-02  0.8254437E-01
       -2   -1    0    0    0  501  0.00000000000E+00  0.00000000000E+00  0.16568541525E+04  0.16568541525E+04  0.25500000920E-02 0.  1.
        2   -1    0    0  501    0  0.00000000000E+00  0.00000000000E+00 -0.13245164441E+04  0.13245164441E+04  0.25500000920E-02 0. -1.
    10030    2    1    2    0    0  0.00000000000E+00  0.00000000000E+00  0.33233770844E+03  0.29813705965E+04  0.29627896114E+04 0.  0.
        3    1    3    3  502    0 -0.13865153859E+04 -0.73915776550E+02 -0.35344355437E+03  0.14327633488E+04  0.10100000352E+00 0. -1.
       -3    1    3    3    0  502  0.13865153859E+04  0.73915776550E+02  0.68578126280E+03  0.15486072478E+04  0.10100000352E+00 0.  1.
</event>
<event>
 5   0  0.5003556E-06  0.3005518E+04  0.7818609E-02  0.8242157E-01
        2   -1    0    0  501    0  0.00000000000E+00  0.00000000000E+00  0.19483327828E+04  0.19483327828E+04  0.25500000920E-02 0.  1.
       -2   -1    0    0    0  501  0.00000000000E+00  0.00000000000E+00 -0.11590857551E+04  0.11590857551E+04  0.25500000920E-02 0. -1.
    10030    2    1    2    0    0  0.00000000000E+00  0.00000000000E+00  0.78924702768E+03  0.31074185380E+04  0.30055181083E+04 0.  0.
        3    1    3    3  502    0 -0.84734410075E+03  0.78424044673E+03 -0.59989350078E+03  0.13011138789E+04  0.10100000352E+00 0. -1.
       -3    1    3    3    0  502  0.84734410075E+03 -0.78424044673E+03  0.13891405285E+04  0.18063046591E+04  0.10100000352E+00 0.  1.
</event>
<event>
 5   0  0.1734885E-06  0.3010531E+04  0.7818609E-02  0.8240730E-01
        1   -1    0    0  501    0  0.00000000000E+00  0.00000000000E+00  0.22242328804E+04  0.22242328804E+04  0.50400001928E-02 0.  1.
       -1   -1    0    0    0  501  0.00000000000E+00  0.00000000000E+00 -0.10186989310E+04  0.10186989310E+04  0.50400001928E-02 0. -1.
    10030    2    1    2    0    0  0.00000000000E+00  0.00000000000E+00  0.12055339495E+04  0.32429318114E+04  0.30105306227E+04 0.  0.
        2    1    3    3  502    0  0.13312992540E+04  0.68995084643E+03  0.74499677136E+03  0.16743386944E+04  0.25500000920E-02 0. -1.
       -2    1    3    3    0  502 -0.13312992540E+04 -0.68995084643E+03  0.46053717810E+03  0.15685931170E+04  0.25500000920E-02 0.  1.
</event>
<event>
 5   0  0.4532420E-06  0.2991315E+04  0.7818609E-02  0.8246215E-01
        2   -1    0    0  501    0  0.00000000000E+00  0.00000000000E+00  0.17395419372E+04  0.17395419372E+04  0.25500000920E-02 0.  1.
       -2   -1    0    0    0  501  0.00000000000E+00  0.00000000000E+00 -0.12859660896E+04  0.12859660896E+04  0.25500000920E-02 0. -1.
    10030    2    1    2    0    0  0.00000000000E+00  0.00000000000E+00  0.45357584758E+03  0.30255080268E+04  0.29913153914E+04 0.  0.
        4    1    3    3  502    0  0.39170600343E+03  0.43891381621E+03 -0.11640345312E+04  0.13042457337E+04  0.12699999809E+01 0. -1.
       -4    1    3    3    0  502 -0.39170600343E+03 -0.43891381621E+03  0.16176103788E+04  0.17212622931E+04  0.12699999809E+01 0.  1.
</event>
<event>
 5   0  0.5003556E-06  0.2978721E+04  0.7818609E-02  0.8249833E-01
        2   -1    0    0  501    0  0.00000000000E+00  0.00000000000E+00  0.22726550932E+04  0.22726550932E+04  0.25500000920E-02 0.  1.
       -2   -1    0    0    0  501  0.00000000000E+00  0.00000000000E+00 -0.97603669293E+03  0.97603669293E+03  0.25500000920E-02 0. -1.
    10030    2    1    2    0    0  0.00000000000E+00  0.00000000000E+00  0.12966184003E+04  0.32486917861E+04  0.29787210419E+04 0.  0.
        3    1    3    3  502    0 -0.79179939503E+03  0.11673580467E+04  0.11696770689E+04  0.18324343226E+04  0.10100000352E+00 0.  1.
       -3    1    3    3    0  502  0.79179939503E+03 -0.11673580467E+04  0.12694133139E+03  0.14162574635E+04  0.10100000352E+00 0. -1.
</event>
<event>
 5   0  0.5003556E-06  0.3008847E+04  0.7818609E-02  0.8241209E-01
        2   -1    0    0  501    0  0.00000000000E+00  0.00000000000E+00  0.22523101251E+04  0.22523101251E+04  0.25500000920E-02 0. -1.
       -2   -1    0    0    0  501  0.00000000000E+00  0.00000000000E+00 -0.10048750286E+04  0.10048750286E+04  0.25500000920E-02 0.  1.
    10030    2    1    2    0    0  0.00000000000E+00  0.00000000000E+00  0.12474350965E+04  0.32571851537E+04  0.30088470890E+04 0.  0.
        3    1    3    3  502    0  0.10507254625E+04  0.26051387319E+03  0.17546431834E+04  0.20617138955E+04  0.10100000352E+00 0. -1.
       -3    1    3    3    0  502 -0.10507254625E+04 -0.26051387319E+03 -0.50720808682E+03  0.11954712582E+04  0.10100000352E+00 0.  1.
</event>
<event>
 5   0  0.5003556E-06  0.3043152E+04  0.7818609E-02  0.8231515E-01
        2   -1    0    0  501    0  0.00000000000E+00  0.00000000000E+00  0.23496739394E+04  0.23496739394E+04  0.25500000920E-02 0. -1.
       -2   -1    0    0    0  501  0.00000000000E+00  0.00000000000E+00 -0.98532553477E+03  0.98532553477E+03  0.25500000920E-02 0.  1.
    10030    2    1    2    0    0  0.00000000000E+00  0.00000000000E+00  0.13643484047E+04  0.33349994742E+04  0.30431521361E+04 0.  0.
        3    1    3    3  502    0 -0.98686030058E+03  0.90918169322E+03 -0.10404672166E+03  0.13458567289E+04  0.10100000352E+00 0.  1.
       -3    1    3    3    0  502  0.98686030058E+03 -0.90918169322E+03  0.14683951263E+04  0.19891427453E+04  0.10100000352E+00 0. -1.
</event>
<event>
 5   0  0.4935331E-06  0.3067654E+04  0.7818609E-02  0.8224671E-01
       -2   -1    0    0    0  501  0.00000000000E+00  0.00000000000E+00  0.17202032551E+04  0.17202032551E+04  0.25500000920E-02 0.  1.
        2   -1    0    0  501    0  0.00000000000E+00  0.00000000000E+00 -0.13676436869E+04  0.13676436869E+04  0.25500000920E-02 0. -1.
    10030    2    1    2    0    0  0.00000000000E+00  0.00000000000E+00  0.35255956821E+03  0.30878469421E+04  0.30676539063E+04 0.  0.
        5    1    3    3  502    0  0.90504762578E+03  0.91923900905E+03  0.10114955561E+04  0.16392854878E+04  0.46999998093E+01 0.  1.
       -5    1    3    3    0  502 -0.90504762578E+03 -0.91923900905E+03 -0.65893598784E+03  0.14485614543E+04  0.46999998093E+01 0. -1.
</event>
<event>
 5   0  0.1709858E-06  0.2998601E+04  0.7818609E-02  0.8244131E-01
        1   -1    0    0  501    0  0.00000000000E+00  0.00000000000E+00  0.19613091410E+04  0.19613091410E+04  0.50400001928E-02 0. -1.
       -1   -1    0    0    0  501  0.00000000000E+00  0.00000000000E+00 -0.11461231710E+04  0.11461231710E+04  0.50400001928E-02 0.  1.
    10030    2    1    2    0    0  0.00000000000E+00  0.00000000000E+00  0.81518597002E+03  0.31074323120E+04  0.29986009084E+04 0.  0.
        3    1    3    3  502    0  0.74518776727E+03  0.11935611973E+04 -0.12889185782E+03  0.14129777994E+04  0.10100000352E+00 0.  1.
       -3    1    3    3    0  502 -0.74518776727E+03 -0.11935611973E+04  0.94407782784E+03  0.16944545127E+04  0.10100000352E+00 0. -1.
</event>
<event>
 5   0  0.1734885E-06  0.3023133E+04  0.7818609E-02  0.8237156E-01
        1   -1    0    0  501    0  0.00000000000E+00  0.00000000000E+00  0.91699466175E+03  0.91699466177E+03  0.50400001928E-02 0.  1.
       -1   -1    0    0    0  501  0.00000000000E+00  0.00000000000E+00 -0.24916530404E+04  0.24916530404E+04  0.50400001928E-02 0. -1.
    10030    2    1    2    0    0  0.00000000000E+00  0.00000000000E+00 -0.15746583786E+04  0.34086477021E+04  0.30231325059E+04 0.  0.
        2    1    3    3  502    0 -0.11164878986E+04  0.24241917147E+03  0.32858717114E+03  0.11888152974E+04  0.25500000920E-02 0.  1.
       -2    1    3    3    0  502  0.11164878986E+04 -0.24241917147E+03 -0.19032455498E+04  0.22198324047E+04  0.25500000920E-02 0. -1.
</event>
<event>
 5   0  0.1686012E-06  0.2962540E+04  0.7818609E-02  0.8254509E-01
        1   -1    0    0  501    0  0.00000000000E+00  0.00000000000E+00  0.22548013910E+04  0.22548013910E+04  0.50400001928E-02 0. -1.
       -1   -1    0    0    0  501  0.00000000000E+00  0.00000000000E+00 -0.97310633879E+03  0.97310633880E+03  0.50400001928E-02 0.  1.
    10030    2    1    2    0    0  0.00000000000E+00  0.00000000000E+00  0.12816950522E+04  0.32279077298E+04  0.29625404816E+04 0.  0.
        4    1    3    3  502    0  0.97383810933E+03  0.68636574329E+03  0.15998593582E+04  0.19947456418E+04  0.12699999809E+01 0. -1.
       -4    1    3    3    0  502 -0.97383810933E+03 -0.68636574329E+03 -0.31816430597E+03  0.12331620880E+04  0.12699999809E+01 0.  1.
</event>
<event>
 5   0  0.5003556E-06  0.2995744E+04  0.7818609E-02  0.8244947E-01
        2   -1    0    0  501    0  0.00000000000E+00  0.00000000000E+00  0.17397710187E+04  0.17397710187E+04  0.25500000920E-02 0. -1.
       -2   -1    0    0    0  501  0.00000000000E+00  0.00000000000E+00 -0.12896067719E+04  0.12896067719E+04  0.25500000920E-02 0.  1.
    10030    2    1    2    0    0  0.00000000000E+00  0.00000000000E+00  0.45016424675E+03  0.30293777906E+04  0.29957439725E+04 0.  0.
        3    1    3    3  502    0  0.24466121221E+03  0.43131112354E+03 -0.12041980361E+04  0.13022984736E+04  0.10100000352E+00 0.  1.
       -3    1    3    3    0  502 -0.24466121221E+03 -0.43131112354E+03  0.16543622828E+04  0.17270793170E+04  0.10100000352E+00 0. -1.
</event>
<event>
 5   0  0.5003556E-06  0.3065049E+04  0.7818609E-02  0.8225396E-01
       -2   -1    0    0    0  501  0.00000000000E+00  0.00000000000E+00  0.14723464149E+04  0.14723464149E+04  0.25500000920E-02 0. -1.
        2   -1    0    0  501    0  0.00000000000E+00  0.00000000000E+00 -0.15951624569E+04  0.15951624569E+04  0.25500000920E-02 0.  1.
    10030    2    1    2    0    0  0.00000000000E+00  0.00000000000E+00 -0.12281604203E+03  0.30675088718E+04  0.30650492489E+04 0.  0.
        3    1    3    3  502    0 -0.10554026645E+03  0.28150946733E+03 -0.15653598845E+04  0.15939692300E+04  0.10100000352E+00 0.  1.
       -3    1    3    3    0  502  0.10554026645E+03 -0.28150946733E+03  0.14425438425E+04  0.14735396417E+04  0.10100000352E+00 0. -1.
</event>
<event>
 5   0  0.4768570E-06  0.2994307E+04  0.7818609E-02  0.8245358E-01
        2   -1    0    0  501    0  0.00000000000E+00  0.00000000000E+00  0.80739833659E+03  0.80739833659E+03  0.25500000920E-02 0.  1.
       -2   -1    0    0    0  501  0.00000000000E+00  0.00000000000E+00 -0.27761621910E+04  0.27761621910E+04  0.25500000920E-02 0. -1.
    10030    2    1    2    0    0  0.00000000000E+00  0.00000000000E+00 -0.19687638544E+04  0.35835605276E+04  0.29943070885E+04 0.  0.
        1    1    3    3  502    0 -0.10055149221E+04 -0.98723167970E+03 -0.15896579486E+04  0.21243114276E+04  0.50400001928E-02 0. -1.
       -1    1    3    3    0  502  0.10055149221E+04  0.98723167970E+03 -0.37910590579E+03  0.14592491000E+04  0.50400001928E-02 0.  1.
</event>
<event>
 5   0  0.1700885E-06  0.3017369E+04  0.7818609E-02  0.8238788E-01
        1   -1    0    0  501    0  0.00000000000E+00  0.00000000000E+00  0.23718030341E+04  0.23718030341E+04  0.50400001928E-02 0. -1.
       -1   -1    0    0    0  501  0.00000000000E+00  0.00000000000E+00 -0.95966197191E+03  0.95966197192E+03  0.50400001928E-02 0.  1.
    10030    2    1    2    0    0  0.00000000000E+00  0.00000000000E+00  0.14121410622E+04  0.33314650060E+04  0.30173691698E+04 0.  0.
        1    1    3    3  502    0  0.12061474424E+04  0.88635484438E+03  0.49742089823E+03  0.15772901170E+04  0.50400001928E-02 0. -1.
       -1    1    3    3    0  502 -0.12061474424E+04 -0.88635484438E+03  0.91472016397E+03  0.17541748891E+04  0.50400001928E-02 0.  1.
</event>
<event>
 5   0  0.4702748E-06  0.2973885E+04  0.7818609E-02  0.8251228E-01
        2   -1    0    0  501    0  0.00000000000E+00  0.00000000000E+00  0.27508897229E+04  0.27508897229E+04  0.25500000920E-02 0. -1.
       -2   -1    0    0    0  501  0.00000000000E+00  0.00000000000E+00 -0.80373928996E+03  0.80373928996E+03  0.25500000920E-02 0.  1.
    10030    2    1    2    0    0  0.00000000000E+00  0.00000000000E+00  0.19471504329E+04  0.35546290128E+04  0.29738851038E+04 0.  0.
        2    1    3    3  502    0  0.71691773423E+03 -0.12644872364E+04  0.13479466516E+04  0.19823872438E+04  0.25500000920E-02 0.  1.
       -2    1    3    3    0  502 -0.71691773423E+03  0.12644872364E+04  0.59920378134E+03  0.15722417691E+04  0.25500000920E-02 0. -1.
</event>
<event>
 5   0  0.5003556E-06  0.2982618E+04  0.7818609E-02  0.8248712E-01
        2   -1    0    0  501    0  0.00000000000E+00  0.00000000000E+00  0.10015244266E+04  0.10015244266E+04  0.25500000920E-02 0.  1.
       -2   -1    0    0    0  501  0.00000000000E+00  0.00000000000E+00 -0.22206176629E+04  0.22206176629E+04  0.25500000920E-02 0. -1.
    10030    2    1    2    0    0  0.00000000000E+00  0.00000000000E+00 -0.12190932363E+04  0.32221420895E+04  0.29826181998E+04 0.  0.
        3    1    3    3  502    0 -0.88630064785E+03  0.39723733690E+03 -0.18320969317E+04  0.20736213535E+04  0.10100000352E+00 0. -1.
       -3    1    3    3    0  502  0.88630064785E+03 -0.39723733690E+03  0.61300369540E+03  0.11485207360E+04  0.10100000352E+00 0.  1.
</event>
<event>
 5   0  0.1700885E-06  0.2975149E+04  0.7818609E-02  0.8250863E-01
        1   -1    0    0  501    0  0.00000000000E+00  0.00000000000E+00  0.25804286564E+04  0.25804286564E+04  0.50400001928E-02 0. -1.
       -1   -1    0    0    0  501  0.00000000000E+00  0.00000000000E+00 -0.85756231905E+03  0.85756231906E+03  0.50400001928E-02 0.  1.
    10030    2    1    2    0    0  0.00000000000E+00  0.00000000000E+00  0.17228663374E+04  0.34379909755E+04  0.29751493292E+04 0.  0.
        1    1    3    3  502    0 -0.10281408680E+02 -0.12330611957E+04  0.18229422836E+04  0.22008326127E+04  0.50400001928E-02 0. -1.
       -1    1    3    3    0  502  0.10281408680E+02  0.12330611957E+04 -0.10007594622E+03  0.12371583628E+04  0.50400001928E-02 0.  1.
</event>
<event>
 5   0  0.4532420E-06  0.3012919E+04  0.7818609E-02  0.8240051E-01
       -2   -1    0    0    0  501  0.00000000000E+00  0.00000000000E+00  0.10908956591E+04  0.10908956591E+04  0.25500000920E-02 0.  1.
        2   -1    0    0  501    0  0.00000000000E+00  0.00000000000E+00 -0.20803277472E+04  0.20803277472E+04  0.25500000920E-02 0. -1.
    10030    2    1    2    0    0  0.00000000000E+00  0.00000000000E+00 -0.98943208807E+03  0.31712234063E+04  0.30129191883E+04 0.  0.
        4    1    3    3  502    0 -0.14263644708E+04 -0.21330615493E+03 -0.36644121993E+02  0.14426917633E+04  0.12699999809E+01 0.  1.
       -4    1    3    3    0  502  0.14263644708E+04  0.21330615493E+03 -0.95278796607E+03  0.17285316429E+04  0.12699999809E+01 0. -1.
</event>
<event>
 5   0  0.1545375E-06  0.3020900E+04  0.7818609E-02  0.8237788E-01
        3   -1    0    0  501    0  0.00000000000E+00  0.00000000000E+00  0.18843722939E+04  0.18843722966E+04  0.10100000352E+00 0.  1.
       -3   -1    0    0    0  501  0.00000000000E+00  0.00000000000E+00 -0.12107261708E+04  0.12107261750E+04  0.10100000352E+00 0. -1.
    10030    2    1    2    0    0  0.00000000000E+00  0.00000000000E+00  0.67364612312E+03  0.30950984716E+04  0.30208997749E+04 0.  0.
        1    1    3    3  502    0  0.80770333751E+03  0.80838900466E+03  0.13487983544E+04  0.17678049850E+04  0.50400001928E-02 0.  1.
       -1    1    3    3    0  502 -0.80770333751E+03 -0.80838900466E+03 -0.67515223124E+03  0.13272934866E+04  0.50400001928E-02 0. -1.
</event>
<event>
 5   0  0.4935331E-06  0.2992452E+04  0.7818609E-02  0.8245889E-01
       -2   -1    0    0    0  501  0.00000000000E+00  0.00000000000E+00  0.18321967669E+04  0.18321967669E+04  0.25500000920E-02 0. -1.
        2   -1    0    0  501    0  0.00000000000E+00  0.00000000000E+00 -0.12218625789E+04  0.12218625789E+04  0.25500000920E-02 0.  1.
    10030    2    1    2    0    0  0.00000000000E+00  0.00000000000E+00  0.61033418798E+03  0.30540593458E+04  0.29924522831E+04 0.  0.
        5    1    3    3  502    0 -0.18415100875E+03  0.60547758064E+03 -0.10785312051E+04  0.12505064354E+04  0.46999998093E+01 0.  1.
       -5    1    3    3    0  502  0.18415100875E+03 -0.60547758064E+03  0.16888653931E+04  0.18035529104E+04  0.46999998093E+01 0. -1.
</event>
<event>
 5   0  0.4532420E-06  0.2998389E+04  0.7818609E-02  0.8244191E-01
       -2   -1    0    0    0  501  0.00000000000E+00  0.00000000000E+00  0.12084969727E+04  0.12084969727E+04  0.25500000920E-02 0. -1.
        2   -1    0    0  501    0  0.00000000000E+00  0.00000000000E+00 -0.18598172633E+04  0.18598172633E+04  0.25500000920E-02 0.  1.
    10030    2    1    2    0    0  0.00000000000E+00  0.00000000000E+00 -0.65132029065E+03  0.30683142360E+04  0.29983885888E+04 0.  0.
        4    1    3    3  502    0  0.84858551408E+03 -0.11845450186E+04 -0.68649894968E+03  0.16107534562E+04  0.12699999809E+01 0.  1.
       -4    1    3    3    0  502 -0.84858551408E+03  0.11845450186E+04  0.35178659039E+02  0.14575607798E+04  0.12699999809E+01 0. -1.
</event>
<event>
 5   0  0.5003556E-06  0.3028621E+04  0.7818609E-02  0.8235605E-01
       -2   -1    0    0    0  501  0.00000000000E+00  0.00000000000E+00  0.12633031601E+04  0.12633031601E+04  0.25500000920E-02 0. -1.
        2   -1    0    0  501    0  0.00000000000E+00  0.00000000000E+00 -0.18151911745E+04  0.18151911745E+04  0.25500000920E-02 0.  1.
    10030    2    1    2    0    0  0.00000000000E+00  0.00000000000E+00 -0.55188801442E+03  0.30784943346E+04  0.30286213015E+04 0.  0.
        3    1    3    3  502    0 -0.34592946898E+03  0.89124861640E+03 -0.14696528759E+04  0.17532458127E+04  0.10100000352E+00 0.  1.
       -3    1    3    3    0  502  0.34592946898E+03 -0.89124861640E+03  0.91776486152E+03  0.13252485220E+04  0.10100000352E+00 0. -1.
</event>
<event>
 5   0  0.5003556E-06  0.3012939E+04  0.7818609E-02  0.8240046E-01
        2   -1    0    0  501    0  0.00000000000E+00  0.00000000000E+00  0.16440899963E+04  0.16440899963E+04  0.25500000920E-02 0.  1.
       -2   -1    0    0    0  501  0.00000000000E+00  0.00000000000E+00 -0.13803685588E+04  0.13803685588E+04  0.25500000920E-02 0. -1.
    10030    2    1    2    0    0  0.00000000000E+00  0.00000000000E+00  0.26372143747E+03  0.30244585552E+04  0.30129388569E+04 0.  0.
        3    1    3    3  502    0  0.99846028545E+03  0.45929903130E+03 -0.90240460052E+03  0.14220452226E+04  0.10100000352E+00 0. -1.
       -3    1    3    3    0  502 -0.99846028545E+03 -0.45929903130E+03  0.11661260380E+04  0.16024133326E+04  0.10100000352E+00 0.  1.
</event>
<event>
 5   0  0.4532420E-06  0.2987804E+04  0.7818609E-02  0.8247222E-01
       -2   -1    0    0    0  501  0.00000000000E+00  0.00000000000E+00  0.19287806252E+04  0.19287806252E+04  0.25500000920E-02 0. -1.
        2   -1    0    0  501    0  0.00000000000E+00  0.00000000000E+00 -0.11570750193E+04  0.11570750193E+04  0.25500000920E-02 0.  1.
    10030    2    1    2    0    0  0.00000000000E+00  0.00000000000E+00  0.77170560585E+03  0.30858556445E+04  0.29878044643E+04 0.  0.
        4    1    3    3  502    0  0.25417788327E+02  0.82411023108E+03  0.16725035954E+04  0.18646912953E+04  0.12699999809E+01 0. -1.
       -4    1    3    3    0  502 -0.25417788327E+02 -0.82411023108E+03 -0.90079798960E+03  0.12211643493E+04  0.12699999809E+01 0.  1.
</event>
<event>
 5   0  0.5003556E-06  0.2992282E+04  0.7818609E-02  0.8245938E-01
       -2   -1    0    0    0  501  0.00000000000E+00  0.00000000000E+00  0.10687389000E+04  0.10687389000E+04  0.25500000920E-02 0.  1.
        2   -1    0    0  501    0  0.00000000000E+00  0.00000000000E+00 -0.20944666821E+04  0.20944666821E+04  0.25500000920E-02 0. -1.
    10030    2    1    2    0    0  0.00000000000E+00  0.00000000000E+00 -0.10257277821E+04  0.31632055821E+04  0.29922820842E+04 0.  0.
        3    1    3    3  502    0  0.81818380036E+03  0.67051050621E+03  0.60560304670E+03  0.12189192469E+04  0.10100000352E+00 0.  1.
       -3    1    3    3    0  502 -0.81818380036E+03 -0.67051050621E+03 -0.16313308288E+04  0.19442863352E+04  0.10100000352E+00 0. -1.
</event>
<event>
 5   0  0.1672907E-06  0.3069256E+04  0.7818609E-02  0.8224226E-01
       -1   -1    0    0    0  501  0.00000000000E+00  0.00000000000E+00  0.11732363851E+04  0.11732363851E+04  0.50400001928E-02 0.  1.
        1   -1    0    0  501    0  0.00000000000E+00  0.00000000000E+00 -0.20073390960E+04  0.20073390960E+04  0.50400001928E-02 0. -1.
    10030    2    1    2    0    0  0.00000000000E+00  0.00000000000E+00 -0.83410271097E+03  0.31805754811E+04  0.30692561084E+04 0.  0.
        5    1    3    3  502    0 -0.54266731522E+03  0.13741827175E+04 -0.84706587701E+03  0.17030586150E+04  0.46999998093E+01 0. -1.
       -5    1    3    3    0  502  0.54266731522E+03 -0.13741827175E+04  0.12963166045E+02  0.14775168661E+04  0.46999998093E+01 0.  1.
</event>
<event>
 5   0  0.4768570E-06  0.3013370E+04  0.7818609E-02  0.8239923E-01
       -2   -1    0    0    0  501  0.00000000000E+00  0.00000000000E+00  0.83375636567E+03  0.83375636567E+03  0.25500000920E-02 0.  1.
        2   -1    0    0  501    0  0.00000000000E+00  0.00000000000E+00 -0.27227376094E+04  0.27227376094E+04  0.25500000920E-02 0. -1.
    10030    2    1    2    0    0  0.00000000000E+00  0.00000000000E+00 -0.18889812438E+04  0.35564939751E+04  0.30133700828E+04 0.  0.
        1    1    3    3  502    0 -0.38633797644E+03 -0.36415159728E+03  0.71970208680E+03  0.89433467540E+03  0.50400001928E-02 0.  1.
       -1    1    3    3    0  502  0.38633797644E+03  0.36415159728E+03 -0.26086833306E+04  0.26621592997E+04  0.50400001928E-02 0. -1.
</event>
<event>
 5   0  0.1709858E-06  0.3015939E+04  0.7818609E-02  0.8239194E-01
       -1   -1    0    0    0  501  0.00000000000E+00  0.00000000000E+00  0.11801112998E+04  0.11801112999E+04  0.50400001928E-02 0. -1.
        1   -1    0    0  501    0  0.00000000000E+00  0.00000000000E+00 -0.19269137366E+04  0.19269137366E+04  0.50400001928E-02 0.  1.
    10030    2    1    2    0    0  0.00000000000E+00  0.00000000000E+00 -0.74680243674E+03  0.31070250364E+04  0.30159394386E+04 0.  0.
        3    1    3    3  502    0 -0.30642692595E+03 -0.95308697462E+03 -0.15351562017E+04  0.18327511604E+04  0.10100000352E+00 0.  1.
       -3    1    3    3    0  502  0.30642692595E+03  0.95308697462E+03  0.78835376498E+03  0.12742738760E+04  0.10100000352E+00 0. -1.
</event>
<event>
 5   0  0.4532420E-06  0.2964240E+04  0.7818609E-02  0.8254017E-01
        2   -1    0    0  501    0  0.00000000000E+00  0.00000000000E+00  0.15238710353E+04  0.15238710353E+04  0.25500000920E-02 0. -1.
       -2   -1    0    0    0  501  0.00000000000E+00  0.00000000000E+00 -0.14415132424E+04  0.14415132424E+04  0.25500000920E-02 0.  1.
    10030    2    1    2    0    0  0.00000000000E+00  0.00000000000E+00  0.82357792931E+02  0.29653842777E+04  0.29642403931E+04 0.  0.
        4    1    3    3  502    0 -0.26397809489E+03  0.94465098188E+03 -0.10703883796E+04  0.14518205151E+04  0.12699999809E+01 0.  1.
       -4    1    3    3    0  502  0.26397809489E+03 -0.94465098188E+03  0.11527461725E+04  0.15135637625E+04  0.12699999809E+01 0. -1.
</event>
<event>
 5   0  0.4532420E-06  0.2958855E+04  0.7818609E-02  0.8255579E-01
        2   -1    0    0  501    0  0.00000000000E+00  0.00000000000E+00  0.30791183947E+04  0.30791183947E+04  0.25500000920E-02 0.  1.
       -2   -1    0    0    0  501  0.00000000000E+00  0.00000000000E+00 -0.71082225127E+03  0.71082225127E+03  0.25500000920E-02 0. -1.
    10030    2    1    2    0    0  0.00000000000E+00  0.00000000000E+00  0.23682961435E+04  0.37899406460E+04  0.29588550957E+04 0.  0.
        4    1    3    3  502    0  0.66566397980E+02 -0.14529406431E+04  0.15307835194E+04  0.21115793601E+04  0.12699999809E+01 0.  1.
       -4    1    3    3    0  502 -0.66566397980E+02  0.14529406431E+04  0.83751262410E+03  0.16783612859E+04  0.12699999809E+01 0. -1.
</event>
<event>
 5   0  0.4532420E-06  0.2989189E+04  0.7818609E-02  0.8246825E-01
       -2   -1    0    0    0  501  0.00000000000E+00  0.00000000000E+00  0.91203015162E+03  0.91203015162E+03  0.25500000920E-02 0.  1.
        2   -1    0    0  501    0  0.00000000000E+00  0.00000000000E+00 -0.24492745251E+04  0.24492745251E+04  0.25500000920E-02 0. -1.
    10030    2    1    2    0    0  0.00000000000E+00  0.00000000000E+00 -0.15372443734E+04  0.33613046767E+04  0.29891886635E+04 0.  0.
        4    1    3    3  502    0 -0.64455264692E+03  0.28212686018E+03  0.71415275580E+03  0.10025265340E+04  0.12699999809E+01 0.  1.
       -4    1    3    3    0  502  0.64455264692E+03 -0.28212686018E+03 -0.22513971292E+04  0.23587781427E+04  0.12699999809E+01 0. -1.
</event>
<event>
 5   0  0.4768570E-06  0.2947156E+04  0.7818609E-02  0.8258984E-01
       -2   -1    0    0    0  501  0.00000000000E+00  0.00000000000E+00  0.10069700354E+04  0.10069700354E+04  0.25500000920E-02 0. -1.
        2   -1    0    0  501    0  0.00000000000E+00  0.00000000000E+00 -0.21564013085E+04  0.21564013085E+04  0.25500000920E-02 0.  1.
    10030    2    1    2    0    0  0.00000000000E+00  0.00000000000E+00 -0.11494312732E+04  0.31633713439E+04  0.29471555792E+04 0.  0.
        1    1    3    3  502    0 -0.56756162370E+03  0.13400896750E+04 -0.82290420230E+03  0.16718665796E+04  0.50400001928E-02 0.  1.
       -1    1    3    3    0  502  0.56756162370E+03 -0.13400896750E+04 -0.32652707086E+03  0.14915047643E+04  0.50400001928E-02 0. -1.
</event>
<event>
 5   0  0.1686012E-06  0.2990495E+04  0.7818609E-02  0.8246450E-01
       -1   -1    0    0    0  501  0.00000000000E+00  0.00000000000E+00  0.10544999822E+04  0.10544999822E+04  0.50400001928E-02 0.  1.
        1   -1    0    0  501    0  0.00000000000E+00  0.00000000000E+00 -0.21202135835E+04  0.21202135835E+04  0.50400001928E-02 0. -1.
    10030    2    1    2    0    0  0.00000000000E+00  0.00000000000E+00 -0.10657136013E+04  0.31747135657E+04  0.29904950668E+04 0.  0.
        4    1    3    3  502    0  0.37576693798E+03 -0.11179656332E+03  0.99896599196E+03  0.10731420825E+04  0.12699999809E+01 0.  1.
       -4    1    3    3    0  502 -0.37576693798E+03  0.11179656332E+03 -0.20646795933E+04  0.21015714832E+04  0.12699999809E+01 0. -1.
</event>
<event>
 5   0  0.1672907E-06  0.2937778E+04  0.7818609E-02  0.8261725E-01
       -1   -1    0    0    0  501  0.00000000000E+00  0.00000000000E+00  0.15229354471E+04  0.15229354471E+04  0.50400001928E-02 0. -1.
        1   -1    0    0  501    0  0.00000000000E+00  0.00000000000E+00 -0.14167604523E+04  0.14167604523E+04  0.50400001928E-02 0.  1.
    10030    2    1    2    0    0  0.00000000000E+00  0.00000000000E+00  0.10617499481E+03  0.29396958994E+04  0.29377778765E+04 0.  0.
        5    1    3    3  502    0 -0.19503875711E+02 -0.26822418986E+03 -0.13919079315E+04  0.14176580677E+04  0.46999998093E+01 0.  1.
       -5    1    3    3    0  502  0.19503875711E+02  0.26822418986E+03  0.14980829263E+04  0.15220378317E+04  0.46999998093E+01 0. -1.
</event>
<event>
 5   0  0.4532420E-06  0.2978090E+04  0.7818609E-02  0.8250015E-01
        2   -1    0    0  501    0  0.00000000000E+00  0.00000000000E+00  0.11405179666E+04  0.11405179666E+04  0.25500000920E-02 0. -1.
       -2   -1    0    0    0  501  0.00000000000E+00  0.00000000000E+00 -0.19440778799E+04  0.19440778799E+04  0.25500000920E-02 0.  1.
    10030    2    1    2    0    0  0.00000000000E+00  0.00000000000E+00 -0.80355991331E+03  0.30845958466E+04  0.29780904960E+04 0.  0.
        4    1    3    3  502    0  0.41019034712E+02 -0.30541036541E+03 -0.19106900559E+04  0.19353801061E+04  0.12699999809E+01 0.  1.
       -4    1    3    3    0  502 -0.41019034712E+02  0.30541036541E+03  0.11071301426E+04  0.11492157405E+04  0.12699999809E+01 0. -1.
</event>
<event>
 5   0  0.4768570E-06  0.2965019E+04  0.7818609E-02  0.8253791E-01
        2   -1    0    0  501    0  0.00000000000E+00  0.00000000000E+00  0.22824225753E+04  0.22824225753E+04  0.25500000920E-02 0.  1.
       -2   -1    0    0    0  501  0.00000000000E+00  0.00000000000E+00 -0.96293923073E+03  0.96293923073E+03  0.25500000920E-02 0. -1.
    10030    2    1    2    0    0  0.00000000000E+00  0.00000000000E+00  0.13194833445E+04  0.32453618060E+04  0.29650188794E+04 0.  0.
        1    1    3    3  502    0  0.13919674125E+03 -0.11634478571E+04  0.16538243647E+04  0.20268501865E+04  0.50400001928E-02 0.  1.
       -1    1    3    3    0  502 -0.13919674125E+03  0.11634478571E+04 -0.33434102021E+03  0.12185116195E+04  0.50400001928E-02 0. -1.
</event>
<event>
 5   0  0.4702748E-06  0.3024807E+04  0.7818609E-02  0.8236682E-01
        2   -1    0    0  501    0  0.00000000000E+00  0.00000000000E+00  0.15500136847E+04  0.15500136847E+04  0.25500000920E-02 0.  1.
       -2   -1    0    0    0  501  0.00000000000E+00  0.00000000000E+00 -0.14757058790E+04  0.14757058790E+04  0.25500000920E-02 0. -1.
    10030    2    1    2    0    0  0.00000000000E+00  0.00000000000E+00  0.74307805702E+02  0.30257195636E+04  0.30248069736E+04 0.  0.
        2    1    3    3  502    0  0.49499175061E+01 -0.13837635903E+04  0.64769706770E+03  0.15278539417E+04  0.25500000920E-02 0.  1.
       -2    1    3    3    0  502 -0.49499175061E+01  0.13837635903E+04 -0.57338926200E+03  0.14978656219E+04  0.25500000920E-02 0. -1.
</event>
<event>
 5   0  0.4935331E-06  0.2984144E+04  0.7818609E-02  0.8248273E-01
        2   -1    0    0  501    0  0.00000000000E+00  0.00000000000E+00  0.20013577988E+04  0.20013577988E+04  0.25500000920E-02 0. -1.
       -2   -1    0    0    0  501  0.00000000000E+00  0.00000000000E+00 -0.11123844209E+04  0.11123844209E+04  0.25500000920E-02 0.  1.
    10030    2    1    2    0    0  0.00000000000E+00  0.00000000000E+00  0.88897337788E+03  0.31137422197E+04  0.29841442566E+04 0.  0.
        5    1    3    3  502    0 -0.86542950214E+03 -0.12136523324E+04  0.37577122435E+03  0.15372528453E+04  0.46999998093E+01 0.  1.
       -5    1    3    3    0  502  0.86542950214E+03  0.12136523324E+04  0.51320215353E+03  0.15764893744E+04  0.46999998093E+01 0. -1.
</event>
<event>
 5   0  0.4702748E-06  0.3004240E+04  0.7818609E-02  0.8242521E-01
        2   -1    0    0  501    0  0.00000000000E+00  0.00000000000E+00  0.19624844587E+04  0.19624844587E+04  0.25500000920E-02 0.  1.
       -2   -1    0    0    0  501  0.00000000000E+00  0.00000000000E+00 -0.11497493111E+04  0.11497493111E+04  0.25500000920E-02 0. -1.
    10030    2    1    2    0    0  0.00000000000E+00  0.00000000000E+00  0.81273514764E+03  0.31122337698E+04  0.30042404394E+04 0.  0.
        2    1    3    3  502    0 -0.52232195657E+03  0.13067015347E+04  0.95068454005E+03  0.16982609405E+04  0.25500000920E-02 0.  1.
       -2    1    3    3    0  502  0.52232195657E+03 -0.13067015347E+04 -0.13794939242E+03  0.14139728293E+04  0.25500000920E-02 0. -1.
</event>
<event>
 5   0  0.1709858E-06  0.3031076E+04  0.7818609E-02  0.8234912E-01
       -1   -1    0    0    0  501  0.00000000000E+00  0.00000000000E+00  0.33909381055E+04  0.33909381055E+04  0.50400001928E-02 0.  1.
        1   -1    0    0  501    0  0.00000000000E+00  0.00000000000E+00 -0.67735108286E+03  0.67735108288E+03  0.50400001928E-02 0. -1.
    10030    2    1    2    0    0  0.00000000000E+00  0.00000000000E+00  0.27135870226E+04  0.40682891884E+04  0.30310761110E+04 0.  0.
        3    1    3    3  502    0 -0.11340644953E+04 -0.98406897905E+03  0.10805443875E+04  0.18498838392E+04  0.10100000352E+00 0. -1.
       -3    1    3    3    0  502  0.11340644953E+04  0.98406897905E+03  0.16330426351E+04  0.22184053492E+04  0.10100000352E+00 0.  1.
</event>
<event>
 5   0  0.4768570E-06  0.2973918E+04  0.7818609E-02  0.8251218E-01
        2   -1    0    0  501    0  0.00000000000E+00  0.00000000000E+00  0.21093274561E+04  0.21093274561E+04  0.25500000920E-02 0. -1.
       -2   -1    0    0    0  501  0.00000000000E+00  0.00000000000E+00 -0.10482234992E+04  0.10482234992E+04  0.25500000920E-02 0.  1.
    10030    2    1    2    0    0  0.00000000000E+00  0.00000000000E+00  0.10611039569E+04  0.31575509552E+04  0.29739176901E+04 0.  0.
        1    1    3    3  502    0  0.11012752580E+04  0.69528556937E+03  0.12923643616E+04  0.18347846903E+04  0.50400001928E-02 0. -1.
       -1    1    3    3    0  502 -0.11012752580E+04 -0.69528556937E+03 -0.23126040468E+03  0.13227662649E+04  0.50400001928E-02 0.  1.
</event>
<event>
 5   0  0.1686012E-06  0.3062661E+04  0.7818609E-02  0.8226061E-01
        1   -1    0    0  501    0  0.00000000000E+00  0.00000000000E+00  0.16953469696E+04  0.16953469696E+04  0.50400001928E-02 0. -1.
       -1   -1    0    0    0  501  0.00000000000E+00  0.00000000000E+00 -0.13831818595E+04  0.13831818595E+04  0.50400001928E-02 0.  1.
    10030    2    1    2    0    0  0.00000000000E+00  0.00000000000E+00  0.31216511012E+03  0.30785288292E+04  0.30626610482E+04 0.  0.
        4    1    3    3  502    0  0.14628952283E+04  0.43310284115E+03  0.23753072174E+02  0.15258461067E+04  0.12699999809E+01 0. -1.
       -4    1    3    3    0  502 -0.14628952283E+04 -0.43310284115E+03  0.28841203795E+03  0.15526827224E+04  0.12699999809E+01 0.  1.
</event>
<event>
 5   0  0.1686012E-06  0.3009036E+04  0.7818609E-02  0.8241155E-01
       -1   -1    0    0    0  501  0.00000000000E+00  0.00000000000E+00  0.13205280819E+04  0.13205280819E+04  0.50400001928E-02 0. -1.
        1   -1    0    0  501    0  0.00000000000E+00  0.00000000000E+00 -0.17141429463E+04  0.17141429463E+04  0.50400001928E-02 0.  1.
    10030    2    1    2    0    0  0.00000000000E+00  0.00000000000E+00 -0.39361486442E+03  0.30346710282E+04  0.30090356575E+04 0.  0.
        4    1    3    3  502    0 -0.43709356012E+03 -0.43428730923E+03 -0.15810591013E+04  0.16968811808E+04  0.12699999809E+01 0.  1.
       -4    1    3    3    0  502  0.43709356012E+03  0.43428730923E+03  0.11874442369E+04  0.13377898474E+04  0.12699999809E+01 0. -1.
</event>
<event>
 5   0  0.5003556E-06  0.3009681E+04  0.7818609E-02  0.8240972E-01
        2   -1    0    0  501    0  0.00000000000E+00  0.00000000000E+00  0.22983531124E+04  0.22983531124E+04  0.25500000920E-02 0.  1.
       -2   -1    0    0    0  501  0.00000000000E+00  0.00000000000E+00 -0.98529053931E+03  0.98529053931E+03  0.25500000920E-02 0. -1.
    10030    2    1    2    0    0  0.00000000000E+00  0.00000000000E+00  0.13130625731E+04  0.32836436517E+04  0.30096814301E+04 0.  0.
        3    1    3    3  502    0  0.12187374482E+04 -0.28747872993E+03  0.15671177145E+04  0.20059468909E+04  0.10100000352E+00 0. -1.
       -3    1    3    3    0  502 -0.12187374482E+04  0.28747872993E+03 -0.25405514135E+03  0.12776967609E+04  0.10100000352E+00 0.  1.
</event>
<event>
 5   0  0.4935331E-06  0.2995539E+04  0.7818609E-02  0.8245006E-01
        2   -1    0    0  501    0  0.00000000000E+00  0.00000000000E+00  0.15924822685E+04  0.15924822685E+04  0.25500000920E-02 0.  1.
       -2   -1    0    0    0  501  0.00000000000E+00  0.00000000000E+00 -0.14086900921E+04  0.14086900921E+04  0.25500000920E-02 0. -1.
    10030    2    1    2    0    0  0.00000000000E+00  0.00000000000E+00  0.18379217644E+03  0.30011723606E+04  0.29955393460E+04 0.  0.
        5    1    3    3  502    0  0.52031936284E+03  0.13736357704E+04 -0.20137339687E+03  0.14826263198E+04  0.46999998093E+01 0. -1.
       -5    1    3    3    0  502 -0.52031936284E+03 -0.13736357704E+04  0.38516557331E+03  0.15185460408E+04  0.46999998093E+01 0.  1.
</event>
<event>
 5   0  0.4935331E-06  0.2986017E+04  0.7818609E-02  0.8247735E-01
        2   -1    0    0  501    0  0.00000000000E+00  0.00000000000E+00  0.13536665031E+04  0.13536665031E+04  0.25500000920E-02 0.  1.
       -2   -1    0    0    0  501  0.00000000000E+00  0.00000000000E+00 -0.16466939776E+04  0.16466939776E+04  0.25500000920E-02 0. -1.
    10030    2    1    2    0    0  0.00000000000E+00  0.00000000000E+00 -0.29302747451E+03  0.30003604807E+04  0.29860170651E+04 0.  0.
        5    1    3    3  502    0  0.61867172174E+03 -0.10194133567E+04  0.75618583489E+03  0.14120189085E+04  0.46999998093E+01 0.  1.
       -5    1    3    3    0  502 -0.61867172174E+03  0.10194133567E+04 -0.10492133094E+04  0.15883415721E+04  0.46999998093E+01 0. -1.
</event>
<event>
 5   0  0.4768570E-06  0.3021568E+04  0.7818609E-02  0.8237599E-01
       -2   -1    0    0    0  501  0.00000000000E+00  0.00000000000E+00  0.19550724694E+04  0.19550724694E+04  0.25500000920E-02 0. -1.
        2   -1    0    0  501    0  0.00000000000E+00  0.00000000000E+00 -0.11674593718E+04  0.11674593718E+04  0.25500000920E-02 0.  1.
    10030    2    1    2    0    0  0.00000000000E+00  0.00000000000E+00  0.78761309761E+03  0.31225318412E+04  0.30215675912E+04 0.  0.
        1    1    3    3  502    0  0.93220723144E+03 -0.69485723369E+03  0.13907333418E+04  0.18127261585E+04  0.50400001928E-02 0. -1.
       -1    1    3    3    0  502 -0.93220723144E+03  0.69485723369E+03 -0.60312024422E+03  0.13098056828E+04  0.50400001928E-02 0.  1.
</event>
<event>
 5   0  0.1700885E-06  0.2999628E+04  0.7818609E-02  0.8243837E-01
        1   -1    0    0  501    0  0.00000000000E+00  0.00000000000E+00  0.25769375314E+04  0.25769375314E+04  0.50400001928E-02 0. -1.
       -1   -1    0    0    0  501  0.00000000000E+00  0.00000000000E+00 -0.87291281466E+03  0.87291281467E+03  0.50400001928E-02 0.  1.
    10030    2    1    2    0    0  0.00000000000E+00  0.00000000000E+00  0.17040247167E+04  0.34498503460E+04  0.29996278394E+04 0.  0.
        1    1    3    3  502    0 -0.12285161070E+03 -0.10897357866E+04 -0.32469904659E+03  0.11436984190E+04  0.50400001928E-02 0.  1.
       -1    1    3    3    0  502  0.12285161070E+03  0.10897357866E+04  0.20287237633E+04  0.23061519270E+04  0.50400001928E-02 0. -1.
</event>
<event>
 5   0  0.1545375E-06  0.3008648E+04  0.7818609E-02  0.8241266E-01
       -3   -1    0    0    0  501  0.00000000000E+00  0.00000000000E+00  0.12766118630E+04  0.12766118670E+04  0.10100000352E+00 0.  1.
        3   -1    0    0  501    0  0.00000000000E+00  0.00000000000E+00 -0.17726537222E+04  0.17726537250E+04  0.10100000352E+00 0. -1.
    10030    2    1    2    0    0  0.00000000000E+00  0.00000000000E+00 -0.49604185916E+03  0.30492655920E+04  0.30086480560E+04 0.  0.
        1    1    3    3  502    0 -0.60197067120E+03 -0.11781190261E+04  0.47764642739E+03  0.14065842450E+04  0.50400001928E-02 0.  1.
       -1    1    3    3    0  502  0.60197067120E+03  0.11781190261E+04 -0.97368828655E+03  0.16426813471E+04  0.50400001928E-02 0. -1.
</event>
<event>
 5   0  0.4935331E-06  0.3008572E+04  0.7818609E-02  0.8241287E-01
       -2   -1    0    0    0  501  0.00000000000E+00  0.00000000000E+00  0.19776793423E+04  0.19776793423E+04  0.25500000920E-02 0.  1.
        2   -1    0    0  501    0  0.00000000000E+00  0.00000000000E+00 -0.11442080529E+04  0.11442080529E+04  0.25500000920E-02 0. -1.
    10030    2    1    2    0    0  0.00000000000E+00  0.00000000000E+00  0.83347128937E+03  0.31218873951E+04  0.30085721726E+04 0.  0.
        5    1    3    3  502    0 -0.27767398710E+03 -0.30620112088E+02 -0.11170477989E+04  0.11514592087E+04  0.46999998093E+01 0. -1.
       -5    1    3    3    0  502  0.27767398710E+03  0.30620112088E+02  0.19505190882E+04  0.19704281864E+04  0.46999998093E+01 0.  1.
</event>
<event>
 5   0  0.4702748E-06  0.2972557E+04  0.7818609E-02  0.8251611E-01
       -2   -1    0    0    0  501  0.00000000000E+00  0.00000000000E+00  0.74686674305E+03  0.74686674305E+03  0.25500000920E-02 0.  1.
        2   -1    0    0  501    0  0.00000000000E+00  0.00000000000E+00 -0.29577212695E+04  0.29577212695E+04  0.25500000920E-02 0. -1.
    10030    2    1    2    0    0  0.00000000000E+00  0.00000000000E+00 -0.22108545264E+04  0.37045880125E+04  0.29725569138E+04 0.  0.
        2    1    3    3  502    0  0.12378778514E+04  0.50099866623E+02 -0.21287087569E+04  0.24629763586E+04  0.25500000920E-02 0.  1.
       -2    1    3    3    0  502 -0.12378778514E+04 -0.50099866623E+02 -0.82145769541E+02  0.12416116539E+04  0.25500000920E-02 0. -1.
</event>
<event>
 5   0  0.5003556E-06  0.3021322E+04  0.7818609E-02  0.8237668E-01
        2   -1    0    0  501    0  0.00000000000E+00  0.00000000000E+00  0.15872538108E+04  0.15872538108E+04  0.25500000920E-02 0. -1.
       -2   -1    0    0    0  501  0.00000000000E+00  0.00000000000E+00 -0.14377641161E+04  0.14377641161E+04  0.25500000920E-02 0.  1.
    10030    2    1    2    0    0  0.00000000000E+00  0.00000000000E+00  0.14948969472E+03  0.30250179270E+04  0.30213219441E+04 0.  0.
        3    1    3    3  502    0  0.34867014554E+02  0.13922254449E+04  0.66077202706E+03  0.15414691304E+04  0.10100000352E+00 0. -1.
       -3    1    3    3    0  502 -0.34867014554E+02 -0.13922254449E+04 -0.51128233234E+03  0.14835487965E+04  0.10100000352E+00 0.  1.
</event>
<event>
 5   0  0.1700885E-06  0.3055509E+04  0.7818609E-02  0.8228055E-01
       -1   -1    0    0    0  501  0.00000000000E+00  0.00000000000E+00  0.94327804252E+03  0.94327804253E+03  0.50400001928E-02 0. -1.
        1   -1    0    0  501    0  0.00000000000E+00  0.00000000000E+00 -0.24743851763E+04  0.24743851763E+04  0.50400001928E-02 0.  1.
    10030    2    1    2    0    0  0.00000000000E+00  0.00000000000E+00 -0.15311071338E+04  0.34176632189E+04  0.30555086029E+04 0.  0.
        1    1    3    3  502    0 -0.13307757560E+04  0.60081296072E+03 -0.12683836576E+04  0.19340986090E+04  0.50400001928E-02 0.  1.
       -1    1    3    3    0  502  0.13307757560E+04 -0.60081296072E+03 -0.26272347624E+03  0.14835646099E+04  0.50400001928E-02 0. -1.
</event>
<event>
 5   0  0.5003556E-06  0.3073261E+04  0.7818609E-02  0.8223115E-01
        2   -1    0    0  501    0  0.00000000000E+00  0.00000000000E+00  0.16354821203E+04  0.16354821203E+04  0.25500000920E-02 0.  1.
       -2   -1    0    0    0  501  0.00000000000E+00  0.00000000000E+00 -0.14437532222E+04  0.14437532222E+04  0.25500000920E-02 0. -1.
    10030    2    1    2    0    0  0.00000000000E+00  0.00000000000E+00  0.19172889805E+03  0.30792353425E+04  0.30732605364E+04 0.  0.
        3    1    3    3  502    0 -0.94724910805E+03  0.11664755444E+04  0.41787143175E+03  0.15596674684E+04  0.10100000352E+00 0.  1.
       -3    1    3    3    0  502  0.94724910805E+03 -0.11664755444E+04 -0.22614253371E+03  0.15195678741E+04  0.10100000352E+00 0. -1.
</event>
<event>
 5   0  0.4935331E-06  0.2949385E+04  0.7818609E-02  0.8258334E-01
        2   -1    0    0  501    0  0.00000000000E+00  0.00000000000E+00  0.18552199533E+04  0.18552199533E+04  0.25500000920E-02 0.  1.
       -2   -1    0    0    0  501  0.00000000000E+00  0.00000000000E+00 -0.11722153664E+04  0.11722153664E+04  0.25500000920E-02 0. -1.
    10030    2    1    2    0    0  0.00000000000E+00  0.00000000000E+00  0.68300458689E+03  0.30274353197E+04  0.29493845713E+04 0.  0.
        5    1    3    3  502    0 -0.13435360618E+04  0.14616031260E+03  0.94724030800E+03  0.16503751929E+04  0.46999998093E+01 0.  1.
       -5    1    3    3    0  502  0.13435360618E+04 -0.14616031260E+03 -0.26423572111E+03  0.13770601267E+04  0.46999998093E+01 0. -1.
</event>
<event>
 5   0  0.1700885E-06  0.2773530E+04  0.7818609E-02  0.8311534E-01
        1   -1    0    0  501    0  0.00000000000E+00  0.00000000000E+00  0.22939826613E+04  0.22939826613E+04  0.50400001928E-02 0. -1.
       -1   -1    0    0    0  501  0.00000000000E+00  0.00000000000E+00 -0.83833093740E+03  0.83833093741E+03  0.50400001928E-02 0.  1.
    10030    2    1    2    0    0  0.00000000000E+00  0.00000000000E+00  0.14556517239E+04  0.31323135987E+04  0.27735296176E+04 0.  0.
        1    1    3    3  502    0  0.44052194428E+03  0.11531831973E+04  0.14247618684E+02  0.12345420465E+04  0.50400001928E-02 0. -1.
       -1    1    3    3    0  502 -0.44052194428E+03 -0.11531831973E+04  0.14414041052E+04  0.18977715522E+04  0.50400001928E-02 0.  1.
</event>
<event>
 5   0  0.1734885E-06  0.3001545E+04  0.7818609E-02  0.8243290E-01
       -1   -1    0    0    0  501  0.00000000000E+00  0.00000000000E+00  0.17005839829E+04  0.17005839829E+04  0.50400001928E-02 0. -1.
        1   -1    0    0  501    0  0.00000000000E+00  0.00000000000E+00 -0.13244383828E+04  0.13244383829E+04  0.50400001928E-02 0.  1.
    10030    2    1    2    0    0  0.00000000000E+00  0.00000000000E+00  0.37614560004E+03  0.30250223658E+04  0.30015454021E+04 0.  0.
        2    1    3    3  502    0  0.11433649193E+04 -0.68915366292E+03  0.87907589909E+03  0.15984337791E+04  0.25500000920E-02 0. -1.
       -2    1    3    3    0  502 -0.11433649193E+04  0.68915366292E+03 -0.50293029904E+03  0.14265885866E+04  0.25500000920E-02 0.  1.
</event>
<event>
 5   0  0.4532420E-06  0.3000278E+04  0.7818609E-02  0.8243652E-01
        2   -1    0    0  501    0  0.00000000000E+00  0.00000000000E+00  0.23986704491E+04  0.23986704491E+04  0.25500000920E-02 0.  1.
       -2   -1    0    0    0  501  0.00000000000E+00  0.00000000000E+00 -0.93819331948E+03  0.93819331949E+03  0.25500000920E-02 0. -1.
    10030    2    1    2    0    0  0.00000000000E+00  0.00000000000E+00  0.14604771296E+04  0.33368637686E+04  0.30002777145E+04 0.  0.
        4    1    3    3  502    0 -0.11323626218E+04 -0.19793069537E+03  0.18022102488E+04  0.21376119997E+04  0.12699999809E+01 0.  1.
       -4    1    3    3    0  502  0.11323626218E+04  0.19793069537E+03 -0.34173311922E+03  0.11992517689E+04  0.12699999809E+01 0. -1.
</event>
<event>
 5   0  0.4532420E-06  0.2984481E+04  0.7818609E-02  0.8248176E-01
       -2   -1    0    0    0  501  0.00000000000E+00  0.00000000000E+00  0.88551616046E+03  0.88551616047E+03  0.25500000920E-02 0.  1.
        2   -1    0    0  501    0  0.00000000000E+00  0.00000000000E+00 -0.25146710623E+04  0.25146710623E+04  0.25500000920E-02 0. -1.
    10030    2    1    2    0    0  0.00000000000E+00  0.00000000000E+00 -0.16291549018E+04  0.34001872228E+04  0.29844811032E+04 0.  0.
        4    1    3    3  502    0 -0.11590890602E+04  0.60311825689E+02 -0.18831161506E+04  0.22120698487E+04  0.12699999809E+01 0. -1.
       -4    1    3    3    0  502  0.11590890602E+04 -0.60311825689E+02  0.25396124878E+03  0.11881173741E+04  0.12699999809E+01 0.  1.
</event>
<event>
 5   0  0.4702748E-06  0.3048343E+04  0.7818609E-02  0.8230059E-01
        2   -1    0    0  501    0  0.00000000000E+00  0.00000000000E+00  0.15339992723E+04  0.15339992723E+04  0.25500000920E-02 0.  1.
       -2   -1    0    0    0  501  0.00000000000E+00  0.00000000000E+00 -0.15144071811E+04  0.15144071811E+04  0.25500000920E-02 0. -1.
    10030    2    1    2    0    0  0.00000000000E+00  0.00000000000E+00  0.19592091182E+02  0.30484064534E+04  0.30483434936E+04 0.  0.
        2    1    3    3  502    0  0.24702837673E+03 -0.54552131557E+03 -0.13918330558E+04  0.15151949643E+04  0.25500000920E-02 0. -1.
       -2    1    3    3    0  502 -0.24702837673E+03  0.54552131557E+03  0.14114251470E+04  0.15332114891E+04  0.25500000920E-02 0.  1.
</event>
<event>
 5   0  0.4768570E-06  0.3009369E+04  0.7818609E-02  0.8241060E-01
       -2   -1    0    0    0  501  0.00000000000E+00  0.00000000000E+00  0.15723530284E+04  0.15723530284E+04  0.25500000920E-02 0.  1.
        2   -1    0    0  501    0  0.00000000000E+00  0.00000000000E+00 -0.14399284643E+04  0.14399284643E+04  0.25500000920E-02 0. -1.
    10030    2    1    2    0    0  0.00000000000E+00  0.00000000000E+00  0.13242456409E+03  0.30122814927E+04  0.30093692905E+04 0.  0.
        1    1    3    3  502    0  0.56558506689E+03  0.86250442893E+03  0.11628433455E+04  0.15543503479E+04  0.50400001928E-02 0.  1.
       -1    1    3    3    0  502 -0.56558506689E+03 -0.86250442893E+03 -0.10304187815E+04  0.14579311448E+04  0.50400001928E-02 0. -1.
</event>
<event>
 5   0  0.4532420E-06  0.3012412E+04  0.7818609E-02  0.8240195E-01
        2   -1    0    0  501    0  0.00000000000E+00  0.00000000000E+00  0.21092041121E+04  0.21092041121E+04  0.25500000920E-02 0. -1.
       -2   -1    0    0    0  501  0.00000000000E+00  0.00000000000E+00 -0.10755985570E+04  0.10755985570E+04  0.25500000920E-02 0.  1.
    10030    2    1    2    0    0  0.00000000000E+00  0.00000000000E+00  0.10336055551E+04  0.31848026691E+04  0.30124122555E+04 0.  0.
        4    1    3    3  502    0 -0.10457191543E+04  0.10763011989E+04  0.38016889080E+03  0.15480577569E+04  0.12699999809E+01 0.  1.
       -4    1    3    3    0  502  0.10457191543E+04 -0.10763011989E+04  0.65343666425E+03  0.16367449121E+04  0.12699999809E+01 0. -1.
</event>
<event>
 5   0  0.4935331E-06  0.2944746E+04  0.7818609E-02  0.8259687E-01
        2   -1    0    0  501    0  0.00000000000E+00  0.00000000000E+00  0.19711158973E+04  0.19711158973E+04  0.25500000920E-02 0. -1.
       -2   -1    0    0    0  501  0.00000000000E+00  0.00000000000E+00 -0.10998248706E+04  0.10998248706E+04  0.25500000920E-02 0.  1.
    10030    2    1    2    0    0  0.00000000000E+00  0.00000000000E+00  0.87129102675E+03  0.30709407679E+04  0.29447460241E+04 0.  0.
        5    1    3    3  502    0 -0.13106270130E+04  0.59127059087E+03  0.10501612875E+03  0.14416638153E+04  0.46999998093E+01 0. -1.
       -5    1    3    3    0  502  0.13106270130E+04 -0.59127059087E+03  0.76627489799E+03  0.16292769526E+04  0.46999998093E+01 0.  1.
</event>
<event>
 5   0  0.1709858E-06  0.3179939E+04  0.7818609E-02  0.8194135E-01
        1   -1    0    0  501    0  0.00000000000E+00  0.00000000000E+00  0.28683368378E+04  0.28683368378E+04  0.50400001928E-02 0. -1.
       -1   -1    0    0    0  501  0.00000000000E+00  0.00000000000E+00 -0.88134795695E+03  0.88134795697E+03  0.50400001928E-02 0.  1.
    10030    2    1    2    0    0  0.00000000000E+00  0.00000000000E+00  0.19869888809E+04  0.37496847948E+04  0.31799388748E+04 0.  0.
        3    1    3    3  502    0  0.14055006070E+03 -0.77730594944E+03  0.26205952954E+04  0.27370565524E+04  0.10100000352E+00 0. -1.
       -3    1    3    3    0  502 -0.14055006070E+03  0.77730594944E+03 -0.63360641451E+03  0.10126282424E+04  0.10100000352E+00 0.  1.
</event>
<event>
 5   0  0.1709858E-06  0.2959164E+04  0.7818609E-02  0.8255489E-01
        1   -1    0    0  501    0  0.00000000000E+00  0.00000000000E+00  0.10023596796E+04  0.10023596796E+04  0.50400001928E-02 0. -1.
       -1   -1    0    0    0  501  0.00000000000E+00  0.00000000000E+00 -0.21840089872E+04  0.21840089872E+04  0.50400001928E-02 0.  1.
    10030    2    1    2    0    0  0.00000000000E+00  0.00000000000E+00 -0.11816493075E+04  0.31863686668E+04  0.29591637661E+04 0.  0.
        3    1    3    3  502    0 -0.11483863387E+04  0.93122155246E+03 -0.65171536174E+03  0.16157653560E+04  0.10100000352E+00 0.  1.
       -3    1    3    3    0  502  0.11483863387E+04 -0.93122155246E+03 -0.52993394580E+03  0.15706033108E+04  0.10100000352E+00 0. -1.
</event>
<event>
 5   0  0.1686012E-06  0.3094327E+04  0.7818609E-02  0.8217297E-01
       -1   -1    0    0    0  501  0.00000000000E+00  0.00000000000E+00  0.18885453956E+04  0.18885453956E+04  0.50400001928E-02 0. -1.
        1   -1    0    0  501    0  0.00000000000E+00  0.00000000000E+00 -0.12674910199E+04  0.12674910199E+04  0.50400001928E-02 0.  1.
    10030    2    1    2    0    0  0.00000000000E+00  0.00000000000E+00  0.62105437568E+03  0.31560364155E+04  0.30943266341E+04 0.  0.
        4    1    3    3  502    0  0.89835055951E+03  0.97848934132E+03 -0.49853738044E+03  0.14188080390E+04  0.12699999809E+01 0.  1.
       -4    1    3    3    0  502 -0.89835055951E+03 -0.97848934132E+03  0.11195917561E+04  0.17372283765E+04  0.12699999809E+01 0. -1.
</event>
<event>
 5   0  0.1700885E-06  0.2950197E+04  0.7818609E-02  0.8258097E-01
        1   -1    0    0  501    0  0.00000000000E+00  0.00000000000E+00  0.27177317907E+04  0.27177317907E+04  0.50400001928E-02 0.  1.
       -1   -1    0    0    0  501  0.00000000000E+00  0.00000000000E+00 -0.80063674452E+03  0.80063674454E+03  0.50400001928E-02 0. -1.
    10030    2    1    2    0    0  0.00000000000E+00  0.00000000000E+00  0.19170950462E+04  0.35183685353E+04  0.29501972364E+04 0.  0.
        1    1    3    3  502    0  0.57872164136E+03  0.99770565815E+03  0.20551968726E+04  0.23567285596E+04  0.50400001928E-02 0.  1.
       -1    1    3    3    0  502 -0.57872164136E+03 -0.99770565815E+03 -0.13810182643E+03  0.11616399756E+04  0.50400001928E-02 0. -1.
</event>
<event>
 5   0  0.4768570E-06  0.3001272E+04  0.7818609E-02  0.8243368E-01
       -2   -1    0    0    0  501  0.00000000000E+00  0.00000000000E+00  0.12081978776E+04  0.12081978776E+04  0.25500000920E-02 0. -1.
        2   -1    0    0  501    0  0.00000000000E+00  0.00000000000E+00 -0.18638576407E+04  0.18638576407E+04  0.25500000920E-02 0.  1.
    10030    2    1    2    0    0  0.00000000000E+00  0.00000000000E+00 -0.65565976307E+03  0.30720555183E+04  0.30012722940E+04 0.  0.
        1    1    3    3  502    0  0.11063074434E+02 -0.58033992832E+03  0.10886393505E+04  0.12337149020E+04  0.50400001928E-02 0. -1.
       -1    1    3    3    0  502 -0.11063074434E+02  0.58033992832E+03 -0.17442991135E+04  0.18383406163E+04  0.50400001928E-02 0.  1.
</event>
<event>
 5   0  0.4532420E-06  0.2639634E+04  0.7818609E-02  0.8354862E-01
       -2   -1    0    0    0  501  0.00000000000E+00  0.00000000000E+00  0.13759339692E+04  0.13759339692E+04  0.25500000920E-02 0.  1.
        2   -1    0    0  501    0  0.00000000000E+00  0.00000000000E+00 -0.12659884377E+04  0.12659884377E+04  0.25500000920E-02 0. -1.
    10030    2    1    2    0    0  0.00000000000E+00  0.00000000000E+00  0.10994553150E+03  0.26419224069E+04  0.26396336837E+04 0.  0.
        4    1    3    3  502    0  0.46785855165E+03 -0.12257760304E+04 -0.88316943253E+02  0.13149980975E+04  0.12699999809E+01 0.  1.
       -4    1    3    3    0  502 -0.46785855165E+03  0.12257760304E+04  0.19826247475E+03  0.13269243094E+04  0.12699999809E+01 0. -1.
</event>
<event>
 5   0  0.4702748E-06  0.2988401E+04  0.7818609E-02  0.8247051E-01
       -2   -1    0    0    0  501  0.00000000000E+00  0.00000000000E+00  0.16905404508E+04  0.16905404508E+04  0.25500000920E-02 0. -1.
        2   -1    0    0  501    0  0.00000000000E+00  0.00000000000E+00 -0.13206639098E+04  0.13206639098E+04  0.25500000920E-02 0.  1.
    10030    2    1    2    0    0  0.00000000000E+00  0.00000000000E+00  0.36987654097E+03  0.30112043606E+04  0.29884014198E+04 0.  0.
        2    1    3    3  502    0 -0.27136271851E+03  0.19134994881E+03 -0.12830182746E+04  0.13252880521E+04  0.25500000920E-02 0.  1.
       -2    1    3    3    0  502  0.27136271851E+03 -0.19134994881E+03  0.16528948156E+04  0.16859163085E+04  0.25500000920E-02 0. -1.
</event>
<event>
 5   0  0.1672907E-06  0.2950817E+04  0.7818609E-02  0.8257916E-01
        1   -1    0    0  501    0  0.00000000000E+00  0.00000000000E+00  0.15361955691E+04  0.15361955691E+04  0.50400001928E-02 0. -1.
       -1   -1    0    0    0  501  0.00000000000E+00  0.00000000000E+00 -0.14170269946E+04  0.14170269946E+04  0.50400001928E-02 0.  1.
    10030    2    1    2    0    0  0.00000000000E+00  0.00000000000E+00  0.11916857455E+03  0.29532225637E+04  0.29508172362E+04 0.  0.
        5    1    3    3  502    0  0.12166462398E+04  0.76009363265E+03 -0.28542573479E+03  0.14626894214E+04  0.46999998093E+01 0.  1.
       -5    1    3    3    0  502 -0.12166462398E+04 -0.76009363265E+03  0.40459430934E+03  0.14905331423E+04  0.46999998093E+01 0. -1.
</event>
<event>
 5   0  0.1709858E-06  0.3046008E+04  0.7818609E-02  0.8230714E-01
        1   -1    0    0  501    0  0.00000000000E+00  0.00000000000E+00  0.15823355437E+04  0.15823355437E+04  0.50400001928E-02 0.  1.
       -1   -1    0    0    0  501  0.00000000000E+00  0.00000000000E+00 -0.14658974564E+04  0.14658974564E+04  0.50400001928E-02 0. -1.
    10030    2    1    2    0    0  0.00000000000E+00  0.00000000000E+00  0.11643808728E+03  0.30482330002E+04  0.30460083052E+04 0.  0.
        3    1    3    3  502    0 -0.12407070187E+04  0.88321531143E+03  0.69110275778E+02  0.15245325294E+04  0.10100000352E+00 0. -1.
       -3    1    3    3    0  502  0.12407070187E+04 -0.88321531143E+03  0.47327811497E+02  0.15237004708E+04  0.10100000352E+00 0.  1.
</event>
<event>
 5   0  0.4768570E-06  0.3037114E+04  0.7818609E-02  0.8233212E-01
        2   -1    0    0  501    0  0.00000000000E+00  0.00000000000E+00  0.23535532414E+04  0.23535532414E+04  0.25500000920E-02 0. -1.
       -2   -1    0    0    0  501  0.00000000000E+00  0.00000000000E+00 -0.97980153650E+03  0.97980153651E+03  0.25500000920E-02 0.  1.
    10030    2    1    2    0    0  0.00000000000E+00  0.00000000000E+00  0.13737517049E+04  0.33333547779E+04  0.30371138156E+04 0.  0.
        1    1    3    3  502    0  0.68664112845E+03 -0.23598719816E+03 -0.77695206062E+03  0.10634004427E+04  0.50400001928E-02 0.  1.
       -1    1    3    3    0  502 -0.68664112845E+03  0.23598719816E+03  0.21507037655E+04  0.22699543352E+04  0.50400001928E-02 0. -1.
</event>
<event>
 5   0  0.1686012E-06  0.2998373E+04  0.7818609E-02  0.8244196E-01
       -1   -1    0    0    0  501  0.00000000000E+00  0.00000000000E+00  0.14549127876E+04  0.14549127876E+04  0.50400001928E-02 0. -1.
        1   -1    0    0  501    0  0.00000000000E+00  0.00000000000E+00 -0.15448072801E+04  0.15448072801E+04  0.50400001928E-02 0.  1.
    10030    2    1    2    0    0  0.00000000000E+00  0.00000000000E+00 -0.89894492456E+02  0.29997200677E+04  0.29983728028E+04 0.  0.
        4    1    3    3  502    0 -0.10669549687E+04 -0.67475201878E+03  0.76404150967E+03  0.14756165605E+04  0.12699999809E+01 0. -1.
       -4    1    3    3    0  502  0.10669549687E+04  0.67475201878E+03 -0.85393600212E+03  0.15241035072E+04  0.12699999809E+01 0.  1.
</event>
<event>
 5   0  0.1709858E-06  0.3000158E+04  0.7818609E-02  0.8243686E-01
       -1   -1    0    0    0  501  0.00000000000E+00  0.00000000000E+00  0.10773497023E+04  0.10773497023E+04  0.50400001928E-02 0.  1.
        1   -1    0    0  501    0  0.00000000000E+00  0.00000000000E+00 -0.20886778178E+04  0.20886778178E+04  0.50400001928E-02 0. -1.
    10030    2    1    2    0    0  0.00000000000E+00  0.00000000000E+00 -0.10113281155E+04  0.31660275201E+04  0.30001576127E+04 0.  0.
        3    1    3    3  502    0 -0.34821091637E+03 -0.14518990023E+04 -0.35282999804E+03  0.15341937859E+04  0.10100000352E+00 0. -1.
       -3    1    3    3    0  502  0.34821091637E+03  0.14518990023E+04 -0.65849811748E+03  0.16318337342E+04  0.10100000352E+00 0.  1.
</event>
<event>
 5   0  0.1700885E-06  0.2992979E+04  0.7818609E-02  0.8245739E-01
        1   -1    0    0  501    0  0.00000000000E+00  0.00000000000E+00  0.17507988660E+04  0.17507988660E+04  0.50400001928E-02 0.  1.
       -1   -1    0    0    0  501  0.00000000000E+00  0.00000000000E+00 -0.12791192820E+04  0.12791192820E+04  0.50400001928E-02 0. -1.
    10030    2    1    2    0    0  0.00000000000E+00  0.00000000000E+00  0.47167958405E+03  0.30299181480E+04  0.29929788428E+04 0.  0.
        1    1    3    3  502    0  0.36649144929E+03 -0.10864945660E+04  0.12093181657E+04  0.16665043805E+04  0.50400001928E-02 0.  1.
       -1    1    3    3    0  502 -0.36649144929E+03  0.10864945660E+04 -0.73763858165E+03  0.13634137675E+04  0.50400001928E-02 0. -1.
</event>
<event>
 5   0  0.1672907E-06  0.3005652E+04  0.7818609E-02  0.8242119E-01
       -1   -1    0    0    0  501  0.00000000000E+00  0.00000000000E+00  0.15017680101E+04  0.15017680101E+04  0.50400001928E-02 0. -1.
        1   -1    0    0  501    0  0.00000000000E+00  0.00000000000E+00 -0.15038851766E+04  0.15038851766E+04  0.50400001928E-02 0.  1.
    10030    2    1    2    0    0  0.00000000000E+00  0.00000000000E+00 -0.21171664784E+01  0.30056531867E+04  0.30056524410E+04 0.  0.
        5    1    3    3  502    0 -0.13684727211E+04  0.45673514221E+03  0.41982152833E+03  0.15025301276E+04  0.46999998093E+01 0. -1.
       -5    1    3    3    0  502  0.13684727211E+04 -0.45673514221E+03 -0.42193869481E+03  0.15031230591E+04  0.46999998093E+01 0.  1.
</event>
<event>
 5   0  0.1709858E-06  0.3007120E+04  0.7818609E-02  0.8241701E-01
        1   -1    0    0  501    0  0.00000000000E+00  0.00000000000E+00  0.10371036291E+04  0.10371036291E+04  0.50400001928E-02 0.  1.
       -1   -1    0    0    0  501  0.00000000000E+00  0.00000000000E+00 -0.21798136631E+04  0.21798136631E+04  0.50400001928E-02 0. -1.
    10030    2    1    2    0    0  0.00000000000E+00  0.00000000000E+00 -0.11427100341E+04  0.32169172922E+04  0.30071199915E+04 0.  0.
        3    1    3    3  502    0  0.76113630082E+03 -0.12526746483E+04 -0.21307029732E+03  0.14811891185E+04  0.10100000352E+00 0. -1.
       -3    1    3    3    0  502 -0.76113630082E+03  0.12526746483E+04 -0.92963973674E+03  0.17357281738E+04  0.10100000352E+00 0.  1.
</event>
<event>
 5   0  0.4532420E-06  0.3119744E+04  0.7818609E-02  0.8210340E-01
        2   -1    0    0  501    0  0.00000000000E+00  0.00000000000E+00  0.20588375879E+04  0.20588375879E+04  0.25500000920E-02 0. -1.
       -2   -1    0    0    0  501  0.00000000000E+00  0.00000000000E+00 -0.11818324894E+04  0.11818324894E+04  0.25500000920E-02 0.  1.
    10030    2    1    2    0    0  0.00000000000E+00  0.00000000000E+00  0.87700509849E+03  0.32406700774E+04  0.31197443176E+04 0.  0.
        4    1    3    3  502    0  0.13249871548E+04 -0.81063131364E+03  0.28982732840E+03  0.15800998640E+04  0.12699999809E+01 0. -1.
       -4    1    3    3    0  502 -0.13249871548E+04  0.81063131364E+03  0.58717777009E+03  0.16605702134E+04  0.12699999809E+01 0.  1.
</event>
<event>
 5   0  0.4768570E-06  0.2991038E+04  0.7818609E-02  0.8246295E-01
        2   -1    0    0  501    0  0.00000000000E+00  0.00000000000E+00  0.16807365276E+04  0.16807365276E+04  0.25500000920E-02 0. -1.
       -2   -1    0    0    0  501  0.00000000000E+00  0.00000000000E+00 -0.13307125111E+04  0.13307125111E+04  0.25500000920E-02 0.  1.
    10030    2    1    2    0    0  0.00000000000E+00  0.00000000000E+00  0.35002401653E+03  0.30114490387E+04  0.29910380306E+04 0.  0.
        1    1    3    3  502    0 -0.11836721535E+04 -0.70730759575E+03 -0.40791505541E+03  0.14379702690E+04  0.50400001928E-02 0.  1.
       -1    1    3    3    0  502  0.11836721535E+04  0.70730759575E+03  0.75793907194E+03  0.15734787697E+04  0.50400001928E-02 0. -1.
</event>
<event>
 5   0  0.1686012E-06  0.2975155E+04  0.7818609E-02  0.8250861E-01
       -1   -1    0    0    0  501  0.00000000000E+00  0.00000000000E+00  0.11264380927E+04  0.11264380927E+04  0.50400001928E-02 0.  1.
        1   -1    0    0  501    0  0.00000000000E+00  0.00000000000E+00 -0.19644991015E+04  0.19644991015E+04  0.50400001928E-02 0. -1.
    10030    2    1    2    0    0  0.00000000000E+00  0.00000000000E+00 -0.83806100879E+03  0.30909371942E+04  0.29751548672E+04 0.  0.
        4    1    3    3  502    0 -0.14043170887E+04  0.25572550601E+02 -0.92812558542E+03  0.16835020511E+04  0.12699999809E+01 0. -1.
       -4    1    3    3    0  502  0.14043170887E+04 -0.25572550601E+02  0.90064576629E+02  0.14074351430E+04  0.12699999809E+01 0.  1.
</event>
<event>
 5   0  0.4935331E-06  0.2986946E+04  0.7818609E-02  0.8247468E-01
       -2   -1    0    0    0  501  0.00000000000E+00  0.00000000000E+00  0.11309698201E+04  0.11309698201E+04  0.25500000920E-02 0.  1.
        2   -1    0    0  501    0  0.00000000000E+00  0.00000000000E+00 -0.19721676313E+04  0.19721676313E+04  0.25500000920E-02 0. -1.
    10030    2    1    2    0    0  0.00000000000E+00  0.00000000000E+00 -0.84119781127E+03  0.31031374514E+04  0.29869463143E+04 0.  0.
        5    1    3    3  502    0 -0.55408625339E+03 -0.50973263953E+03  0.91938069734E+03  0.11883273525E+04  0.46999998093E+01 0.  1.
       -5    1    3    3    0  502  0.55408625339E+03  0.50973263953E+03 -0.17605785086E+04  0.19148100989E+04  0.46999998093E+01 0. -1.
</event>
<event>
 5   0  0.1686012E-06  0.2983272E+04  0.7818609E-02  0.8248524E-01
       -1   -1    0    0    0  501  0.00000000000E+00  0.00000000000E+00  0.17679563106E+04  0.17679563106E+04  0.50400001928E-02 0. -1.
        1   -1    0    0  501    0  0.00000000000E+00  0.00000000000E+00 -0.12585030970E+04  0.12585030970E+04  0.50400001928E-02 0.  1.
    10030    2    1    2    0    0  0.00000000000E+00  0.00000000000E+00  0.50945321359E+03  0.30264594076E+04  0.29832723592E+04 0.  0.
        4    1    3    3  502    0  0.92120818277E+03 -0.37815770608E+03  0.13813660766E+04  0.17028803884E+04  0.12699999809E+01 0. -1.
       -4    1    3    3    0  502 -0.92120818277E+03  0.37815770608E+03 -0.87191286298E+03  0.13235790192E+04  0.12699999809E+01 0.  1.
</event>
<event>
 5   0  0.1700885E-06  0.2998224E+04  0.7818609E-02  0.8244238E-01
        1   -1    0    0  501    0  0.00000000000E+00  0.00000000000E+00  0.16510853791E+04  0.16510853791E+04  0.50400001928E-02 0.  1.
       -1   -1    0    0    0  501  0.00000000000E+00  0.00000000000E+00 -0.13611271072E+04  0.13611271072E+04  0.50400001928E-02 0. -1.
    10030    2    1    2    0    0  0.00000000000E+00  0.00000000000E+00  0.28995827188E+03  0.30122124864E+04  0.29982241850E+04 0.  0.
        1    1    3    3  502    0 -0.51205385364E+03  0.56322031694E+03 -0.11525263794E+04  0.13812072001E+04  0.50400001928E-02 0. -1.
       -1    1    3    3    0  502  0.51205385364E+03 -0.56322031694E+03  0.14424846513E+04  0.16310052862E+04  0.50400001928E-02 0.  1.
</event>
<event>
 5   0  0.1709858E-06  0.2976871E+04  0.7818609E-02  0.8250366E-01
        1   -1    0    0  501    0  0.00000000000E+00  0.00000000000E+00  0.12868131048E+04  0.12868131048E+04  0.50400001928E-02 0. -1.
       -1   -1    0    0    0  501  0.00000000000E+00  0.00000000000E+00 -0.17216491957E+04  0.17216491957E+04  0.50400001928E-02 0.  1.
    10030    2    1    2    0    0  0.00000000000E+00  0.00000000000E+00 -0.43483609091E+03  0.30084623005E+04  0.29768713421E+04 0.  0.
        3    1    3    3  502    0  0.43059924659E+03  0.13375666480E+04 -0.71348397590E+03  0.15759313573E+04  0.10100000352E+00 0.  1.
       -3    1    3    3    0  502 -0.43059924659E+03 -0.13375666480E+04  0.27864788500E+03  0.14325309431E+04  0.10100000352E+00 0. -1.
</event>
<event>
 5   0  0.1709858E-06  0.2952627E+04  0.7818609E-02  0.8257389E-01
        1   -1    0    0  501    0  0.00000000000E+00  0.00000000000E+00  0.16768023827E+04  0.16768023827E+04  0.50400001928E-02 0.  1.
       -1   -1    0    0    0  501  0.00000000000E+00  0.00000000000E+00 -0.12997960311E+04  0.12997960311E+04  0.50400001928E-02 0. -1.
    10030    2    1    2    0    0  0.00000000000E+00  0.00000000000E+00  0.37700635163E+03  0.29765984138E+04  0.29526266828E+04 0.  0.
        3    1    3    3  502    0  0.50908340372E+03  0.13699833428E+04 -0.21710259952E+02  0.14616742513E+04  0.10100000352E+00 0. -1.
       -3    1    3    3    0  502 -0.50908340372E+03 -0.13699833428E+04  0.39871661158E+03  0.15149241625E+04  0.10100000352E+00 0.  1.
</event>
<event>
 5   0  0.4935331E-06  0.3005957E+04  0.7818609E-02  0.8242032E-01
       -2   -1    0    0    0  501  0.00000000000E+00  0.00000000000E+00  0.15513726145E+04  0.15513726145E+04  0.25500000920E-02 0. -1.
        2   -1    0    0  501    0  0.00000000000E+00  0.00000000000E+00 -0.14560944538E+04  0.14560944538E+04  0.25500000920E-02 0.  1.
    10030    2    1    2    0    0  0.00000000000E+00  0.00000000000E+00  0.95278160706E+02  0.30074670683E+04  0.30059574579E+04 0.  0.
        5    1    3    3  502    0 -0.56041832350E+03 -0.27063161588E+03 -0.13211169768E+04  0.14603706122E+04  0.46999998093E+01 0.  1.
       -5    1    3    3    0  502  0.56041832350E+03  0.27063161588E+03  0.14163951375E+04  0.15470964560E+04  0.46999998093E+01 0. -1.
</event>
<event>
 5   0  0.4768570E-06  0.3010406E+04  0.7818609E-02  0.8240766E-01
        2   -1    0    0  501    0  0.00000000000E+00  0.00000000000E+00  0.15997773603E+04  0.15997773603E+04  0.25500000920E-02 0.  1.
       -2   -1    0    0    0  501  0.00000000000E+00  0.00000000000E+00 -0.14162197326E+04  0.14162197326E+04  0.25500000920E-02 0. -1.
    10030    2    1    2    0    0  0.00000000000E+00  0.00000000000E+00  0.18355762773E+03  0.30159970930E+04  0.30104061291E+04 0.  0.
        1    1    3    3  502    0 -0.14123656799E+04 -0.33078805909E+03  0.49431939612E+03  0.15324977061E+04  0.50400001928E-02 0.  1.
       -1    1    3    3    0  502  0.14123656799E+04  0.33078805909E+03 -0.31076176839E+03  0.14834993868E+04  0.50400001928E-02 0. -1.
</event>
<event>
 5   0  0.1686012E-06  0.2977214E+04  0.7818609E-02  0.8250268E-01
        1   -1    0    0  501    0  0.00000000000E+00  0.00000000000E+00  0.19167539975E+04  0.19167539975E+04  0.50400001928E-02 0. -1.
       -1   -1    0    0    0  501  0.00000000000E+00  0.00000000000E+00 -0.11560956797E+04  0.11560956797E+04  0.50400001928E-02 0.  1.
    10030    2    1    2    0    0  0.00000000000E+00  0.00000000000E+00  0.76065831777E+03  0.30728496772E+04  0.29772141445E+04 0.  0.
        4    1    3    3  502    0  0.60201441299E+03 -0.60183727405E+03  0.16407531316E+04  0.18484322843E+04  0.12699999809E+01 0. -1.
       -4    1    3    3    0  502 -0.60201441299E+03  0.60183727405E+03 -0.88009481381E+03  0.12244173929E+04  0.12699999809E+01 0.  1.
</event>
<event>
 5   0  0.1709858E-06  0.2716428E+04  0.7818609E-02  0.8329694E-01
        1   -1    0    0  501    0  0.00000000000E+00  0.00000000000E+00  0.20804064351E+04  0.20804064351E+04  0.50400001928E-02 0.  1.
       -1   -1    0    0    0  501  0.00000000000E+00  0.00000000000E+00 -0.88672317354E+03  0.88672317355E+03  0.50400001928E-02 0. -1.
    10030    2    1    2    0    0  0.00000000000E+00  0.00000000000E+00  0.11936832616E+04  0.29671296087E+04  0.27164275042E+04 0.  0.
        3    1    3    3  502    0  0.49840958938E+02 -0.22793479413E+03 -0.86466925829E+03  0.89559551584E+03  0.10100000352E+00 0. -1.
       -3    1    3    3    0  502 -0.49840958938E+02  0.22793479413E+03  0.20583525198E+04  0.20715340928E+04  0.10100000352E+00 0.  1.
</event>
<event>
 5   0  0.4935331E-06  0.3004675E+04  0.7818609E-02  0.8242397E-01
        2   -1    0    0  501    0  0.00000000000E+00  0.00000000000E+00  0.15401745976E+04  0.15401745976E+04  0.25500000920E-02 0.  1.
       -2   -1    0    0    0  501  0.00000000000E+00  0.00000000000E+00 -0.14654301882E+04  0.14654301882E+04  0.25500000920E-02 0. -1.
    10030    2    1    2    0    0  0.00000000000E+00  0.00000000000E+00  0.74744409436E+02  0.30056047859E+04  0.30046752573E+04 0.  0.
        5    1    3    3  502    0 -0.10846598084E+04  0.10767376954E+03 -0.99683144223E+03  0.14770834624E+04  0.46999998093E+01 0. -1.
       -5    1    3    3    0  502  0.10846598084E+04 -0.10767376954E+03  0.10715758517E+04  0.15285213235E+04  0.46999998093E+01 0.  1.
</event>
<event>
 5   0  0.1672907E-06  0.2909600E+04  0.7818609E-02  0.8270027E-01
       -1   -1    0    0    0  501  0.00000000000E+00  0.00000000000E+00  0.83781610136E+03  0.83781610138E+03  0.50400001928E-02 0.  1.
        1   -1    0    0  501    0  0.00000000000E+00  0.00000000000E+00 -0.25261434159E+04  0.25261434159E+04  0.50400001928E-02 0. -1.
    10030    2    1    2    0    0  0.00000000000E+00  0.00000000000E+00 -0.16883273146E+04  0.33639595173E+04  0.29096004044E+04 0.  0.
        5    1    3    3  502    0 -0.13791146302E+04  0.26543052022E+03 -0.12829117753E+04  0.19021817046E+04  0.46999998093E+01 0. -1.
       -5    1    3    3    0  502  0.13791146302E+04 -0.26543052022E+03 -0.40541553933E+03  0.14617778127E+04  0.46999998093E+01 0.  1.
</event>
<event>
 5   0  0.1709858E-06  0.3000001E+04  0.7818609E-02  0.8243731E-01
       -1   -1    0    0    0  501  0.00000000000E+00  0.00000000000E+00  0.19632604349E+04  0.19632604349E+04  0.50400001928E-02 0. -1.
        1   -1    0    0  501    0  0.00000000000E+00  0.00000000000E+00 -0.11460537188E+04  0.11460537188E+04  0.50400001928E-02 0.  1.
    10030    2    1    2    0    0  0.00000000000E+00  0.00000000000E+00  0.81720671614E+03  0.31093141537E+04  0.30000012816E+04 0.  0.
        3    1    3    3  502    0 -0.16178682055E+03 -0.17867520123E+03  0.19430568888E+04  0.19579504299E+04  0.10100000352E+00 0. -1.
       -3    1    3    3    0  502  0.16178682055E+03  0.17867520123E+03 -0.11258501727E+04  0.11513637237E+04  0.10100000352E+00 0.  1.
</event>
<event>
 5   0  0.4532420E-06  0.2979098E+04  0.7818609E-02  0.8249725E-01
        2   -1    0    0  501    0  0.00000000000E+00  0.00000000000E+00  0.16142634254E+04  0.16142634254E+04  0.25500000920E-02 0.  1.
       -2   -1    0    0    0  501  0.00000000000E+00  0.00000000000E+00 -0.13744697551E+04  0.13744697551E+04  0.25500000920E-02 0. -1.
    10030    2    1    2    0    0  0.00000000000E+00  0.00000000000E+00  0.23979367027E+03  0.29887331805E+04  0.29790980212E+04 0.  0.
        4    1    3    3  502    0 -0.55350899187E+03 -0.13826261254E+04  0.14695507409E+03  0.14965375416E+04  0.12699999809E+01 0.  1.
       -4    1    3    3    0  502  0.55350899187E+03  0.13826261254E+04  0.92838596182E+02  0.14921956388E+04  0.12699999809E+01 0. -1.
</event>
<event>
 5   0  0.4702748E-06  0.2942824E+04  0.7818609E-02  0.8260249E-01
       -2   -1    0    0    0  501  0.00000000000E+00  0.00000000000E+00  0.85769310416E+03  0.85769310417E+03  0.25500000920E-02 0.  1.
        2   -1    0    0  501    0  0.00000000000E+00  0.00000000000E+00 -0.25242753341E+04  0.25242753341E+04  0.25500000920E-02 0. -1.
    10030    2    1    2    0    0  0.00000000000E+00  0.00000000000E+00 -0.16665822300E+04  0.33819684383E+04  0.29428241858E+04 0.  0.
        2    1    3    3  502    0 -0.64471034403E+03 -0.93361455754E+03  0.24340861791E+03  0.11604030873E+04  0.25500000920E-02 0.  1.
       -2    1    3    3    0  502  0.64471034403E+03  0.93361455754E+03 -0.19099908479E+04  0.22215653510E+04  0.25500000920E-02 0. -1.
</event>
<event>
 5   0  0.1734885E-06  0.2982762E+04  0.7818609E-02  0.8248670E-01
       -1   -1    0    0    0  501  0.00000000000E+00  0.00000000000E+00  0.13396849273E+04  0.13396849273E+04  0.50400001928E-02 0.  1.
        1   -1    0    0  501    0  0.00000000000E+00  0.00000000000E+00 -0.16602544787E+04  0.16602544787E+04  0.50400001928E-02 0. -1.
    10030    2    1    2    0    0  0.00000000000E+00  0.00000000000E+00 -0.32056955141E+03  0.29999394060E+04  0.29827624113E+04 0.  0.
        2    1    3    3  502    0 -0.39303664784E+03  0.12163746223E+04 -0.93293590326E+03  0.15825341791E+04  0.25500000920E-02 0. -1.
       -2    1    3    3    0  502  0.39303664784E+03 -0.12163746223E+04  0.61236635185E+03  0.14174052269E+04  0.25500000920E-02 0.  1.
</event>
<event>
 5   0  0.4702748E-06  0.2999182E+04  0.7818609E-02  0.8243964E-01
        2   -1    0    0  501    0  0.00000000000E+00  0.00000000000E+00  0.12953381089E+04  0.12953381089E+04  0.25500000920E-02 0.  1.
       -2   -1    0    0    0  501  0.00000000000E+00  0.00000000000E+00 -0.17360516279E+04  0.17360516279E+04  0.25500000920E-02 0. -1.
    10030    2    1    2    0    0  0.00000000000E+00  0.00000000000E+00 -0.44071351896E+03  0.30313897368E+04  0.29991824437E+04 0.  0.
        2    1    3    3  502    0  0.14441052504E+04  0.37758229355E+02  0.18634240378E+03  0.14565675918E+04  0.25500000920E-02 0. -1.
       -2    1    3    3    0  502 -0.14441052504E+04 -0.37758229355E+02 -0.62705592274E+03  0.15748221450E+04  0.25500000920E-02 0.  1.
</event>
<event>
 5   0  0.1734885E-06  0.2995198E+04  0.7818609E-02  0.8245103E-01
        1   -1    0    0  501    0  0.00000000000E+00  0.00000000000E+00  0.25296735643E+04  0.25296735643E+04  0.50400001928E-02 0. -1.
       -1   -1    0    0    0  501  0.00000000000E+00  0.00000000000E+00 -0.88659780843E+03  0.88659780844E+03  0.50400001928E-02 0.  1.
    10030    2    1    2    0    0  0.00000000000E+00  0.00000000000E+00  0.16430757559E+04  0.34162713728E+04  0.29951981825E+04 0.  0.
        2    1    3    3  502    0  0.10319887625E+04  0.89567682979E+03  0.12255023483E+03  0.13719534793E+04  0.25500000920E-02 0.  1.
       -2    1    3    3    0  502 -0.10319887625E+04 -0.89567682979E+03  0.15205255211E+04  0.20443178935E+04  0.25500000920E-02 0. -1.
</event>
<event>
 5   0  0.1700885E-06  0.2994242E+04  0.7818609E-02  0.8245377E-01
       -1   -1    0    0    0  501  0.00000000000E+00  0.00000000000E+00  0.10877155289E+04  0.10877155289E+04  0.50400001928E-02 0.  1.
        1   -1    0    0  501    0  0.00000000000E+00  0.00000000000E+00 -0.20606233204E+04  0.20606233204E+04  0.50400001928E-02 0. -1.
    10030    2    1    2    0    0  0.00000000000E+00  0.00000000000E+00 -0.97290779157E+03  0.31483388493E+04  0.29942424650E+04 0.  0.
        1    1    3    3  502    0 -0.82131068609E+03  0.12047932256E+03  0.82358170413E+03  0.11693388447E+04  0.50400001928E-02 0.  1.
       -1    1    3    3    0  502  0.82131068609E+03 -0.12047932256E+03 -0.17964894957E+04  0.19790000047E+04  0.50400001928E-02 0. -1.
</event>
<event>
 5   0  0.4702748E-06  0.3078668E+04  0.7818609E-02  0.8221617E-01
        2   -1    0    0  501    0  0.00000000000E+00  0.00000000000E+00  0.21144926509E+04  0.21144926509E+04  0.25500000920E-02 0. -1.
       -2   -1    0    0    0  501  0.00000000000E+00  0.00000000000E+00 -0.11206229526E+04  0.11206229526E+04  0.25500000920E-02 0.  1.
    10030    2    1    2    0    0  0.00000000000E+00  0.00000000000E+00  0.99386969828E+03  0.32351156035E+04  0.30786678923E+04 0.  0.
        2    1    3    3  502    0  0.93871529149E+03  0.11847189631E+04  0.19092595488E+03  0.15235478792E+04  0.25500000920E-02 0.  1.
       -2    1    3    3    0  502 -0.93871529149E+03 -0.11847189631E+04  0.80294374339E+03  0.17115677243E+04  0.25500000920E-02 0. -1.
</event>
<event>
 5   0  0.4532420E-06  0.2984977E+04  0.7818609E-02  0.8248034E-01
        2   -1    0    0  501    0  0.00000000000E+00  0.00000000000E+00  0.16989817055E+04  0.16989817055E+04  0.25500000920E-02 0. -1.
       -2   -1    0    0    0  501  0.00000000000E+00  0.00000000000E+00 -0.13110926019E+04  0.13110926019E+04  0.25500000920E-02 0.  1.
    10030    2    1    2    0    0  0.00000000000E+00  0.00000000000E+00  0.38788910362E+03  0.30100743074E+04  0.29849772829E+04 0.  0.
        4    1    3    3  502    0  0.13360772013E+04  0.64599134390E+03  0.34139349547E+02  0.14844440752E+04  0.12699999809E+01 0. -1.
       -4    1    3    3    0  502 -0.13360772013E+04 -0.64599134390E+03  0.35374975407E+03  0.15256302323E+04  0.12699999809E+01 0.  1.
</event>
<event>
 5   0  0.4768570E-06  0.2938329E+04  0.7818609E-02  0.8261564E-01
        2   -1    0    0  501    0  0.00000000000E+00  0.00000000000E+00  0.17794192757E+04  0.17794192757E+04  0.25500000920E-02 0.  1.
       -2   -1    0    0    0  501  0.00000000000E+00  0.00000000000E+00 -0.12130051762E+04  0.12130051762E+04  0.25500000920E-02 0. -1.
    10030    2    1    2    0    0  0.00000000000E+00  0.00000000000E+00  0.56641409950E+03  0.29924244518E+04  0.29383293157E+04 0.  0.
        1    1    3    3  502    0  0.26125047864E+03 -0.27985778705E+03  0.17277250717E+04  0.17696344585E+04  0.50400001928E-02 0.  1.
       -1    1    3    3    0  502 -0.26125047864E+03  0.27985778705E+03 -0.11613109722E+04  0.12227899933E+04  0.50400001928E-02 0. -1.
</event>
<event>
 5   0  0.4768570E-06  0.2988327E+04  0.7818609E-02  0.8247072E-01
       -2   -1    0    0    0  501  0.00000000000E+00  0.00000000000E+00  0.11650652495E+04  0.11650652495E+04  0.25500000920E-02 0. -1.
        2   -1    0    0  501    0  0.00000000000E+00  0.00000000000E+00 -0.19162231933E+04  0.19162231933E+04  0.25500000920E-02 0.  1.
    10030    2    1    2    0    0  0.00000000000E+00  0.00000000000E+00 -0.75115794373E+03  0.30812884428E+04  0.29883273267E+04 0.  0.
        1    1    3    3  502    0  0.12965637614E+03 -0.12956761595E+04  0.37997602806E+03  0.13564546687E+04  0.50400001928E-02 0. -1.
       -1    1    3    3    0  502 -0.12965637614E+03  0.12956761595E+04 -0.11311339718E+04  0.17248337741E+04  0.50400001928E-02 0.  1.
</event>
<event>
 5   0  0.1734885E-06  0.2993677E+04  0.7818609E-02  0.8245539E-01
        1   -1    0    0  501    0  0.00000000000E+00  0.00000000000E+00  0.20708535646E+04  0.20708535646E+04  0.50400001928E-02 0.  1.
       -1   -1    0    0    0  501  0.00000000000E+00  0.00000000000E+00 -0.10819330029E+04  0.10819330029E+04  0.50400001928E-02 0. -1.
    10030    2    1    2    0    0  0.00000000000E+00  0.00000000000E+00  0.98892056169E+03  0.31527865675E+04  0.29936765461E+04 0.  0.
        2    1    3    3  502    0  0.75870052690E+03 -0.61238377157E+03 -0.70163313302E+03  0.12012199743E+04  0.25500000920E-02 0. -1.
       -2    1    3    3    0  502 -0.75870052690E+03  0.61238377157E+03  0.16905536947E+04  0.19515665933E+04  0.25500000920E-02 0.  1.
</event>
<event>
 5   0  0.1734885E-06  0.2959671E+04  0.7818609E-02  0.8255342E-01
       -1   -1    0    0    0  501  0.00000000000E+00  0.00000000000E+00  0.12491368549E+04  0.12491368549E+04  0.50400001928E-02 0.  1.
        1   -1    0    0  501    0  0.00000000000E+00  0.00000000000E+00 -0.17531413577E+04  0.17531413577E+04  0.50400001928E-02 0. -1.
    10030    2    1    2    0    0  0.00000000000E+00  0.00000000000E+00 -0.50400450276E+03  0.30022782126E+04  0.29596712532E+04 0.  0.
        2    1    3    3  502    0 -0.28070970889E+03  0.69154196954E+03  0.10442373718E+04  0.12835341542E+04  0.25500000920E-02 0.  1.
       -2    1    3    3    0  502  0.28070970889E+03 -0.69154196954E+03 -0.15482418745E+04  0.17187440584E+04  0.25500000920E-02 0. -1.
</event>
<event>
 5   0  0.4768570E-06  0.2992197E+04  0.7818609E-02  0.8245963E-01
        2   -1    0    0  501    0  0.00000000000E+00  0.00000000000E+00  0.12937982317E+04  0.12937982317E+04  0.25500000920E-02 0. -1.
       -2   -1    0    0    0  501  0.00000000000E+00  0.00000000000E+00 -0.17300307076E+04  0.17300307076E+04  0.25500000920E-02 0.  1.
    10030    2    1    2    0    0  0.00000000000E+00  0.00000000000E+00 -0.43623247588E+03  0.30238289393E+04  0.29921969656E+04 0.  0.
        1    1    3    3  502    0 -0.11215322335E+04  0.93296027434E+03 -0.55337817789E+03  0.15602810106E+04  0.50400001928E-02 0.  1.
       -1    1    3    3    0  502  0.11215322335E+04 -0.93296027434E+03  0.11714570202E+03  0.14635479287E+04  0.50400001928E-02 0. -1.
</event>
<event>
 5   0  0.4935331E-06  0.2999107E+04  0.7818609E-02  0.8243986E-01
       -2   -1    0    0    0  501  0.00000000000E+00  0.00000000000E+00  0.18060498301E+04  0.18060498301E+04  0.25500000920E-02 0.  1.
        2   -1    0    0  501    0  0.00000000000E+00  0.00000000000E+00 -0.12450710883E+04  0.12450710883E+04  0.25500000920E-02 0. -1.
    10030    2    1    2    0    0  0.00000000000E+00  0.00000000000E+00  0.56097874185E+03  0.30511209184E+04  0.29991068187E+04 0.  0.
        5    1    3    3  502    0 -0.71492151362E+03  0.92331095505E+03 -0.67658266755E+03  0.13495933041E+04  0.46999998093E+01 0. -1.
       -5    1    3    3    0  502  0.71492151362E+03 -0.92331095505E+03  0.12375614094E+04  0.17015276143E+04  0.46999998093E+01 0.  1.
</event>
<event>
 5   0  0.4532420E-06  0.3006639E+04  0.7818609E-02  0.8241838E-01
       -2   -1    0    0    0  501  0.00000000000E+00  0.00000000000E+00  0.11218422721E+04  0.11218422721E+04  0.25500000920E-02 0. -1.
        2   -1    0    0  501    0  0.00000000000E+00  0.00000000000E+00 -0.20145160572E+04  0.20145160572E+04  0.25500000920E-02 0.  1.
    10030    2    1    2    0    0  0.00000000000E+00  0.00000000000E+00 -0.89267378504E+03  0.31363583293E+04  0.30066388349E+04 0.  0.
        4    1    3    3  502    0  0.13387630866E+04  0.61221894183E+03 -0.76422907702E+03  0.16586579907E+04  0.12699999809E+01 0. -1.
       -4    1    3    3    0  502 -0.13387630866E+04 -0.61221894183E+03 -0.12844470802E+03  0.14777003386E+04  0.12699999809E+01 0.  1.
</event>
<event>
 5   0  0.1700885E-06  0.3036155E+04  0.7818609E-02  0.8233481E-01
       -1   -1    0    0    0  501  0.00000000000E+00  0.00000000000E+00  0.11592098685E+04  0.11592098685E+04  0.50400001928E-02 0.  1.
        1   -1    0    0  501    0  0.00000000000E+00  0.00000000000E+00 -0.19880429162E+04  0.19880429162E+04  0.50400001928E-02 0. -1.
    10030    2    1    2    0    0  0.00000000000E+00  0.00000000000E+00 -0.82883304768E+03  0.31472527847E+04  0.30361547836E+04 0.  0.
        1    1    3    3  502    0  0.72947148281E+03  0.13249039925E+04 -0.54980878622E+03  0.16092821179E+04  0.50400001928E-02 0.  1.
       -1    1    3    3    0  502 -0.72947148281E+03 -0.13249039925E+04 -0.27902426146E+03  0.15379706668E+04  0.50400001928E-02 0. -1.
</event>
<event>
 5   0  0.5003556E-06  0.3105970E+04  0.7818609E-02  0.8214101E-01
       -2   -1    0    0    0  501  0.00000000000E+00  0.00000000000E+00  0.15571707729E+04  0.15571707729E+04  0.25500000920E-02 0.  1.
        2   -1    0    0  501    0  0.00000000000E+00  0.00000000000E+00 -0.15488103679E+04  0.15488103679E+04  0.25500000920E-02 0. -1.
    10030    2    1    2    0    0  0.00000000000E+00  0.00000000000E+00  0.83604049997E+01  0.31059811408E+04  0.31059698888E+04 0.  0.
        3    1    3    3  502    0  0.46461431996E+03  0.55356448412E+02 -0.14766463615E+04  0.15490046126E+04  0.10100000352E+00 0. -1.
       -3    1    3    3    0  502 -0.46461431996E+03 -0.55356448412E+02  0.14850067665E+04  0.15569765282E+04  0.10100000352E+00 0.  1.
</event>
<event>
 5   0  0.4768570E-06  0.3081020E+04  0.7818609E-02  0.8220966E-01
       -2   -1    0    0    0  501  0.00000000000E+00  0.00000000000E+00  0.12834266856E+04  0.12834266856E+04  0.25500000920E-02 0. -1.
        2   -1    0    0  501    0  0.00000000000E+00  0.00000000000E+00 -0.18490895497E+04  0.18490895497E+04  0.25500000920E-02 0.  1.
    10030    2    1    2    0    0  0.00000000000E+00  0.00000000000E+00 -0.56566286407E+03  0.31325162353E+04  0.30810198780E+04 0.  0.
        1    1    3    3  502    0 -0.14314330980E+01 -0.61269427529E+03 -0.17198820580E+04  0.18257575462E+04  0.50400001928E-02 0.  1.
       -1    1    3    3    0  502  0.14314330980E+01  0.61269427529E+03  0.11542191939E+04  0.13067586891E+04  0.50400001928E-02 0. -1.
</event>
<event>
 5   0  0.1686012E-06  0.3016033E+04  0.7818609E-02  0.8239167E-01
        1   -1    0    0  501    0  0.00000000000E+00  0.00000000000E+00  0.22882666685E+04  0.22882666685E+04  0.50400001928E-02 0.  1.
       -1   -1    0    0    0  501  0.00000000000E+00  0.00000000000E+00 -0.99381521100E+03  0.99381521101E+03  0.50400001928E-02 0. -1.
    10030    2    1    2    0    0  0.00000000000E+00  0.00000000000E+00  0.12944514575E+04  0.32820818795E+04  0.30160333036E+04 0.  0.
        4    1    3    3  502    0  0.71379872033E+03 -0.10285038963E+04 -0.26763829735E+03  0.12802190238E+04  0.12699999809E+01 0. -1.
       -4    1    3    3    0  502 -0.71379872033E+03  0.10285038963E+04  0.15620897549E+04  0.20018628557E+04  0.12699999809E+01 0.  1.
</event>
<event>
 5   0  0.5003556E-06  0.3049927E+04  0.7818609E-02  0.8229616E-01
        2   -1    0    0  501    0  0.00000000000E+00  0.00000000000E+00  0.13026232127E+04  0.13026232127E+04  0.25500000920E-02 0.  1.
       -2   -1    0    0    0  501  0.00000000000E+00  0.00000000000E+00 -0.17852539596E+04  0.17852539596E+04  0.25500000920E-02 0. -1.
    10030    2    1    2    0    0  0.00000000000E+00  0.00000000000E+00 -0.48263074687E+03  0.30878771723E+04  0.30499267193E+04 0.  0.
        3    1    3    3  502    0  0.11230125199E+04  0.47017061902E+03  0.68842257375E+03  0.13986218864E+04  0.10100000352E+00 0.  1.
       -3    1    3    3    0  502 -0.11230125199E+04 -0.47017061902E+03 -0.11710533206E+04  0.16892552859E+04  0.10100000352E+00 0. -1.
</event>
<event>
 5   0  0.4768570E-06  0.2760188E+04  0.7818609E-02  0.8315736E-01
        2   -1    0    0  501    0  0.00000000000E+00  0.00000000000E+00  0.16751572530E+04  0.16751572530E+04  0.25500000920E-02 0.  1.
       -2   -1    0    0    0  501  0.00000000000E+00  0.00000000000E+00 -0.11370031692E+04  0.11370031693E+04  0.25500000920E-02 0. -1.
    10030    2    1    2    0    0  0.00000000000E+00  0.00000000000E+00  0.53815408372E+03  0.28121604222E+04  0.27601877513E+04 0.  0.
        1    1    3    3  502    0  0.28830709136E+02  0.19860462650E+03 -0.11220575904E+04  0.11398632565E+04  0.50400001928E-02 0. -1.
       -1    1    3    3    0  502 -0.28830709136E+02 -0.19860462650E+03  0.16602116741E+04  0.16722971657E+04  0.50400001928E-02 0.  1.
</event>
<event>
 5   0  0.1734885E-06  0.2985803E+04  0.7818609E-02  0.8247797E-01
       -1   -1    0    0    0  501  0.00000000000E+00  0.00000000000E+00  0.12375167961E+04  0.12375167961E+04  0.50400001928E-02 0. -1.
        1   -1    0    0  501    0  0.00000000000E+00  0.00000000000E+00 -0.18009896315E+04  0.18009896315E+04  0.50400001928E-02 0.  1.
    10030    2    1    2    0    0  0.00000000000E+00  0.00000000000E+00 -0.56347283539E+03  0.30385064275E+04  0.29858030200E+04 0.  0.
        2    1    3    3  502    0  0.47092480252E+03 -0.14163153925E+04 -0.24898989475E+03  0.15131805670E+04  0.25500000920E-02 0. -1.
       -2    1    3    3    0  502 -0.47092480252E+03  0.14163153925E+04 -0.31448294065E+03  0.15253258605E+04  0.25500000920E-02 0.  1.
</event>
<event>
 5   0  0.4935331E-06  0.2986114E+04  0.7818609E-02  0.8247707E-01
       -2   -1    0    0    0  501  0.00000000000E+00  0.00000000000E+00  0.93058872394E+03  0.93058872394E+03  0.25500000920E-02 0. -1.
        2   -1    0    0  501    0  0.00000000000E+00  0.00000000000E+00 -0.23954928181E+04  0.23954928181E+04  0.25500000920E-02 0.  1.
    10030    2    1    2    0    0  0.00000000000E+00  0.00000000000E+00 -0.14649040942E+04  0.33260815421E+04  0.29861135978E+04 0.  0.
        5    1    3    3  502    0  0.28277601600E+03 -0.85966132760E+03  0.59027271751E+03  0.10804738981E+04  0.46999998093E+01 0. -1.
       -5    1    3    3    0  502 -0.28277601600E+03  0.85966132760E+03 -0.20551768117E+04  0.22456076440E+04  0.46999998093E+01 0.  1.
</event>
<event>
 5   0  0.1700885E-06  0.2958411E+04  0.7818609E-02  0.8255708E-01
        1   -1    0    0  501    0  0.00000000000E+00  0.00000000000E+00  0.14901208572E+04  0.14901208572E+04  0.50400001928E-02 0.  1.
       -1   -1    0    0    0  501  0.00000000000E+00  0.00000000000E+00 -0.14683696207E+04  0.14683696207E+04  0.50400001928E-02 0. -1.
    10030    2    1    2    0    0  0.00000000000E+00  0.00000000000E+00  0.21751236567E+02  0.29584904779E+04  0.29584105178E+04 0.  0.
        1    1    3    3  502    0  0.10948843265E+04 -0.67952322425E+03 -0.71545296685E+03  0.14739051694E+04  0.50400001928E-02 0. -1.
       -1    1    3    3    0  502 -0.10948843265E+04  0.67952322425E+03  0.73720420342E+03  0.14845853085E+04  0.50400001928E-02 0.  1.
</event>
<event>
 5   0  0.4768570E-06  0.3025967E+04  0.7818609E-02  0.8236354E-01
        2   -1    0    0  501    0  0.00000000000E+00  0.00000000000E+00  0.20482882409E+04  0.20482882409E+04  0.25500000920E-02 0. -1.
       -2   -1    0    0    0  501  0.00000000000E+00  0.00000000000E+00 -0.11175767322E+04  0.11175767322E+04  0.25500000920E-02 0.  1.
    10030    2    1    2    0    0  0.00000000000E+00  0.00000000000E+00  0.93071150874E+03  0.31658649731E+04  0.30259671372E+04 0.  0.
        1    1    3    3  502    0  0.64041361684E+03 -0.60183116099E+03 -0.82316303591E+03  0.12041294493E+04  0.50400001928E-02 0.  1.
       -1    1    3    3    0  502 -0.64041361684E+03  0.60183116099E+03  0.17538745447E+04  0.19617355238E+04  0.50400001928E-02 0. -1.
</event>
<event>
 5   0  0.4702748E-06  0.3019255E+04  0.7818609E-02  0.8238254E-01
        2   -1    0    0  501    0  0.00000000000E+00  0.00000000000E+00  0.26569791759E+04  0.26569791759E+04  0.25500000920E-02 0.  1.
       -2   -1    0    0    0  501  0.00000000000E+00  0.00000000000E+00 -0.85773175167E+03  0.85773175167E+03  0.25500000920E-02 0. -1.
    10030    2    1    2    0    0  0.00000000000E+00  0.00000000000E+00  0.17992474242E+04  0.35147109276E+04  0.30192551417E+04 0.  0.
        2    1    3    3  502    0 -0.12280654988E+04  0.86943316850E+03  0.10417987157E+04  0.18301375543E+04  0.25500000920E-02 0.  1.
       -2    1    3    3    0  502  0.12280654988E+04 -0.86943316850E+03  0.75744870854E+03  0.16845733732E+04  0.25500000920E-02 0. -1.
</event>
<event>
 5   0  0.1545375E-06  0.3030666E+04  0.7818609E-02  0.8235028E-01
       -3   -1    0    0    0  501  0.00000000000E+00  0.00000000000E+00  0.14925064532E+04  0.14925064566E+04  0.10100000352E+00 0.  1.
        3   -1    0    0  501    0  0.00000000000E+00  0.00000000000E+00 -0.15385090313E+04  0.15385090346E+04  0.10100000352E+00 0. -1.
    10030    2    1    2    0    0  0.00000000000E+00  0.00000000000E+00 -0.46002578045E+02  0.30310154912E+04  0.30306663741E+04 0.  0.
        2    1    3    3  502    0  0.83441759037E+03 -0.10673913504E+04 -0.70179713056E+03  0.15258100218E+04  0.25500000920E-02 0. -1.
       -2    1    3    3    0  502 -0.83441759037E+03  0.10673913504E+04  0.65579455252E+03  0.15052054694E+04  0.25500000920E-02 0.  1.
</event>
<event>
 5   0  0.1709858E-06  0.3001059E+04  0.7818609E-02  0.8243428E-01
       -1   -1    0    0    0  501  0.00000000000E+00  0.00000000000E+00  0.13651417614E+04  0.13651417614E+04  0.50400001928E-02 0.  1.
        1   -1    0    0  501    0  0.00000000000E+00  0.00000000000E+00 -0.16493445553E+04  0.16493445553E+04  0.50400001928E-02 0. -1.
    10030    2    1    2    0    0  0.00000000000E+00  0.00000000000E+00 -0.28420279393E+03  0.30144863167E+04  0.30010592339E+04 0.  0.
        3    1    3    3  502    0  0.14930549719E+04  0.86401925434E+02 -0.26475701991E+03  0.15188070094E+04  0.10100000352E+00 0.  1.
       -3    1    3    3    0  502 -0.14930549719E+04 -0.86401925434E+02 -0.19445774018E+02  0.14956793073E+04  0.10100000352E+00 0. -1.
</event>
<event>
 5   0  0.5003556E-06  0.3024912E+04  0.7818609E-02  0.8236653E-01
       -2   -1    0    0    0  501  0.00000000000E+00  0.00000000000E+00  0.14154162600E+04  0.14154162600E+04  0.25500000920E-02 0. -1.
        2   -1    0    0  501    0  0.00000000000E+00  0.00000000000E+00 -0.16161487113E+04  0.16161487113E+04  0.25500000920E-02 0.  1.
    10030    2    1    2    0    0  0.00000000000E+00  0.00000000000E+00 -0.20073245135E+03  0.30315649713E+04  0.30249120083E+04 0.  0.
        3    1    3    3  502    0 -0.28412457735E+03  0.11751031700E+04  0.81043890971E+03  0.14554743117E+04  0.10100000352E+00 0. -1.
       -3    1    3    3    0  502  0.28412457735E+03 -0.11751031700E+04 -0.10111713611E+04  0.15760906595E+04  0.10100000352E+00 0.  1.
</event>
<event>
 5   0  0.4935331E-06  0.3023202E+04  0.7818609E-02  0.8237136E-01
       -2   -1    0    0    0  501  0.00000000000E+00  0.00000000000E+00  0.21097516082E+04  0.21097516082E+04  0.25500000920E-02 0.  1.
        2   -1    0    0  501    0  0.00000000000E+00  0.00000000000E+00 -0.10830361502E+04  0.10830361502E+04  0.25500000920E-02 0. -1.
    10030    2    1    2    0    0  0.00000000000E+00  0.00000000000E+00  0.10267154579E+04  0.31927877584E+04  0.30232017859E+04 0.  0.
        5    1    3    3  502    0  0.78304878582E+03 -0.58484112307E+03 -0.70445773472E+03  0.12047768799E+04  0.46999998093E+01 0. -1.
       -5    1    3    3    0  502 -0.78304878582E+03  0.58484112307E+03  0.17311731926E+04  0.19880108785E+04  0.46999998093E+01 0.  1.
</event>
<event>
 5   0  0.1545375E-06  0.3015910E+04  0.7818609E-02  0.8239202E-01
        3   -1    0    0  501    0  0.00000000000E+00  0.00000000000E+00  0.18553732421E+04  0.18553732448E+04  0.10100000352E+00 0. -1.
       -3   -1    0    0    0  501  0.00000000000E+00  0.00000000000E+00 -0.12255909190E+04  0.12255909232E+04  0.10100000352E+00 0.  1.
    10030    2    1    2    0    0  0.00000000000E+00  0.00000000000E+00  0.62978232305E+03  0.30809641680E+04  0.30159102159E+04 0.  0.
        2    1    3    3  502    0 -0.13360957995E+04  0.30661332531E+03  0.95674700521E+03  0.16716843448E+04  0.25500000920E-02 0. -1.
       -2    1    3    3    0  502  0.13360957995E+04 -0.30661332531E+03 -0.32696468216E+03  0.14092798232E+04  0.25500000920E-02 0.  1.
</event>
<event>
 5   0  0.4768570E-06  0.3003586E+04  0.7818609E-02  0.8242708E-01
       -2   -1    0    0    0  501  0.00000000000E+00  0.00000000000E+00  0.12896247832E+04  0.12896247832E+04  0.25500000920E-02 0.  1.
        2   -1    0    0  501    0  0.00000000000E+00  0.00000000000E+00 -0.17488672247E+04  0.17488672247E+04  0.25500000920E-02 0. -1.
    10030    2    1    2    0    0  0.00000000000E+00  0.00000000000E+00 -0.45924244149E+03  0.30384920079E+04  0.30035862002E+04 0.  0.
        1    1    3    3  502    0 -0.11427598715E+04  0.38350222700E+03  0.67656142405E+03  0.13822841396E+04  0.50400001928E-02 0.  1.
       -1    1    3    3    0  502  0.11427598715E+04 -0.38350222700E+03 -0.11358038655E+04  0.16562078683E+04  0.50400001928E-02 0. -1.
</event>
<event>
 5   0  0.1700885E-06  0.3004057E+04  0.7818609E-02  0.8242573E-01
       -1   -1    0    0    0  501  0.00000000000E+00  0.00000000000E+00  0.18240325128E+04  0.18240325128E+04  0.50400001928E-02 0.  1.
        1   -1    0    0  501    0  0.00000000000E+00  0.00000000000E+00 -0.12368690140E+04  0.12368690140E+04  0.50400001928E-02 0. -1.
    10030    2    1    2    0    0  0.00000000000E+00  0.00000000000E+00  0.58716349876E+03  0.30609015268E+04  0.30040567875E+04 0.  0.
        1    1    3    3  502    0  0.23081867268E+03 -0.54447953268E+03 -0.11132527289E+04  0.12605819528E+04  0.50400001928E-02 0. -1.
       -1    1    3    3    0  502 -0.23081867268E+03  0.54447953268E+03  0.17004162277E+04  0.18003195740E+04  0.50400001928E-02 0.  1.
</event>
<event>
 5   0  0.5003556E-06  0.3006483E+04  0.7818609E-02  0.8241882E-01
        2   -1    0    0  501    0  0.00000000000E+00  0.00000000000E+00  0.13855025372E+04  0.13855025372E+04  0.25500000920E-02 0.  1.
       -2   -1    0    0    0  501  0.00000000000E+00  0.00000000000E+00 -0.16309858203E+04  0.16309858203E+04  0.25500000920E-02 0. -1.
    10030    2    1    2    0    0  0.00000000000E+00  0.00000000000E+00 -0.24548328305E+03  0.30164883575E+04  0.30064829899E+04 0.  0.
        3    1    3    3  502    0 -0.39410222420E+02  0.70572208892E+03 -0.14538587962E+04  0.16165711373E+04  0.10100000352E+00 0. -1.
       -3    1    3    3    0  502  0.39410222420E+02 -0.70572208892E+03  0.12083755131E+04  0.13999172202E+04  0.10100000352E+00 0.  1.
</event>
<event>
 5   0  0.4532420E-06  0.3007686E+04  0.7818609E-02  0.8241540E-01
        2   -1    0    0  501    0  0.00000000000E+00  0.00000000000E+00  0.14024621397E+04  0.14024621397E+04  0.25500000920E-02 0. -1.
       -2   -1    0    0    0  501  0.00000000000E+00  0.00000000000E+00 -0.16125524110E+04  0.16125524110E+04  0.25500000920E-02 0.  1.
    10030    2    1    2    0    0  0.00000000000E+00  0.00000000000E+00 -0.21009027128E+03  0.30150145507E+04  0.30076859575E+04 0.  0.
        4    1    3    3  502    0 -0.12350663207E+04  0.72646717663E+03 -0.56266455329E+03  0.15393948122E+04  0.12699999809E+01 0.  1.
       -4    1    3    3    0  502  0.12350663207E+04 -0.72646717663E+03  0.35257428202E+03  0.14756197385E+04  0.12699999809E+01 0. -1.
</event>
<event>
 5   0  0.4702748E-06  0.2961077E+04  0.7818609E-02  0.8254934E-01
        2   -1    0    0  501    0  0.00000000000E+00  0.00000000000E+00  0.18685094874E+04  0.18685094874E+04  0.25500000920E-02 0.  1.
       -2   -1    0    0    0  501  0.00000000000E+00  0.00000000000E+00 -0.11731242235E+04  0.11731242235E+04  0.25500000920E-02 0. -1.
    10030    2    1    2    0    0  0.00000000000E+00  0.00000000000E+00  0.69538526393E+03  0.30416337108E+04  0.29610766565E+04 0.  0.
        2    1    3    3  502    0  0.53542723462E+03  0.98627994969E+03 -0.64427252449E+03  0.12940315099E+04  0.25500000920E-02 0. -1.
       -2    1    3    3    0  502 -0.53542723462E+03 -0.98627994969E+03  0.13396577884E+04  0.17476022010E+04  0.25500000920E-02 0.  1.
</event>
<event>
 5   0  0.4702748E-06  0.3026949E+04  0.7818609E-02  0.8236077E-01
       -2   -1    0    0    0  501  0.00000000000E+00  0.00000000000E+00  0.90048668880E+03  0.90048668880E+03  0.25500000920E-02 0. -1.
        2   -1    0    0  501    0  0.00000000000E+00  0.00000000000E+00 -0.25437410965E+04  0.25437410965E+04  0.25500000920E-02 0.  1.
    10030    2    1    2    0    0  0.00000000000E+00  0.00000000000E+00 -0.16432544077E+04  0.34442277853E+04  0.30269489570E+04 0.  0.
        2    1    3    3  502    0  0.13229052278E+04  0.58955959349E+03 -0.13214371905E+04  0.19605751719E+04  0.25500000920E-02 0.  1.
       -2    1    3    3    0  502 -0.13229052278E+04 -0.58955959349E+03 -0.32181721715E+03  0.14836526134E+04  0.25500000920E-02 0. -1.
</event>
<event>
 5   0  0.4768570E-06  0.3021306E+04  0.7818609E-02  0.8237673E-01
       -2   -1    0    0    0  501  0.00000000000E+00  0.00000000000E+00  0.17210323737E+04  0.17210323737E+04  0.25500000920E-02 0.  1.
        2   -1    0    0  501    0  0.00000000000E+00  0.00000000000E+00 -0.13259906476E+04  0.13259906476E+04  0.25500000920E-02 0. -1.
    10030    2    1    2    0    0  0.00000000000E+00  0.00000000000E+00  0.39504172609E+03  0.30470230213E+04  0.30213062286E+04 0.  0.
        1    1    3    3  502    0 -0.11454542569E+04 -0.69863649316E+03 -0.50258860928E+03  0.14327434224E+04  0.50400001928E-02 0. -1.
       -1    1    3    3    0  502  0.11454542569E+04  0.69863649316E+03  0.89763033537E+03  0.16142795989E+04  0.50400001928E-02 0.  1.
</event>
<event>
 5   0  0.1545375E-06  0.2992922E+04  0.7818609E-02  0.8245755E-01
        3   -1    0    0  501    0  0.00000000000E+00  0.00000000000E+00  0.20755799624E+04  0.20755799648E+04  0.10100000352E+00 0.  1.
       -3   -1    0    0    0  501  0.00000000000E+00  0.00000000000E+00 -0.10789253929E+04  0.10789253976E+04  0.10100000352E+00 0. -1.
    10030    2    1    2    0    0  0.00000000000E+00  0.00000000000E+00  0.99665456949E+03  0.31545053625E+04  0.29929222761E+04 0.  0.
        2    1    3    3  502    0 -0.13638351292E+04  0.60404950870E+03  0.37152468616E+03  0.15371898584E+04  0.25500000920E-02 0.  1.
       -2    1    3    3    0  502  0.13638351292E+04 -0.60404950870E+03  0.62512988333E+03  0.16173155040E+04  0.25500000920E-02 0. -1.
</event>
<event>
 5   0  0.1700885E-06  0.2983339E+04  0.7818609E-02  0.8248505E-01
       -1   -1    0    0    0  501  0.00000000000E+00  0.00000000000E+00  0.13966664538E+04  0.13966664538E+04  0.50400001928E-02 0.  1.
        1   -1    0    0  501    0  0.00000000000E+00  0.00000000000E+00 -0.15931349933E+04  0.15931349933E+04  0.50400001928E-02 0. -1.
    10030    2    1    2    0    0  0.00000000000E+00  0.00000000000E+00 -0.19646853946E+03  0.29898014471E+04  0.29833392040E+04 0.  0.
        1    1    3    3  502    0  0.10723423482E+04 -0.10283000830E+04 -0.23178593951E+03  0.15036767918E+04  0.50400001928E-02 0.  1.
       -1    1    3    3    0  502 -0.10723423482E+04  0.10283000830E+04  0.35317400049E+02  0.14861246553E+04  0.50400001928E-02 0. -1.
</event>
<event>
 5   0  0.4768570E-06  0.2995533E+04  0.7818609E-02  0.8245007E-01
        2   -1    0    0  501    0  0.00000000000E+00  0.00000000000E+00  0.17706237910E+04  0.17706237910E+04  0.25500000920E-02 0.  1.
       -2   -1    0    0    0  501  0.00000000000E+00  0.00000000000E+00 -0.12669575406E+04  0.12669575406E+04  0.25500000920E-02 0. -1.
    10030    2    1    2    0    0  0.00000000000E+00  0.00000000000E+00  0.50366625039E+03  0.30375813315E+04  0.29955334506E+04 0.  0.
        1    1    3    3  502    0  0.88817928590E+03  0.72950832898E+03  0.12256571903E+04  0.16802620016E+04  0.50400001928E-02 0.  1.
       -1    1    3    3    0  502 -0.88817928590E+03 -0.72950832898E+03 -0.72199093992E+03  0.13573193299E+04  0.50400001928E-02 0. -1.
</event>
<event>
 5   0  0.1734885E-06  0.2990265E+04  0.7818609E-02  0.8246516E-01
        1   -1    0    0  501    0  0.00000000000E+00  0.00000000000E+00  0.19448206073E+04  0.19448206073E+04  0.50400001928E-02 0.  1.
       -1   -1    0    0    0  501  0.00000000000E+00  0.00000000000E+00 -0.11494229009E+04  0.11494229009E+04  0.50400001928E-02 0. -1.
    10030    2    1    2    0    0  0.00000000000E+00  0.00000000000E+00  0.79539770640E+03  0.30942435083E+04  0.29902651015E+04 0.  0.
        2    1    3    3  502    0  0.13075541058E+03 -0.52427340068E+03  0.18402552368E+04  0.19179413214E+04  0.25500000920E-02 0.  1.
       -2    1    3    3    0  502 -0.13075541058E+03  0.52427340068E+03 -0.10448575303E+04  0.11763021868E+04  0.25500000920E-02 0. -1.
</event>
<event>
 5   0  0.1709858E-06  0.3007518E+04  0.7818609E-02  0.8241587E-01
        1   -1    0    0  501    0  0.00000000000E+00  0.00000000000E+00  0.18966346433E+04  0.18966346433E+04  0.50400001928E-02 0. -1.
       -1   -1    0    0    0  501  0.00000000000E+00  0.00000000000E+00 -0.11922650209E+04  0.11922650209E+04  0.50400001928E-02 0.  1.
    10030    2    1    2    0    0  0.00000000000E+00  0.00000000000E+00  0.70436962237E+03  0.30888996642E+04  0.30075180083E+04 0.  0.
        3    1    3    3  502    0 -0.12475927875E+04  0.69524717773E+03  0.83548663520E+03  0.16546583724E+04  0.10100000352E+00 0. -1.
       -3    1    3    3    0  502  0.12475927875E+04 -0.69524717773E+03 -0.13111701283E+03  0.14342412917E+04  0.10100000352E+00 0.  1.
</event>
<event>
 5   0  0.1686012E-06  0.3047835E+04  0.7818609E-02  0.8230202E-01
       -1   -1    0    0    0  501  0.00000000000E+00  0.00000000000E+00  0.18870620459E+04  0.18870620459E+04  0.50400001928E-02 0.  1.
        1   -1    0    0  501    0  0.00000000000E+00  0.00000000000E+00 -0.12306559106E+04  0.12306559106E+04  0.50400001928E-02 0. -1.
    10030    2    1    2    0    0  0.00000000000E+00  0.00000000000E+00  0.65640613525E+03  0.31177179565E+04  0.30478346809E+04 0.  0.
        4    1    3    3  502    0 -0.81371447539E+03 -0.50598770100E+02  0.16452138882E+04  0.18361431954E+04  0.12699999809E+01 0.  1.
       -4    1    3    3    0  502  0.81371447539E+03  0.50598770100E+02 -0.98880775300E+03  0.12815747611E+04  0.12699999809E+01 0. -1.
</event>
<event>
 5   0  0.4768570E-06  0.2997648E+04  0.7818609E-02  0.8244403E-01
       -2   -1    0    0    0  501  0.00000000000E+00  0.00000000000E+00  0.15341383517E+04  0.15341383517E+04  0.25500000920E-02 0.  1.
        2   -1    0    0  501    0  0.00000000000E+00  0.00000000000E+00 -0.14643227524E+04  0.14643227524E+04  0.25500000920E-02 0. -1.
    10030    2    1    2    0    0  0.00000000000E+00  0.00000000000E+00  0.69815599348E+02  0.29984611041E+04  0.29976482073E+04 0.  0.
        1    1    3    3  502    0 -0.20377039735E+02  0.93497717614E+03  0.12064965913E+04  0.15265096032E+04  0.50400001928E-02 0.  1.
       -1    1    3    3    0  502  0.20377039735E+02 -0.93497717614E+03 -0.11366809920E+04  0.14719515010E+04  0.50400001928E-02 0. -1.
</event>
<event>
 5   0  0.1734885E-06  0.3087349E+04  0.7818609E-02  0.8219218E-01
       -1   -1    0    0    0  501  0.00000000000E+00  0.00000000000E+00  0.12921540498E+04  0.12921540498E+04  0.50400001928E-02 0.  1.
        1   -1    0    0  501    0  0.00000000000E+00  0.00000000000E+00 -0.18441543049E+04  0.18441543049E+04  0.50400001928E-02 0. -1.
    10030    2    1    2    0    0  0.00000000000E+00  0.00000000000E+00 -0.55200025510E+03  0.31363083548E+04  0.30873493185E+04 0.  0.
        2    1    3    3  502    0 -0.12485858054E+03  0.11743011632E+04 -0.12859277480E+04  0.17459046538E+04  0.25500000920E-02 0. -1.
       -2    1    3    3    0  502  0.12485858054E+03 -0.11743011632E+04  0.73392749293E+03  0.13904037010E+04  0.25500000920E-02 0.  1.
</event>
<event>
 5   0  0.1672907E-06  0.2992587E+04  0.7818609E-02  0.8245851E-01
       -1   -1    0    0    0  501  0.00000000000E+00  0.00000000000E+00  0.89788399701E+03  0.89788399702E+03  0.50400001928E-02 0.  1.
        1   -1    0    0  501    0  0.00000000000E+00  0.00000000000E+00 -0.24935231435E+04  0.24935231435E+04  0.50400001928E-02 0. -1.
    10030    2    1    2    0    0  0.00000000000E+00  0.00000000000E+00 -0.15956391465E+04  0.33914071405E+04  0.29925871929E+04 0.  0.
        5    1    3    3  502    0 -0.89252186737E+03 -0.10883775665E+04 -0.22251218146E+03  0.14250244811E+04  0.46999998093E+01 0.  1.
       -5    1    3    3    0  502  0.89252186737E+03  0.10883775665E+04 -0.13731269650E+04  0.19663826593E+04  0.46999998093E+01 0. -1.
</event>
<event>
 5   0  0.1672907E-06  0.2947487E+04  0.7818609E-02  0.8258887E-01
        1   -1    0    0  501    0  0.00000000000E+00  0.00000000000E+00  0.13691388270E+04  0.13691388270E+04  0.50400001928E-02 0. -1.
       -1   -1    0    0    0  501  0.00000000000E+00  0.00000000000E+00 -0.15863401829E+04  0.15863401829E+04  0.50400001928E-02 0.  1.
    10030    2    1    2    0    0  0.00000000000E+00  0.00000000000E+00 -0.21720135587E+03  0.29554790099E+04  0.29474870227E+04 0.  0.
        5    1    3    3  502    0  0.26843662114E+03  0.77936795846E+03  0.11163603344E+04  0.13877157924E+04  0.46999998093E+01 0. -1.
       -5    1    3    3    0  502 -0.26843662114E+03 -0.77936795846E+03 -0.13335616903E+04  0.15677632175E+04  0.46999998093E+01 0.  1.
</event>
<event>
 5   0  0.4768570E-06  0.3005412E+04  0.7818609E-02  0.8242187E-01
       -2   -1    0    0    0  501  0.00000000000E+00  0.00000000000E+00  0.14474922798E+04  0.14474922798E+04  0.25500000920E-02 0. -1.
        2   -1    0    0  501    0  0.00000000000E+00  0.00000000000E+00 -0.15600259400E+04  0.15600259400E+04  0.25500000920E-02 0.  1.
    10030    2    1    2    0    0  0.00000000000E+00  0.00000000000E+00 -0.11253366026E+03  0.30075182198E+04  0.30054121211E+04 0.  0.
        1    1    3    3  502    0  0.31928367509E+02 -0.42155737502E+03 -0.14992882558E+04  0.15577532908E+04  0.50400001928E-02 0.  1.
       -1    1    3    3    0  502 -0.31928367509E+02  0.42155737502E+03  0.13867545955E+04  0.14497649290E+04  0.50400001928E-02 0. -1.
</event>
<event>
 5   0  0.1672907E-06  0.2583158E+04  0.7818609E-02  0.8373945E-01
        1   -1    0    0  501    0  0.00000000000E+00  0.00000000000E+00  0.49990361074E+03  0.49990361076E+03  0.50400001928E-02 0. -1.
       -1   -1    0    0    0  501  0.00000000000E+00  0.00000000000E+00 -0.33369968243E+04  0.33369968243E+04  0.50400001928E-02 0.  1.
    10030    2    1    2    0    0  0.00000000000E+00  0.00000000000E+00 -0.28370932135E+04  0.38369004350E+04  0.25831583471E+04 0.  0.
        5    1    3    3  502    0 -0.84593989175E+03 -0.77037586008E+03 -0.52849771518E+03  0.12603274143E+04  0.46999998093E+01 0.  1.
       -5    1    3    3    0  502  0.84593989175E+03  0.77037586008E+03 -0.23085954984E+04  0.25765730208E+04  0.46999998093E+01 0. -1.
</event>
<event>
 5   0  0.4702748E-06  0.3062768E+04  0.7818609E-02  0.8226031E-01
       -2   -1    0    0    0  501  0.00000000000E+00  0.00000000000E+00  0.15539694727E+04  0.15539694727E+04  0.25500000920E-02 0.  1.
        2   -1    0    0  501    0  0.00000000000E+00  0.00000000000E+00 -0.15091269550E+04  0.15091269550E+04  0.25500000920E-02 0. -1.
    10030    2    1    2    0    0  0.00000000000E+00  0.00000000000E+00  0.44842517692E+02  0.30630964277E+04  0.30627681717E+04 0.  0.
        2    1    3    3  502    0  0.96290323666E+03 -0.83253645658E+03 -0.82904395054E+03  0.15190831006E+04  0.25500000920E-02 0. -1.
       -2    1    3    3    0  502 -0.96290323666E+03  0.83253645658E+03  0.87388646823E+03  0.15440133270E+04  0.25500000920E-02 0.  1.
</event>
<event>
 5   0  0.1734885E-06  0.2538661E+04  0.7818609E-02  0.8389340E-01
       -1   -1    0    0    0  501  0.00000000000E+00  0.00000000000E+00  0.11637761000E+04  0.11637761000E+04  0.50400001928E-02 0.  1.
        1   -1    0    0  501    0  0.00000000000E+00  0.00000000000E+00 -0.13844589007E+04  0.13844589007E+04  0.50400001928E-02 0. -1.
    10030    2    1    2    0    0  0.00000000000E+00  0.00000000000E+00 -0.22068280071E+03  0.25482350007E+04  0.25386612063E+04 0.  0.
        2    1    3    3  502    0 -0.11364702924E+04 -0.10131973493E+03  0.44796635986E+03  0.12257668105E+04  0.25500000920E-02 0. -1.
       -2    1    3    3    0  502  0.11364702924E+04  0.10131973493E+03 -0.66864916056E+03  0.13224681902E+04  0.25500000920E-02 0.  1.
</event>
<event>
 5   0  0.4935331E-06  0.2932835E+04  0.7818609E-02  0.8263175E-01
       -2   -1    0    0    0  501  0.00000000000E+00  0.00000000000E+00  0.89283944321E+03  0.89283944322E+03  0.25500000920E-02 0.  1.
        2   -1    0    0  501    0  0.00000000000E+00  0.00000000000E+00 -0.24084738011E+04  0.24084738011E+04  0.25500000920E-02 0. -1.
    10030    2    1    2    0    0  0.00000000000E+00  0.00000000000E+00 -0.15156343579E+04  0.33013132443E+04  0.29328350841E+04 0.  0.
        5    1    3    3  502    0  0.72335899618E+03  0.81408721949E+03 -0.18632221298E+04  0.21581485198E+04  0.46999998093E+01 0. -1.
       -5    1    3    3    0  502 -0.72335899618E+03 -0.81408721949E+03  0.34758777193E+03  0.11431647246E+04  0.46999998093E+01 0.  1.
</event>
<event>
 5   0  0.4532420E-06  0.3013738E+04  0.7818609E-02  0.8239819E-01
        2   -1    0    0  501    0  0.00000000000E+00  0.00000000000E+00  0.17492306315E+04  0.17492306315E+04  0.25500000920E-02 0. -1.
       -2   -1    0    0    0  501  0.00000000000E+00  0.00000000000E+00 -0.12980870989E+04  0.12980870989E+04  0.25500000920E-02 0.  1.
    10030    2    1    2    0    0  0.00000000000E+00  0.00000000000E+00  0.45114353264E+03  0.30473177303E+04  0.30137376898E+04 0.  0.
        4    1    3    3  502    0  0.10434584570E+04  0.52299141767E+03  0.11892527480E+04  0.16663280848E+04  0.12699999809E+01 0. -1.
       -4    1    3    3    0  502 -0.10434584570E+04 -0.52299141767E+03 -0.73810921540E+03  0.13809896456E+04  0.12699999809E+01 0.  1.
</event>
<event>
 5   0  0.4532420E-06  0.3002555E+04  0.7818609E-02  0.8243002E-01
        2   -1    0    0  501    0  0.00000000000E+00  0.00000000000E+00  0.15862587422E+04  0.15862587422E+04  0.25500000920E-02 0. -1.
       -2   -1    0    0    0  501  0.00000000000E+00  0.00000000000E+00 -0.14208489712E+04  0.14208489712E+04  0.25500000920E-02 0.  1.
    10030    2    1    2    0    0  0.00000000000E+00  0.00000000000E+00  0.16540977103E+03  0.30071077134E+04  0.30025549799E+04 0.  0.
        4    1    3    3  502    0  0.13654334733E+04 -0.14565480894E+03  0.69042691207E+03  0.15369823770E+04  0.12699999809E+01 0. -1.
       -4    1    3    3    0  502 -0.13654334733E+04  0.14565480894E+03 -0.52501714104E+03  0.14701253364E+04  0.12699999809E+01 0.  1.
</event>
<event>
 5   0  0.1545375E-06  0.2914517E+04  0.7818609E-02  0.8268571E-01
        3   -1    0    0  501    0  0.00000000000E+00  0.00000000000E+00  0.21520632014E+04  0.21520632037E+04  0.10100000352E+00 0.  1.
       -3   -1    0    0    0  501  0.00000000000E+00  0.00000000000E+00 -0.98677485593E+03  0.98677486110E+03  0.10100000352E+00 0. -1.
    10030    2    1    2    0    0  0.00000000000E+00  0.00000000000E+00  0.11652883454E+04  0.31388380648E+04  0.29145166785E+04 0.  0.
        2    1    3    3  502    0 -0.43630192913E+03  0.13892458384E+04  0.52135638657E+03  0.15466660450E+04  0.25500000920E-02 0. -1.
       -2    1    3    3    0  502  0.43630192913E+03 -0.13892458384E+04  0.64393195886E+03  0.15921720198E+04  0.25500000920E-02 0.  1.
</event>
<event>
 5   0  0.1545375E-06  0.3017488E+04  0.7818609E-02  0.8238755E-01
        3   -1    0    0  501    0  0.00000000000E+00  0.00000000000E+00  0.12311933846E+04  0.12311933887E+04  0.10100000352E+00 0. -1.
       -3   -1    0    0    0  501  0.00000000000E+00  0.00000000000E+00 -0.18488635201E+04  0.18488635229E+04  0.10100000352E+00 0.  1.
    10030    2    1    2    0    0  0.00000000000E+00  0.00000000000E+00 -0.61767013555E+03  0.30800569116E+04  0.30174880583E+04 0.  0.
        3    1    3    3  502    0 -0.10321459945E+04  0.10380092527E+04 -0.68181571532E+03  0.16148254526E+04  0.10100000352E+00 0. -1.
       -3    1    3    3    0  502  0.10321459945E+04 -0.10380092527E+04  0.64145579770E+02  0.14652314589E+04  0.10100000352E+00 0.  1.
</event>
<event>
 5   0  0.1672907E-06  0.3055713E+04  0.7818609E-02  0.8227998E-01
        1   -1    0    0  501    0  0.00000000000E+00  0.00000000000E+00  0.11675027002E+04  0.11675027002E+04  0.50400001928E-02 0. -1.
       -1   -1    0    0    0  501  0.00000000000E+00  0.00000000000E+00 -0.19994345903E+04  0.19994345903E+04  0.50400001928E-02 0.  1.
    10030    2    1    2    0    0  0.00000000000E+00  0.00000000000E+00 -0.83193189008E+03  0.31669372905E+04  0.30557128681E+04 0.  0.
        5    1    3    3  502    0  0.12964173575E+04 -0.36519851671E+02  0.42107709568E+03  0.13635833949E+04  0.46999998093E+01 0. -1.
       -5    1    3    3    0  502 -0.12964173575E+04  0.36519851671E+02 -0.12530089858E+04  0.18033538956E+04  0.46999998093E+01 0.  1.
</event>
<event>
 5   0  0.4532420E-06  0.2984921E+04  0.7818609E-02  0.8248050E-01
        2   -1    0    0  501    0  0.00000000000E+00  0.00000000000E+00  0.10055836901E+04  0.10055836901E+04  0.25500000920E-02 0. -1.
       -2   -1    0    0    0  501  0.00000000000E+00  0.00000000000E+00 -0.22150699335E+04  0.22150699335E+04  0.25500000920E-02 0.  1.
    10030    2    1    2    0    0  0.00000000000E+00  0.00000000000E+00 -0.12094862434E+04  0.32206536235E+04  0.29849209018E+04 0.  0.
        4    1    3    3  502    0  0.22135811683E+03 -0.14440887934E+03 -0.21896179684E+04  0.22055116869E+04  0.12699999809E+01 0.  1.
       -4    1    3    3    0  502 -0.22135811683E+03  0.14440887934E+03  0.98013172501E+03  0.10151419367E+04  0.12699999809E+01 0. -1.
</event>
<event>
 5   0  0.4935331E-06  0.3017195E+04  0.7818609E-02  0.8238838E-01
        2   -1    0    0  501    0  0.00000000000E+00  0.00000000000E+00  0.23142644996E+04  0.23142644996E+04  0.25500000920E-02 0.  1.
       -2   -1    0    0    0  501  0.00000000000E+00  0.00000000000E+00 -0.98340829877E+03  0.98340829877E+03  0.25500000920E-02 0. -1.
    10030    2    1    2    0    0  0.00000000000E+00  0.00000000000E+00  0.13308562009E+04  0.32976727984E+04  0.30171953298E+04 0.  0.
        5    1    3    3  502    0  0.51884360306E+03  0.28508888525E+03 -0.85113780471E+03  0.10367892792E+04  0.46999998093E+01 0. -1.
       -5    1    3    3    0  502 -0.51884360306E+03 -0.28508888525E+03  0.21819940056E+04  0.22608835192E+04  0.46999998093E+01 0.  1.
</event>
<event>
 5   0  0.1672907E-06  0.2956381E+04  0.7818609E-02  0.8256297E-01
       -1   -1    0    0    0  501  0.00000000000E+00  0.00000000000E+00  0.14744835231E+04  0.14744835231E+04  0.50400001928E-02 0. -1.
        1   -1    0    0  501    0  0.00000000000E+00  0.00000000000E+00 -0.14819067038E+04  0.14819067038E+04  0.50400001928E-02 0.  1.
    10030    2    1    2    0    0  0.00000000000E+00  0.00000000000E+00 -0.74231806538E+01  0.29563902269E+04  0.29563809075E+04 0.  0.
        5    1    3    3  502    0 -0.11194187744E+04  0.96162889256E+03 -0.88543502872E+02  0.14784081174E+04  0.46999998093E+01 0. -1.
       -5    1    3    3    0  502  0.11194187744E+04 -0.96162889256E+03  0.81120322218E+02  0.14779821096E+04  0.46999998093E+01 0.  1.
</event>
<event>
 5   0  0.4532420E-06  0.2992747E+04  0.7818609E-02  0.8245805E-01
        2   -1    0    0  501    0  0.00000000000E+00  0.00000000000E+00  0.23052667977E+04  0.23052667977E+04  0.25500000920E-02 0.  1.
       -2   -1    0    0    0  501  0.00000000000E+00  0.00000000000E+00 -0.97131210360E+03  0.97131210360E+03  0.25500000920E-02 0. -1.
    10030    2    1    2    0    0  0.00000000000E+00  0.00000000000E+00  0.13339546941E+04  0.32765789013E+04  0.29927469272E+04 0.  0.
        4    1    3    3  502    0 -0.12931414477E+03  0.86909814701E+03 -0.65912568366E+03  0.10984088569E+04  0.12699999809E+01 0. -1.
       -4    1    3    3    0  502  0.12931414477E+03 -0.86909814701E+03  0.19930803777E+04  0.21781700444E+04  0.12699999809E+01 0.  1.
</event>
<event>
 5   0  0.4768570E-06  0.3025420E+04  0.7818609E-02  0.8236509E-01
        2   -1    0    0  501    0  0.00000000000E+00  0.00000000000E+00  0.21888052644E+04  0.21888052644E+04  0.25500000920E-02 0. -1.
       -2   -1    0    0    0  501  0.00000000000E+00  0.00000000000E+00 -0.10454522505E+04  0.10454522505E+04  0.25500000920E-02 0.  1.
    10030    2    1    2    0    0  0.00000000000E+00  0.00000000000E+00  0.11433530139E+04  0.32342575149E+04  0.30254198978E+04 0.  0.
        1    1    3    3  502    0 -0.47554982750E+02  0.90016032554E+03  0.18703322877E+04  0.20762208347E+04  0.50400001928E-02 0. -1.
       -1    1    3    3    0  502  0.47554982750E+02 -0.90016032554E+03 -0.72697927377E+03  0.11580366802E+04  0.50400001928E-02 0.  1.
</event>
<event>
 5   0  0.1709858E-06  0.2960524E+04  0.7818609E-02  0.8255094E-01
        1   -1    0    0  501    0  0.00000000000E+00  0.00000000000E+00  0.22770364855E+04  0.22770364855E+04  0.50400001928E-02 0.  1.
       -1   -1    0    0    0  501  0.00000000000E+00  0.00000000000E+00 -0.96229279027E+03  0.96229279028E+03  0.50400001928E-02 0. -1.
    10030    2    1    2    0    0  0.00000000000E+00  0.00000000000E+00  0.13147436952E+04  0.32393292758E+04  0.29605241382E+04 0.  0.
        3    1    3    3  502    0  0.14338640479E+04 -0.20131389027E+03  0.99405478047E+03  0.17563138407E+04  0.10100000352E+00 0.  1.
       -3    1    3    3    0  502 -0.14338640479E+04  0.20131389027E+03  0.32068891475E+03  0.14830154350E+04  0.10100000352E+00 0. -1.
</event>
<event>
 5   0  0.5003556E-06  0.2970467E+04  0.7818609E-02  0.8252215E-01
        2   -1    0    0  501    0  0.00000000000E+00  0.00000000000E+00  0.27071996972E+04  0.27071996972E+04  0.25500000920E-02 0.  1.
       -2   -1    0    0    0  501  0.00000000000E+00  0.00000000000E+00 -0.81483432295E+03  0.81483432296E+03  0.25500000920E-02 0. -1.
    10030    2    1    2    0    0  0.00000000000E+00  0.00000000000E+00  0.18923653742E+04  0.35220340201E+04  0.29704674597E+04 0.  0.
        3    1    3    3  502    0 -0.11416073632E+04 -0.84385665531E+03  0.42859717962E+03  0.14829217711E+04  0.10100000352E+00 0. -1.
       -3    1    3    3    0  502  0.11416073632E+04  0.84385665531E+03  0.14637681946E+04  0.20391122490E+04  0.10100000352E+00 0.  1.
</event>
<event>
 5   0  0.1709858E-06  0.2990979E+04  0.7818609E-02  0.8246312E-01
        1   -1    0    0  501    0  0.00000000000E+00  0.00000000000E+00  0.25842335278E+04  0.25842335278E+04  0.50400001928E-02 0.  1.
       -1   -1    0    0    0  501  0.00000000000E+00  0.00000000000E+00 -0.86543588192E+03  0.86543588194E+03  0.50400001928E-02 0. -1.
    10030    2    1    2    0    0  0.00000000000E+00  0.00000000000E+00  0.17187976459E+04  0.34496694097E+04  0.29909787176E+04 0.  0.
        3    1    3    3  502    0  0.51015912956E+03  0.11057985948E+04 -0.14172364116E+03  0.12260254770E+04  0.10100000352E+00 0. -1.
       -3    1    3    3    0  502 -0.51015912956E+03 -0.11057985948E+04  0.18605212870E+04  0.22236439327E+04  0.10100000352E+00 0.  1.
</event>
<event>
 5   0  0.1672907E-06  0.2983845E+04  0.7818609E-02  0.8248359E-01
        1   -1    0    0  501    0  0.00000000000E+00  0.00000000000E+00  0.12599860591E+04  0.12599860591E+04  0.50400001928E-02 0. -1.
       -1   -1    0    0    0  501  0.00000000000E+00  0.00000000000E+00 -0.17665538516E+04  0.17665538516E+04  0.50400001928E-02 0.  1.
    10030    2    1    2    0    0  0.00000000000E+00  0.00000000000E+00 -0.50656779251E+03  0.30265399108E+04  0.29838453216E+04 0.  0.
        5    1    3    3  502    0  0.13851423039E+04 -0.42580810675E+03 -0.61315536271E+03  0.15735035223E+04  0.46999998093E+01 0. -1.
       -5    1    3    3    0  502 -0.13851423039E+04  0.42580810675E+03  0.10658757020E+03  0.14530363884E+04  0.46999998093E+01 0.  1.
</event>
<event>
 5   0  0.1700885E-06  0.3000440E+04  0.7818609E-02  0.8243605E-01
        1   -1    0    0  501    0  0.00000000000E+00  0.00000000000E+00  0.12687157350E+04  0.12687157350E+04  0.50400001928E-02 0.  1.
       -1   -1    0    0    0  501  0.00000000000E+00  0.00000000000E+00 -0.17739671838E+04  0.17739671838E+04  0.50400001928E-02 0. -1.
    10030    2    1    2    0    0  0.00000000000E+00  0.00000000000E+00 -0.50525144875E+03  0.30426829188E+04  0.30004400207E+04 0.  0.
        1    1    3    3  502    0  0.10430061923E+04 -0.34450758783E+03 -0.12888301259E+04  0.16934079511E+04  0.50400001928E-02 0.  1.
       -1    1    3    3    0  502 -0.10430061923E+04  0.34450758783E+03  0.78357867717E+03  0.13492749677E+04  0.50400001928E-02 0. -1.
</event>
<event>
 5   0  0.1700885E-06  0.3083527E+04  0.7818609E-02  0.8220273E-01
        1   -1    0    0  501    0  0.00000000000E+00  0.00000000000E+00  0.12286405428E+04  0.12286405428E+04  0.50400001928E-02 0.  1.
       -1   -1    0    0    0  501  0.00000000000E+00  0.00000000000E+00 -0.19346865680E+04  0.19346865681E+04  0.50400001928E-02 0. -1.
    10030    2    1    2    0    0  0.00000000000E+00  0.00000000000E+00 -0.70604602521E+03  0.31633271109E+04  0.30835267829E+04 0.  0.
        1    1    3    3  502    0  0.10597533367E+04 -0.27128094441E+03  0.76153924440E+03  0.13328962848E+04  0.50400001928E-02 0.  1.
       -1    1    3    3    0  502 -0.10597533367E+04  0.27128094441E+03 -0.14675852696E+04  0.18304308261E+04  0.50400001928E-02 0. -1.
</event>
<event>
 5   0  0.5003556E-06  0.2996972E+04  0.7818609E-02  0.8244596E-01
        2   -1    0    0  501    0  0.00000000000E+00  0.00000000000E+00  0.17349011969E+04  0.17349011969E+04  0.25500000920E-02 0. -1.
       -2   -1    0    0    0  501  0.00000000000E+00  0.00000000000E+00 -0.12942871087E+04  0.12942871087E+04  0.25500000920E-02 0.  1.
    10030    2    1    2    0    0  0.00000000000E+00  0.00000000000E+00  0.44061408819E+03  0.30291883056E+04  0.29969719745E+04 0.  0.
        3    1    3    3  502    0  0.13117976321E+04 -0.53601094670E+03 -0.27210490621E+03  0.14429698031E+04  0.10100000352E+00 0. -1.
       -3    1    3    3    0  502 -0.13117976321E+04  0.53601094670E+03  0.71271899440E+03  0.15862185025E+04  0.10100000352E+00 0.  1.
</event>
<event>
 5   0  0.1700885E-06  0.3017831E+04  0.7818609E-02  0.8238657E-01
        1   -1    0    0  501    0  0.00000000000E+00  0.00000000000E+00  0.13021275371E+04  0.13021275371E+04  0.50400001928E-02 0.  1.
       -1   -1    0    0    0  501  0.00000000000E+00  0.00000000000E+00 -0.17485430628E+04  0.17485430628E+04  0.50400001928E-02 0. -1.
    10030    2    1    2    0    0  0.00000000000E+00  0.00000000000E+00 -0.44641552569E+03  0.30506705999E+04  0.30178310568E+04 0.  0.
        1    1    3    3  502    0  0.10609795817E+04  0.35916796044E+03 -0.12452221852E+04  0.16748903210E+04  0.50400001928E-02 0. -1.
       -1    1    3    3    0  502 -0.10609795817E+04 -0.35916796044E+03  0.79880665954E+03  0.13757802790E+04  0.50400001928E-02 0.  1.
</event>
<event>
 5   0  0.1734885E-06  0.2959537E+04  0.7818609E-02  0.8255381E-01
        1   -1    0    0  501    0  0.00000000000E+00  0.00000000000E+00  0.18522156484E+04  0.18522156484E+04  0.50400001928E-02 0.  1.
       -1   -1    0    0    0  501  0.00000000000E+00  0.00000000000E+00 -0.11822138910E+04  0.11822138910E+04  0.50400001928E-02 0. -1.
    10030    2    1    2    0    0  0.00000000000E+00  0.00000000000E+00  0.67000175738E+03  0.30344295394E+04  0.29595371724E+04 0.  0.
        2    1    3    3  502    0 -0.12495164664E+04  0.79183728758E+03  0.37360167359E+03  0.15257378216E+04  0.25500000920E-02 0.  1.
       -2    1    3    3    0  502  0.12495164664E+04 -0.79183728758E+03  0.29640008379E+03  0.15086917178E+04  0.25500000920E-02 0. -1.
</event>
<event>
 5   0  0.1672907E-06  0.2983902E+04  0.7818609E-02  0.8248343E-01
        1   -1    0    0  501    0  0.00000000000E+00  0.00000000000E+00  0.13659812468E+04  0.13659812468E+04  0.50400001928E-02 0. -1.
       -1   -1    0    0    0  501  0.00000000000E+00  0.00000000000E+00 -0.16295373029E+04  0.16295373029E+04  0.50400001928E-02 0.  1.
    10030    2    1    2    0    0  0.00000000000E+00  0.00000000000E+00 -0.26355605615E+03  0.29955185497E+04  0.29839017388E+04 0.  0.
        5    1    3    3  502    0 -0.58442613607E+03 -0.32140759100E+03 -0.14715292342E+04  0.16156352079E+04  0.46999998093E+01 0.  1.
       -5    1    3    3    0  502  0.58442613607E+03  0.32140759100E+03  0.12079731780E+04  0.13798833418E+04  0.46999998093E+01 0. -1.
</event>
<event>
 5   0  0.4532420E-06  0.3012585E+04  0.7818609E-02  0.8240146E-01
        2   -1    0    0  501    0  0.00000000000E+00  0.00000000000E+00  0.16030342522E+04  0.16030342522E+04  0.25500000920E-02 0. -1.
       -2   -1    0    0    0  501  0.00000000000E+00  0.00000000000E+00 -0.14153887316E+04  0.14153887316E+04  0.25500000920E-02 0.  1.
    10030    2    1    2    0    0  0.00000000000E+00  0.00000000000E+00  0.18764552062E+03  0.30184229839E+04  0.30125846823E+04 0.  0.
        4    1    3    3  502    0 -0.20743323777E+03 -0.79411279864E+02 -0.13988900738E+04  0.14164143994E+04  0.12699999809E+01 0.  1.
       -4    1    3    3    0  502  0.20743323777E+03  0.79411279864E+02  0.15865355944E+04  0.16020085845E+04  0.12699999809E+01 0. -1.
</event>
<event>
 5   0  0.5003556E-06  0.2900704E+04  0.7818609E-02  0.8272668E-01
       -2   -1    0    0    0  501  0.00000000000E+00  0.00000000000E+00  0.10958254026E+04  0.10958254026E+04  0.25500000920E-02 0. -1.
        2   -1    0    0  501    0  0.00000000000E+00  0.00000000000E+00 -0.19195765572E+04  0.19195765572E+04  0.25500000920E-02 0.  1.
    10030    2    1    2    0    0  0.00000000000E+00  0.00000000000E+00 -0.82375115463E+03  0.30154019597E+04  0.29007038825E+04 0.  0.
        3    1    3    3  502    0 -0.73784705987E+03  0.87787799040E+03 -0.13349232440E+04  0.17598602579E+04  0.10100000352E+00 0.  1.
       -3    1    3    3    0  502  0.73784705987E+03 -0.87787799040E+03  0.51117208940E+03  0.12555417018E+04  0.10100000352E+00 0. -1.
</event>
<event>
 5   0  0.1700885E-06  0.2973926E+04  0.7818609E-02  0.8251216E-01
       -1   -1    0    0    0  501  0.00000000000E+00  0.00000000000E+00  0.11494098394E+04  0.11494098394E+04  0.50400001928E-02 0. -1.
        1   -1    0    0  501    0  0.00000000000E+00  0.00000000000E+00 -0.19236473483E+04  0.19236473483E+04  0.50400001928E-02 0.  1.
    10030    2    1    2    0    0  0.00000000000E+00  0.00000000000E+00 -0.77423750893E+03  0.30730571877E+04  0.29739261522E+04 0.  0.
        1    1    3    3  502    0  0.25768458275E+03  0.12895371231E+04  0.33010086223E+03  0.13558296041E+04  0.50400001928E-02 0. -1.
       -1    1    3    3    0  502 -0.25768458275E+03 -0.12895371231E+04 -0.11043383712E+04  0.17172275836E+04  0.50400001928E-02 0.  1.
</event>
<event>
 5   0  0.1734885E-06  0.2891487E+04  0.7818609E-02  0.8275415E-01
        1   -1    0    0  501    0  0.00000000000E+00  0.00000000000E+00  0.13574016621E+04  0.13574016621E+04  0.50400001928E-02 0.  1.
       -1   -1    0    0    0  501  0.00000000000E+00  0.00000000000E+00 -0.15398351676E+04  0.15398351676E+04  0.50400001928E-02 0. -1.
    10030    2    1    2    0    0  0.00000000000E+00  0.00000000000E+00 -0.18243350551E+03  0.28972368296E+04  0.28914873790E+04 0.  0.
        2    1    3    3  502    0 -0.11973283079E+04  0.79336851017E+03  0.73871733500E+02  0.14382231061E+04  0.25500000920E-02 0. -1.
       -2    1    3    3    0  502  0.11973283079E+04 -0.79336851017E+03 -0.25630523901E+03  0.14590137235E+04  0.25500000920E-02 0.  1.
</event>
<event>
 5   0  0.1686012E-06  0.2996044E+04  0.7818609E-02  0.8244862E-01
       -1   -1    0    0    0  501  0.00000000000E+00  0.00000000000E+00  0.78966761163E+03  0.78966761164E+03  0.50400001928E-02 0. -1.
        1   -1    0    0  501    0  0.00000000000E+00  0.00000000000E+00 -0.28417898723E+04  0.28417898723E+04  0.50400001928E-02 0.  1.
    10030    2    1    2    0    0  0.00000000000E+00  0.00000000000E+00 -0.20521222606E+04  0.36314574839E+04  0.29960436721E+04 0.  0.
        4    1    3    3  502    0  0.10093399799E+04  0.63337203666E+02  0.31343680704E+03  0.10587837557E+04  0.12699999809E+01 0. -1.
       -4    1    3    3    0  502 -0.10093399799E+04 -0.63337203666E+02 -0.23655590677E+04  0.25726737282E+04  0.12699999809E+01 0.  1.
</event>
<event>
 5   0  0.1709858E-06  0.3084933E+04  0.7818609E-02  0.8219885E-01
       -1   -1    0    0    0  501  0.00000000000E+00  0.00000000000E+00  0.17262171698E+04  0.17262171698E+04  0.50400001928E-02 0. -1.
        1   -1    0    0  501    0  0.00000000000E+00  0.00000000000E+00 -0.13782755359E+04  0.13782755359E+04  0.50400001928E-02 0.  1.
    10030    2    1    2    0    0  0.00000000000E+00  0.00000000000E+00  0.34794163394E+03  0.31044927057E+04  0.30849329942E+04 0.  0.
        3    1    3    3  502    0  0.51044438525E+03  0.10014409600E+04 -0.88902451322E+03  0.14331092289E+04  0.10100000352E+00 0.  1.
       -3    1    3    3    0  502 -0.51044438525E+03 -0.10014409600E+04  0.12369661472E+04  0.16713834767E+04  0.10100000352E+00 0. -1.
</event>
<event>
 5   0  0.1700885E-06  0.2956083E+04  0.7818609E-02  0.8256384E-01
        1   -1    0    0  501    0  0.00000000000E+00  0.00000000000E+00  0.10993696485E+04  0.10993696485E+04  0.50400001928E-02 0. -1.
       -1   -1    0    0    0  501  0.00000000000E+00  0.00000000000E+00 -0.19871452881E+04  0.19871452881E+04  0.50400001928E-02 0.  1.
    10030    2    1    2    0    0  0.00000000000E+00  0.00000000000E+00 -0.88777563966E+03  0.30865149366E+04  0.29560833661E+04 0.  0.
        1    1    3    3  502    0  0.13609471198E+04 -0.52541249707E+03 -0.69179145481E+03  0.16145620991E+04  0.50400001928E-02 0.  1.
       -1    1    3    3    0  502 -0.13609471198E+04  0.52541249707E+03 -0.19598418485E+03  0.14719528375E+04  0.50400001928E-02 0. -1.
</event>
<event>
 5   0  0.4532420E-06  0.3022478E+04  0.7818609E-02  0.8237341E-01
        2   -1    0    0  501    0  0.00000000000E+00  0.00000000000E+00  0.23206114108E+04  0.23206114108E+04  0.25500000920E-02 0.  1.
       -2   -1    0    0    0  501  0.00000000000E+00  0.00000000000E+00 -0.98415592367E+03  0.98415592367E+03  0.25500000920E-02 0. -1.
    10030    2    1    2    0    0  0.00000000000E+00  0.00000000000E+00  0.13364554871E+04  0.33047673345E+04  0.30224781001E+04 0.  0.
        4    1    3    3  502    0  0.10364306002E+04 -0.36682316321E+02 -0.53366725770E+03  0.11663345731E+04  0.12699999809E+01 0. -1.
       -4    1    3    3    0  502 -0.10364306002E+04  0.36682316321E+02  0.18701227448E+04  0.21384327614E+04  0.12699999809E+01 0.  1.
</event>
<event>
 5   0  0.4532420E-06  0.3008025E+04  0.7818609E-02  0.8241443E-01
       -2   -1    0    0    0  501  0.00000000000E+00  0.00000000000E+00  0.84001082423E+03  0.84001082424E+03  0.25500000920E-02 0. -1.
        2   -1    0    0  501    0  0.00000000000E+00  0.00000000000E+00 -0.26928855118E+04  0.26928855118E+04  0.25500000920E-02 0.  1.
    10030    2    1    2    0    0  0.00000000000E+00  0.00000000000E+00 -0.18528746876E+04  0.35328963361E+04  0.30080245866E+04 0.  0.
        4    1    3    3  502    0  0.68313459487E+03 -0.88865548156E+03 -0.21042527863E+04  0.23841692140E+04  0.12699999809E+01 0.  1.
       -4    1    3    3    0  502 -0.68313459487E+03  0.88865548156E+03  0.25137809866E+03  0.11487271221E+04  0.12699999809E+01 0. -1.
</event>
<event>
 5   0  0.1700885E-06  0.2981226E+04  0.7818609E-02  0.8249112E-01
        1   -1    0    0  501    0  0.00000000000E+00  0.00000000000E+00  0.22527933691E+04  0.22527933691E+04  0.50400001928E-02 0. -1.
       -1   -1    0    0    0  501  0.00000000000E+00  0.00000000000E+00 -0.98629878733E+03  0.98629878734E+03  0.50400001928E-02 0.  1.
    10030    2    1    2    0    0  0.00000000000E+00  0.00000000000E+00  0.12664945818E+04  0.32390921564E+04  0.29812261693E+04 0.  0.
        1    1    3    3  502    0 -0.12355783324E+04 -0.34347982433E+03 -0.19227221386E+03  0.12967655183E+04  0.50400001928E-02 0.  1.
       -1    1    3    3    0  502  0.12355783324E+04  0.34347982433E+03  0.14587667956E+04  0.19423266381E+04  0.50400001928E-02 0. -1.
</event>
<event>
 5   0  0.1686012E-06  0.2983574E+04  0.7818609E-02  0.8248437E-01
        1   -1    0    0  501    0  0.00000000000E+00  0.00000000000E+00  0.16524428386E+04  0.16524428386E+04  0.50400001928E-02 0.  1.
       -1   -1    0    0    0  501  0.00000000000E+00  0.00000000000E+00 -0.13467506031E+04  0.13467506031E+04  0.50400001928E-02 0. -1.
    10030    2    1    2    0    0  0.00000000000E+00  0.00000000000E+00  0.30569223558E+03  0.29991934417E+04  0.29835739572E+04 0.  0.
        4    1    3    3  502    0  0.12298304109E+04 -0.54370121914E+03 -0.49654896049E+03  0.14334072479E+04  0.12699999809E+01 0. -1.
       -4    1    3    3    0  502 -0.12298304109E+04  0.54370121914E+03  0.80224119607E+03  0.15657861938E+04  0.12699999809E+01 0.  1.
</event>
<event>
 5   0  0.4532420E-06  0.3001517E+04  0.7818609E-02  0.8243298E-01
        2   -1    0    0  501    0  0.00000000000E+00  0.00000000000E+00  0.12995004109E+04  0.12995004109E+04  0.25500000920E-02 0. -1.
       -2   -1    0    0    0  501  0.00000000000E+00  0.00000000000E+00 -0.17331859914E+04  0.17331859914E+04  0.25500000920E-02 0.  1.
    10030    2    1    2    0    0  0.00000000000E+00  0.00000000000E+00 -0.43368558047E+03  0.30326864023E+04  0.30015168885E+04 0.  0.
        4    1    3    3  502    0 -0.22103088140E+03  0.13480647401E+04  0.41101274587E+03  0.14265574942E+04  0.12699999809E+01 0. -1.
       -4    1    3    3    0  502  0.22103088140E+03 -0.13480647401E+04 -0.84469832634E+03  0.16061289081E+04  0.12699999809E+01 0.  1.
</event>
<event>
 5   0  0.4532420E-06  0.3000352E+04  0.7818609E-02  0.8243630E-01
        2   -1    0    0  501    0  0.00000000000E+00  0.00000000000E+00  0.20088236395E+04  0.20088236395E+04  0.25500000920E-02 0. -1.
       -2   -1    0    0    0  501  0.00000000000E+00  0.00000000000E+00 -0.11203210619E+04  0.11203210620E+04  0.25500000920E-02 0.  1.
    10030    2    1    2    0    0  0.00000000000E+00  0.00000000000E+00  0.88850257753E+03  0.31291447014E+04  0.30003516014E+04 0.  0.
        4    1    3    3  502    0  0.14415516492E+04  0.17462529620E+03  0.51301089098E+02  0.14529964095E+04  0.12699999809E+01 0.  1.
       -4    1    3    3    0  502 -0.14415516492E+04 -0.17462529620E+03  0.83720148843E+03  0.16761482919E+04  0.12699999809E+01 0. -1.
</event>
<event>
 5   0  0.4935331E-06  0.3014451E+04  0.7818609E-02  0.8239616E-01
       -2   -1    0    0    0  501  0.00000000000E+00  0.00000000000E+00  0.19463403132E+04  0.19463403132E+04  0.25500000920E-02 0. -1.
        2   -1    0    0  501    0  0.00000000000E+00  0.00000000000E+00 -0.11671798355E+04  0.11671798355E+04  0.25500000920E-02 0.  1.
    10030    2    1    2    0    0  0.00000000000E+00  0.00000000000E+00  0.77916047774E+03  0.31135201487E+04  0.30144513043E+04 0.  0.
        5    1    3    3  502    0  0.97767087501E+03 -0.11458931522E+04  0.44419153706E+03  0.15704265878E+04  0.46999998093E+01 0.  1.
       -5    1    3    3    0  502 -0.97767087501E+03  0.11458931522E+04  0.33496894068E+03  0.15430935608E+04  0.46999998093E+01 0. -1.
</event>
<event>
 5   0  0.4768570E-06  0.3008621E+04  0.7818609E-02  0.8241273E-01
        2   -1    0    0  501    0  0.00000000000E+00  0.00000000000E+00  0.16412662163E+04  0.16412662163E+04  0.25500000920E-02 0.  1.
       -2   -1    0    0    0  501  0.00000000000E+00  0.00000000000E+00 -0.13787833454E+04  0.13787833454E+04  0.25500000920E-02 0. -1.
    10030    2    1    2    0    0  0.00000000000E+00  0.00000000000E+00  0.26248287081E+03  0.30200495617E+04  0.30086212952E+04 0.  0.
        1    1    3    3  502    0 -0.13504814043E+04  0.34141416513E+03 -0.43888330518E+03  0.14604732832E+04  0.50400001928E-02 0. -1.
       -1    1    3    3    0  502  0.13504814043E+04 -0.34141416513E+03  0.70136617599E+03  0.15595762785E+04  0.50400001928E-02 0.  1.
</event>
<event>
 5   0  0.1545375E-06  0.3013846E+04  0.7818609E-02  0.8239788E-01
       -3   -1    0    0    0  501  0.00000000000E+00  0.00000000000E+00  0.18096208336E+04  0.18096208364E+04  0.10100000352E+00 0. -1.
        3   -1    0    0  501    0  0.00000000000E+00  0.00000000000E+00 -0.12548577636E+04  0.12548577677E+04  0.10100000352E+00 0.  1.
    10030    2    1    2    0    0  0.00000000000E+00  0.00000000000E+00  0.55476306999E+03  0.30644786041E+04  0.30138458904E+04 0.  0.
        2    1    3    3  502    0 -0.14460082945E+04  0.21048448633E+03 -0.97006744929E+02  0.14644637296E+04  0.25500000920E-02 0.  1.
       -2    1    3    3    0  502  0.14460082945E+04 -0.21048448633E+03  0.65176981492E+03  0.16000148744E+04  0.25500000920E-02 0. -1.
</event>
<event>
 5   0  0.4935331E-06  0.2985791E+04  0.7818609E-02  0.8247800E-01
        2   -1    0    0  501    0  0.00000000000E+00  0.00000000000E+00  0.17756135831E+04  0.17756135831E+04  0.25500000920E-02 0.  1.
       -2   -1    0    0    0  501  0.00000000000E+00  0.00000000000E+00 -0.12551928445E+04  0.12551928445E+04  0.25500000920E-02 0. -1.
    10030    2    1    2    0    0  0.00000000000E+00  0.00000000000E+00  0.52042073863E+03  0.30308064276E+04  0.29857913283E+04 0.  0.
        5    1    3    3  502    0 -0.66505521097E+03  0.21752787802E+03  0.15988412681E+04  0.17452599525E+04  0.46999998093E+01 0.  1.
       -5    1    3    3    0  502  0.66505521097E+03 -0.21752787802E+03 -0.10784205294E+04  0.12855464751E+04  0.46999998093E+01 0. -1.
</event>
<event>
 5   0  0.1734885E-06  0.2962472E+04  0.7818609E-02  0.8254529E-01
       -1   -1    0    0    0  501  0.00000000000E+00  0.00000000000E+00  0.98267944343E+03  0.98267944344E+03  0.50400001928E-02 0. -1.
        1   -1    0    0  501    0  0.00000000000E+00  0.00000000000E+00 -0.22327317489E+04  0.22327317490E+04  0.50400001928E-02 0.  1.
    10030    2    1    2    0    0  0.00000000000E+00  0.00000000000E+00 -0.12500523055E+04  0.32154111924E+04  0.29624716656E+04 0.  0.
        2    1    3    3  502    0 -0.12265917397E+04 -0.76819410943E+03 -0.96724000404E+03  0.17407477448E+04  0.25500000920E-02 0. -1.
       -2    1    3    3    0  502  0.12265917397E+04  0.76819410943E+03 -0.28281230148E+03  0.14746634476E+04  0.25500000920E-02 0.  1.
</event>
<event>
 5   0  0.4935331E-06  0.3017657E+04  0.7818609E-02  0.8238707E-01
       -2   -1    0    0    0  501  0.00000000000E+00  0.00000000000E+00  0.19092620217E+04  0.19092620217E+04  0.25500000920E-02 0. -1.
        2   -1    0    0  501    0  0.00000000000E+00  0.00000000000E+00 -0.11923787830E+04  0.11923787830E+04  0.25500000920E-02 0.  1.
    10030    2    1    2    0    0  0.00000000000E+00  0.00000000000E+00  0.71688323869E+03  0.31016408047E+04  0.30176570553E+04 0.  0.
        5    1    3    3  502    0 -0.66182709565E+03 -0.13391789120E+04  0.57678290886E+03  0.16012856950E+04  0.46999998093E+01 0. -1.
       -5    1    3    3    0  502  0.66182709565E+03  0.13391789120E+04  0.14010032983E+03  0.15003551097E+04  0.46999998093E+01 0.  1.
</event>
<event>
 5   0  0.1709858E-06  0.2681930E+04  0.7818609E-02  0.8340892E-01
       -1   -1    0    0    0  501  0.00000000000E+00  0.00000000000E+00  0.12321871167E+04  0.12321871167E+04  0.50400001928E-02 0. -1.
        1   -1    0    0  501    0  0.00000000000E+00  0.00000000000E+00 -0.14593459255E+04  0.14593459255E+04  0.50400001928E-02 0.  1.
    10030    2    1    2    0    0  0.00000000000E+00  0.00000000000E+00 -0.22715880877E+03  0.26915330422E+04  0.26819300873E+04 0.  0.
        3    1    3    3  502    0 -0.10869347765E+04 -0.16641683840E+02 -0.90155514198E+03  0.14122697470E+04  0.10100000352E+00 0.  1.
       -3    1    3    3    0  502  0.10869347765E+04  0.16641683840E+02  0.67439633321E+03  0.12792632952E+04  0.10100000352E+00 0. -1.
</event>
<event>
 5   0  0.1686012E-06  0.2965307E+04  0.7818609E-02  0.8253708E-01
        1   -1    0    0  501    0  0.00000000000E+00  0.00000000000E+00  0.14754523976E+04  0.14754523976E+04  0.50400001928E-02 0.  1.
       -1   -1    0    0    0  501  0.00000000000E+00  0.00000000000E+00 -0.14898893871E+04  0.14898893871E+04  0.50400001928E-02 0. -1.
    10030    2    1    2    0    0  0.00000000000E+00  0.00000000000E+00 -0.14436989431E+02  0.29653417847E+04  0.29653066407E+04 0.  0.
        4    1    3    3  502    0 -0.90336521825E+03 -0.24870269516E+03  0.11418545248E+04  0.14770765440E+04  0.12699999809E+01 0.  1.
       -4    1    3    3    0  502  0.90336521825E+03  0.24870269516E+03 -0.11562915142E+04  0.14882652407E+04  0.12699999809E+01 0. -1.
</event>
<event>
 5   0  0.1709858E-06  0.3120537E+04  0.7818609E-02  0.8210124E-01
       -1   -1    0    0    0  501  0.00000000000E+00  0.00000000000E+00  0.99913107827E+03  0.99913107829E+03  0.50400001928E-02 0.  1.
        1   -1    0    0  501    0  0.00000000000E+00  0.00000000000E+00 -0.24365542984E+04  0.24365542984E+04  0.50400001928E-02 0. -1.
    10030    2    1    2    0    0  0.00000000000E+00  0.00000000000E+00 -0.14374232202E+04  0.34356853767E+04  0.31205365715E+04 0.  0.
        3    1    3    3  502    0 -0.18231543445E+03 -0.14551905368E+04 -0.13236888841E+03  0.14725284204E+04  0.10100000352E+00 0.  1.
       -3    1    3    3    0  502  0.18231543445E+03  0.14551905368E+04 -0.13050543318E+04  0.19631569563E+04  0.10100000352E+00 0. -1.
</event>
<event>
 5   0  0.1709858E-06  0.2991752E+04  0.7818609E-02  0.8246090E-01
        1   -1    0    0  501    0  0.00000000000E+00  0.00000000000E+00  0.12315026807E+04  0.12315026807E+04  0.50400001928E-02 0. -1.
       -1   -1    0    0    0  501  0.00000000000E+00  0.00000000000E+00 -0.18170041586E+04  0.18170041586E+04  0.50400001928E-02 0.  1.
    10030    2    1    2    0    0  0.00000000000E+00  0.00000000000E+00 -0.58550147791E+03  0.30485068392E+04  0.29917523240E+04 0.  0.
        3    1    3    3  502    0 -0.28534285177E+03  0.79784259759E+03  0.96338475027E+03  0.12829978725E+04  0.10100000352E+00 0. -1.
       -3    1    3    3    0  502  0.28534285177E+03 -0.79784259759E+03 -0.15488862282E+04  0.17655089667E+04  0.10100000352E+00 0.  1.
</event>
<event>
 5   0  0.4702748E-06  0.3016106E+04  0.7818609E-02  0.8239147E-01
        2   -1    0    0  501    0  0.00000000000E+00  0.00000000000E+00  0.27224827753E+04  0.27224827753E+04  0.25500000920E-02 0.  1.
       -2   -1    0    0    0  501  0.00000000000E+00  0.00000000000E+00 -0.83534934119E+03  0.83534934119E+03  0.25500000920E-02 0. -1.
    10030    2    1    2    0    0  0.00000000000E+00  0.00000000000E+00  0.18871334342E+04  0.35578321165E+04  0.30161062268E+04 0.  0.
        2    1    3    3  502    0 -0.14040722445E+04 -0.30532687053E+03  0.14835926216E+04  0.20653547958E+04  0.25500000920E-02 0.  1.
       -2    1    3    3    0  502  0.14040722445E+04  0.30532687053E+03  0.40354081251E+03  0.14924773207E+04  0.25500000920E-02 0. -1.
</event>
<event>
 5   0  0.1672907E-06  0.2913380E+04  0.7818609E-02  0.8268908E-01
        1   -1    0    0  501    0  0.00000000000E+00  0.00000000000E+00  0.11798558121E+04  0.11798558121E+04  0.50400001928E-02 0.  1.
       -1   -1    0    0    0  501  0.00000000000E+00  0.00000000000E+00 -0.17984786328E+04  0.17984786328E+04  0.50400001928E-02 0. -1.
    10030    2    1    2    0    0  0.00000000000E+00  0.00000000000E+00 -0.61862282070E+03  0.29783344449E+04  0.29133798021E+04 0.  0.
        5    1    3    3  502    0 -0.83757917573E+03  0.18364277416E+03 -0.15131307806E+04  0.17392097036E+04  0.46999998093E+01 0. -1.
       -5    1    3    3    0  502  0.83757917573E+03 -0.18364277416E+03  0.89450795985E+03  0.12391247412E+04  0.46999998093E+01 0.  1.
</event>
<event>
 5   0  0.1734885E-06  0.2982409E+04  0.7818609E-02  0.8248772E-01
       -1   -1    0    0    0  501  0.00000000000E+00  0.00000000000E+00  0.10228836165E+04  0.10228836165E+04  0.50400001928E-02 0. -1.
        1   -1    0    0  501    0  0.00000000000E+00  0.00000000000E+00 -0.21739426960E+04  0.21739426960E+04  0.50400001928E-02 0.  1.
    10030    2    1    2    0    0  0.00000000000E+00  0.00000000000E+00 -0.11510590795E+04  0.31968263125E+04  0.29824086688E+04 0.  0.
        2    1    3    3  502    0  0.90569583203E+03 -0.11580484039E+04 -0.84313691964E+03  0.16947686896E+04  0.25500000920E-02 0.  1.
       -2    1    3    3    0  502 -0.90569583203E+03  0.11580484039E+04 -0.30792215988E+03  0.15020576229E+04  0.25500000920E-02 0. -1.
</event>
<event>
 5   0  0.1709858E-06  0.2979487E+04  0.7818609E-02  0.8249613E-01
       -1   -1    0    0    0  501  0.00000000000E+00  0.00000000000E+00  0.21120615879E+04  0.21120615879E+04  0.50400001928E-02 0. -1.
        1   -1    0    0  501    0  0.00000000000E+00  0.00000000000E+00 -0.10507912308E+04  0.10507912308E+04  0.50400001928E-02 0.  1.
    10030    2    1    2    0    0  0.00000000000E+00  0.00000000000E+00  0.10612703571E+04  0.31628528187E+04  0.29794870669E+04 0.  0.
        3    1    3    3  502    0  0.12689255519E+03  0.41980068893E+03  0.20419832892E+04  0.20885473666E+04  0.10100000352E+00 0. -1.
       -3    1    3    3    0  502 -0.12689255519E+03 -0.41980068893E+03 -0.98071293212E+03  0.10743054521E+04  0.10100000352E+00 0.  1.
</event>
<event>
 5   0  0.4768570E-06  0.3242259E+04  0.7818609E-02  0.8177745E-01
       -2   -1    0    0    0  501  0.00000000000E+00  0.00000000000E+00  0.87334236713E+03  0.87334236714E+03  0.25500000920E-02 0. -1.
        2   -1    0    0  501    0  0.00000000000E+00  0.00000000000E+00 -0.30091987771E+04  0.30091987771E+04  0.25500000920E-02 0.  1.
    10030    2    1    2    0    0  0.00000000000E+00  0.00000000000E+00 -0.21358564099E+04  0.38825411442E+04  0.32422589552E+04 0.  0.
        1    1    3    3  502    0 -0.40301757093E+03 -0.13548775554E+03  0.80538441957E+03  0.91072726855E+03  0.50400001928E-02 0. -1.
       -1    1    3    3    0  502  0.40301757093E+03  0.13548775554E+03 -0.29412408295E+04  0.29718138757E+04  0.50400001928E-02 0.  1.
</event>
<event>
 5   0  0.4702748E-06  0.3007790E+04  0.7818609E-02  0.8241510E-01
        2   -1    0    0  501    0  0.00000000000E+00  0.00000000000E+00  0.22813168278E+04  0.22813168278E+04  0.25500000920E-02 0.  1.
       -2   -1    0    0    0  501  0.00000000000E+00  0.00000000000E+00 -0.99140119388E+03  0.99140119388E+03  0.25500000920E-02 0. -1.
    10030    2    1    2    0    0  0.00000000000E+00  0.00000000000E+00  0.12899156339E+04  0.32727180217E+04  0.30077900370E+04 0.  0.
        2    1    3    3  502    0 -0.10338221638E+04  0.10420703106E+04  0.10008806572E+04  0.17766431518E+04  0.25500000920E-02 0.  1.
       -2    1    3    3    0  502  0.10338221638E+04 -0.10420703106E+04  0.28903497674E+03  0.14960748699E+04  0.25500000920E-02 0. -1.
</event>
<event>
 5   0  0.1709858E-06  0.2974885E+04  0.7818609E-02  0.8250939E-01
       -1   -1    0    0    0  501  0.00000000000E+00  0.00000000000E+00  0.10497664730E+04  0.10497664730E+04  0.50400001928E-02 0. -1.
        1   -1    0    0  501    0  0.00000000000E+00  0.00000000000E+00 -0.21075975578E+04  0.21075975578E+04  0.50400001928E-02 0.  1.
    10030    2    1    2    0    0  0.00000000000E+00  0.00000000000E+00 -0.10578310847E+04  0.31573640308E+04  0.29748850430E+04 0.  0.
        3    1    3    3  502    0 -0.36557061946E+03 -0.20541169383E+03 -0.20435666474E+04  0.20861448882E+04  0.10100000352E+00 0.  1.
       -3    1    3    3    0  502  0.36557061946E+03  0.20541169383E+03  0.98573556270E+03  0.10712191426E+04  0.10100000352E+00 0. -1.
</event>
<event>
 5   0  0.4768570E-06  0.3000593E+04  0.7818609E-02  0.8243562E-01
       -2   -1    0    0    0  501  0.00000000000E+00  0.00000000000E+00  0.14830825862E+04  0.14830825862E+04  0.25500000920E-02 0.  1.
        2   -1    0    0  501    0  0.00000000000E+00  0.00000000000E+00 -0.15177104209E+04  0.15177104209E+04  0.25500000920E-02 0. -1.
    10030    2    1    2    0    0  0.00000000000E+00  0.00000000000E+00 -0.34627834721E+02  0.30007930071E+04  0.30005932055E+04 0.  0.
        1    1    3    3  502    0 -0.97375662036E+03 -0.51119945283E+03  0.10032260122E+04  0.14886199205E+04  0.50400001928E-02 0.  1.
       -1    1    3    3    0  502  0.97375662036E+03  0.51119945283E+03 -0.10378538469E+04  0.15121730866E+04  0.50400001928E-02 0. -1.
</event>
<event>
 5   0  0.1700885E-06  0.2944727E+04  0.7818609E-02  0.8259693E-01
       -1   -1    0    0    0  501  0.00000000000E+00  0.00000000000E+00  0.97518471526E+03  0.97518471528E+03  0.50400001928E-02 0. -1.
        1   -1    0    0  501    0  0.00000000000E+00  0.00000000000E+00 -0.22230188703E+04  0.22230188703E+04  0.50400001928E-02 0.  1.
    10030    2    1    2    0    0  0.00000000000E+00  0.00000000000E+00 -0.12478341550E+04  0.31982035856E+04  0.29447268288E+04 0.  0.
        1    1    3    3  502    0  0.25265669632E+03 -0.92574706671E+03 -0.18367367493E+04  0.20723042547E+04  0.50400001928E-02 0.  1.
       -1    1    3    3    0  502 -0.25265669632E+03  0.92574706671E+03  0.58890259427E+03  0.11258993309E+04  0.50400001928E-02 0. -1.
</event>
<event>
 5   0  0.1709858E-06  0.2980688E+04  0.7818609E-02  0.8249267E-01
       -1   -1    0    0    0  501  0.00000000000E+00  0.00000000000E+00  0.11407813398E+04  0.11407813398E+04  0.50400001928E-02 0.  1.
        1   -1    0    0  501    0  0.00000000000E+00  0.00000000000E+00 -0.19470214759E+04  0.19470214759E+04  0.50400001928E-02 0. -1.
    10030    2    1    2    0    0  0.00000000000E+00  0.00000000000E+00 -0.80624013608E+03  0.30878028157E+04  0.29806883553E+04 0.  0.
        3    1    3    3  502    0 -0.42811577196E+03  0.49724770540E+03 -0.17893355519E+04  0.19058489243E+04  0.10100000352E+00 0. -1.
       -3    1    3    3    0  502  0.42811577196E+03 -0.49724770540E+03  0.98309541579E+03  0.11819538914E+04  0.10100000352E+00 0.  1.
</event>
<event>
 5   0  0.4532420E-06  0.2810238E+04  0.7818609E-02  0.8300097E-01
       -2   -1    0    0    0  501  0.00000000000E+00  0.00000000000E+00  0.10526705706E+04  0.10526705706E+04  0.25500000920E-02 0. -1.
        2   -1    0    0  501    0  0.00000000000E+00  0.00000000000E+00 -0.18755723462E+04  0.18755723462E+04  0.25500000920E-02 0.  1.
    10030    2    1    2    0    0  0.00000000000E+00  0.00000000000E+00 -0.82290177559E+03  0.29282429168E+04  0.28102382901E+04 0.  0.
        4    1    3    3  502    0  0.97643857971E+02  0.12032612937E+04  0.33775883120E+03  0.12535767647E+04  0.12699999809E+01 0. -1.
       -4    1    3    3    0  502 -0.97643857971E+02 -0.12032612937E+04 -0.11606606068E+04  0.16746661521E+04  0.12699999809E+01 0.  1.
</event>
<event>
 5   0  0.1734885E-06  0.3009254E+04  0.7818609E-02  0.8241093E-01
        1   -1    0    0  501    0  0.00000000000E+00  0.00000000000E+00  0.15718264886E+04  0.15718264887E+04  0.50400001928E-02 0. -1.
       -1   -1    0    0    0  501  0.00000000000E+00  0.00000000000E+00 -0.14403008892E+04  0.14403008892E+04  0.50400001928E-02 0.  1.
    10030    2    1    2    0    0  0.00000000000E+00  0.00000000000E+00  0.13152559942E+03  0.30121273779E+04  0.30092544521E+04 0.  0.
        2    1    3    3  502    0 -0.46121249794E+03 -0.78751592813E+03 -0.11316253746E+04  0.14537793139E+04  0.25500000920E-02 0.  1.
       -2    1    3    3    0  502  0.46121249794E+03  0.78751592813E+03  0.12631509740E+04  0.15583480639E+04  0.25500000920E-02 0. -1.
</event>
<event>
 5   0  0.4768570E-06  0.3014711E+04  0.7818609E-02  0.8239542E-01
       -2   -1    0    0    0  501  0.00000000000E+00  0.00000000000E+00  0.95372503231E+03  0.95372503232E+03  0.25500000920E-02 0. -1.
        2   -1    0    0  501    0  0.00000000000E+00  0.00000000000E+00 -0.23823649966E+04  0.23823649966E+04  0.25500000920E-02 0.  1.
    10030    2    1    2    0    0  0.00000000000E+00  0.00000000000E+00 -0.14286399643E+04  0.33360900289E+04  0.30147113516E+04 0.  0.
        1    1    3    3  502    0 -0.71001951851E+03 -0.41857261348E+03 -0.21109177335E+04  0.22661210089E+04  0.50400001928E-02 0.  1.
       -1    1    3    3    0  502  0.71001951851E+03  0.41857261348E+03  0.68227776920E+03  0.10699690200E+04  0.50400001928E-02 0. -1.
</event>
<event>
 5   0  0.4935331E-06  0.2903927E+04  0.7818609E-02  0.8271710E-01
        2   -1    0    0  501    0  0.00000000000E+00  0.00000000000E+00  0.14857777186E+04  0.14857777186E+04  0.25500000920E-02 0.  1.
       -2   -1    0    0    0  501  0.00000000000E+00  0.00000000000E+00 -0.14189187437E+04  0.14189187437E+04  0.25500000920E-02 0. -1.
    10030    2    1    2    0    0  0.00000000000E+00  0.00000000000E+00  0.66858974919E+02  0.29046964623E+04  0.29039268957E+04 0.  0.
        5    1    3    3  502    0  0.12429510024E+04 -0.58795973980E+03 -0.43311872599E+03  0.14416094377E+04  0.46999998093E+01 0. -1.
       -5    1    3    3    0  502 -0.12429510024E+04  0.58795973980E+03  0.49997770091E+03  0.14630870246E+04  0.46999998093E+01 0.  1.
</event>
<event>
 5   0  0.4532420E-06  0.3000246E+04  0.7818609E-02  0.8243661E-01
       -2   -1    0    0    0  501  0.00000000000E+00  0.00000000000E+00  0.83974345186E+03  0.83974345187E+03  0.25500000920E-02 0.  1.
        2   -1    0    0  501    0  0.00000000000E+00  0.00000000000E+00 -0.26798293491E+04  0.26798293491E+04  0.25500000920E-02 0. -1.
    10030    2    1    2    0    0  0.00000000000E+00  0.00000000000E+00 -0.18400858972E+04  0.35195728010E+04  0.30002460886E+04 0.  0.
        4    1    3    3  502    0  0.12637295327E+04  0.79984004131E+03 -0.78318189667E+03  0.16882333724E+04  0.12699999809E+01 0. -1.
       -4    1    3    3    0  502 -0.12637295327E+04 -0.79984004131E+03 -0.10569040006E+04  0.18313394286E+04  0.12699999809E+01 0.  1.
</event>
<event>
 5   0  0.1709858E-06  0.3001297E+04  0.7818609E-02  0.8243361E-01
       -1   -1    0    0    0  501  0.00000000000E+00  0.00000000000E+00  0.12345032749E+04  0.12345032750E+04  0.50400001928E-02 0.  1.
        1   -1    0    0  501    0  0.00000000000E+00  0.00000000000E+00 -0.18241718838E+04  0.18241718838E+04  0.50400001928E-02 0. -1.
    10030    2    1    2    0    0  0.00000000000E+00  0.00000000000E+00 -0.58966860882E+03  0.30586751587E+04  0.30012971626E+04 0.  0.
        3    1    3    3  502    0 -0.44964248897E+03  0.13416535641E+04  0.21445289504E+03  0.14311543272E+04  0.10100000352E+00 0.  1.
       -3    1    3    3    0  502  0.44964248897E+03 -0.13416535641E+04 -0.80412150386E+03  0.16275208315E+04  0.10100000352E+00 0. -1.
</event>
<event>
 5   0  0.1709858E-06  0.2983473E+04  0.7818609E-02  0.8248466E-01
        1   -1    0    0  501    0  0.00000000000E+00  0.00000000000E+00  0.98720260484E+03  0.98720260486E+03  0.50400001928E-02 0.  1.
       -1   -1    0    0    0  501  0.00000000000E+00  0.00000000000E+00 -0.22541245577E+04  0.22541245577E+04  0.50400001928E-02 0. -1.
    10030    2    1    2    0    0  0.00000000000E+00  0.00000000000E+00 -0.12669219528E+04  0.32413271625E+04  0.29834728992E+04 0.  0.
        3    1    3    3  502    0  0.87866755415E+03  0.59762447345E+03 -0.17708764002E+04  0.20652396755E+04  0.10100000352E+00 0. -1.
       -3    1    3    3    0  502 -0.87866755415E+03 -0.59762447345E+03  0.50395444741E+03  0.11760874871E+04  0.10100000352E+00 0.  1.
</event>
<event>
 5   0  0.5003556E-06  0.3009210E+04  0.7818609E-02  0.8241106E-01
        2   -1    0    0  501    0  0.00000000000E+00  0.00000000000E+00  0.15351845788E+04  0.15351845788E+04  0.25500000920E-02 0. -1.
       -2   -1    0    0    0  501  0.00000000000E+00  0.00000000000E+00 -0.14746345815E+04  0.14746345815E+04  0.25500000920E-02 0.  1.
    10030    2    1    2    0    0  0.00000000000E+00  0.00000000000E+00  0.60549997308E+02  0.30098191603E+04  0.30092100418E+04 0.  0.
        3    1    3    3  502    0 -0.14262482070E+04 -0.10902650762E+03 -0.43647300581E+03  0.14955197833E+04  0.10100000352E+00 0.  1.
       -3    1    3    3    0  502  0.14262482070E+04  0.10902650762E+03  0.49702300312E+03  0.15142993770E+04  0.10100000352E+00 0. -1.
</event>
<event>
 5   0  0.4532420E-06  0.2993011E+04  0.7818609E-02  0.8245729E-01
        2   -1    0    0  501    0  0.00000000000E+00  0.00000000000E+00  0.27489444006E+04  0.27489444006E+04  0.25500000920E-02 0. -1.
       -2   -1    0    0    0  501  0.00000000000E+00  0.00000000000E+00 -0.81468689892E+03  0.81468689893E+03  0.25500000920E-02 0.  1.
    10030    2    1    2    0    0  0.00000000000E+00  0.00000000000E+00  0.19342575017E+04  0.35636312995E+04  0.29930111854E+04 0.  0.
        4    1    3    3  502    0  0.14660325921E+03 -0.14887967089E+04  0.92072054580E+03  0.17566263383E+04  0.12699999809E+01 0. -1.
       -4    1    3    3    0  502 -0.14660325921E+03  0.14887967089E+04  0.10135369559E+04  0.18070049612E+04  0.12699999809E+01 0.  1.
</event>
<event>
 5   0  0.1686012E-06  0.3001748E+04  0.7818609E-02  0.8243232E-01
       -1   -1    0    0    0  501  0.00000000000E+00  0.00000000000E+00  0.11191767820E+04  0.11191767820E+04  0.50400001928E-02 0. -1.
        1   -1    0    0  501    0  0.00000000000E+00  0.00000000000E+00 -0.20127495398E+04  0.20127495398E+04  0.50400001928E-02 0.  1.
    10030    2    1    2    0    0  0.00000000000E+00  0.00000000000E+00 -0.89357275778E+03  0.31319263219E+04  0.30017478595E+04 0.  0.
        4    1    3    3  502    0  0.86576145932E+03 -0.10426076603E+04 -0.11197764894E+04  0.17579745837E+04  0.12699999809E+01 0.  1.
       -4    1    3    3    0  502 -0.86576145932E+03  0.10426076603E+04  0.22620373163E+03  0.13739517382E+04  0.12699999809E+01 0. -1.
</event>
<event>
 5   0  0.1700885E-06  0.2998387E+04  0.7818609E-02  0.8244192E-01
        1   -1    0    0  501    0  0.00000000000E+00  0.00000000000E+00  0.29984984718E+04  0.29984984718E+04  0.50400001928E-02 0. -1.
       -1   -1    0    0    0  501  0.00000000000E+00  0.00000000000E+00 -0.74956885332E+03  0.74956885334E+03  0.50400001928E-02 0.  1.
    10030    2    1    2    0    0  0.00000000000E+00  0.00000000000E+00  0.22489296185E+04  0.37480673251E+04  0.29983869405E+04 0.  0.
        1    1    3    3  502    0  0.15210074008E+03 -0.14536692847E+04  0.15414798807E+04  0.21242526326E+04  0.50400001928E-02 0.  1.
       -1    1    3    3    0  502 -0.15210074008E+03  0.14536692847E+04  0.70744973772E+03  0.16238146925E+04  0.50400001928E-02 0. -1.
</event>
<event>
 5   0  0.1734885E-06  0.3004006E+04  0.7818609E-02  0.8242588E-01
       -1   -1    0    0    0  501  0.00000000000E+00  0.00000000000E+00  0.16454087699E+04  0.16454087699E+04  0.50400001928E-02 0.  1.
        1   -1    0    0  501    0  0.00000000000E+00  0.00000000000E+00 -0.13710955823E+04  0.13710955823E+04  0.50400001928E-02 0. -1.
    10030    2    1    2    0    0  0.00000000000E+00  0.00000000000E+00  0.27431318766E+03  0.30165043522E+04  0.30040057892E+04 0.  0.
        2    1    3    3  502    0  0.68011161781E+03  0.91912260636E+03  0.11152082852E+04  0.15971936944E+04  0.25500000920E-02 0.  1.
       -2    1    3    3    0  502 -0.68011161781E+03 -0.91912260636E+03 -0.84089509750E+03  0.14193106578E+04  0.25500000920E-02 0. -1.
</event>
<event>
 5   0  0.4532420E-06  0.2964120E+04  0.7818609E-02  0.8254052E-01
       -2   -1    0    0    0  501  0.00000000000E+00  0.00000000000E+00  0.11917433698E+04  0.11917433698E+04  0.25500000920E-02 0. -1.
        2   -1    0    0  501    0  0.00000000000E+00  0.00000000000E+00 -0.18430993734E+04  0.18430993734E+04  0.25500000920E-02 0.  1.
    10030    2    1    2    0    0  0.00000000000E+00  0.00000000000E+00 -0.65135600354E+03  0.30348427432E+04  0.29641197399E+04 0.  0.
        4    1    3    3  502    0  0.78318103362E+03  0.48836243449E+03  0.86157084763E+03  0.12626069607E+04  0.12699999809E+01 0. -1.
       -4    1    3    3    0  502 -0.78318103362E+03 -0.48836243449E+03 -0.15129268512E+04  0.17722357825E+04  0.12699999809E+01 0.  1.
</event>
<event>
 5   0  0.4532420E-06  0.2990440E+04  0.7818609E-02  0.8246466E-01
       -2   -1    0    0    0  501  0.00000000000E+00  0.00000000000E+00  0.15669761143E+04  0.15669761143E+04  0.25500000920E-02 0. -1.
        2   -1    0    0  501    0  0.00000000000E+00  0.00000000000E+00 -0.14267502067E+04  0.14267502067E+04  0.25500000920E-02 0.  1.
    10030    2    1    2    0    0  0.00000000000E+00  0.00000000000E+00  0.14022590764E+03  0.29937263210E+04  0.29904404325E+04 0.  0.
        4    1    3    3  502    0  0.83476181341E+03 -0.86291761699E+03 -0.82206087075E+03  0.14550738081E+04  0.12699999809E+01 0.  1.
       -4    1    3    3    0  502 -0.83476181341E+03  0.86291761699E+03  0.96228677840E+03  0.15386525130E+04  0.12699999809E+01 0. -1.
</event>
<event>
 5   0  0.4935331E-06  0.2992689E+04  0.7818609E-02  0.8245822E-01
       -2   -1    0    0    0  501  0.00000000000E+00  0.00000000000E+00  0.11915243163E+04  0.11915243163E+04  0.25500000920E-02 0.  1.
        2   -1    0    0  501    0  0.00000000000E+00  0.00000000000E+00 -0.18791453088E+04  0.18791453088E+04  0.25500000920E-02 0. -1.
    10030    2    1    2    0    0  0.00000000000E+00  0.00000000000E+00 -0.68762099244E+03  0.30706696251E+04  0.29926893119E+04 0.  0.
        5    1    3    3  502    0  0.14561632634E+02 -0.10929030691E+04  0.70476551643E+03  0.13005251565E+04  0.46999998093E+01 0.  1.
       -5    1    3    3    0  502 -0.14561632634E+02  0.10929030691E+04 -0.13923865089E+04  0.17701444686E+04  0.46999998093E+01 0. -1.
</event>
<event>
 5   0  0.1709858E-06  0.3007708E+04  0.7818609E-02  0.8241533E-01
       -1   -1    0    0    0  501  0.00000000000E+00  0.00000000000E+00  0.10572172114E+04  0.10572172114E+04  0.50400001928E-02 0. -1.
        1   -1    0    0  501    0  0.00000000000E+00  0.00000000000E+00 -0.21391786954E+04  0.21391786954E+04  0.50400001928E-02 0.  1.
    10030    2    1    2    0    0  0.00000000000E+00  0.00000000000E+00 -0.10819614840E+04  0.31963959068E+04  0.30077077884E+04 0.  0.
        3    1    3    3  502    0 -0.29747758109E+01 -0.39832661110E+03 -0.20820941762E+04  0.21198559166E+04  0.10100000352E+00 0.  1.
       -3    1    3    3    0  502  0.29747758109E+01  0.39832661110E+03  0.10001326922E+04  0.10765399902E+04  0.10100000352E+00 0. -1.
</event>
<event>
 5   0  0.1734885E-06  0.3010714E+04  0.7818609E-02  0.8240678E-01
        1   -1    0    0  501    0  0.00000000000E+00  0.00000000000E+00  0.16614866243E+04  0.16614866243E+04  0.50400001928E-02 0. -1.
       -1   -1    0    0    0  501  0.00000000000E+00  0.00000000000E+00 -0.13638988757E+04  0.13638988757E+04  0.50400001928E-02 0.  1.
    10030    2    1    2    0    0  0.00000000000E+00  0.00000000000E+00  0.29758774856E+03  0.30253855000E+04  0.30107140276E+04 0.  0.
        2    1    3    3  502    0  0.53430305627E+03 -0.13876601430E+04  0.38449886979E+03  0.15358775372E+04  0.25500000920E-02 0. -1.
       -2    1    3    3    0  502 -0.53430305627E+03  0.13876601430E+04 -0.86911121233E+02  0.14895079628E+04  0.25500000920E-02 0.  1.
</event>
<event>
 5   0  0.4768570E-06  0.2997540E+04  0.7818609E-02  0.8244434E-01
        2   -1    0    0  501    0  0.00000000000E+00  0.00000000000E+00  0.18439609844E+04  0.18439609844E+04  0.25500000920E-02 0. -1.
       -2   -1    0    0    0  501  0.00000000000E+00  0.00000000000E+00 -0.12181992510E+04  0.12181992510E+04  0.25500000920E-02 0.  1.
    10030    2    1    2    0    0  0.00000000000E+00  0.00000000000E+00  0.62576173342E+03  0.30621602353E+04  0.29975402516E+04 0.  0.
        1    1    3    3  502    0 -0.17038018804E+03 -0.10963077582E+04  0.13422703115E+04  0.17414389735E+04  0.50400001928E-02 0. -1.
       -1    1    3    3    0  502  0.17038018804E+03  0.10963077582E+04 -0.71650857811E+03  0.13207212619E+04  0.50400001928E-02 0.  1.
</event>
<event>
 5   0  0.1686012E-06  0.2972007E+04  0.7818609E-02  0.8251770E-01
        1   -1    0    0  501    0  0.00000000000E+00  0.00000000000E+00  0.18317588345E+04  0.18317588345E+04  0.50400001928E-02 0. -1.
       -1   -1    0    0    0  501  0.00000000000E+00  0.00000000000E+00 -0.12055116526E+04  0.12055116526E+04  0.50400001928E-02 0.  1.
    10030    2    1    2    0    0  0.00000000000E+00  0.00000000000E+00  0.62624718197E+03  0.30372704871E+04  0.29720071465E+04 0.  0.
        4    1    3    3  502    0 -0.58562402801E+03  0.13440992179E+04  0.65634665334E+02  0.14676061229E+04  0.12699999809E+01 0.  1.
       -4    1    3    3    0  502  0.58562402801E+03 -0.13440992179E+04  0.56061251664E+03  0.15696643642E+04  0.12699999809E+01 0. -1.
</event>
<event>
 5   0  0.4532420E-06  0.2951234E+04  0.7818609E-02  0.8257795E-01
       -2   -1    0    0    0  501  0.00000000000E+00  0.00000000000E+00  0.19485528895E+04  0.19485528895E+04  0.25500000920E-02 0.  1.
        2   -1    0    0  501    0  0.00000000000E+00  0.00000000000E+00 -0.11174681486E+04  0.11174681486E+04  0.25500000920E-02 0. -1.
    10030    2    1    2    0    0  0.00000000000E+00  0.00000000000E+00  0.83108474097E+03  0.30660210381E+04  0.29512341756E+04 0.  0.
        4    1    3    3  502    0 -0.14604092092E+02 -0.87313463376E+03 -0.82020370079E+03  0.11980455300E+04  0.12699999809E+01 0. -1.
       -4    1    3    3    0  502  0.14604092092E+02  0.87313463376E+03  0.16512884418E+04  0.18679755081E+04  0.12699999809E+01 0.  1.
</event>
<event>
 5   0  0.4702748E-06  0.3127310E+04  0.7818609E-02  0.8208283E-01
       -2   -1    0    0    0  501  0.00000000000E+00  0.00000000000E+00  0.25622759901E+04  0.25622759901E+04  0.25500000920E-02 0.  1.
        2   -1    0    0  501    0  0.00000000000E+00  0.00000000000E+00 -0.95423628040E+03  0.95423628040E+03  0.25500000920E-02 0. -1.
    10030    2    1    2    0    0  0.00000000000E+00  0.00000000000E+00  0.16080397097E+04  0.35165122705E+04  0.31273098408E+04 0.  0.
        2    1    3    3  502    0 -0.23049131989E+03  0.41090702395E+02 -0.93441543657E+03  0.96330000647E+03  0.25500000920E-02 0. -1.
       -2    1    3    3    0  502  0.23049131989E+03 -0.41090702395E+02  0.25424551463E+04  0.25532122640E+04  0.25500000920E-02 0.  1.
</event>
<event>
 5   0  0.1700885E-06  0.3004535E+04  0.7818609E-02  0.8242437E-01
       -1   -1    0    0    0  501  0.00000000000E+00  0.00000000000E+00  0.11432754360E+04  0.11432754360E+04  0.50400001928E-02 0.  1.
        1   -1    0    0  501    0  0.00000000000E+00  0.00000000000E+00 -0.19739836712E+04  0.19739836712E+04  0.50400001928E-02 0. -1.
    10030    2    1    2    0    0  0.00000000000E+00  0.00000000000E+00 -0.83070823519E+03  0.31172591073E+04  0.30045346012E+04 0.  0.
        1    1    3    3  502    0  0.14111418910E+04  0.47358393825E+03 -0.62595715988E+03  0.16147524730E+04  0.50400001928E-02 0.  1.
       -1    1    3    3    0  502 -0.14111418910E+04 -0.47358393825E+03 -0.20475107531E+03  0.15025066343E+04  0.50400001928E-02 0. -1.
</event>
<event>
 5   0  0.4532420E-06  0.3034219E+04  0.7818609E-02  0.8234027E-01
       -2   -1    0    0    0  501  0.00000000000E+00  0.00000000000E+00  0.13020212161E+04  0.13020212161E+04  0.25500000920E-02 0.  1.
        2   -1    0    0  501    0  0.00000000000E+00  0.00000000000E+00 -0.17677289902E+04  0.17677289902E+04  0.25500000920E-02 0. -1.
    10030    2    1    2    0    0  0.00000000000E+00  0.00000000000E+00 -0.46570777415E+03  0.30697502063E+04  0.30342186141E+04 0.  0.
        4    1    3    3  502    0  0.13575378389E+04 -0.66790762516E+03 -0.11924707880E+03  0.15176399634E+04  0.12699999809E+01 0.  1.
       -4    1    3    3    0  502 -0.13575378389E+04  0.66790762516E+03 -0.34646069535E+03  0.15521102429E+04  0.12699999809E+01 0. -1.
</event>
<event>
 5   0  0.1709858E-06  0.2877183E+04  0.7818609E-02  0.8279699E-01
        1   -1    0    0  501    0  0.00000000000E+00  0.00000000000E+00  0.15408542960E+04  0.15408542961E+04  0.50400001928E-02 0. -1.
       -1   -1    0    0    0  501  0.00000000000E+00  0.00000000000E+00 -0.13431153099E+04  0.13431153099E+04  0.50400001928E-02 0.  1.
    10030    2    1    2    0    0  0.00000000000E+00  0.00000000000E+00  0.19773898611E+03  0.28839696060E+04  0.28771826466E+04 0.  0.
        3    1    3    3  502    0  0.34073262979E+03  0.12817155854E+02 -0.13020259374E+04  0.13459325972E+04  0.10100000352E+00 0.  1.
       -3    1    3    3    0  502 -0.34073262979E+03 -0.12817155854E+02  0.14997649235E+04  0.15380370088E+04  0.10100000352E+00 0. -1.
</event>
<event>
 5   0  0.4935331E-06  0.3005961E+04  0.7818609E-02  0.8242031E-01
        2   -1    0    0  501    0  0.00000000000E+00  0.00000000000E+00  0.14090786952E+04  0.14090786952E+04  0.25500000920E-02 0. -1.
       -2   -1    0    0    0  501  0.00000000000E+00  0.00000000000E+00 -0.16031396651E+04  0.16031396651E+04  0.25500000920E-02 0.  1.
    10030    2    1    2    0    0  0.00000000000E+00  0.00000000000E+00 -0.19406096987E+03  0.30122183603E+04  0.30059607100E+04 0.  0.
        5    1    3    3  502    0  0.14917890021E+04  0.12416378252E+03 -0.23176031383E+03  0.15147890958E+04  0.46999998093E+01 0.  1.
       -5    1    3    3    0  502 -0.14917890021E+04 -0.12416378252E+03  0.37699343964E+02  0.14974292645E+04  0.46999998093E+01 0. -1.
</event>
<event>
 5   0  0.4935331E-06  0.2977082E+04  0.7818609E-02  0.8250306E-01
        2   -1    0    0  501    0  0.00000000000E+00  0.00000000000E+00  0.67451904617E+03  0.67451904617E+03  0.25500000920E-02 0. -1.
       -2   -1    0    0    0  501  0.00000000000E+00  0.00000000000E+00 -0.32849400855E+04  0.32849400855E+04  0.25500000920E-02 0.  1.
    10030    2    1    2    0    0  0.00000000000E+00  0.00000000000E+00 -0.26104210393E+04  0.39594591317E+04  0.29770822315E+04 0.  0.
        5    1    3    3  502    0 -0.33263160955E+03 -0.13991715853E+03 -0.32258744338E+04  0.32459988527E+04  0.46999998093E+01 0.  1.
       -5    1    3    3    0  502  0.33263160955E+03  0.13991715853E+03  0.61545339448E+03  0.71346027899E+03  0.46999998093E+01 0. -1.
</event>
<event>
 5   0  0.4768570E-06  0.3026220E+04  0.7818609E-02  0.8236283E-01
        2   -1    0    0  501    0  0.00000000000E+00  0.00000000000E+00  0.20556886986E+04  0.20556886986E+04  0.25500000920E-02 0. -1.
       -2   -1    0    0    0  501  0.00000000000E+00  0.00000000000E+00 -0.11137393373E+04  0.11137393373E+04  0.25500000920E-02 0.  1.
    10030    2    1    2    0    0  0.00000000000E+00  0.00000000000E+00  0.94194936124E+03  0.31694280359E+04  0.30262196675E+04 0.  0.
        1    1    3    3  502    0  0.75993361936E+03 -0.11103045356E+04  0.11959958340E+04  0.18001892408E+04  0.50400001928E-02 0. -1.
       -1    1    3    3    0  502 -0.75993361936E+03  0.11103045356E+04 -0.25404647276E+03  0.13692387951E+04  0.50400001928E-02 0.  1.
</event>
<event>
 5   0  0.1686012E-06  0.3029169E+04  0.7818609E-02  0.8235450E-01
       -1   -1    0    0    0  501  0.00000000000E+00  0.00000000000E+00  0.17643595334E+04  0.17643595334E+04  0.50400001928E-02 0. -1.
        1   -1    0    0  501    0  0.00000000000E+00  0.00000000000E+00 -0.13001693230E+04  0.13001693230E+04  0.50400001928E-02 0.  1.
    10030    2    1    2    0    0  0.00000000000E+00  0.00000000000E+00  0.46419021037E+03  0.30645288564E+04  0.30291689554E+04 0.  0.
        4    1    3    3  502    0  0.19857290144E+03 -0.49907895076E+03  0.16647662683E+04  0.17492739457E+04  0.12699999809E+01 0. -1.
       -4    1    3    3    0  502 -0.19857290144E+03  0.49907895076E+03 -0.12005760579E+04  0.13152549107E+04  0.12699999809E+01 0.  1.
</event>
<event>
 5   0  0.1709858E-06  0.3056816E+04  0.7818609E-02  0.8227690E-01
        1   -1    0    0  501    0  0.00000000000E+00  0.00000000000E+00  0.15798387038E+04  0.15798387038E+04  0.50400001928E-02 0.  1.
       -1   -1    0    0    0  501  0.00000000000E+00  0.00000000000E+00 -0.14786515680E+04  0.14786515680E+04  0.50400001928E-02 0. -1.
    10030    2    1    2    0    0  0.00000000000E+00  0.00000000000E+00  0.10118713583E+03  0.30584902718E+04  0.30568159752E+04 0.  0.
        3    1    3    3  502    0  0.23953839793E+03 -0.14485959286E+04 -0.37416475941E+03  0.15151924253E+04  0.10100000352E+00 0. -1.
       -3    1    3    3    0  502 -0.23953839793E+03  0.14485959286E+04  0.47535189524E+03  0.15432978464E+04  0.10100000352E+00 0.  1.
</event>
<event>
 5   0  0.1709858E-06  0.2882266E+04  0.7818609E-02  0.8278173E-01
        1   -1    0    0  501    0  0.00000000000E+00  0.00000000000E+00  0.27722181073E+04  0.27722181073E+04  0.50400001928E-02 0. -1.
       -1   -1    0    0    0  501  0.00000000000E+00  0.00000000000E+00 -0.74917065108E+03  0.74917065109E+03  0.50400001928E-02 0.  1.
    10030    2    1    2    0    0  0.00000000000E+00  0.00000000000E+00  0.20230474562E+04  0.35213887584E+04  0.28822660838E+04 0.  0.
        3    1    3    3  502    0  0.32233937166E+03  0.52246560599E+02 -0.70337545336E+03  0.77548011722E+03  0.10100000352E+00 0.  1.
       -3    1    3    3    0  502 -0.32233937166E+03 -0.52246560599E+02  0.27264229096E+04  0.27459086412E+04  0.10100000352E+00 0. -1.
</event>
<event>
 5   0  0.4532420E-06  0.2912176E+04  0.7818609E-02  0.8269264E-01
        2   -1    0    0  501    0  0.00000000000E+00  0.00000000000E+00  0.15953238302E+04  0.15953238302E+04  0.25500000920E-02 0. -1.
       -2   -1    0    0    0  501  0.00000000000E+00  0.00000000000E+00 -0.13290041134E+04  0.13290041134E+04  0.25500000920E-02 0.  1.
    10030    2    1    2    0    0  0.00000000000E+00  0.00000000000E+00  0.26631971683E+03  0.29243279435E+04  0.29121757725E+04 0.  0.
        4    1    3    3  502    0 -0.44739173222E+03  0.94692596209E+03 -0.88267513924E+03  0.13696514718E+04  0.12699999809E+01 0.  1.
       -4    1    3    3    0  502  0.44739173222E+03 -0.94692596209E+03  0.11489948561E+04  0.15546764718E+04  0.12699999809E+01 0. -1.
</event>
<event>
 5   0  0.1672907E-06  0.2984675E+04  0.7818609E-02  0.8248121E-01
       -1   -1    0    0    0  501  0.00000000000E+00  0.00000000000E+00  0.22998014167E+04  0.22998014167E+04  0.50400001928E-02 0.  1.
        1   -1    0    0  501    0  0.00000000000E+00  0.00000000000E+00 -0.96837514403E+03  0.96837514404E+03  0.50400001928E-02 0. -1.
    10030    2    1    2    0    0  0.00000000000E+00  0.00000000000E+00  0.13314262727E+04  0.32681765608E+04  0.29846745405E+04 0.  0.
        5    1    3    3  502    0  0.10591106134E+04 -0.10297744684E+04  0.43369574824E+03  0.15395664452E+04  0.46999998093E+01 0.  1.
       -5    1    3    3    0  502 -0.10591106134E+04  0.10297744684E+04  0.89773052446E+03  0.17286101156E+04  0.46999998093E+01 0. -1.
</event>
<event>
 5   0  0.1700885E-06  0.2992849E+04  0.7818609E-02  0.8245776E-01
       -1   -1    0    0    0  501  0.00000000000E+00  0.00000000000E+00  0.13238647125E+04  0.13238647125E+04  0.50400001928E-02 0. -1.
        1   -1    0    0  501    0  0.00000000000E+00  0.00000000000E+00 -0.16914767525E+04  0.16914767525E+04  0.50400001928E-02 0.  1.
    10030    2    1    2    0    0  0.00000000000E+00  0.00000000000E+00 -0.36761203998E+03  0.30153414650E+04  0.29928490671E+04 0.  0.
        1    1    3    3  502    0 -0.96962267425E+03 -0.94858457936E+03  0.45284927839E+03  0.14300536016E+04  0.50400001928E-02 0. -1.
       -1    1    3    3    0  502  0.96962267425E+03  0.94858457936E+03 -0.82046131837E+03  0.15852878633E+04  0.50400001928E-02 0.  1.
</event>
<event>
 5   0  0.1734885E-06  0.2989235E+04  0.7818609E-02  0.8246811E-01
        1   -1    0    0  501    0  0.00000000000E+00  0.00000000000E+00  0.13134666718E+04  0.13134666719E+04  0.50400001928E-02 0.  1.
       -1   -1    0    0    0  501  0.00000000000E+00  0.00000000000E+00 -0.17007527373E+04  0.17007527373E+04  0.50400001928E-02 0. -1.
    10030    2    1    2    0    0  0.00000000000E+00  0.00000000000E+00 -0.38728606549E+03  0.30142194092E+04  0.29892353789E+04 0.  0.
        2    1    3    3  502    0 -0.13221178891E+04 -0.54036477090E+03  0.25036922687E+03  0.14500601877E+04  0.25500000920E-02 0.  1.
       -2    1    3    3    0  502  0.13221178891E+04  0.54036477090E+03 -0.63765529236E+03  0.15641592215E+04  0.25500000920E-02 0. -1.
</event>
<event>
 5   0  0.5003556E-06  0.2970049E+04  0.7818609E-02  0.8252336E-01
       -2   -1    0    0    0  501  0.00000000000E+00  0.00000000000E+00  0.81255559135E+03  0.81255559136E+03  0.25500000920E-02 0.  1.
        2   -1    0    0  501    0  0.00000000000E+00  0.00000000000E+00 -0.27140274097E+04  0.27140274097E+04  0.25500000920E-02 0. -1.
    10030    2    1    2    0    0  0.00000000000E+00  0.00000000000E+00 -0.19014718183E+04  0.35265830010E+04  0.29700492567E+04 0.  0.
        3    1    3    3  502    0  0.43493436765E+03  0.12158891558E+04 -0.80016629095E+02  0.12938149074E+04  0.10100000352E+00 0.  1.
       -3    1    3    3    0  502 -0.43493436765E+03 -0.12158891558E+04 -0.18214551892E+04  0.22327680937E+04  0.10100000352E+00 0. -1.
</event>
<event>
 5   0  0.4532420E-06  0.2939878E+04  0.7818609E-02  0.8261111E-01
        2   -1    0    0  501    0  0.00000000000E+00  0.00000000000E+00  0.17535191989E+04  0.17535191989E+04  0.25500000920E-02 0.  1.
       -2   -1    0    0    0  501  0.00000000000E+00  0.00000000000E+00 -0.12322196314E+04  0.12322196314E+04  0.25500000920E-02 0. -1.
    10030    2    1    2    0    0  0.00000000000E+00  0.00000000000E+00  0.52129956754E+03  0.29857388303E+04  0.29398780797E+04 0.  0.
        4    1    3    3  502    0 -0.21290729542E+03  0.13015287011E+04  0.91993950041E+03  0.16079790961E+04  0.12699999809E+01 0.  1.
       -4    1    3    3    0  502  0.21290729542E+03 -0.13015287011E+04 -0.39863993287E+03  0.13777597342E+04  0.12699999809E+01 0. -1.
</event>
<event>
 5   0  0.4768570E-06  0.2974009E+04  0.7818609E-02  0.8251192E-01
       -2   -1    0    0    0  501  0.00000000000E+00  0.00000000000E+00  0.11395960161E+04  0.11395960161E+04  0.25500000920E-02 0. -1.
        2   -1    0    0  501    0  0.00000000000E+00  0.00000000000E+00 -0.19403209463E+04  0.19403209463E+04  0.25500000920E-02 0.  1.
    10030    2    1    2    0    0  0.00000000000E+00  0.00000000000E+00 -0.80072493023E+03  0.30799169623E+04  0.29740087560E+04 0.  0.
        1    1    3    3  502    0  0.14775081797E+04  0.16746679352E+03 -0.38967647133E+03  0.15371803083E+04  0.50400001928E-02 0.  1.
       -1    1    3    3    0  502 -0.14775081797E+04 -0.16746679352E+03 -0.41104845891E+03  0.15427366540E+04  0.50400001928E-02 0. -1.
</event>
<event>
 5   0  0.5003556E-06  0.3017830E+04  0.7818609E-02  0.8238658E-01
        2   -1    0    0  501    0  0.00000000000E+00  0.00000000000E+00  0.12160839816E+04  0.12160839816E+04  0.25500000920E-02 0.  1.
       -2   -1    0    0    0  501  0.00000000000E+00  0.00000000000E+00 -0.18722588025E+04  0.18722588025E+04  0.25500000920E-02 0. -1.
    10030    2    1    2    0    0  0.00000000000E+00  0.00000000000E+00 -0.65617482084E+03  0.30883427841E+04  0.30178296434E+04 0.  0.
        3    1    3    3  502    0  0.74760814130E+03  0.12074454366E+04 -0.84988493165E+03  0.16550368040E+04  0.10100000352E+00 0. -1.
       -3    1    3    3    0  502 -0.74760814130E+03 -0.12074454366E+04  0.19371011081E+03  0.14333059801E+04  0.10100000352E+00 0.  1.
</event>
<event>
 5   0  0.1672907E-06  0.2933911E+04  0.7818609E-02  0.8262859E-01
       -1   -1    0    0    0  501  0.00000000000E+00  0.00000000000E+00  0.15611154955E+04  0.15611154955E+04  0.50400001928E-02 0. -1.
        1   -1    0    0  501    0  0.00000000000E+00  0.00000000000E+00 -0.13784745138E+04  0.13784745138E+04  0.50400001928E-02 0.  1.
    10030    2    1    2    0    0  0.00000000000E+00  0.00000000000E+00  0.18264098166E+03  0.29395900093E+04  0.29339106487E+04 0.  0.
        5    1    3    3  502    0 -0.14486908303E+04  0.97793706644E+02 -0.11805077039E+03  0.14567864652E+04  0.46999998093E+01 0.  1.
       -5    1    3    3    0  502  0.14486908303E+04 -0.97793706644E+02  0.30069175205E+03  0.14828035441E+04  0.46999998093E+01 0. -1.
</event>
<event>
 5   0  0.1686012E-06  0.2937860E+04  0.7818609E-02  0.8261701E-01
       -1   -1    0    0    0  501  0.00000000000E+00  0.00000000000E+00  0.82821113378E+03  0.82821113380E+03  0.50400001928E-02 0. -1.
        1   -1    0    0  501    0  0.00000000000E+00  0.00000000000E+00 -0.26053203111E+04  0.26053203112E+04  0.50400001928E-02 0.  1.
    10030    2    1    2    0    0  0.00000000000E+00  0.00000000000E+00 -0.17771091774E+04  0.34335314450E+04  0.29378599618E+04 0.  0.
        4    1    3    3  502    0  0.36444111263E+03 -0.61693433145E+03  0.61010920423E+03  0.94109518534E+03  0.12699999809E+01 0. -1.
       -4    1    3    3    0  502 -0.36444111263E+03  0.61693433145E+03 -0.23872183816E+04  0.24924362596E+04  0.12699999809E+01 0.  1.
</event>
<event>
 5   0  0.1672907E-06  0.3005821E+04  0.7818609E-02  0.8242071E-01
       -1   -1    0    0    0  501  0.00000000000E+00  0.00000000000E+00  0.13837450474E+04  0.13837450474E+04  0.50400001928E-02 0.  1.
        1   -1    0    0  501    0  0.00000000000E+00  0.00000000000E+00 -0.16323382398E+04  0.16323382398E+04  0.50400001928E-02 0. -1.
    10030    2    1    2    0    0  0.00000000000E+00  0.00000000000E+00 -0.24859319235E+03  0.30160832872E+04  0.30058209894E+04 0.  0.
        5    1    3    3  502    0  0.95317064837E+03 -0.59803429643E+03  0.87536707916E+03  0.14256468419E+04  0.46999998093E+01 0.  1.
       -5    1    3    3    0  502 -0.95317064837E+03  0.59803429643E+03 -0.11239602715E+04  0.15904364453E+04  0.46999998093E+01 0. -1.
</event>
<event>
 5   0  0.1709858E-06  0.2855455E+04  0.7818609E-02  0.8286256E-01
       -1   -1    0    0    0  501  0.00000000000E+00  0.00000000000E+00  0.13082167319E+04  0.13082167319E+04  0.50400001928E-02 0.  1.
        1   -1    0    0  501    0  0.00000000000E+00  0.00000000000E+00 -0.15581556440E+04  0.15581556440E+04  0.50400001928E-02 0. -1.
    10030    2    1    2    0    0  0.00000000000E+00  0.00000000000E+00 -0.24993891209E+03  0.28663723759E+04  0.28554546289E+04 0.  0.
        3    1    3    3  502    0  0.13053285784E+01  0.98383355320E+03 -0.11635630337E+04  0.15237483742E+04  0.10100000352E+00 0. -1.
       -3    1    3    3    0  502 -0.13053285784E+01 -0.98383355320E+03  0.91362412160E+03  0.13426240017E+04  0.10100000352E+00 0.  1.
</event>
<event>
 5   0  0.4532420E-06  0.2981259E+04  0.7818609E-02  0.8249103E-01
        2   -1    0    0  501    0  0.00000000000E+00  0.00000000000E+00  0.13989475868E+04  0.13989475868E+04  0.25500000920E-02 0. -1.
       -2   -1    0    0    0  501  0.00000000000E+00  0.00000000000E+00 -0.15883195853E+04  0.15883195853E+04  0.25500000920E-02 0.  1.
    10030    2    1    2    0    0  0.00000000000E+00  0.00000000000E+00 -0.18937199851E+03  0.29872671721E+04  0.29812586945E+04 0.  0.
        4    1    3    3  502    0 -0.39932479397E+03 -0.14069641433E+04 -0.38330444094E+03  0.15119299914E+04  0.12699999809E+01 0. -1.
       -4    1    3    3    0  502  0.39932479397E+03  0.14069641433E+04  0.19393244243E+03  0.14753371807E+04  0.12699999809E+01 0.  1.
</event>
<event>
 5   0  0.4768570E-06  0.2951420E+04  0.7818609E-02  0.8257741E-01
       -2   -1    0    0    0  501  0.00000000000E+00  0.00000000000E+00  0.15210534088E+04  0.15210534088E+04  0.25500000920E-02 0. -1.
        2   -1    0    0  501    0  0.00000000000E+00  0.00000000000E+00 -0.14317184671E+04  0.14317184671E+04  0.25500000920E-02 0.  1.
    10030    2    1    2    0    0  0.00000000000E+00  0.00000000000E+00  0.89334941679E+02  0.29527718759E+04  0.29514201699E+04 0.  0.
        1    1    3    3  502    0  0.31935885045E+03  0.84733182843E+03  0.12104302697E+04  0.15116556290E+04  0.50400001928E-02 0. -1.
       -1    1    3    3    0  502 -0.31935885045E+03 -0.84733182843E+03 -0.11210953280E+04  0.14411162470E+04  0.50400001928E-02 0.  1.
</event>
<event>
 5   0  0.4702748E-06  0.3026652E+04  0.7818609E-02  0.8236161E-01
        2   -1    0    0  501    0  0.00000000000E+00  0.00000000000E+00  0.14386812181E+04  0.14386812182E+04  0.25500000920E-02 0.  1.
       -2   -1    0    0    0  501  0.00000000000E+00  0.00000000000E+00 -0.15918433637E+04  0.15918433637E+04  0.25500000920E-02 0. -1.
    10030    2    1    2    0    0  0.00000000000E+00  0.00000000000E+00 -0.15316214559E+03  0.30305245819E+04  0.30266517141E+04 0.  0.
        2    1    3    3  502    0  0.65353802175E+03  0.13617856483E+04  0.16182235281E+02  0.15105740507E+04  0.25500000920E-02 0. -1.
       -2    1    3    3    0  502 -0.65353802175E+03 -0.13617856483E+04 -0.16934438087E+03  0.15199505312E+04  0.25500000920E-02 0.  1.
</event>
<event>
 5   0  0.1709858E-06  0.2996157E+04  0.7818609E-02  0.8244829E-01
        1   -1    0    0  501    0  0.00000000000E+00  0.00000000000E+00  0.25845100267E+04  0.25845100267E+04  0.50400001928E-02 0. -1.
       -1   -1    0    0    0  501  0.00000000000E+00  0.00000000000E+00 -0.86834217203E+03  0.86834217204E+03  0.50400001928E-02 0.  1.
    10030    2    1    2    0    0  0.00000000000E+00  0.00000000000E+00  0.17161678547E+04  0.34528521987E+04  0.29961569053E+04 0.  0.
        3    1    3    3  502    0  0.97175620909E+03 -0.24278176100E+03 -0.42571457181E+03  0.10883409485E+04  0.10100000352E+00 0.  1.
       -3    1    3    3    0  502 -0.97175620909E+03  0.24278176100E+03  0.21418824265E+04  0.23645112502E+04  0.10100000352E+00 0. -1.
</event>
<event>
 5   0  0.5003556E-06  0.2914967E+04  0.7818609E-02  0.8268438E-01
        2   -1    0    0  501    0  0.00000000000E+00  0.00000000000E+00  0.19687251047E+04  0.19687251047E+04  0.25500000920E-02 0.  1.
       -2   -1    0    0    0  501  0.00000000000E+00  0.00000000000E+00 -0.10790015798E+04  0.10790015798E+04  0.25500000920E-02 0. -1.
    10030    2    1    2    0    0  0.00000000000E+00  0.00000000000E+00  0.88972352498E+03  0.30477266845E+04  0.29149665509E+04 0.  0.
        3    1    3    3  502    0 -0.89608194481E+03 -0.87758781727E+03  0.12210573079E+04  0.17504582795E+04  0.10100000352E+00 0.  1.
       -3    1    3    3    0  502  0.89608194481E+03  0.87758781727E+03 -0.33133378290E+03  0.12972684050E+04  0.10100000352E+00 0. -1.
</event>
<event>
 5   0  0.4935331E-06  0.2990988E+04  0.7818609E-02  0.8246309E-01
        2   -1    0    0  501    0  0.00000000000E+00  0.00000000000E+00  0.21311884086E+04  0.21311884086E+04  0.25500000920E-02 0.  1.
       -2   -1    0    0    0  501  0.00000000000E+00  0.00000000000E+00 -0.10494156630E+04  0.10494156630E+04  0.25500000920E-02 0. -1.
    10030    2    1    2    0    0  0.00000000000E+00  0.00000000000E+00  0.10817727456E+04  0.31806040717E+04  0.29909881290E+04 0.  0.
        5    1    3    3  502    0  0.14259348404E+04  0.13711804562E+03  0.84258640805E+02  0.14349958662E+04  0.46999998093E+01 0. -1.
       -5    1    3    3    0  502 -0.14259348404E+04 -0.13711804562E+03  0.99751410479E+03  0.17456082054E+04  0.46999998093E+01 0.  1.
</event>
<event>
 5   0  0.4768570E-06  0.3028961E+04  0.7818609E-02  0.8235509E-01
        2   -1    0    0  501    0  0.00000000000E+00  0.00000000000E+00  0.25122040410E+04  0.25122040410E+04  0.25500000920E-02 0. -1.
       -2   -1    0    0    0  501  0.00000000000E+00  0.00000000000E+00 -0.91300348498E+03  0.91300348498E+03  0.25500000920E-02 0.  1.
    10030    2    1    2    0    0  0.00000000000E+00  0.00000000000E+00  0.15992005560E+04  0.34252075260E+04  0.30289609073E+04 0.  0.
        1    1    3    3  502    0 -0.69032328195E+03 -0.25558299132E+03 -0.69709458877E+03  0.10138095308E+04  0.50400001928E-02 0.  1.
       -1    1    3    3    0  502  0.69032328195E+03  0.25558299132E+03  0.22962951448E+04  0.24113979952E+04  0.50400001928E-02 0. -1.
</event>
<event>
 5   0  0.1709858E-06  0.2988226E+04  0.7818609E-02  0.8247101E-01
        1   -1    0    0  501    0  0.00000000000E+00  0.00000000000E+00  0.17731270286E+04  0.17731270286E+04  0.50400001928E-02 0. -1.
       -1   -1    0    0    0  501  0.00000000000E+00  0.00000000000E+00 -0.12590040683E+04  0.12590040683E+04  0.50400001928E-02 0.  1.
    10030    2    1    2    0    0  0.00000000000E+00  0.00000000000E+00  0.51412296027E+03  0.30321310969E+04  0.29882263252E+04 0.  0.
        3    1    3    3  502    0  0.90918454635E+03  0.38066993598E+03 -0.88231133397E+03  0.13228754438E+04  0.10100000352E+00 0.  1.
       -3    1    3    3    0  502 -0.90918454635E+03 -0.38066993598E+03  0.13964342942E+04  0.17092556531E+04  0.10100000352E+00 0. -1.
</event>
<event>
 5   0  0.1686012E-06  0.3040359E+04  0.7818609E-02  0.8232299E-01
       -1   -1    0    0    0  501  0.00000000000E+00  0.00000000000E+00  0.15595025946E+04  0.15595025946E+04  0.50400001928E-02 0.  1.
        1   -1    0    0  501    0  0.00000000000E+00  0.00000000000E+00 -0.14818482281E+04  0.14818482281E+04  0.50400001928E-02 0. -1.
    10030    2    1    2    0    0  0.00000000000E+00  0.00000000000E+00  0.77654366570E+02  0.30413508227E+04  0.30403592923E+04 0.  0.
        4    1    3    3  502    0  0.46433039179E+03  0.60773302507E+03 -0.12753753742E+04  0.14871200693E+04  0.12699999809E+01 0. -1.
       -4    1    3    3    0  502 -0.46433039179E+03 -0.60773302507E+03  0.13530297408E+04  0.15542307534E+04  0.12699999809E+01 0.  1.
</event>
<event>
 5   0  0.1709858E-06  0.3016120E+04  0.7818609E-02  0.8239143E-01
       -1   -1    0    0    0  501  0.00000000000E+00  0.00000000000E+00  0.22465859517E+04  0.22465859517E+04  0.50400001928E-02 0. -1.
        1   -1    0    0  501    0  0.00000000000E+00  0.00000000000E+00 -0.10123117706E+04  0.10123117706E+04  0.50400001928E-02 0.  1.
    10030    2    1    2    0    0  0.00000000000E+00  0.00000000000E+00  0.12342741811E+04  0.32588977223E+04  0.30161202911E+04 0.  0.
        3    1    3    3  502    0 -0.51238781996E+03 -0.98214887634E+03  0.17227767312E+04  0.20481985668E+04  0.10100000352E+00 0. -1.
       -3    1    3    3    0  502  0.51238781996E+03  0.98214887634E+03 -0.48850255011E+03  0.12106991555E+04  0.10100000352E+00 0.  1.
</event>
<event>
 5   0  0.4532420E-06  0.3018867E+04  0.7818609E-02  0.8238364E-01
       -2   -1    0    0    0  501  0.00000000000E+00  0.00000000000E+00  0.12590630951E+04  0.12590630951E+04  0.25500000920E-02 0. -1.
        2   -1    0    0  501    0  0.00000000000E+00  0.00000000000E+00 -0.18095917233E+04  0.18095917233E+04  0.25500000920E-02 0.  1.
    10030    2    1    2    0    0  0.00000000000E+00  0.00000000000E+00 -0.55052862820E+03  0.30686548185E+04  0.30188674407E+04 0.  0.
        4    1    3    3  502    0  0.63453016552E+03 -0.48551380275E+03 -0.15770237483E+04  0.17678681227E+04  0.12699999809E+01 0.  1.
       -4    1    3    3    0  502 -0.63453016552E+03  0.48551380275E+03  0.10264951201E+04  0.13007866958E+04  0.12699999809E+01 0. -1.
</event>
<event>
 5   0  0.4935331E-06  0.2961052E+04  0.7818609E-02  0.8254941E-01
       -2   -1    0    0    0  501  0.00000000000E+00  0.00000000000E+00  0.22743133017E+04  0.22743133017E+04  0.25500000920E-02 0.  1.
        2   -1    0    0  501    0  0.00000000000E+00  0.00000000000E+00 -0.96378889930E+03  0.96378889931E+03  0.25500000920E-02 0. -1.
    10030    2    1    2    0    0  0.00000000000E+00  0.00000000000E+00  0.13105244024E+04  0.32381022010E+04  0.29610524573E+04 0.  0.
        5    1    3    3  502    0  0.10368254309E+04 -0.87923584460E+03  0.12965361573E+04  0.18785874326E+04  0.46999998093E+01 0.  1.
       -5    1    3    3    0  502 -0.10368254309E+04  0.87923584460E+03  0.13988245085E+02  0.13595147684E+04  0.46999998093E+01 0. -1.
</event>
<event>
 5   0  0.4702748E-06  0.3001806E+04  0.7818609E-02  0.8243215E-01
        2   -1    0    0  501    0  0.00000000000E+00  0.00000000000E+00  0.25192980930E+04  0.25192980930E+04  0.25500000920E-02 0. -1.
       -2   -1    0    0    0  501  0.00000000000E+00  0.00000000000E+00 -0.89418172520E+03  0.89418172520E+03  0.25500000920E-02 0.  1.
    10030    2    1    2    0    0  0.00000000000E+00  0.00000000000E+00  0.16251163678E+04  0.34134798182E+04  0.30018063329E+04 0.  0.
        2    1    3    3  502    0  0.80062838564E+03 -0.12486615624E+04  0.10732312108E+04  0.18308431777E+04  0.25500000920E-02 0. -1.
       -2    1    3    3    0  502 -0.80062838564E+03  0.12486615624E+04  0.55188515700E+03  0.15826366405E+04  0.25500000920E-02 0.  1.
</event>
<event>
 5   0  0.5003556E-06  0.2523905E+04  0.7818609E-02  0.8394518E-01
        2   -1    0    0  501    0  0.00000000000E+00  0.00000000000E+00  0.14734164031E+04  0.14734164031E+04  0.25500000920E-02 0.  1.
       -2   -1    0    0    0  501  0.00000000000E+00  0.00000000000E+00 -0.10808381915E+04  0.10808381915E+04  0.25500000920E-02 0. -1.
    10030    2    1    2    0    0  0.00000000000E+00  0.00000000000E+00  0.39257821160E+03  0.25542545946E+04  0.25239054820E+04 0.  0.
        3    1    3    3  502    0 -0.95770321340E+03  0.66338950353E+03 -0.29456229446E+03  0.12016854971E+04  0.10100000352E+00 0. -1.
       -3    1    3    3    0  502  0.95770321340E+03 -0.66338950353E+03  0.68714050606E+03  0.13525690975E+04  0.10100000352E+00 0.  1.
</event>
<event>
 5   0  0.4702748E-06  0.3028578E+04  0.7818609E-02  0.8235617E-01
        2   -1    0    0  501    0  0.00000000000E+00  0.00000000000E+00  0.11987715489E+04  0.11987715489E+04  0.25500000920E-02 0.  1.
       -2   -1    0    0    0  501  0.00000000000E+00  0.00000000000E+00 -0.19128513012E+04  0.19128513012E+04  0.25500000920E-02 0. -1.
    10030    2    1    2    0    0  0.00000000000E+00  0.00000000000E+00 -0.71407975233E+03  0.31116228501E+04  0.30285783577E+04 0.  0.
        2    1    3    3  502    0  0.23350574783E+03 -0.78526701672E+00 -0.18942426704E+04  0.19085808458E+04  0.25500000920E-02 0. -1.
       -2    1    3    3    0  502 -0.23350574783E+03  0.78526701672E+00  0.11801629180E+04  0.12030420043E+04  0.25500000920E-02 0.  1.
</event>
<event>
 5   0  0.5003556E-06  0.3107224E+04  0.7818609E-02  0.8213758E-01
       -2   -1    0    0    0  501  0.00000000000E+00  0.00000000000E+00  0.13201453218E+04  0.13201453218E+04  0.25500000920E-02 0. -1.
        2   -1    0    0  501    0  0.00000000000E+00  0.00000000000E+00 -0.18283667793E+04  0.18283667793E+04  0.25500000920E-02 0.  1.
    10030    2    1    2    0    0  0.00000000000E+00  0.00000000000E+00 -0.50822145748E+03  0.31485121011E+04  0.31072237450E+04 0.  0.
        3    1    3    3  502    0 -0.62922725721E+03  0.65998581083E+03 -0.15286809084E+04  0.17799925679E+04  0.10100000352E+00 0.  1.
       -3    1    3    3    0  502  0.62922725721E+03 -0.65998581083E+03  0.10204594509E+04  0.13685195333E+04  0.10100000352E+00 0. -1.
</event>
<event>
 5   0  0.5003556E-06  0.3011631E+04  0.7818609E-02  0.8240417E-01
       -2   -1    0    0    0  501  0.00000000000E+00  0.00000000000E+00  0.16234556126E+04  0.16234556126E+04  0.25500000920E-02 0.  1.
        2   -1    0    0  501    0  0.00000000000E+00  0.00000000000E+00 -0.13967000651E+04  0.13967000651E+04  0.25500000920E-02 0. -1.
    10030    2    1    2    0    0  0.00000000000E+00  0.00000000000E+00  0.22675554757E+03  0.30201556777E+04  0.30116311592E+04 0.  0.
        3    1    3    3  502    0  0.51777475483E+02  0.15048385072E+04  0.97185555985E+02  0.15088621150E+04  0.10100000352E+00 0.  1.
       -3    1    3    3    0  502 -0.51777475483E+02 -0.15048385072E+04  0.12956999158E+03  0.15112935627E+04  0.10100000352E+00 0. -1.
</event>
<event>
 5   0  0.4532420E-06  0.3068627E+04  0.7818609E-02  0.8224401E-01
       -2   -1    0    0    0  501  0.00000000000E+00  0.00000000000E+00  0.14139143134E+04  0.14139143134E+04  0.25500000920E-02 0. -1.
        2   -1    0    0  501    0  0.00000000000E+00  0.00000000000E+00 -0.16649654861E+04  0.16649654861E+04  0.25500000920E-02 0.  1.
    10030    2    1    2    0    0  0.00000000000E+00  0.00000000000E+00 -0.25105117272E+03  0.30788797995E+04  0.30686274014E+04 0.  0.
        4    1    3    3  502    0  0.12676154849E+04  0.44734316160E+03  0.61664300325E+03  0.14789236384E+04  0.12699999809E+01 0. -1.
       -4    1    3    3    0  502 -0.12676154849E+04 -0.44734316160E+03 -0.86769417597E+03  0.15999561612E+04  0.12699999809E+01 0.  1.
</event>
<event>
 5   0  0.1672907E-06  0.2982959E+04  0.7818609E-02  0.8248614E-01
       -1   -1    0    0    0  501  0.00000000000E+00  0.00000000000E+00  0.14700850187E+04  0.14700850187E+04  0.50400001928E-02 0.  1.
        1   -1    0    0  501    0  0.00000000000E+00  0.00000000000E+00 -0.15131857377E+04  0.15131857377E+04  0.50400001928E-02 0. -1.
    10030    2    1    2    0    0  0.00000000000E+00  0.00000000000E+00 -0.43100718967E+02  0.29832707564E+04  0.29829593920E+04 0.  0.
        5    1    3    3  502    0  0.11382431322E+04  0.60824083398E+03  0.72614740307E+03  0.14808330362E+04  0.46999998093E+01 0.  1.
       -5    1    3    3    0  502 -0.11382431322E+04 -0.60824083398E+03 -0.76924812204E+03  0.15024377203E+04  0.46999998093E+01 0. -1.
</event>
<event>
 5   0  0.1686012E-06  0.2992640E+04  0.7818609E-02  0.8245836E-01
       -1   -1    0    0    0  501  0.00000000000E+00  0.00000000000E+00  0.22801373050E+04  0.22801373050E+04  0.50400001928E-02 0.  1.
        1   -1    0    0  501    0  0.00000000000E+00  0.00000000000E+00 -0.98194701545E+03  0.98194701546E+03  0.50400001928E-02 0. -1.
    10030    2    1    2    0    0  0.00000000000E+00  0.00000000000E+00  0.12981902896E+04  0.32620843205E+04  0.29926403202E+04 0.  0.
        4    1    3    3  502    0 -0.54782455580E+03 -0.38553877874E+03  0.21075531367E+04  0.22114551162E+04  0.12699999809E+01 0.  1.
       -4    1    3    3    0  502  0.54782455580E+03  0.38553877874E+03 -0.80936284712E+03  0.10506292044E+04  0.12699999809E+01 0. -1.
</event>
<event>
 5   0  0.1734885E-06  0.3020467E+04  0.7818609E-02  0.8237910E-01
        1   -1    0    0  501    0  0.00000000000E+00  0.00000000000E+00  0.80094820198E+03  0.80094820200E+03  0.50400001928E-02 0. -1.
       -1   -1    0    0    0  501  0.00000000000E+00  0.00000000000E+00 -0.28476311924E+04  0.28476311924E+04  0.50400001928E-02 0.  1.
    10030    2    1    2    0    0  0.00000000000E+00  0.00000000000E+00 -0.20466829904E+04  0.36485793944E+04  0.30204669066E+04 0.  0.
        2    1    3    3  502    0  0.60553333859E+03  0.88024515835E+02  0.64450146316E+03  0.88870753094E+03  0.25500000920E-02 0. -1.
       -2    1    3    3    0  502 -0.60553333859E+03 -0.88024515835E+02 -0.26911844536E+04  0.27598718635E+04  0.25500000920E-02 0.  1.
</event>
<event>
 5   0  0.1709858E-06  0.2914239E+04  0.7818609E-02  0.8268654E-01
       -1   -1    0    0    0  501  0.00000000000E+00  0.00000000000E+00  0.88477836272E+03  0.88477836273E+03  0.50400001928E-02 0. -1.
        1   -1    0    0  501    0  0.00000000000E+00  0.00000000000E+00 -0.23996937645E+04  0.23996937645E+04  0.50400001928E-02 0.  1.
    10030    2    1    2    0    0  0.00000000000E+00  0.00000000000E+00 -0.15149154018E+04  0.32844721272E+04  0.29142389195E+04 0.  0.
        3    1    3    3  502    0 -0.50691652117E+02 -0.39077718249E+03  0.82358725651E+03  0.91300187800E+03  0.10100000352E+00 0. -1.
       -3    1    3    3    0  502  0.50691652117E+02  0.39077718249E+03 -0.23385026583E+04  0.23714702492E+04  0.10100000352E+00 0.  1.
</event>
<event>
 5   0  0.4768570E-06  0.3537162E+04  0.7818609E-02  0.8105039E-01
       -2   -1    0    0    0  501  0.00000000000E+00  0.00000000000E+00  0.25926388059E+04  0.25926388059E+04  0.25500000920E-02 0.  1.
        2   -1    0    0  501    0  0.00000000000E+00  0.00000000000E+00 -0.12064462805E+04  0.12064462805E+04  0.25500000920E-02 0. -1.
    10030    2    1    2    0    0  0.00000000000E+00  0.00000000000E+00  0.13861925254E+04  0.37990850864E+04  0.35371623905E+04 0.  0.
        1    1    3    3  502    0  0.14095003158E+04 -0.70813048947E+02 -0.45174799441E+03  0.14818170868E+04  0.50400001928E-02 0. -1.
       -1    1    3    3    0  502 -0.14095003158E+04  0.70813048947E+02  0.18379405198E+04  0.23172679997E+04  0.50400001928E-02 0.  1.
</event>
<event>
 5   0  0.1709858E-06  0.3091320E+04  0.7818609E-02  0.8218124E-01
       -1   -1    0    0    0  501  0.00000000000E+00  0.00000000000E+00  0.19519041124E+04  0.19519041124E+04  0.50400001928E-02 0.  1.
        1   -1    0    0  501    0  0.00000000000E+00  0.00000000000E+00 -0.12239666422E+04  0.12239666422E+04  0.50400001928E-02 0. -1.
    10030    2    1    2    0    0  0.00000000000E+00  0.00000000000E+00  0.72793747013E+03  0.31758707546E+04  0.30913204443E+04 0.  0.
        3    1    3    3  502    0  0.60122823399E+03  0.12941010458E+04  0.97426410254E+03  0.17278204356E+04  0.10100000352E+00 0.  1.
       -3    1    3    3    0  502 -0.60122823399E+03 -0.12941010458E+04 -0.24632663241E+03  0.14480503189E+04  0.10100000352E+00 0. -1.
</event>
<event>
 5   0  0.5003556E-06  0.3036157E+04  0.7818609E-02  0.8233481E-01
        2   -1    0    0  501    0  0.00000000000E+00  0.00000000000E+00  0.23605904167E+04  0.23605904167E+04  0.25500000920E-02 0. -1.
       -2   -1    0    0    0  501  0.00000000000E+00  0.00000000000E+00 -0.97626513468E+03  0.97626513469E+03  0.25500000920E-02 0.  1.
    10030    2    1    2    0    0  0.00000000000E+00  0.00000000000E+00  0.13843252820E+04  0.33368555514E+04  0.30361568610E+04 0.  0.
        3    1    3    3  502    0 -0.14205132807E+04 -0.48411485153E+03  0.94359279917E+03  0.17727358943E+04  0.10100000352E+00 0.  1.
       -3    1    3    3    0  502  0.14205132807E+04  0.48411485153E+03  0.44073248288E+03  0.15641196571E+04  0.10100000352E+00 0. -1.
</event>
<event>
 5   0  0.1700885E-06  0.2990281E+04  0.7818609E-02  0.8246512E-01
        1   -1    0    0  501    0  0.00000000000E+00  0.00000000000E+00  0.19935580541E+04  0.19935580541E+04  0.50400001928E-02 0.  1.
       -1   -1    0    0    0  501  0.00000000000E+00  0.00000000000E+00 -0.11213340690E+04  0.11213340690E+04  0.50400001928E-02 0. -1.
    10030    2    1    2    0    0  0.00000000000E+00  0.00000000000E+00  0.87222398507E+03  0.31148921231E+04  0.29902806320E+04 0.  0.
        1    1    3    3  502    0  0.41273249342E+03 -0.75496511460E+02  0.19309738889E+04  0.19760333990E+04  0.50400001928E-02 0.  1.
       -1    1    3    3    0  502 -0.41273249342E+03  0.75496511460E+02 -0.10587499039E+04  0.11388587240E+04  0.50400001928E-02 0. -1.
</event>
<event>
 5   0  0.4532420E-06  0.2993135E+04  0.7818609E-02  0.8245694E-01
       -2   -1    0    0    0  501  0.00000000000E+00  0.00000000000E+00  0.10559801715E+04  0.10559801715E+04  0.25500000920E-02 0.  1.
        2   -1    0    0  501    0  0.00000000000E+00  0.00000000000E+00 -0.21209815056E+04  0.21209815056E+04  0.25500000920E-02 0. -1.
    10030    2    1    2    0    0  0.00000000000E+00  0.00000000000E+00 -0.10650013341E+04  0.31769616771E+04  0.29931350882E+04 0.  0.
        4    1    3    3  502    0 -0.11715345311E+04  0.34444908653E+03 -0.14508399534E+04  0.18963323849E+04  0.12699999809E+01 0. -1.
       -4    1    3    3    0  502  0.11715345311E+04 -0.34444908653E+03  0.38583861933E+03  0.12806292922E+04  0.12699999809E+01 0.  1.
</event>
<event>
 5   0  0.4532420E-06  0.2934696E+04  0.7818609E-02  0.8262629E-01
        2   -1    0    0  501    0  0.00000000000E+00  0.00000000000E+00  0.22418002717E+04  0.22418002717E+04  0.25500000920E-02 0. -1.
       -2   -1    0    0    0  501  0.00000000000E+00  0.00000000000E+00 -0.96043804618E+03  0.96043804618E+03  0.25500000920E-02 0.  1.
    10030    2    1    2    0    0  0.00000000000E+00  0.00000000000E+00  0.12813622256E+04  0.32022383179E+04  0.29346960817E+04 0.  0.
        4    1    3    3  502    0 -0.10120533164E+04  0.10120028639E+04  0.28759692534E+03  0.14598340030E+04  0.12699999809E+01 0.  1.
       -4    1    3    3    0  502  0.10120533164E+04 -0.10120028639E+04  0.99376530022E+03  0.17424043149E+04  0.12699999809E+01 0. -1.
</event>
<event>
 5   0  0.1672907E-06  0.2514648E+04  0.7818609E-02  0.8397786E-01
        1   -1    0    0  501    0  0.00000000000E+00  0.00000000000E+00  0.70925861485E+03  0.70925861486E+03  0.50400001928E-02 0. -1.
       -1   -1    0    0    0  501  0.00000000000E+00  0.00000000000E+00 -0.22288964505E+04  0.22288964505E+04  0.50400001928E-02 0.  1.
    10030    2    1    2    0    0  0.00000000000E+00  0.00000000000E+00 -0.15196378357E+04  0.29381550654E+04  0.25146482928E+04 0.  0.
        5    1    3    3  502    0  0.10890926046E+04  0.12572409553E+03 -0.14790476430E+04  0.18410685131E+04  0.46999998093E+01 0.  1.
       -5    1    3    3    0  502 -0.10890926046E+04 -0.12572409553E+03 -0.40590192638E+02  0.10970865523E+04  0.46999998093E+01 0. -1.
</event>
<event>
 5   0  0.1709858E-06  0.3218515E+04  0.7818609E-02  0.8183945E-01
        1   -1    0    0  501    0  0.00000000000E+00  0.00000000000E+00  0.13222555515E+04  0.13222555516E+04  0.50400001928E-02 0. -1.
       -1   -1    0    0    0  501  0.00000000000E+00  0.00000000000E+00 -0.19585540545E+04  0.19585540545E+04  0.50400001928E-02 0.  1.
    10030    2    1    2    0    0  0.00000000000E+00  0.00000000000E+00 -0.63629850294E+03  0.32808096060E+04  0.32185145465E+04 0.  0.
        3    1    3    3  502    0 -0.83574271095E+03 -0.55651057348E+03 -0.16000828000E+04  0.18890301412E+04  0.10100000352E+00 0.  1.
       -3    1    3    3    0  502  0.83574271095E+03  0.55651057348E+03  0.96378429707E+03  0.13917794648E+04  0.10100000352E+00 0. -1.
</event>
<event>
 5   0  0.1734885E-06  0.2853772E+04  0.7818609E-02  0.8286766E-01
       -1   -1    0    0    0  501  0.00000000000E+00  0.00000000000E+00  0.10492425389E+04  0.10492425390E+04  0.50400001928E-02 0.  1.
        1   -1    0    0  501    0  0.00000000000E+00  0.00000000000E+00 -0.19404512658E+04  0.19404512658E+04  0.50400001928E-02 0. -1.
    10030    2    1    2    0    0  0.00000000000E+00  0.00000000000E+00 -0.89120872685E+03  0.29896938047E+04  0.28537722494E+04 0.  0.
        2    1    3    3  502    0  0.10932822123E+04 -0.39685327360E+03  0.42035156508E+03  0.12367109423E+04  0.25500000920E-02 0.  1.
       -2    1    3    3    0  502 -0.10932822123E+04  0.39685327360E+03 -0.13115602919E+04  0.17529828624E+04  0.25500000920E-02 0. -1.
</event>
<event>
 5   0  0.4532420E-06  0.2997171E+04  0.7818609E-02  0.8244539E-01
       -2   -1    0    0    0  501  0.00000000000E+00  0.00000000000E+00  0.14970438028E+04  0.14970438028E+04  0.25500000920E-02 0.  1.
        2   -1    0    0  501    0  0.00000000000E+00  0.00000000000E+00 -0.15001283812E+04  0.15001283812E+04  0.25500000920E-02 0. -1.
    10030    2    1    2    0    0  0.00000000000E+00  0.00000000000E+00 -0.30845784201E+01  0.29971721839E+04  0.29971705967E+04 0.  0.
        4    1    3    3  502    0 -0.70964812562E+03  0.13080457174E+04  0.17501437463E+03  0.14984043864E+04  0.12699999809E+01 0.  1.
       -4    1    3    3    0  502  0.70964812562E+03 -0.13080457174E+04 -0.17809895305E+03  0.14987677975E+04  0.12699999809E+01 0. -1.
</event>
<event>
 5   0  0.1709858E-06  0.2976704E+04  0.7818609E-02  0.8250415E-01
        1   -1    0    0  501    0  0.00000000000E+00  0.00000000000E+00  0.16610401720E+04  0.16610401720E+04  0.50400001928E-02 0. -1.
       -1   -1    0    0    0  501  0.00000000000E+00  0.00000000000E+00 -0.13336170050E+04  0.13336170050E+04  0.50400001928E-02 0.  1.
    10030    2    1    2    0    0  0.00000000000E+00  0.00000000000E+00  0.32742316700E+03  0.29946571770E+04  0.29767038276E+04 0.  0.
        3    1    3    3  502    0 -0.77294759820E+03 -0.30203441344E+03  0.14066870056E+04  0.16332302711E+04  0.10100000352E+00 0. -1.
       -3    1    3    3    0  502  0.77294759820E+03  0.30203441344E+03 -0.10792638386E+04  0.13614269059E+04  0.10100000352E+00 0.  1.
</event>
<event>
 5   0  0.4702748E-06  0.3008910E+04  0.7818609E-02  0.8241191E-01
        2   -1    0    0  501    0  0.00000000000E+00  0.00000000000E+00  0.14545471558E+04  0.14545471559E+04  0.25500000920E-02 0. -1.
       -2   -1    0    0    0  501  0.00000000000E+00  0.00000000000E+00 -0.15560754462E+04  0.15560754462E+04  0.25500000920E-02 0.  1.
    10030    2    1    2    0    0  0.00000000000E+00  0.00000000000E+00 -0.10152829035E+03  0.30106226020E+04  0.30089101778E+04 0.  0.
        2    1    3    3  502    0 -0.11118347299E+03 -0.13291533510E+04 -0.74713057805E+03  0.15287951124E+04  0.25500000920E-02 0.  1.
       -2    1    3    3    0  502  0.11118347299E+03  0.13291533510E+04  0.64560228771E+03  0.14818274896E+04  0.25500000920E-02 0. -1.
</event>
<event>
 5   0  0.4532420E-06  0.3022295E+04  0.7818609E-02  0.8237393E-01
       -2   -1    0    0    0  501  0.00000000000E+00  0.00000000000E+00  0.79804828222E+03  0.79804828222E+03  0.25500000920E-02 0. -1.
        2   -1    0    0  501    0  0.00000000000E+00  0.00000000000E+00 -0.28614393504E+04  0.28614393504E+04  0.25500000920E-02 0.  1.
    10030    2    1    2    0    0  0.00000000000E+00  0.00000000000E+00 -0.20633910682E+04  0.36594876326E+04  0.30222949944E+04 0.  0.
        4    1    3    3  502    0 -0.16020014786E+03  0.11680802426E+04 -0.21762281780E+04  0.24750850968E+04  0.12699999809E+01 0.  1.
       -4    1    3    3    0  502  0.16020014786E+03 -0.11680802426E+04  0.11283710985E+03  0.11844025358E+04  0.12699999809E+01 0. -1.
</event>
<event>
 5   0  0.1672907E-06  0.2873833E+04  0.7818609E-02  0.8280706E-01
       -1   -1    0    0    0  501  0.00000000000E+00  0.00000000000E+00  0.11935701790E+04  0.11935701790E+04  0.50400001928E-02 0. -1.
        1   -1    0    0  501    0  0.00000000000E+00  0.00000000000E+00 -0.17298762221E+04  0.17298762222E+04  0.50400001928E-02 0.  1.
    10030    2    1    2    0    0  0.00000000000E+00  0.00000000000E+00 -0.53630604314E+03  0.29234464012E+04  0.28738327524E+04 0.  0.
        5    1    3    3  502    0 -0.55434105258E+03 -0.95017392919E+03  0.67224246847E+03  0.12892077120E+04  0.46999998093E+01 0. -1.
       -5    1    3    3    0  502  0.55434105258E+03  0.95017392919E+03 -0.12085485116E+04  0.16342386892E+04  0.46999998093E+01 0.  1.
</event>
<event>
 5   0  0.1734885E-06  0.3009202E+04  0.7818609E-02  0.8241108E-01
        1   -1    0    0  501    0  0.00000000000E+00  0.00000000000E+00  0.23996641861E+04  0.23996641861E+04  0.50400001928E-02 0.  1.
       -1   -1    0    0    0  501  0.00000000000E+00  0.00000000000E+00 -0.94339230425E+03  0.94339230427E+03  0.50400001928E-02 0. -1.
    10030    2    1    2    0    0  0.00000000000E+00  0.00000000000E+00  0.14562718818E+04  0.33430564903E+04  0.30092023700E+04 0.  0.
        2    1    3    3  502    0 -0.32021485799E+03  0.13809110050E+04  0.16782778487E+03  0.14274518991E+04  0.25500000920E-02 0.  1.
       -2    1    3    3    0  502  0.32021485799E+03 -0.13809110050E+04  0.12884440970E+04  0.19156045912E+04  0.25500000920E-02 0. -1.
</event>
<event>
 5   0  0.4702748E-06  0.3045639E+04  0.7818609E-02  0.8230817E-01
        2   -1    0    0  501    0  0.00000000000E+00  0.00000000000E+00  0.23489447250E+04  0.23489447250E+04  0.25500000920E-02 0. -1.
       -2   -1    0    0    0  501  0.00000000000E+00  0.00000000000E+00 -0.98724313942E+03  0.98724313942E+03  0.25500000920E-02 0.  1.
    10030    2    1    2    0    0  0.00000000000E+00  0.00000000000E+00  0.13617015856E+04  0.33361878644E+04  0.30456392200E+04 0.  0.
        2    1    3    3  502    0  0.11759406038E+04 -0.82347858214E+03  0.12372724394E+04  0.18952035163E+04  0.25500000920E-02 0. -1.
       -2    1    3    3    0  502 -0.11759406038E+04  0.82347858214E+03  0.12442914619E+03  0.14409843481E+04  0.25500000920E-02 0.  1.
</event>
<event>
 5   0  0.5003556E-06  0.3000976E+04  0.7818609E-02  0.8243452E-01
       -2   -1    0    0    0  501  0.00000000000E+00  0.00000000000E+00  0.90065094467E+03  0.90065094467E+03  0.25500000920E-02 0.  1.
        2   -1    0    0  501    0  0.00000000000E+00  0.00000000000E+00 -0.24998182995E+04  0.24998182995E+04  0.25500000920E-02 0. -1.
    10030    2    1    2    0    0  0.00000000000E+00  0.00000000000E+00 -0.15991673548E+04  0.34004692442E+04  0.30009756500E+04 0.  0.
        3    1    3    3  502    0  0.60161582975E+03 -0.98013908702E+03 -0.18916500833E+04  0.22138099025E+04  0.10100000352E+00 0. -1.
       -3    1    3    3    0  502 -0.60161582975E+03  0.98013908702E+03  0.29248272848E+03  0.11866593417E+04  0.10100000352E+00 0.  1.
</event>
<event>
 5   0  0.4935331E-06  0.3002266E+04  0.7818609E-02  0.8243084E-01
        2   -1    0    0  501    0  0.00000000000E+00  0.00000000000E+00  0.19607923772E+04  0.19607923772E+04  0.25500000920E-02 0. -1.
       -2   -1    0    0    0  501  0.00000000000E+00  0.00000000000E+00 -0.11492292463E+04  0.11492292463E+04  0.25500000920E-02 0.  1.
    10030    2    1    2    0    0  0.00000000000E+00  0.00000000000E+00  0.81156313082E+03  0.31100216235E+04  0.30022657749E+04 0.  0.
        5    1    3    3  502    0  0.11560654116E+04 -0.15755943120E+02 -0.58599590196E+03  0.12962055287E+04  0.46999998093E+01 0.  1.
       -5    1    3    3    0  502 -0.11560654116E+04  0.15755943120E+02  0.13975590328E+04  0.18138160948E+04  0.46999998093E+01 0. -1.
</event>
<event>
 5   0  0.1734885E-06  0.3013214E+04  0.7818609E-02  0.8239968E-01
       -1   -1    0    0    0  501  0.00000000000E+00  0.00000000000E+00  0.24319765865E+04  0.24319765865E+04  0.50400001928E-02 0. -1.
        1   -1    0    0  501    0  0.00000000000E+00  0.00000000000E+00 -0.93334162397E+03  0.93334162399E+03  0.50400001928E-02 0.  1.
    10030    2    1    2    0    0  0.00000000000E+00  0.00000000000E+00  0.14986349625E+04  0.33653182105E+04  0.30132142152E+04 0.  0.
        2    1    3    3  502    0 -0.31062409649E+03 -0.83978539897E+03 -0.60393735303E+03  0.10800310977E+04  0.25500000920E-02 0.  1.
       -2    1    3    3    0  502  0.31062409649E+03  0.83978539897E+03  0.21025723155E+04  0.22852871128E+04  0.25500000920E-02 0. -1.
</event>
<event>
 5   0  0.4702748E-06  0.2960960E+04  0.7818609E-02  0.8254968E-01
        2   -1    0    0  501    0  0.00000000000E+00  0.00000000000E+00  0.25863824722E+04  0.25863824722E+04  0.25500000920E-02 0.  1.
       -2   -1    0    0    0  501  0.00000000000E+00  0.00000000000E+00 -0.84744654179E+03  0.84744654179E+03  0.25500000920E-02 0. -1.
    10030    2    1    2    0    0  0.00000000000E+00  0.00000000000E+00  0.17389359304E+04  0.34338290140E+04  0.29609598997E+04 0.  0.
        2    1    3    3  502    0 -0.11122516089E+04  0.37659613271E+03 -0.17612517010E+03  0.11874124659E+04  0.25500000920E-02 0. -1.
       -2    1    3    3    0  502  0.11122516089E+04 -0.37659613271E+03  0.19150611006E+04  0.22464165481E+04  0.25500000920E-02 0.  1.
</event>
<event>
 5   0  0.1734885E-06  0.3007186E+04  0.7818609E-02  0.8241682E-01
       -1   -1    0    0    0  501  0.00000000000E+00  0.00000000000E+00  0.15063039159E+04  0.15063039159E+04  0.50400001928E-02 0. -1.
        1   -1    0    0  501    0  0.00000000000E+00  0.00000000000E+00 -0.15008871823E+04  0.15008871823E+04  0.50400001928E-02 0.  1.
    10030    2    1    2    0    0  0.00000000000E+00  0.00000000000E+00  0.54167336088E+01  0.30071910982E+04  0.30071862197E+04 0.  0.
        2    1    3    3  502    0 -0.33099354386E+02  0.93191852120E+03 -0.11767953663E+04  0.15014709560E+04  0.25500000920E-02 0.  1.
       -2    1    3    3    0  502  0.33099354386E+02 -0.93191852120E+03  0.11822120999E+04  0.15057201422E+04  0.25500000920E-02 0. -1.
</event>
<event>
 5   0  0.4935331E-06  0.3016550E+04  0.7818609E-02  0.8239021E-01
       -2   -1    0    0    0  501  0.00000000000E+00  0.00000000000E+00  0.88893222133E+03  0.88893222133E+03  0.25500000920E-02 0. -1.
        2   -1    0    0  501    0  0.00000000000E+00  0.00000000000E+00 -0.25591303889E+04  0.25591303889E+04  0.25500000920E-02 0.  1.
    10030    2    1    2    0    0  0.00000000000E+00  0.00000000000E+00 -0.16701981675E+04  0.34480626102E+04  0.30165499905E+04 0.  0.
        5    1    3    3  502    0 -0.74563662056E+02 -0.24450845742E+03 -0.25341809191E+04  0.25470451795E+04  0.46999998093E+01 0.  1.
       -5    1    3    3    0  502  0.74563662056E+02  0.24450845742E+03  0.86398275158E+03  0.90101743073E+03  0.46999998093E+01 0. -1.
</event>
<event>
 5   0  0.1700885E-06  0.2913651E+04  0.7818609E-02  0.8268828E-01
        1   -1    0    0  501    0  0.00000000000E+00  0.00000000000E+00  0.14389281525E+04  0.14389281525E+04  0.50400001928E-02 0.  1.
       -1   -1    0    0    0  501  0.00000000000E+00  0.00000000000E+00 -0.14749451935E+04  0.14749451935E+04  0.50400001928E-02 0. -1.
    10030    2    1    2    0    0  0.00000000000E+00  0.00000000000E+00 -0.36017041025E+02  0.29138733460E+04  0.29136507425E+04 0.  0.
        1    1    3    3  502    0 -0.14555689578E+04  0.39804758913E+02 -0.63561453015E+02  0.14574997317E+04  0.50400001928E-02 0.  1.
       -1    1    3    3    0  502  0.14555689578E+04 -0.39804758913E+02  0.27544411990E+02  0.14563736143E+04  0.50400001928E-02 0. -1.
</event>
<event>
 5   0  0.1686012E-06  0.3054442E+04  0.7818609E-02  0.8228353E-01
       -1   -1    0    0    0  501  0.00000000000E+00  0.00000000000E+00  0.15411166304E+04  0.15411166304E+04  0.50400001928E-02 0.  1.
        1   -1    0    0  501    0  0.00000000000E+00  0.00000000000E+00 -0.15134510569E+04  0.15134510570E+04  0.50400001928E-02 0. -1.
    10030    2    1    2    0    0  0.00000000000E+00  0.00000000000E+00  0.27665573472E+02  0.30545676874E+04  0.30544423997E+04 0.  0.
        4    1    3    3  502    0 -0.12505364083E+04 -0.87479600569E+03 -0.43559638307E+02  0.15267640338E+04  0.12699999809E+01 0.  1.
       -4    1    3    3    0  502  0.12505364083E+04  0.87479600569E+03  0.71225211780E+02  0.15278036535E+04  0.12699999809E+01 0. -1.
</event>
<event>
 5   0  0.1700885E-06  0.2994100E+04  0.7818609E-02  0.8245418E-01
       -1   -1    0    0    0  501  0.00000000000E+00  0.00000000000E+00  0.85177338044E+03  0.85177338046E+03  0.50400001928E-02 0. -1.
        1   -1    0    0  501    0  0.00000000000E+00  0.00000000000E+00 -0.26311681007E+04  0.26311681008E+04  0.50400001928E-02 0.  1.
    10030    2    1    2    0    0  0.00000000000E+00  0.00000000000E+00 -0.17793947203E+04  0.34829414812E+04  0.29941001638E+04 0.  0.
        1    1    3    3  502    0 -0.46720239468E+02 -0.44032390483E+03 -0.25532485687E+04  0.25913599086E+04  0.50400001928E-02 0.  1.
       -1    1    3    3    0  502  0.46720239468E+02  0.44032390483E+03  0.77385384842E+03  0.89158157265E+03  0.50400001928E-02 0. -1.
</event>
<event>
 5   0  0.4935331E-06  0.3034199E+04  0.7818609E-02  0.8234032E-01
       -2   -1    0    0    0  501  0.00000000000E+00  0.00000000000E+00  0.90038235701E+03  0.90038235701E+03  0.25500000920E-02 0.  1.
        2   -1    0    0  501    0  0.00000000000E+00  0.00000000000E+00 -0.25562367812E+04  0.25562367812E+04  0.25500000920E-02 0. -1.
    10030    2    1    2    0    0  0.00000000000E+00  0.00000000000E+00 -0.16558544242E+04  0.34566191382E+04  0.30341987398E+04 0.  0.
        5    1    3    3  502    0 -0.85394811837E+03 -0.10160340224E+04 -0.16650916546E+04  0.21293437561E+04  0.46999998093E+01 0. -1.
       -5    1    3    3    0  502  0.85394811837E+03  0.10160340224E+04  0.92372304186E+01  0.13272753821E+04  0.46999998093E+01 0.  1.
</event>
<event>
 5   0  0.1672907E-06  0.2986556E+04  0.7818609E-02  0.8247580E-01
        1   -1    0    0  501    0  0.00000000000E+00  0.00000000000E+00  0.13612105603E+04  0.13612105603E+04  0.50400001928E-02 0. -1.
       -1   -1    0    0    0  501  0.00000000000E+00  0.00000000000E+00 -0.16381586215E+04  0.16381586215E+04  0.50400001928E-02 0.  1.
    10030    2    1    2    0    0  0.00000000000E+00  0.00000000000E+00 -0.27694806116E+03  0.29993691818E+04  0.29865557521E+04 0.  0.
        5    1    3    3  502    0 -0.11496481059E+04 -0.77024367035E+03 -0.70203275600E+03  0.15517210315E+04  0.46999998093E+01 0.  1.
       -5    1    3    3    0  502  0.11496481059E+04  0.77024367035E+03  0.42508469483E+03  0.14476481503E+04  0.46999998093E+01 0. -1.
</event>
<event>
 5   0  0.1709858E-06  0.2999751E+04  0.7818609E-02  0.8243802E-01
       -1   -1    0    0    0  501  0.00000000000E+00  0.00000000000E+00  0.15258523676E+04  0.15258523676E+04  0.50400001928E-02 0.  1.
        1   -1    0    0  501    0  0.00000000000E+00  0.00000000000E+00 -0.14743408956E+04  0.14743408956E+04  0.50400001928E-02 0. -1.
    10030    2    1    2    0    0  0.00000000000E+00  0.00000000000E+00  0.51511472007E+02  0.30001932633E+04  0.29997510205E+04 0.  0.
        3    1    3    3  502    0  0.77864400400E+03 -0.82900296863E+03 -0.95218907691E+03  0.14833059210E+04  0.10100000352E+00 0. -1.
       -3    1    3    3    0  502 -0.77864400400E+03  0.82900296863E+03  0.10037005489E+04  0.15168873422E+04  0.10100000352E+00 0.  1.
</event>
<event>
 5   0  0.4768570E-06  0.2974176E+04  0.7818609E-02  0.8251144E-01
       -2   -1    0    0    0  501  0.00000000000E+00  0.00000000000E+00  0.91686245491E+03  0.91686245492E+03  0.25500000920E-02 0.  1.
        2   -1    0    0  501    0  0.00000000000E+00  0.00000000000E+00 -0.24119554553E+04  0.24119554553E+04  0.25500000920E-02 0. -1.
    10030    2    1    2    0    0  0.00000000000E+00  0.00000000000E+00 -0.14950930004E+04  0.33288179103E+04  0.29741764574E+04 0.  0.
        1    1    3    3  502    0 -0.71207494719E+03  0.10458890762E+03  0.70894665984E+03  0.10102449884E+04  0.50400001928E-02 0.  1.
       -1    1    3    3    0  502  0.71207494719E+03 -0.10458890762E+03 -0.22040396603E+04  0.23185729219E+04  0.50400001928E-02 0. -1.
</event>
<event>
 5   0  0.1709858E-06  0.2995385E+04  0.7818609E-02  0.8245050E-01
       -1   -1    0    0    0  501  0.00000000000E+00  0.00000000000E+00  0.12398144629E+04  0.12398144629E+04  0.50400001928E-02 0.  1.
        1   -1    0    0  501    0  0.00000000000E+00  0.00000000000E+00 -0.18092090434E+04  0.18092090434E+04  0.50400001928E-02 0. -1.
    10030    2    1    2    0    0  0.00000000000E+00  0.00000000000E+00 -0.56939458052E+03  0.30490235063E+04  0.29953854766E+04 0.  0.
        3    1    3    3  502    0  0.55035583434E+03  0.56177126210E+03 -0.15821213578E+04  0.17668012046E+04  0.10100000352E+00 0. -1.
       -3    1    3    3    0  502 -0.55035583434E+03 -0.56177126210E+03  0.10127267773E+04  0.12822223017E+04  0.10100000352E+00 0.  1.
</event>
<event>
 5   0  0.5003556E-06  0.2999889E+04  0.7818609E-02  0.8243763E-01
       -2   -1    0    0    0  501  0.00000000000E+00  0.00000000000E+00  0.13406496106E+04  0.13406496106E+04  0.25500000920E-02 0.  1.
        2   -1    0    0  501    0  0.00000000000E+00  0.00000000000E+00 -0.16781668075E+04  0.16781668075E+04  0.25500000920E-02 0. -1.
    10030    2    1    2    0    0  0.00000000000E+00  0.00000000000E+00 -0.33751719693E+03  0.30188164181E+04  0.29998891160E+04 0.  0.
        3    1    3    3  502    0 -0.62922058752E+03 -0.12491625651E+04 -0.71394055787E+03  0.15703619940E+04  0.10100000352E+00 0. -1.
       -3    1    3    3    0  502  0.62922058752E+03  0.12491625651E+04  0.37642336094E+03  0.14484544241E+04  0.10100000352E+00 0.  1.
</event>
<event>
 5   0  0.1700885E-06  0.2995974E+04  0.7818609E-02  0.8244881E-01
       -1   -1    0    0    0  501  0.00000000000E+00  0.00000000000E+00  0.79771752902E+03  0.79771752904E+03  0.50400001928E-02 0. -1.
        1   -1    0    0  501    0  0.00000000000E+00  0.00000000000E+00 -0.28129820847E+04  0.28129820847E+04  0.50400001928E-02 0.  1.
    10030    2    1    2    0    0  0.00000000000E+00  0.00000000000E+00 -0.20152645557E+04  0.36106996137E+04  0.29959740438E+04 0.  0.
        1    1    3    3  502    0  0.79707494307E+03 -0.20156926059E+02 -0.25359985322E+04  0.26583873536E+04  0.50400001928E-02 0.  1.
       -1    1    3    3    0  502 -0.79707494307E+03  0.20156926059E+02  0.52073397649E+03  0.95231226015E+03  0.50400001928E-02 0. -1.
</event>
<event>
 5   0  0.1700885E-06  0.3025589E+04  0.7818609E-02  0.8236461E-01
        1   -1    0    0  501    0  0.00000000000E+00  0.00000000000E+00  0.14533675466E+04  0.14533675466E+04  0.50400001928E-02 0.  1.
       -1   -1    0    0    0  501  0.00000000000E+00  0.00000000000E+00 -0.15746511354E+04  0.15746511354E+04  0.50400001928E-02 0. -1.
    10030    2    1    2    0    0  0.00000000000E+00  0.00000000000E+00 -0.12128358883E+03  0.30280186821E+04  0.30255887741E+04 0.  0.
        1    1    3    3  502    0  0.60783507063E+03 -0.11519982167E+04 -0.83066435339E+03  0.15448516539E+04  0.50400001928E-02 0. -1.
       -1    1    3    3    0  502 -0.60783507063E+03  0.11519982167E+04  0.70938076456E+03  0.14831670282E+04  0.50400001928E-02 0.  1.
</event>
<event>
 5   0  0.4768570E-06  0.3031465E+04  0.7818609E-02  0.8234802E-01
       -2   -1    0    0    0  501  0.00000000000E+00  0.00000000000E+00  0.11688374514E+04  0.11688374514E+04  0.25500000920E-02 0. -1.
        2   -1    0    0  501    0  0.00000000000E+00  0.00000000000E+00 -0.19655817213E+04  0.19655817213E+04  0.25500000920E-02 0.  1.
    10030    2    1    2    0    0  0.00000000000E+00  0.00000000000E+00 -0.79674426994E+03  0.31344191727E+04  0.30314653418E+04 0.  0.
        1    1    3    3  502    0  0.88924720277E+03 -0.19906388616E+03  0.85398497417E+03  0.12488704314E+04  0.50400001928E-02 0. -1.
       -1    1    3    3    0  502 -0.88924720277E+03  0.19906388616E+03 -0.16507292441E+04  0.18855487413E+04  0.50400001928E-02 0.  1.
</event>
<event>
 5   0  0.1709858E-06  0.2996278E+04  0.7818609E-02  0.8244794E-01
        1   -1    0    0  501    0  0.00000000000E+00  0.00000000000E+00  0.17859943099E+04  0.17859943099E+04  0.50400001928E-02 0.  1.
       -1   -1    0    0    0  501  0.00000000000E+00  0.00000000000E+00 -0.12566786337E+04  0.12566786337E+04  0.50400001928E-02 0. -1.
    10030    2    1    2    0    0  0.00000000000E+00  0.00000000000E+00  0.52931567621E+03  0.30426729435E+04  0.29962782842E+04 0.  0.
        3    1    3    3  502    0 -0.83914238403E+02 -0.25798105115E+03 -0.12315279970E+04  0.12610539400E+04  0.10100000352E+00 0. -1.
       -3    1    3    3    0  502  0.83914238403E+02  0.25798105115E+03  0.17608436732E+04  0.17816190035E+04  0.10100000352E+00 0.  1.
</event>
<event>
 5   0  0.1709858E-06  0.3056398E+04  0.7818609E-02  0.8227807E-01
       -1   -1    0    0    0  501  0.00000000000E+00  0.00000000000E+00  0.16701544489E+04  0.16701544490E+04  0.50400001928E-02 0. -1.
        1   -1    0    0  501    0  0.00000000000E+00  0.00000000000E+00 -0.13983086689E+04  0.13983086689E+04  0.50400001928E-02 0.  1.
    10030    2    1    2    0    0  0.00000000000E+00  0.00000000000E+00  0.27184578004E+03  0.30684631179E+04  0.30563975163E+04 0.  0.
        3    1    3    3  502    0 -0.55686578371E+03 -0.11667490317E+04 -0.68214885087E+03  0.14617557487E+04  0.10100000352E+00 0.  1.
       -3    1    3    3    0  502  0.55686578371E+03  0.11667490317E+04  0.95399463091E+03  0.16067073691E+04  0.10100000352E+00 0. -1.
</event>
<event>
 5   0  0.5003556E-06  0.3021273E+04  0.7818609E-02  0.8237682E-01
       -2   -1    0    0    0  501  0.00000000000E+00  0.00000000000E+00  0.11454029911E+04  0.11454029911E+04  0.25500000920E-02 0.  1.
        2   -1    0    0  501    0  0.00000000000E+00  0.00000000000E+00 -0.19923311089E+04  0.19923311089E+04  0.25500000920E-02 0. -1.
    10030    2    1    2    0    0  0.00000000000E+00  0.00000000000E+00 -0.84692811778E+03  0.31377341000E+04  0.30212725871E+04 0.  0.
        3    1    3    3  502    0 -0.11923725110E+04  0.92660567803E+03 -0.38100139949E+03  0.15574056517E+04  0.10100000352E+00 0. -1.
       -3    1    3    3    0  502  0.11923725110E+04 -0.92660567803E+03 -0.46592671829E+03  0.15803284483E+04  0.10100000352E+00 0.  1.
</event>
<event>
 5   0  0.4935331E-06  0.3022196E+04  0.7818609E-02  0.8237421E-01
       -2   -1    0    0    0  501  0.00000000000E+00  0.00000000000E+00  0.17994579722E+04  0.17994579722E+04  0.25500000920E-02 0.  1.
        2   -1    0    0  501    0  0.00000000000E+00  0.00000000000E+00 -0.12689469570E+04  0.12689469570E+04  0.25500000920E-02 0. -1.
    10030    2    1    2    0    0  0.00000000000E+00  0.00000000000E+00  0.53051101518E+03  0.30684049293E+04  0.30221957039E+04 0.  0.
        5    1    3    3  502    0 -0.83085293878E+03 -0.11667983417E+04  0.75392506836E+03  0.16186908522E+04  0.46999998093E+01 0.  1.
       -5    1    3    3    0  502  0.83085293878E+03  0.11667983417E+04 -0.22341405318E+03  0.14497140771E+04  0.46999998093E+01 0. -1.
</event>
<event>
 5   0  0.4702748E-06  0.3032743E+04  0.7818609E-02  0.8234442E-01
        2   -1    0    0  501    0  0.00000000000E+00  0.00000000000E+00  0.98244201363E+03  0.98244201364E+03  0.25500000920E-02 0.  1.
       -2   -1    0    0    0  501  0.00000000000E+00  0.00000000000E+00 -0.23404761338E+04  0.23404761338E+04  0.25500000920E-02 0. -1.
    10030    2    1    2    0    0  0.00000000000E+00  0.00000000000E+00 -0.13580341202E+04  0.33229181475E+04  0.30327427097E+04 0.  0.
        2    1    3    3  502    0  0.98353132399E+03 -0.11018195327E+04 -0.30257144614E+03  0.15076105691E+04  0.25500000920E-02 0.  1.
       -2    1    3    3    0  502 -0.98353132399E+03  0.11018195327E+04 -0.10554626740E+04  0.18153075784E+04  0.25500000920E-02 0. -1.
</event>
<event>
 5   0  0.4702748E-06  0.2900996E+04  0.7818609E-02  0.8272581E-01
       -2   -1    0    0    0  501  0.00000000000E+00  0.00000000000E+00  0.14141626992E+04  0.14141626992E+04  0.25500000920E-02 0. -1.
        2   -1    0    0  501    0  0.00000000000E+00  0.00000000000E+00 -0.14877669929E+04  0.14877669929E+04  0.25500000920E-02 0.  1.
    10030    2    1    2    0    0  0.00000000000E+00  0.00000000000E+00 -0.73604293697E+02  0.29019296920E+04  0.29009960954E+04 0.  0.
        2    1    3    3  502    0  0.63093611509E+03  0.82922518367E+02  0.12670696917E+04  0.14178935535E+04  0.25500000920E-02 0. -1.
       -2    1    3    3    0  502 -0.63093611509E+03 -0.82922518367E+02 -0.13406739854E+04  0.14840361385E+04  0.25500000920E-02 0.  1.
</event>
<event>
 5   0  0.5003556E-06  0.3010438E+04  0.7818609E-02  0.8240757E-01
       -2   -1    0    0    0  501  0.00000000000E+00  0.00000000000E+00  0.23290605629E+04  0.23290605630E+04  0.25500000920E-02 0. -1.
        2   -1    0    0  501    0  0.00000000000E+00  0.00000000000E+00 -0.97278892394E+03  0.97278892394E+03  0.25500000920E-02 0.  1.
    10030    2    1    2    0    0  0.00000000000E+00  0.00000000000E+00  0.13562716390E+04  0.33018494869E+04  0.30104380537E+04 0.  0.
        3    1    3    3  502    0  0.14659390808E+04 -0.21577272025E+03  0.96863070079E+03  0.17702487679E+04  0.10100000352E+00 0.  1.
       -3    1    3    3    0  502 -0.14659390808E+04  0.21577272025E+03  0.38764093822E+03  0.15316007190E+04  0.10100000352E+00 0. -1.
</event>
<event>
 5   0  0.1734885E-06  0.3006135E+04  0.7818609E-02  0.8241981E-01
       -1   -1    0    0    0  501  0.00000000000E+00  0.00000000000E+00  0.65330942895E+03  0.65330942897E+03  0.50400001928E-02 0.  1.
        1   -1    0    0  501    0  0.00000000000E+00  0.00000000000E+00 -0.34581046729E+04  0.34581046729E+04  0.50400001928E-02 0. -1.
    10030    2    1    2    0    0  0.00000000000E+00  0.00000000000E+00 -0.28047952440E+04  0.41114141019E+04  0.30061353191E+04 0.  0.
        2    1    3    3  502    0  0.36191142467E+03  0.12737877137E+04 -0.23749836865E+04  0.27192025541E+04  0.25500000920E-02 0. -1.
       -2    1    3    3    0  502 -0.36191142467E+03 -0.12737877137E+04 -0.42981155744E+03  0.13922115478E+04  0.25500000920E-02 0.  1.
</event>
<event>
 5   0  0.4768570E-06  0.2998521E+04  0.7818609E-02  0.8244153E-01
       -2   -1    0    0    0  501  0.00000000000E+00  0.00000000000E+00  0.71468653752E+03  0.71468653753E+03  0.25500000920E-02 0. -1.
        2   -1    0    0  501    0  0.00000000000E+00  0.00000000000E+00 -0.31451301443E+04  0.31451301443E+04  0.25500000920E-02 0.  1.
    10030    2    1    2    0    0  0.00000000000E+00  0.00000000000E+00 -0.24304436068E+04  0.38598166818E+04  0.29985210841E+04 0.  0.
        1    1    3    3  502    0  0.47289124831E+03  0.11842006062E+04 -0.22302863252E+04  0.25690726538E+04  0.50400001928E-02 0.  1.
       -1    1    3    3    0  502 -0.47289124831E+03 -0.11842006062E+04 -0.20015728164E+03  0.12907440280E+04  0.50400001928E-02 0. -1.
</event>
<event>
 5   0  0.1709858E-06  0.3009720E+04  0.7818609E-02  0.8240961E-01
       -1   -1    0    0    0  501  0.00000000000E+00  0.00000000000E+00  0.11498141299E+04  0.11498141300E+04  0.50400001928E-02 0.  1.
        1   -1    0    0  501    0  0.00000000000E+00  0.00000000000E+00 -0.19695395206E+04  0.19695395206E+04  0.50400001928E-02 0. -1.
    10030    2    1    2    0    0  0.00000000000E+00  0.00000000000E+00 -0.81972539065E+03  0.31193536506E+04  0.30097204989E+04 0.  0.
        3    1    3    3  502    0  0.28004977848E+02  0.36233307437E+03  0.11036515558E+04  0.11619450514E+04  0.10100000352E+00 0.  1.
       -3    1    3    3    0  502 -0.28004977848E+02 -0.36233307437E+03 -0.19233769465E+04  0.19574085992E+04  0.10100000352E+00 0. -1.
</event>
<event>
 5   0  0.1709858E-06  0.3007013E+04  0.7818609E-02  0.8241731E-01
        1   -1    0    0  501    0  0.00000000000E+00  0.00000000000E+00  0.20823113946E+04  0.20823113946E+04  0.50400001928E-02 0.  1.
       -1   -1    0    0    0  501  0.00000000000E+00  0.00000000000E+00 -0.10855875693E+04  0.10855875693E+04  0.50400001928E-02 0. -1.
    10030    2    1    2    0    0  0.00000000000E+00  0.00000000000E+00  0.99672382531E+03  0.31678989639E+04  0.30070127139E+04 0.  0.
        3    1    3    3  502    0 -0.67708307814E+03 -0.13378922815E+04  0.61441051298E+03  0.16204621379E+04  0.10100000352E+00 0.  1.
       -3    1    3    3    0  502  0.67708307814E+03  0.13378922815E+04  0.38231331233E+03  0.15474368260E+04  0.10100000352E+00 0. -1.
</event>
<event>
 5   0  0.1686012E-06  0.3060543E+04  0.7818609E-02  0.8226651E-01
       -1   -1    0    0    0  501  0.00000000000E+00  0.00000000000E+00  0.17640070233E+04  0.17640070233E+04  0.50400001928E-02 0.  1.
        1   -1    0    0  501    0  0.00000000000E+00  0.00000000000E+00 -0.13275065933E+04  0.13275065933E+04  0.50400001928E-02 0. -1.
    10030    2    1    2    0    0  0.00000000000E+00  0.00000000000E+00  0.43650042994E+03  0.30915136166E+04  0.30605430591E+04 0.  0.
        4    1    3    3  502    0  0.97285378662E+02 -0.14754223028E+04  0.61643960831E+03  0.16019784081E+04  0.12699999809E+01 0.  1.
       -4    1    3    3    0  502 -0.97285378662E+02  0.14754223028E+04 -0.17993917837E+03  0.14895352085E+04  0.12699999809E+01 0. -1.
</event>
<event>
 5   0  0.4532420E-06  0.2964845E+04  0.7818609E-02  0.8253842E-01
       -2   -1    0    0    0  501  0.00000000000E+00  0.00000000000E+00  0.92189008444E+03  0.92189008445E+03  0.25500000920E-02 0. -1.
        2   -1    0    0  501    0  0.00000000000E+00  0.00000000000E+00 -0.23837721039E+04  0.23837721039E+04  0.25500000920E-02 0.  1.
    10030    2    1    2    0    0  0.00000000000E+00  0.00000000000E+00 -0.14618820194E+04  0.33056621883E+04  0.29648445937E+04 0.  0.
        4    1    3    3  502    0 -0.24742556542E+03 -0.13610462980E+04 -0.13686062701E+03  0.13901075065E+04  0.12699999809E+01 0. -1.
       -4    1    3    3    0  502  0.24742556542E+03  0.13610462980E+04 -0.13250213924E+04  0.19155546818E+04  0.12699999809E+01 0.  1.
</event>
<event>
 5   0  0.1709858E-06  0.2988878E+04  0.7818609E-02  0.8246914E-01
       -1   -1    0    0    0  501  0.00000000000E+00  0.00000000000E+00  0.16593186346E+04  0.16593186346E+04  0.50400001928E-02 0.  1.
        1   -1    0    0  501    0  0.00000000000E+00  0.00000000000E+00 -0.13459427793E+04  0.13459427793E+04  0.50400001928E-02 0. -1.
    10030    2    1    2    0    0  0.00000000000E+00  0.00000000000E+00  0.31337585532E+03  0.30052614138E+04  0.29888780067E+04 0.  0.
        3    1    3    3  502    0  0.13027540397E+04  0.59979704298E+03 -0.26564222589E+03  0.14585919180E+04  0.10100000352E+00 0. -1.
       -3    1    3    3    0  502 -0.13027540397E+04 -0.59979704298E+03  0.57901808120E+03  0.15466694959E+04  0.10100000352E+00 0.  1.
</event>
<event>
 5   0  0.4935331E-06  0.2990928E+04  0.7818609E-02  0.8246326E-01
        2   -1    0    0  501    0  0.00000000000E+00  0.00000000000E+00  0.20109475916E+04  0.20109475916E+04  0.25500000920E-02 0.  1.
       -2   -1    0    0    0  501  0.00000000000E+00  0.00000000000E+00 -0.11121184669E+04  0.11121184669E+04  0.25500000920E-02 0. -1.
    10030    2    1    2    0    0  0.00000000000E+00  0.00000000000E+00  0.89882912473E+03  0.31230660586E+04  0.29909275836E+04 0.  0.
        5    1    3    3  502    0  0.14302888751E+04 -0.14289728698E+03  0.88024971501E+03  0.16855288641E+04  0.46999998093E+01 0.  1.
       -5    1    3    3    0  502 -0.14302888751E+04  0.14289728698E+03  0.18579409717E+02  0.14375371944E+04  0.46999998093E+01 0. -1.
</event>
<event>
 5   0  0.1709858E-06  0.3076841E+04  0.7818609E-02  0.8222123E-01
        1   -1    0    0  501    0  0.00000000000E+00  0.00000000000E+00  0.93111453918E+03  0.93111453919E+03  0.50400001928E-02 0.  1.
       -1   -1    0    0    0  501  0.00000000000E+00  0.00000000000E+00 -0.25418328304E+04  0.25418328304E+04  0.50400001928E-02 0. -1.
    10030    2    1    2    0    0  0.00000000000E+00  0.00000000000E+00 -0.16107182912E+04  0.34729473695E+04  0.30768409153E+04 0.  0.
        3    1    3    3  502    0  0.83573371508E+02  0.15331367827E+04 -0.69683234035E+03  0.16861400368E+04  0.10100000352E+00 0. -1.
       -3    1    3    3    0  502 -0.83573371508E+02 -0.15331367827E+04 -0.91388595082E+03  0.17868073327E+04  0.10100000352E+00 0.  1.
</event>
<event>
 5   0  0.4768570E-06  0.3026813E+04  0.7818609E-02  0.8236116E-01
        2   -1    0    0  501    0  0.00000000000E+00  0.00000000000E+00  0.26956043543E+04  0.26956043543E+04  0.25500000920E-02 0. -1.
       -2   -1    0    0    0  501  0.00000000000E+00  0.00000000000E+00 -0.84967910478E+03  0.84967910478E+03  0.25500000920E-02 0.  1.
    10030    2    1    2    0    0  0.00000000000E+00  0.00000000000E+00  0.18459252495E+04  0.35452834591E+04  0.30268126434E+04 0.  0.
        1    1    3    3  502    0 -0.80395738362E+03  0.10686167069E+04  0.17529369680E+04  0.22047850587E+04  0.50400001928E-02 0. -1.
       -1    1    3    3    0  502  0.80395738362E+03 -0.10686167069E+04  0.92988281456E+02  0.13404984004E+04  0.50400001928E-02 0.  1.
</event>
<event>
 5   0  0.1709858E-06  0.2987313E+04  0.7818609E-02  0.8247363E-01
        1   -1    0    0  501    0  0.00000000000E+00  0.00000000000E+00  0.24274933580E+04  0.24274933580E+04  0.50400001928E-02 0.  1.
       -1   -1    0    0    0  501  0.00000000000E+00  0.00000000000E+00 -0.91905922323E+03  0.91905922324E+03  0.50400001928E-02 0. -1.
    10030    2    1    2    0    0  0.00000000000E+00  0.00000000000E+00  0.15084341348E+04  0.33465525813E+04  0.29873132812E+04 0.  0.
        3    1    3    3  502    0 -0.36142887794E+03 -0.13814921811E+04  0.26352662627E+03  0.14521011580E+04  0.10100000352E+00 0. -1.
       -3    1    3    3    0  502  0.36142887794E+03  0.13814921811E+04  0.12449075085E+04  0.18944514233E+04  0.10100000352E+00 0.  1.
</event>
<event>
 5   0  0.4935331E-06  0.3034140E+04  0.7818609E-02  0.8234049E-01
        2   -1    0    0  501    0  0.00000000000E+00  0.00000000000E+00  0.18790079497E+04  0.18790079497E+04  0.25500000920E-02 0. -1.
       -2   -1    0    0    0  501  0.00000000000E+00  0.00000000000E+00 -0.12248488876E+04  0.12248488876E+04  0.25500000920E-02 0.  1.
    10030    2    1    2    0    0  0.00000000000E+00  0.00000000000E+00  0.65415906215E+03  0.31038568373E+04  0.30341396124E+04 0.  0.
        5    1    3    3  502    0 -0.12109309832E+04 -0.22104833316E+03  0.12341685329E+04  0.17431036312E+04  0.46999998093E+01 0. -1.
       -5    1    3    3    0  502  0.12109309832E+04  0.22104833316E+03 -0.58000947076E+03  0.13607532061E+04  0.46999998093E+01 0.  1.
</event>
<event>
 5   0  0.5003556E-06  0.2956962E+04  0.7818609E-02  0.8256128E-01
       -2   -1    0    0    0  501  0.00000000000E+00  0.00000000000E+00  0.11563949041E+04  0.11563949041E+04  0.25500000920E-02 0. -1.
        2   -1    0    0  501    0  0.00000000000E+00  0.00000000000E+00 -0.18902769385E+04  0.18902769385E+04  0.25500000920E-02 0.  1.
    10030    2    1    2    0    0  0.00000000000E+00  0.00000000000E+00 -0.73388203441E+03  0.30466718426E+04  0.29569623731E+04 0.  0.
        3    1    3    3  502    0 -0.47030427817E+03  0.13218130926E+04 -0.84749270003E+03  0.16390911666E+04  0.10100000352E+00 0.  1.
       -3    1    3    3    0  502  0.47030427817E+03 -0.13218130926E+04  0.11361066562E+03  0.14075806759E+04  0.10100000352E+00 0. -1.
</event>
<event>
 5   0  0.5003556E-06  0.3006836E+04  0.7818609E-02  0.8241781E-01
        2   -1    0    0  501    0  0.00000000000E+00  0.00000000000E+00  0.19985038427E+04  0.19985038427E+04  0.25500000920E-02 0. -1.
       -2   -1    0    0    0  501  0.00000000000E+00  0.00000000000E+00 -0.11309790315E+04  0.11309790315E+04  0.25500000920E-02 0.  1.
    10030    2    1    2    0    0  0.00000000000E+00  0.00000000000E+00  0.86752481118E+03  0.31294828743E+04  0.30068361715E+04 0.  0.
        3    1    3    3  502    0 -0.39183434504E+03 -0.13226330083E+04  0.10559539556E+04  0.17372193284E+04  0.10100000352E+00 0. -1.
       -3    1    3    3    0  502  0.39183434504E+03  0.13226330083E+04 -0.18842914439E+03  0.13922635459E+04  0.10100000352E+00 0.  1.
</event>
<event>
 5   0  0.1700885E-06  0.2990388E+04  0.7818609E-02  0.8246481E-01
        1   -1    0    0  501    0  0.00000000000E+00  0.00000000000E+00  0.28557051121E+04  0.28557051121E+04  0.50400001928E-02 0. -1.
       -1   -1    0    0    0  501  0.00000000000E+00  0.00000000000E+00 -0.78285556984E+03  0.78285556986E+03  0.50400001928E-02 0.  1.
    10030    2    1    2    0    0  0.00000000000E+00  0.00000000000E+00  0.20728495422E+04  0.36385606819E+04  0.29903877025E+04 0.  0.
        1    1    3    3  502    0  0.38903418792E+03 -0.13719252556E+04  0.48945692220E+03  0.15076785417E+04  0.50400001928E-02 0.  1.
       -1    1    3    3    0  502 -0.38903418792E+03  0.13719252556E+04  0.15833926200E+04  0.21308821402E+04  0.50400001928E-02 0. -1.
</event>
<event>
 5   0  0.1686012E-06  0.2972112E+04  0.7818609E-02  0.8251740E-01
       -1   -1    0    0    0  501  0.00000000000E+00  0.00000000000E+00  0.76423979402E+03  0.76423979404E+03  0.50400001928E-02 0. -1.
        1   -1    0    0  501    0  0.00000000000E+00  0.00000000000E+00 -0.28896188331E+04  0.28896188331E+04  0.50400001928E-02 0.  1.
    10030    2    1    2    0    0  0.00000000000E+00  0.00000000000E+00 -0.21253790391E+04  0.36538586271E+04  0.29721115065E+04 0.  0.
        4    1    3    3  502    0 -0.35199834121E+03 -0.11398770735E+04  0.26640582918E+02  0.11932870185E+04  0.12699999809E+01 0. -1.
       -4    1    3    3    0  502  0.35199834121E+03  0.11398770735E+04 -0.21520196220E+04  0.24605716086E+04  0.12699999809E+01 0.  1.
</event>
<event>
 5   0  0.1700885E-06  0.2687300E+04  0.7818609E-02  0.8339137E-01
       -1   -1    0    0    0  501  0.00000000000E+00  0.00000000000E+00  0.17373239465E+04  0.17373239465E+04  0.50400001928E-02 0. -1.
        1   -1    0    0  501    0  0.00000000000E+00  0.00000000000E+00 -0.10391816257E+04  0.10391816257E+04  0.50400001928E-02 0.  1.
    10030    2    1    2    0    0  0.00000000000E+00  0.00000000000E+00  0.69814232084E+03  0.27765055722E+04  0.26872998516E+04 0.  0.
        1    1    3    3  502    0  0.12063955027E+04  0.65460880522E+02 -0.25842648989E+03  0.12354996911E+04  0.50400001928E-02 0.  1.
       -1    1    3    3    0  502 -0.12063955027E+04 -0.65460880522E+02  0.95656881073E+03  0.15410058811E+04  0.50400001928E-02 0. -1.
</event>
<event>
 5   0  0.1545375E-06  0.2929643E+04  0.7818609E-02  0.8264112E-01
        3   -1    0    0  501    0  0.00000000000E+00  0.00000000000E+00  0.10408406615E+04  0.10408406664E+04  0.10100000352E+00 0.  1.
       -3   -1    0    0    0  501  0.00000000000E+00  0.00000000000E+00 -0.20615079986E+04  0.20615080011E+04  0.10100000352E+00 0. -1.
    10030    2    1    2    0    0  0.00000000000E+00  0.00000000000E+00 -0.10206673371E+04  0.31023486675E+04  0.29296425450E+04 0.  0.
        3    1    3    3  502    0 -0.12422255588E+04 -0.37724541412E+03 -0.12287545729E+04  0.17875335667E+04  0.10100000352E+00 0. -1.
       -3    1    3    3    0  502  0.12422255588E+04  0.37724541412E+03  0.20808723586E+03  0.13148151008E+04  0.10100000352E+00 0.  1.
</event>
<event>
 5   0  0.1672907E-06  0.2917396E+04  0.7818609E-02  0.8267721E-01
        1   -1    0    0  501    0  0.00000000000E+00  0.00000000000E+00  0.17418117149E+04  0.17418117149E+04  0.50400001928E-02 0. -1.
       -1   -1    0    0    0  501  0.00000000000E+00  0.00000000000E+00 -0.12216012295E+04  0.12216012295E+04  0.50400001928E-02 0.  1.
    10030    2    1    2    0    0  0.00000000000E+00  0.00000000000E+00  0.52021048538E+03  0.29634129444E+04  0.29173956417E+04 0.  0.
        5    1    3    3  502    0  0.90017853105E+03 -0.11477201489E+04  0.27426479813E+03  0.14841921026E+04  0.46999998093E+01 0. -1.
       -5    1    3    3    0  502 -0.90017853105E+03  0.11477201489E+04  0.24594568725E+03  0.14792208419E+04  0.46999998093E+01 0.  1.
</event>
<event>
 5   0  0.1686012E-06  0.2970425E+04  0.7818609E-02  0.8252227E-01
        1   -1    0    0  501    0  0.00000000000E+00  0.00000000000E+00  0.12592966910E+04  0.12592966910E+04  0.50400001928E-02 0. -1.
       -1   -1    0    0    0  501  0.00000000000E+00  0.00000000000E+00 -0.17516573622E+04  0.17516573622E+04  0.50400001928E-02 0.  1.
    10030    2    1    2    0    0  0.00000000000E+00  0.00000000000E+00 -0.49236067123E+03  0.30109540532E+04  0.29704251008E+04 0.  0.
        4    1    3    3  502    0 -0.13273527541E+04 -0.40522629071E+02 -0.92034689662E+03  0.16157188618E+04  0.12699999809E+01 0.  1.
       -4    1    3    3    0  502  0.13273527541E+04  0.40522629071E+02  0.42798622539E+03  0.13952351914E+04  0.12699999809E+01 0. -1.
</event>
<event>
 5   0  0.1734885E-06  0.3020161E+04  0.7818609E-02  0.8237997E-01
        1   -1    0    0  501    0  0.00000000000E+00  0.00000000000E+00  0.13353797706E+04  0.13353797706E+04  0.50400001928E-02 0. -1.
       -1   -1    0    0    0  501  0.00000000000E+00  0.00000000000E+00 -0.17076364972E+04  0.17076364972E+04  0.50400001928E-02 0.  1.
    10030    2    1    2    0    0  0.00000000000E+00  0.00000000000E+00 -0.37225672657E+03  0.30430162678E+04  0.30201610777E+04 0.  0.
        2    1    3    3  502    0 -0.12898999034E+04 -0.30634370900E+03  0.54229140702E+03  0.14323994551E+04  0.25500000920E-02 0. -1.
       -2    1    3    3    0  502  0.12898999034E+04  0.30634370900E+03 -0.91454813359E+03  0.16106168127E+04  0.25500000920E-02 0.  1.
</event>
<event>
 5   0  0.4702748E-06  0.3005062E+04  0.7818609E-02  0.8242287E-01
        2   -1    0    0  501    0  0.00000000000E+00  0.00000000000E+00  0.14851874633E+04  0.14851874633E+04  0.25500000920E-02 0.  1.
       -2   -1    0    0    0  501  0.00000000000E+00  0.00000000000E+00 -0.15200773532E+04  0.15200773532E+04  0.25500000920E-02 0. -1.
    10030    2    1    2    0    0  0.00000000000E+00  0.00000000000E+00 -0.34889889927E+02  0.30052648165E+04  0.30050622810E+04 0.  0.
        2    1    3    3  502    0 -0.77056575467E+03 -0.10966548320E+04  0.66170054183E+03  0.14947478081E+04  0.25500000920E-02 0.  1.
       -2    1    3    3    0  502  0.77056575467E+03  0.10966548320E+04 -0.69659043175E+03  0.15105170083E+04  0.25500000920E-02 0. -1.
</event>
<event>
 5   0  0.1672907E-06  0.2913517E+04  0.7818609E-02  0.8268867E-01
       -1   -1    0    0    0  501  0.00000000000E+00  0.00000000000E+00  0.97926927919E+03  0.97926927921E+03  0.50400001928E-02 0.  1.
        1   -1    0    0  501    0  0.00000000000E+00  0.00000000000E+00 -0.21670695687E+04  0.21670695687E+04  0.50400001928E-02 0. -1.
    10030    2    1    2    0    0  0.00000000000E+00  0.00000000000E+00 -0.11878002895E+04  0.31463388479E+04  0.29135165382E+04 0.  0.
        5    1    3    3  502    0  0.12094750988E+04  0.60518548907E+03 -0.93069769262E+01  0.13524748429E+04  0.46999998093E+01 0.  1.
       -5    1    3    3    0  502 -0.12094750988E+04 -0.60518548907E+03 -0.11784933126E+04  0.17938640051E+04  0.46999998093E+01 0. -1.
</event>
<event>
 5   0  0.1709858E-06  0.3012055E+04  0.7818609E-02  0.8240297E-01
        1   -1    0    0  501    0  0.00000000000E+00  0.00000000000E+00  0.21493376191E+04  0.21493376191E+04  0.50400001928E-02 0. -1.
       -1   -1    0    0    0  501  0.00000000000E+00  0.00000000000E+00 -0.10552639147E+04  0.10552639147E+04  0.50400001928E-02 0.  1.
    10030    2    1    2    0    0  0.00000000000E+00  0.00000000000E+00  0.10940737044E+04  0.32046015338E+04  0.30120547339E+04 0.  0.
        3    1    3    3  502    0 -0.25126584525E+03  0.14700764993E+04  0.32422389377E+03  0.15262308417E+04  0.10100000352E+00 0.  1.
       -3    1    3    3    0  502  0.25126584525E+03 -0.14700764993E+04  0.76984981062E+03  0.16783706920E+04  0.10100000352E+00 0. -1.
</event>
<event>
 5   0  0.4702748E-06  0.2967513E+04  0.7818609E-02  0.8253069E-01
        2   -1    0    0  501    0  0.00000000000E+00  0.00000000000E+00  0.18038045005E+04  0.18038045005E+04  0.25500000920E-02 0. -1.
       -2   -1    0    0    0  501  0.00000000000E+00  0.00000000000E+00 -0.12204945788E+04  0.12204945788E+04  0.25500000920E-02 0.  1.
    10030    2    1    2    0    0  0.00000000000E+00  0.00000000000E+00  0.58330992169E+03  0.30242990793E+04  0.29675131771E+04 0.  0.
        2    1    3    3  502    0  0.39049605830E+03  0.10167293629E+04 -0.73525165573E+03  0.13140855247E+04  0.25500000920E-02 0.  1.
       -2    1    3    3    0  502 -0.39049605830E+03 -0.10167293629E+04  0.13185615774E+04  0.17102135546E+04  0.25500000920E-02 0. -1.
</event>
<event>
 5   0  0.1734885E-06  0.3037805E+04  0.7818609E-02  0.8233017E-01
       -1   -1    0    0    0  501  0.00000000000E+00  0.00000000000E+00  0.12005733418E+04  0.12005733418E+04  0.50400001928E-02 0. -1.
        1   -1    0    0  501    0  0.00000000000E+00  0.00000000000E+00 -0.19216358114E+04  0.19216358114E+04  0.50400001928E-02 0.  1.
    10030    2    1    2    0    0  0.00000000000E+00  0.00000000000E+00 -0.72106246958E+03  0.31222091531E+04  0.30378049495E+04 0.  0.
        2    1    3    3  502    0  0.65582709312E+03  0.13625129090E+04 -0.50773828164E+03  0.15951014908E+04  0.25500000920E-02 0.  1.
       -2    1    3    3    0  502 -0.65582709312E+03 -0.13625129090E+04 -0.21332418794E+03  0.15271076624E+04  0.25500000920E-02 0. -1.
</event>
<event>
 5   0  0.1672907E-06  0.3035986E+04  0.7818609E-02  0.8233529E-01
       -1   -1    0    0    0  501  0.00000000000E+00  0.00000000000E+00  0.11310760162E+04  0.11310760162E+04  0.50400001928E-02 0.  1.
        1   -1    0    0  501    0  0.00000000000E+00  0.00000000000E+00 -0.20372665217E+04  0.20372665217E+04  0.50400001928E-02 0. -1.
    10030    2    1    2    0    0  0.00000000000E+00  0.00000000000E+00 -0.90619050545E+03  0.31683425379E+04  0.30359863645E+04 0.  0.
        5    1    3    3  502    0  0.13479179986E+03 -0.38639455781E+02 -0.20304858193E+04  0.20353271455E+04  0.46999998093E+01 0. -1.
       -5    1    3    3    0  502 -0.13479179986E+03  0.38639455781E+02  0.11242953138E+04  0.11330153924E+04  0.46999998093E+01 0.  1.
</event>
<event>
 5   0  0.4768570E-06  0.3025045E+04  0.7818609E-02  0.8236615E-01
        2   -1    0    0  501    0  0.00000000000E+00  0.00000000000E+00  0.22492143649E+04  0.22492143649E+04  0.25500000920E-02 0. -1.
       -2   -1    0    0    0  501  0.00000000000E+00  0.00000000000E+00 -0.10171215868E+04  0.10171215868E+04  0.25500000920E-02 0.  1.
    10030    2    1    2    0    0  0.00000000000E+00  0.00000000000E+00  0.12320927780E+04  0.32663359517E+04  0.30250451130E+04 0.  0.
        1    1    3    3  502    0 -0.77612490282E+03  0.12888274786E+04  0.78428999814E+03  0.16966310546E+04  0.50400001928E-02 0. -1.
       -1    1    3    3    0  502  0.77612490282E+03 -0.12888274786E+04  0.44780277990E+03  0.15697048971E+04  0.50400001928E-02 0.  1.
</event>
<event>
 5   0  0.4702748E-06  0.2933495E+04  0.7818609E-02  0.8262981E-01
       -2   -1    0    0    0  501  0.00000000000E+00  0.00000000000E+00  0.11935576658E+04  0.11935576658E+04  0.25500000920E-02 0. -1.
        2   -1    0    0  501    0  0.00000000000E+00  0.00000000000E+00 -0.18024667848E+04  0.18024667848E+04  0.25500000920E-02 0.  1.
    10030    2    1    2    0    0  0.00000000000E+00  0.00000000000E+00 -0.60890911893E+03  0.29960244506E+04  0.29334948770E+04 0.  0.
        2    1    3    3  502    0 -0.26312420229E+03 -0.84008368872E+03  0.89374210711E+03  0.12544918907E+04  0.25500000920E-02 0. -1.
       -2    1    3    3    0  502  0.26312420229E+03  0.84008368872E+03 -0.15026512260E+04  0.17415325598E+04  0.25500000920E-02 0.  1.
</event>
<event>
 5   0  0.4532420E-06  0.3020031E+04  0.7818609E-02  0.8238034E-01
       -2   -1    0    0    0  501  0.00000000000E+00  0.00000000000E+00  0.96768417352E+03  0.96768417353E+03  0.25500000920E-02 0. -1.
        2   -1    0    0  501    0  0.00000000000E+00  0.00000000000E+00 -0.23562917499E+04  0.23562917499E+04  0.25500000920E-02 0.  1.
    10030    2    1    2    0    0  0.00000000000E+00  0.00000000000E+00 -0.13886075764E+04  0.33239759234E+04  0.30200306188E+04 0.  0.
        4    1    3    3  502    0 -0.20690857343E+03 -0.57247693762E+03 -0.22152649975E+04  0.22973771183E+04  0.12699999809E+01 0.  1.
       -4    1    3    3    0  502  0.20690857343E+03  0.57247693762E+03  0.82665742110E+03  0.10265988051E+04  0.12699999809E+01 0. -1.
</event>
<event>
 5   0  0.4935331E-06  0.3004248E+04  0.7818609E-02  0.8242519E-01
       -2   -1    0    0    0  501  0.00000000000E+00  0.00000000000E+00  0.23583021422E+04  0.23583021422E+04  0.25500000920E-02 0. -1.
        2   -1    0    0  501    0  0.00000000000E+00  0.00000000000E+00 -0.95678000780E+03  0.95678000780E+03  0.25500000920E-02 0.  1.
    10030    2    1    2    0    0  0.00000000000E+00  0.00000000000E+00  0.14015221344E+04  0.33150821500E+04  0.30042478873E+04 0.  0.
        5    1    3    3  502    0 -0.11612650809E+02  0.13605326550E+04  0.14031494636E+04  0.19544908458E+04  0.46999998093E+01 0. -1.
       -5    1    3    3    0  502  0.11612650809E+02 -0.13605326550E+04 -0.16273292045E+01  0.13605913042E+04  0.46999998093E+01 0.  1.
</event>
<event>
 5   0  0.4532420E-06  0.2985923E+04  0.7818609E-02  0.8247762E-01
        2   -1    0    0  501    0  0.00000000000E+00  0.00000000000E+00  0.13057292681E+04  0.13057292681E+04  0.25500000920E-02 0. -1.
       -2   -1    0    0    0  501  0.00000000000E+00  0.00000000000E+00 -0.17070409753E+04  0.17070409753E+04  0.25500000920E-02 0.  1.
    10030    2    1    2    0    0  0.00000000000E+00  0.00000000000E+00 -0.40131170715E+03  0.30127702434E+04  0.29859225464E+04 0.  0.
        4    1    3    3  502    0  0.62966326146E+03  0.75903496962E+03 -0.13315915973E+04  0.16570297834E+04  0.12699999809E+01 0.  1.
       -4    1    3    3    0  502 -0.62966326146E+03 -0.75903496962E+03  0.93027989019E+03  0.13557404600E+04  0.12699999809E+01 0. -1.
</event>
<event>
 5   0  0.4768570E-06  0.3051767E+04  0.7818609E-02  0.8229101E-01
        2   -1    0    0  501    0  0.00000000000E+00  0.00000000000E+00  0.13632359982E+04  0.13632359983E+04  0.25500000920E-02 0. -1.
       -2   -1    0    0    0  501  0.00000000000E+00  0.00000000000E+00 -0.17079367321E+04  0.17079367321E+04  0.25500000920E-02 0.  1.
    10030    2    1    2    0    0  0.00000000000E+00  0.00000000000E+00 -0.34470073380E+03  0.30711727303E+04  0.30517672492E+04 0.  0.
        1    1    3    3  502    0 -0.31719545466E+03  0.45792874982E+03 -0.16019499056E+04  0.16960410361E+04  0.50400001928E-02 0.  1.
       -1    1    3    3    0  502  0.31719545466E+03 -0.45792874982E+03  0.12572491718E+04  0.13751316942E+04  0.50400001928E-02 0. -1.
</event>
<event>
 5   0  0.1686012E-06  0.2990523E+04  0.7818609E-02  0.8246442E-01
       -1   -1    0    0    0  501  0.00000000000E+00  0.00000000000E+00  0.12909442144E+04  0.12909442144E+04  0.50400001928E-02 0. -1.
        1   -1    0    0  501    0  0.00000000000E+00  0.00000000000E+00 -0.17319162337E+04  0.17319162337E+04  0.50400001928E-02 0.  1.
    10030    2    1    2    0    0  0.00000000000E+00  0.00000000000E+00 -0.44097201932E+03  0.30228604481E+04  0.29905231928E+04 0.  0.
        4    1    3    3  502    0  0.43546136669E+03  0.85209193955E+03  0.94090205303E+03  0.13420080334E+04  0.12699999809E+01 0.  1.
       -4    1    3    3    0  502 -0.43546136669E+03 -0.85209193955E+03 -0.13818740724E+04  0.16808524147E+04  0.12699999809E+01 0. -1.
</event>
<event>
 5   0  0.4702748E-06  0.3012995E+04  0.7818609E-02  0.8240030E-01
       -2   -1    0    0    0  501  0.00000000000E+00  0.00000000000E+00  0.88609227120E+03  0.88609227121E+03  0.25500000920E-02 0. -1.
        2   -1    0    0  501    0  0.00000000000E+00  0.00000000000E+00 -0.25612856675E+04  0.25612856675E+04  0.25500000920E-02 0.  1.
    10030    2    1    2    0    0  0.00000000000E+00  0.00000000000E+00 -0.16751933963E+04  0.34473779388E+04  0.30129954758E+04 0.  0.
        2    1    3    3  502    0 -0.98536347360E+03 -0.11372610050E+04 -0.92035478019E+03  0.17639038211E+04  0.25500000920E-02 0.  1.
       -2    1    3    3    0  502  0.98536347360E+03  0.11372610050E+04 -0.75483861615E+03  0.16834741177E+04  0.25500000920E-02 0. -1.
</event>
<event>
 5   0  0.5003556E-06  0.2775451E+04  0.7818609E-02  0.8310931E-01
        2   -1    0    0  501    0  0.00000000000E+00  0.00000000000E+00  0.15779406752E+04  0.15779406752E+04  0.25500000920E-02 0. -1.
       -2   -1    0    0    0  501  0.00000000000E+00  0.00000000000E+00 -0.12204402785E+04  0.12204402785E+04  0.25500000920E-02 0.  1.
    10030    2    1    2    0    0  0.00000000000E+00  0.00000000000E+00  0.35750039672E+03  0.27983809537E+04  0.27754512117E+04 0.  0.
        3    1    3    3  502    0  0.90154773285E+01 -0.45841975781E+03 -0.11418617791E+04  0.12304788848E+04  0.10100000352E+00 0.  1.
       -3    1    3    3    0  502 -0.90154773285E+01  0.45841975781E+03  0.14993621758E+04  0.15679020689E+04  0.10100000352E+00 0. -1.
</event>
<event>
 5   0  0.1734885E-06  0.2973009E+04  0.7818609E-02  0.8251481E-01
        1   -1    0    0  501    0  0.00000000000E+00  0.00000000000E+00  0.17150002662E+04  0.17150002662E+04  0.50400001928E-02 0.  1.
       -1   -1    0    0    0  501  0.00000000000E+00  0.00000000000E+00 -0.12884520944E+04  0.12884520944E+04  0.50400001928E-02 0. -1.
    10030    2    1    2    0    0  0.00000000000E+00  0.00000000000E+00  0.42654817181E+03  0.30034523605E+04  0.29730090379E+04 0.  0.
        2    1    3    3  502    0 -0.60632602320E+03  0.12893283119E+04  0.64152161139E+03  0.15625455898E+04  0.25500000920E-02 0.  1.
       -2    1    3    3    0  502  0.60632602320E+03 -0.12893283119E+04 -0.21497343958E+03  0.14409067708E+04  0.25500000920E-02 0. -1.
</event>
<event>
 5   0  0.4768570E-06  0.3019334E+04  0.7818609E-02  0.8238231E-01
        2   -1    0    0  501    0  0.00000000000E+00  0.00000000000E+00  0.73983615881E+03  0.73983615881E+03  0.25500000920E-02 0.  1.
       -2   -1    0    0    0  501  0.00000000000E+00  0.00000000000E+00 -0.30805391933E+04  0.30805391933E+04  0.25500000920E-02 0. -1.
    10030    2    1    2    0    0  0.00000000000E+00  0.00000000000E+00 -0.23407030345E+04  0.38203753521E+04  0.30193338893E+04 0.  0.
        1    1    3    3  502    0  0.43114742482E+03  0.74148745089E+03  0.40158317368E+03  0.94708013767E+03  0.50400001928E-02 0.  1.
       -1    1    3    3    0  502 -0.43114742482E+03 -0.74148745089E+03 -0.27422862082E+04  0.28732952144E+04  0.50400001928E-02 0. -1.
</event>
<event>
 5   0  0.1700885E-06  0.3008581E+04  0.7818609E-02  0.8241285E-01
        1   -1    0    0  501    0  0.00000000000E+00  0.00000000000E+00  0.12849758876E+04  0.12849758876E+04  0.50400001928E-02 0.  1.
       -1   -1    0    0    0  501  0.00000000000E+00  0.00000000000E+00 -0.17610363650E+04  0.17610363650E+04  0.50400001928E-02 0. -1.
    10030    2    1    2    0    0  0.00000000000E+00  0.00000000000E+00 -0.47606047743E+03  0.30460122526E+04  0.30085805731E+04 0.  0.
        1    1    3    3  502    0 -0.99357846986E+03 -0.96860108421E+03 -0.82620832128E+03  0.16149323287E+04  0.50400001928E-02 0. -1.
       -1    1    3    3    0  502  0.99357846986E+03  0.96860108421E+03  0.35014784385E+03  0.14310799239E+04  0.50400001928E-02 0.  1.
</event>
<event>
 5   0  0.4702748E-06  0.2996095E+04  0.7818609E-02  0.8244847E-01
       -2   -1    0    0    0  501  0.00000000000E+00  0.00000000000E+00  0.12924203816E+04  0.12924203816E+04  0.25500000920E-02 0. -1.
        2   -1    0    0  501    0  0.00000000000E+00  0.00000000000E+00 -0.17363909551E+04  0.17363909551E+04  0.25500000920E-02 0.  1.
    10030    2    1    2    0    0  0.00000000000E+00  0.00000000000E+00 -0.44397057344E+03  0.30288113367E+04  0.29960954997E+04 0.  0.
        2    1    3    3  502    0  0.12322320915E+04 -0.60800072940E+02 -0.10810018835E+04  0.16403224220E+04  0.25500000920E-02 0.  1.
       -2    1    3    3    0  502 -0.12322320915E+04  0.60800072940E+02  0.63703131006E+03  0.13884889146E+04  0.25500000920E-02 0. -1.
</event>
<event>
 5   0  0.1672907E-06  0.2995770E+04  0.7818609E-02  0.8244940E-01
        1   -1    0    0  501    0  0.00000000000E+00  0.00000000000E+00  0.22210270443E+04  0.22210270443E+04  0.50400001928E-02 0. -1.
       -1   -1    0    0    0  501  0.00000000000E+00  0.00000000000E+00 -0.10101901307E+04  0.10101901307E+04  0.50400001928E-02 0.  1.
    10030    2    1    2    0    0  0.00000000000E+00  0.00000000000E+00  0.12108369136E+04  0.32312171750E+04  0.29957700848E+04 0.  0.
        5    1    3    3  502    0 -0.84296787107E+03 -0.51156047975E+03 -0.61073950030E+03  0.11598766242E+04  0.46999998093E+01 0.  1.
       -5    1    3    3    0  502  0.84296787107E+03  0.51156047975E+03  0.18215764139E+04  0.20713405509E+04  0.46999998093E+01 0. -1.
</event>
<event>
 5   0  0.4935331E-06  0.3011371E+04  0.7818609E-02  0.8240491E-01
       -2   -1    0    0    0  501  0.00000000000E+00  0.00000000000E+00  0.11333514993E+04  0.11333514993E+04  0.25500000920E-02 0. -1.
        2   -1    0    0  501    0  0.00000000000E+00  0.00000000000E+00 -0.20003398171E+04  0.20003398171E+04  0.25500000920E-02 0.  1.
    10030    2    1    2    0    0  0.00000000000E+00  0.00000000000E+00 -0.86698831781E+03  0.31336913165E+04  0.30113705391E+04 0.  0.
        5    1    3    3  502    0 -0.17865414088E+03 -0.12430992419E+04 -0.12978056754E+04  0.18059719512E+04  0.46999998093E+01 0.  1.
       -5    1    3    3    0  502  0.17865414088E+03  0.12430992419E+04  0.43081735762E+03  0.13277193653E+04  0.46999998093E+01 0. -1.
</event>
<event>
 5   0  0.1686012E-06  0.2939178E+04  0.7818609E-02  0.8261315E-01
        1   -1    0    0  501    0  0.00000000000E+00  0.00000000000E+00  0.22968847393E+04  0.22968847393E+04  0.50400001928E-02 0.  1.
       -1   -1    0    0    0  501  0.00000000000E+00  0.00000000000E+00 -0.94026988082E+03  0.94026988083E+03  0.50400001928E-02 0. -1.
    10030    2    1    2    0    0  0.00000000000E+00  0.00000000000E+00  0.13566148585E+04  0.32371546202E+04  0.29391778035E+04 0.  0.
        4    1    3    3  502    0 -0.14566284766E+04  0.18011113317E+03  0.59675027216E+03  0.15843986365E+04  0.12699999809E+01 0.  1.
       -4    1    3    3    0  502  0.14566284766E+04 -0.18011113317E+03  0.75986458636E+03  0.16527559837E+04  0.12699999809E+01 0. -1.
</event>
<event>
 5   0  0.4532420E-06  0.3002567E+04  0.7818609E-02  0.8242998E-01
       -2   -1    0    0    0  501  0.00000000000E+00  0.00000000000E+00  0.13347188196E+04  0.13347188196E+04  0.25500000920E-02 0.  1.
        2   -1    0    0  501    0  0.00000000000E+00  0.00000000000E+00 -0.16886349176E+04  0.16886349176E+04  0.25500000920E-02 0. -1.
    10030    2    1    2    0    0  0.00000000000E+00  0.00000000000E+00 -0.35391609797E+03  0.30233537373E+04  0.30025674374E+04 0.  0.
        4    1    3    3  502    0  0.15152668855E+03  0.11694030396E+04  0.75866097184E+03  0.14021525914E+04  0.12699999809E+01 0.  1.
       -4    1    3    3    0  502 -0.15152668855E+03 -0.11694030396E+04 -0.11125770698E+04  0.16212011459E+04  0.12699999809E+01 0. -1.
</event>
<event>
 5   0  0.1700885E-06  0.2796561E+04  0.7818609E-02  0.8304337E-01
       -1   -1    0    0    0  501  0.00000000000E+00  0.00000000000E+00  0.12625413144E+04  0.12625413144E+04  0.50400001928E-02 0. -1.
        1   -1    0    0  501    0  0.00000000000E+00  0.00000000000E+00 -0.15486133690E+04  0.15486133690E+04  0.50400001928E-02 0.  1.
    10030    2    1    2    0    0  0.00000000000E+00  0.00000000000E+00 -0.28607205463E+03  0.28111546834E+04  0.27965610012E+04 0.  0.
        1    1    3    3  502    0  0.76639367963E+03 -0.10857020586E+04  0.29406657067E+03  0.13610963891E+04  0.50400001928E-02 0. -1.
       -1    1    3    3    0  502 -0.76639367963E+03  0.10857020586E+04 -0.58013862530E+03  0.14500582943E+04  0.50400001928E-02 0.  1.
</event>
<event>
 5   0  0.4768570E-06  0.2985716E+04  0.7818609E-02  0.8247822E-01
       -2   -1    0    0    0  501  0.00000000000E+00  0.00000000000E+00  0.15490869368E+04  0.15490869368E+04  0.25500000920E-02 0.  1.
        2   -1    0    0  501    0  0.00000000000E+00  0.00000000000E+00 -0.14386699817E+04  0.14386699817E+04  0.25500000920E-02 0. -1.
    10030    2    1    2    0    0  0.00000000000E+00  0.00000000000E+00  0.11041695507E+03  0.29877569184E+04  0.29857159108E+04 0.  0.
        1    1    3    3  502    0  0.11790364818E+04 -0.10175525850E+03  0.96585458147E+03  0.15275327265E+04  0.50400001928E-02 0.  1.
       -1    1    3    3    0  502 -0.11790364818E+04  0.10175525850E+03 -0.85543762640E+03  0.14602241919E+04  0.50400001928E-02 0. -1.
</event>
<event>
 5   0  0.1686012E-06  0.2980943E+04  0.7818609E-02  0.8249194E-01
       -1   -1    0    0    0  501  0.00000000000E+00  0.00000000000E+00  0.18056439757E+04  0.18056439758E+04  0.50400001928E-02 0. -1.
        1   -1    0    0  501    0  0.00000000000E+00  0.00000000000E+00 -0.12303118601E+04  0.12303118601E+04  0.50400001928E-02 0.  1.
    10030    2    1    2    0    0  0.00000000000E+00  0.00000000000E+00  0.57533211568E+03  0.30359558358E+04  0.29809429370E+04 0.  0.
        4    1    3    3  502    0 -0.11244015171E+04  0.86408926526E+03  0.75501873348E+03  0.16065440955E+04  0.12699999809E+01 0. -1.
       -4    1    3    3    0  502  0.11244015171E+04 -0.86408926526E+03 -0.17968661780E+03  0.14294117403E+04  0.12699999809E+01 0.  1.
</event>
<event>
 5   0  0.5003556E-06  0.2975776E+04  0.7818609E-02  0.8250682E-01
       -2   -1    0    0    0  501  0.00000000000E+00  0.00000000000E+00  0.19843578231E+04  0.19843578231E+04  0.25500000920E-02 0. -1.
        2   -1    0    0  501    0  0.00000000000E+00  0.00000000000E+00 -0.11156305765E+04  0.11156305765E+04  0.25500000920E-02 0.  1.
    10030    2    1    2    0    0  0.00000000000E+00  0.00000000000E+00  0.86872724660E+03  0.30999883996E+04  0.29757757054E+04 0.  0.
        3    1    3    3  502    0  0.80241883244E+03  0.12431788829E+04  0.27150332545E+03  0.15043549393E+04  0.10100000352E+00 0. -1.
       -3    1    3    3    0  502 -0.80241883244E+03 -0.12431788829E+04  0.59722392115E+03  0.15956334603E+04  0.10100000352E+00 0.  1.
</event>
<event>
 5   0  0.1709858E-06  0.2880412E+04  0.7818609E-02  0.8278730E-01
        1   -1    0    0  501    0  0.00000000000E+00  0.00000000000E+00  0.10147676211E+04  0.10147676211E+04  0.50400001928E-02 0. -1.
       -1   -1    0    0    0  501  0.00000000000E+00  0.00000000000E+00 -0.20440074978E+04  0.20440074978E+04  0.50400001928E-02 0.  1.
    10030    2    1    2    0    0  0.00000000000E+00  0.00000000000E+00 -0.10292398767E+04  0.30587751190E+04  0.28804115165E+04 0.  0.
        3    1    3    3  502    0  0.75631128567E+03 -0.89645812790E+03 -0.14021669138E+04  0.18280361048E+04  0.10100000352E+00 0.  1.
       -3    1    3    3    0  502 -0.75631128567E+03  0.89645812790E+03  0.37292703708E+03  0.12307390142E+04  0.10100000352E+00 0. -1.
</event>
<event>
 5   0  0.4768570E-06  0.2959745E+04  0.7818609E-02  0.8255320E-01
        2   -1    0    0  501    0  0.00000000000E+00  0.00000000000E+00  0.15617428612E+04  0.15617428612E+04  0.25500000920E-02 0. -1.
       -2   -1    0    0    0  501  0.00000000000E+00  0.00000000000E+00 -0.14022935899E+04  0.14022935899E+04  0.25500000920E-02 0.  1.
    10030    2    1    2    0    0  0.00000000000E+00  0.00000000000E+00  0.15944927133E+03  0.29640364511E+04  0.29597445858E+04 0.  0.
        1    1    3    3  502    0 -0.12328781851E+03 -0.14476171778E+04  0.36160503584E+03  0.14971818800E+04  0.50400001928E-02 0. -1.
       -1    1    3    3    0  502  0.12328781851E+03  0.14476171778E+04 -0.20215576451E+03  0.14668545711E+04  0.50400001928E-02 0.  1.
</event>
<event>
 5   0  0.1686012E-06  0.3058221E+04  0.7818609E-02  0.8227298E-01
        1   -1    0    0  501    0  0.00000000000E+00  0.00000000000E+00  0.24857153881E+04  0.24857153881E+04  0.50400001928E-02 0. -1.
       -1   -1    0    0    0  501  0.00000000000E+00  0.00000000000E+00 -0.94064639678E+03  0.94064639679E+03  0.50400001928E-02 0.  1.
    10030    2    1    2    0    0  0.00000000000E+00  0.00000000000E+00  0.15450689913E+04  0.34263617849E+04  0.30582211975E+04 0.  0.
        4    1    3    3  502    0  0.46596101599E+03  0.34948477152E+03 -0.81148983955E+03  0.99888770467E+03  0.12699999809E+01 0.  1.
       -4    1    3    3    0  502 -0.46596101599E+03 -0.34948477152E+03  0.23565588309E+04  0.24274740802E+04  0.12699999809E+01 0. -1.
</event>
<event>
 5   0  0.5003556E-06  0.2993010E+04  0.7818609E-02  0.8245730E-01
        2   -1    0    0  501    0  0.00000000000E+00  0.00000000000E+00  0.17839675872E+04  0.17839675872E+04  0.25500000920E-02 0.  1.
       -2   -1    0    0    0  501  0.00000000000E+00  0.00000000000E+00 -0.12553631817E+04  0.12553631817E+04  0.25500000920E-02 0. -1.
    10030    2    1    2    0    0  0.00000000000E+00  0.00000000000E+00  0.52860440549E+03  0.30393307690E+04  0.29930100076E+04 0.  0.
        3    1    3    3  502    0  0.33931331397E+03 -0.13692672363E+04  0.77153330926E+03  0.16078836858E+04  0.10100000352E+00 0.  1.
       -3    1    3    3    0  502 -0.33931331397E+03  0.13692672363E+04 -0.24292890377E+03  0.14314470832E+04  0.10100000352E+00 0. -1.
</event>
<event>
 5   0  0.1686012E-06  0.2980148E+04  0.7818609E-02  0.8249423E-01
       -1   -1    0    0    0  501  0.00000000000E+00  0.00000000000E+00  0.93057499814E+03  0.93057499815E+03  0.50400001928E-02 0. -1.
        1   -1    0    0  501    0  0.00000000000E+00  0.00000000000E+00 -0.23859657862E+04  0.23859657862E+04  0.50400001928E-02 0.  1.
    10030    2    1    2    0    0  0.00000000000E+00  0.00000000000E+00 -0.14553907880E+04  0.33165407843E+04  0.29801477192E+04 0.  0.
        4    1    3    3  502    0  0.13285588313E+04 -0.53715696840E+03 -0.27330264260E+03  0.14588701533E+04  0.12699999809E+01 0. -1.
       -4    1    3    3    0  502 -0.13285588313E+04  0.53715696840E+03 -0.11820881454E+04  0.18576706310E+04  0.12699999809E+01 0.  1.
</event>
<event>
 5   0  0.1545375E-06  0.2988213E+04  0.7818609E-02  0.8247105E-01
       -3   -1    0    0    0  501  0.00000000000E+00  0.00000000000E+00  0.97677137066E+03  0.97677137588E+03  0.10100000352E+00 0. -1.
        3   -1    0    0  501    0  0.00000000000E+00  0.00000000000E+00 -0.22854416924E+04  0.22854416946E+04  0.10100000352E+00 0.  1.
    10030    2    1    2    0    0  0.00000000000E+00  0.00000000000E+00 -0.13086703217E+04  0.32622130705E+04  0.29882128616E+04 0.  0.
        3    1    3    3  502    0  0.14098737048E+03  0.99034892689E+03 -0.18659113269E+04  0.21171427741E+04  0.10100000352E+00 0.  1.
       -3    1    3    3    0  502 -0.14098737048E+03 -0.99034892689E+03  0.55724100523E+03  0.11450702964E+04  0.10100000352E+00 0. -1.
</event>
<event>
 5   0  0.1686012E-06  0.3045171E+04  0.7818609E-02  0.8230948E-01
       -1   -1    0    0    0  501  0.00000000000E+00  0.00000000000E+00  0.17253537372E+04  0.17253537372E+04  0.50400001928E-02 0. -1.
        1   -1    0    0  501    0  0.00000000000E+00  0.00000000000E+00 -0.13436469471E+04  0.13436469471E+04  0.50400001928E-02 0.  1.
    10030    2    1    2    0    0  0.00000000000E+00  0.00000000000E+00  0.38170679014E+03  0.30690006844E+04  0.30451707878E+04 0.  0.
        4    1    3    3  502    0  0.25420485601E+03 -0.10111148483E+04  0.13091724887E+04  0.16735912175E+04  0.12699999809E+01 0. -1.
       -4    1    3    3    0  502 -0.25420485601E+03  0.10111148483E+04 -0.92746569858E+03  0.13954094668E+04  0.12699999809E+01 0.  1.
</event>
<event>
 5   0  0.1672907E-06  0.3010725E+04  0.7818609E-02  0.8240675E-01
        1   -1    0    0  501    0  0.00000000000E+00  0.00000000000E+00  0.19134975467E+04  0.19134975467E+04  0.50400001928E-02 0.  1.
       -1   -1    0    0    0  501  0.00000000000E+00  0.00000000000E+00 -0.11842796601E+04  0.11842796601E+04  0.50400001928E-02 0. -1.
    10030    2    1    2    0    0  0.00000000000E+00  0.00000000000E+00  0.72921788661E+03  0.30977772069E+04  0.30107249787E+04 0.  0.
        5    1    3    3  502    0  0.18666201578E+03  0.55394574489E+03  0.17919450919E+04  0.18848840544E+04  0.46999998093E+01 0.  1.
       -5    1    3    3    0  502 -0.18666201578E+03 -0.55394574489E+03 -0.10627272053E+04  0.12128931524E+04  0.46999998093E+01 0. -1.
</event>
<event>
 5   0  0.4702748E-06  0.2988407E+04  0.7818609E-02  0.8247049E-01
        2   -1    0    0  501    0  0.00000000000E+00  0.00000000000E+00  0.28575503026E+04  0.28575503026E+04  0.25500000920E-02 0.  1.
       -2   -1    0    0    0  501  0.00000000000E+00  0.00000000000E+00 -0.78131402161E+03  0.78131402162E+03  0.25500000920E-02 0. -1.
    10030    2    1    2    0    0  0.00000000000E+00  0.00000000000E+00  0.20762362810E+04  0.36388643242E+04  0.29884070131E+04 0.  0.
        2    1    3    3  502    0  0.51884689828E+03  0.20301939634E+02 -0.66792326631E+03  0.84601167976E+03  0.25500000920E-02 0. -1.
       -2    1    3    3    0  502 -0.51884689828E+03 -0.20301939634E+02  0.27441595473E+04  0.27928526445E+04  0.25500000920E-02 0.  1.
</event>
<event>
 5   0  0.4532420E-06  0.3024376E+04  0.7818609E-02  0.8236804E-01
        2   -1    0    0  501    0  0.00000000000E+00  0.00000000000E+00  0.10482997214E+04  0.10482997214E+04  0.25500000920E-02 0.  1.
       -2   -1    0    0    0  501  0.00000000000E+00  0.00000000000E+00 -0.21813543465E+04  0.21813543465E+04  0.25500000920E-02 0. -1.
    10030    2    1    2    0    0  0.00000000000E+00  0.00000000000E+00 -0.11330546251E+04  0.32296540679E+04  0.30243764010E+04 0.  0.
        4    1    3    3  502    0 -0.10947693359E+04 -0.20742833891E+03  0.52519609362E+03  0.12318193716E+04  0.12699999809E+01 0.  1.
       -4    1    3    3    0  502  0.10947693359E+04  0.20742833891E+03 -0.16582507187E+04  0.19978346963E+04  0.12699999809E+01 0. -1.
</event>
<event>
 5   0  0.4935331E-06  0.2983937E+04  0.7818609E-02  0.8248333E-01
       -2   -1    0    0    0  501  0.00000000000E+00  0.00000000000E+00  0.12566915704E+04  0.12566915704E+04  0.25500000920E-02 0.  1.
        2   -1    0    0  501    0  0.00000000000E+00  0.00000000000E+00 -0.17712935282E+04  0.17712935282E+04  0.25500000920E-02 0. -1.
    10030    2    1    2    0    0  0.00000000000E+00  0.00000000000E+00 -0.51460195785E+03  0.30279850986E+04  0.29839367591E+04 0.  0.
        5    1    3    3  502    0  0.21755626056E+03  0.14203318709E+04 -0.66481877106E+03  0.15832496450E+04  0.46999998093E+01 0. -1.
       -5    1    3    3    0  502 -0.21755626056E+03 -0.14203318709E+04  0.15021681321E+03  0.14447354536E+04  0.46999998093E+01 0.  1.
</event>
<event>
 5   0  0.1545375E-06  0.2951293E+04  0.7818609E-02  0.8257778E-01
       -4   -1    0    0    0  501  0.00000000000E+00  0.00000000000E+00  0.17660142340E+04  0.17660146907E+04  0.12699999809E+01 0.  1.
        4   -1    0    0  501    0  0.00000000000E+00  0.00000000000E+00 -0.12330201388E+04  0.12330207929E+04  0.12699999809E+01 0. -1.
    10030    2    1    2    0    0  0.00000000000E+00  0.00000000000E+00  0.53299409521E+03  0.29990354835E+04  0.29512931278E+04 0.  0.
        3    1    3    3  502    0  0.10555473979E+04 -0.85623097940E+03  0.85044156239E+03  0.16032974336E+04  0.10100000352E+00 0.  1.
       -3    1    3    3    0  502 -0.10555473979E+04  0.85623097940E+03 -0.31744746718E+03  0.13957380499E+04  0.10100000352E+00 0. -1.
</event>
<event>
 5   0  0.1686012E-06  0.3003725E+04  0.7818609E-02  0.8242668E-01
        1   -1    0    0  501    0  0.00000000000E+00  0.00000000000E+00  0.23722439315E+04  0.23722439315E+04  0.50400001928E-02 0.  1.
       -1   -1    0    0    0  501  0.00000000000E+00  0.00000000000E+00 -0.95082583060E+03  0.95082583062E+03  0.50400001928E-02 0. -1.
    10030    2    1    2    0    0  0.00000000000E+00  0.00000000000E+00  0.14214181009E+04  0.33230697621E+04  0.30037248919E+04 0.  0.
        4    1    3    3  502    0 -0.98699218068E+03  0.20366266923E+03  0.19426294391E+04  0.21884795631E+04  0.12699999809E+01 0.  1.
       -4    1    3    3    0  502  0.98699218068E+03 -0.20366266923E+03 -0.52121133825E+03  0.11345901990E+04  0.12699999809E+01 0. -1.
</event>
<event>
 5   0  0.1700885E-06  0.2978646E+04  0.7818609E-02  0.8249855E-01
        1   -1    0    0  501    0  0.00000000000E+00  0.00000000000E+00  0.15260268271E+04  0.15260268271E+04  0.50400001928E-02 0. -1.
       -1   -1    0    0    0  501  0.00000000000E+00  0.00000000000E+00 -0.14535024462E+04  0.14535024462E+04  0.50400001928E-02 0.  1.
    10030    2    1    2    0    0  0.00000000000E+00  0.00000000000E+00  0.72524380882E+02  0.29795292733E+04  0.29786464887E+04 0.  0.
        1    1    3    3  502    0 -0.79106806368E+02  0.10538563210E+04  0.10859600164E+04  0.15153152113E+04  0.50400001928E-02 0. -1.
       -1    1    3    3    0  502  0.79106806368E+02 -0.10538563210E+04 -0.10134356356E+04  0.14642140621E+04  0.50400001928E-02 0.  1.
</event>
<event>
 5   0  0.5003556E-06  0.3025536E+04  0.7818609E-02  0.8236476E-01
        2   -1    0    0  501    0  0.00000000000E+00  0.00000000000E+00  0.21428067911E+04  0.21428067911E+04  0.25500000920E-02 0. -1.
       -2   -1    0    0    0  501  0.00000000000E+00  0.00000000000E+00 -0.10679764691E+04  0.10679764691E+04  0.25500000920E-02 0.  1.
    10030    2    1    2    0    0  0.00000000000E+00  0.00000000000E+00  0.10748303220E+04  0.32107832602E+04  0.30255361381E+04 0.  0.
        3    1    3    3  502    0 -0.10728756338E+04  0.27420739912E+03  0.16311572923E+04  0.19715288346E+04  0.10100000352E+00 0. -1.
       -3    1    3    3    0  502  0.10728756338E+04 -0.27420739912E+03 -0.55632697030E+03  0.12392544256E+04  0.10100000352E+00 0.  1.
</event>
<event>
 5   0  0.4768570E-06  0.3000723E+04  0.7818609E-02  0.8243524E-01
       -2   -1    0    0    0  501  0.00000000000E+00  0.00000000000E+00  0.13370571386E+04  0.13370571386E+04  0.25500000920E-02 0. -1.
        2   -1    0    0  501    0  0.00000000000E+00  0.00000000000E+00 -0.16836117871E+04  0.16836117871E+04  0.25500000920E-02 0.  1.
    10030    2    1    2    0    0  0.00000000000E+00  0.00000000000E+00 -0.34655464848E+03  0.30206689257E+04  0.30007233519E+04 0.  0.
        1    1    3    3  502    0 -0.13930409954E+04 -0.39487096241E+03  0.22252680713E+03  0.14649247325E+04  0.50400001928E-02 0. -1.
       -1    1    3    3    0  502  0.13930409954E+04  0.39487096241E+03 -0.56908145561E+03  0.15557441933E+04  0.50400001928E-02 0.  1.
</event>
<event>
 5   0  0.4935331E-06  0.3027834E+04  0.7818609E-02  0.8235827E-01
        2   -1    0    0  501    0  0.00000000000E+00  0.00000000000E+00  0.18635448048E+04  0.18635448048E+04  0.25500000920E-02 0. -1.
       -2   -1    0    0    0  501  0.00000000000E+00  0.00000000000E+00 -0.12298842584E+04  0.12298842584E+04  0.25500000920E-02 0.  1.
    10030    2    1    2    0    0  0.00000000000E+00  0.00000000000E+00  0.63366054647E+03  0.30934290632E+04  0.30278338265E+04 0.  0.
        5    1    3    3  502    0 -0.54283452351E+03  0.13587717911E+04  0.71382562745E+03  0.16280353856E+04  0.46999998093E+01 0. -1.
       -5    1    3    3    0  502  0.54283452351E+03 -0.13587717911E+04 -0.80165080985E+02  0.14653936776E+04  0.46999998093E+01 0.  1.
</event>
<event>
 5   0  0.1709858E-06  0.2870107E+04  0.7818609E-02  0.8281828E-01
        1   -1    0    0  501    0  0.00000000000E+00  0.00000000000E+00  0.13587377724E+04  0.13587377725E+04  0.50400001928E-02 0.  1.
       -1   -1    0    0    0  501  0.00000000000E+00  0.00000000000E+00 -0.15156554209E+04  0.15156554209E+04  0.50400001928E-02 0. -1.
    10030    2    1    2    0    0  0.00000000000E+00  0.00000000000E+00 -0.15691764846E+03  0.28743931934E+04  0.28701068067E+04 0.  0.
        3    1    3    3  502    0  0.89018193287E+03 -0.88127640294E+03 -0.77972331531E+03  0.14754797290E+04  0.10100000352E+00 0. -1.
       -3    1    3    3    0  502 -0.89018193287E+03  0.88127640294E+03  0.62280566686E+03  0.13989134644E+04  0.10100000352E+00 0.  1.
</event>
<event>
 5   0  0.4702748E-06  0.3011124E+04  0.7818609E-02  0.8240561E-01
       -2   -1    0    0    0  501  0.00000000000E+00  0.00000000000E+00  0.18799314588E+04  0.18799314588E+04  0.25500000920E-02 0. -1.
        2   -1    0    0  501    0  0.00000000000E+00  0.00000000000E+00 -0.12057445544E+04  0.12057445544E+04  0.25500000920E-02 0.  1.
    10030    2    1    2    0    0  0.00000000000E+00  0.00000000000E+00  0.67418690448E+03  0.30856760132E+04  0.30111241217E+04 0.  0.
        2    1    3    3  502    0 -0.13125407439E+04 -0.63553751536E+03 -0.46399151316E+02  0.14590490119E+04  0.25500000920E-02 0.  1.
       -2    1    3    3    0  502  0.13125407439E+04  0.63553751536E+03  0.72058605579E+03  0.16266270014E+04  0.25500000920E-02 0. -1.
</event>
<event>
 5   0  0.1700885E-06  0.2990188E+04  0.7818609E-02  0.8246538E-01
        1   -1    0    0  501    0  0.00000000000E+00  0.00000000000E+00  0.10052064335E+04  0.10052064335E+04  0.50400001928E-02 0.  1.
       -1   -1    0    0    0  501  0.00000000000E+00  0.00000000000E+00 -0.22237289317E+04  0.22237289317E+04  0.50400001928E-02 0. -1.
    10030    2    1    2    0    0  0.00000000000E+00  0.00000000000E+00 -0.12185224982E+04  0.32289353652E+04  0.29901883743E+04 0.  0.
        1    1    3    3  502    0  0.10066092919E+04  0.67697396393E+03 -0.15529669731E+04  0.19705995113E+04  0.50400001928E-02 0. -1.
       -1    1    3    3    0  502 -0.10066092919E+04 -0.67697396393E+03  0.33444447493E+03  0.12583358539E+04  0.50400001928E-02 0.  1.
</event>
<event>
 5   0  0.5003556E-06  0.2810819E+04  0.7818609E-02  0.8299917E-01
        2   -1    0    0  501    0  0.00000000000E+00  0.00000000000E+00  0.23125888706E+04  0.23125888706E+04  0.25500000920E-02 0.  1.
       -2   -1    0    0    0  501  0.00000000000E+00  0.00000000000E+00 -0.85409711032E+03  0.85409711033E+03  0.25500000920E-02 0. -1.
    10030    2    1    2    0    0  0.00000000000E+00  0.00000000000E+00  0.14584917603E+04  0.31666859810E+04  0.28108187219E+04 0.  0.
        3    1    3    3  502    0  0.11551988394E+04 -0.79622553370E+03  0.82157263894E+03  0.16258662523E+04  0.10100000352E+00 0. -1.
       -3    1    3    3    0  502 -0.11551988394E+04  0.79622553370E+03  0.63691912137E+03  0.15408197287E+04  0.10100000352E+00 0.  1.
</event>
<event>
 5   0  0.4702748E-06  0.2970666E+04  0.7818609E-02  0.8252157E-01
        2   -1    0    0  501    0  0.00000000000E+00  0.00000000000E+00  0.23622177004E+04  0.23622177004E+04  0.25500000920E-02 0.  1.
       -2   -1    0    0    0  501  0.00000000000E+00  0.00000000000E+00 -0.93395869144E+03  0.93395869144E+03  0.25500000920E-02 0. -1.
    10030    2    1    2    0    0  0.00000000000E+00  0.00000000000E+00  0.14282590090E+04  0.32961763918E+04  0.29706657519E+04 0.  0.
        2    1    3    3  502    0 -0.68178498741E+03  0.56878931050E+03  0.20353447955E+04  0.22205811143E+04  0.25500000920E-02 0. -1.
       -2    1    3    3    0  502  0.68178498741E+03 -0.56878931050E+03 -0.60708578653E+03  0.10755952775E+04  0.25500000920E-02 0.  1.
</event>
<event>
 5   0  0.1709858E-06  0.2978780E+04  0.7818609E-02  0.8249816E-01
       -1   -1    0    0    0  501  0.00000000000E+00  0.00000000000E+00  0.10927649912E+04  0.10927649912E+04  0.50400001928E-02 0.  1.
        1   -1    0    0  501    0  0.00000000000E+00  0.00000000000E+00 -0.20299720926E+04  0.20299720926E+04  0.50400001928E-02 0. -1.
    10030    2    1    2    0    0  0.00000000000E+00  0.00000000000E+00 -0.93720710137E+03  0.31227370838E+04  0.29787799086E+04 0.  0.
        3    1    3    3  502    0  0.56002390535E+03  0.82874719861E+03 -0.16254907197E+04  0.19085776860E+04  0.10100000352E+00 0. -1.
       -3    1    3    3    0  502 -0.56002390535E+03 -0.82874719861E+03  0.68828361829E+03  0.12141593978E+04  0.10100000352E+00 0.  1.
</event>
<event>
 5   0  0.4935331E-06  0.3007422E+04  0.7818609E-02  0.8241615E-01
       -2   -1    0    0    0  501  0.00000000000E+00  0.00000000000E+00  0.10801692087E+04  0.10801692087E+04  0.25500000920E-02 0. -1.
        2   -1    0    0  501    0  0.00000000000E+00  0.00000000000E+00 -0.20933264008E+04  0.20933264008E+04  0.25500000920E-02 0.  1.
    10030    2    1    2    0    0  0.00000000000E+00  0.00000000000E+00 -0.10131571921E+04  0.31734956095E+04  0.30074219670E+04 0.  0.
        5    1    3    3  502    0 -0.49153712588E+03 -0.50771725829E+03 -0.19071792580E+04  0.20338978275E+04  0.46999998093E+01 0.  1.
       -5    1    3    3    0  502  0.49153712588E+03  0.50771725829E+03  0.89402206587E+03  0.11395977820E+04  0.46999998093E+01 0. -1.
</event>
<event>
 5   0  0.4702748E-06  0.3003972E+04  0.7818609E-02  0.8242598E-01
       -2   -1    0    0    0  501  0.00000000000E+00  0.00000000000E+00  0.13767096840E+04  0.13767096840E+04  0.25500000920E-02 0.  1.
        2   -1    0    0  501    0  0.00000000000E+00  0.00000000000E+00 -0.16386622179E+04  0.16386622179E+04  0.25500000920E-02 0. -1.
    10030    2    1    2    0    0  0.00000000000E+00  0.00000000000E+00 -0.26195253385E+03  0.30153719019E+04  0.30039721332E+04 0.  0.
        2    1    3    3  502    0  0.54479801243E+03 -0.69458049322E+03 -0.13507895489E+04  0.16136540340E+04  0.25500000920E-02 0. -1.
       -2    1    3    3    0  502 -0.54479801243E+03  0.69458049322E+03  0.10888370151E+04  0.14017178679E+04  0.25500000920E-02 0.  1.
</event>
<event>
 5   0  0.1545375E-06  0.3019663E+04  0.7818609E-02  0.8238138E-01
       -4   -1    0    0    0  501  0.00000000000E+00  0.00000000000E+00  0.16024182326E+04  0.16024187359E+04  0.12699999809E+01 0.  1.
        4   -1    0    0  501    0  0.00000000000E+00  0.00000000000E+00 -0.14225930132E+04  0.14225935801E+04  0.12699999809E+01 0. -1.
    10030    2    1    2    0    0  0.00000000000E+00  0.00000000000E+00  0.17982521938E+03  0.30250123160E+04  0.30196626306E+04 0.  0.
        2    1    3    3  502    0 -0.58614180916E+03 -0.11749777747E+04 -0.65669670017E+03  0.14681231377E+04  0.25500000920E-02 0. -1.
       -2    1    3    3    0  502  0.58614180916E+03  0.11749777747E+04  0.83652191955E+03  0.15568891783E+04  0.25500000920E-02 0.  1.
</event>
<event>
 5   0  0.1700885E-06  0.3025369E+04  0.7818609E-02  0.8236524E-01
       -1   -1    0    0    0  501  0.00000000000E+00  0.00000000000E+00  0.12658423499E+04  0.12658423499E+04  0.50400001928E-02 0.  1.
        1   -1    0    0  501    0  0.00000000000E+00  0.00000000000E+00 -0.18076614552E+04  0.18076614552E+04  0.50400001928E-02 0. -1.
    10030    2    1    2    0    0  0.00000000000E+00  0.00000000000E+00 -0.54181910528E+03  0.30735038051E+04  0.30253690184E+04 0.  0.
        1    1    3    3  502    0  0.49267247944E+02  0.22780699324E+02  0.12648526982E+04  0.12660168128E+04  0.50400001928E-02 0.  1.
       -1    1    3    3    0  502 -0.49267247944E+02 -0.22780699324E+02 -0.18066718035E+04  0.18074869924E+04  0.50400001928E-02 0. -1.
</event>
<event>
 5   0  0.4532420E-06  0.2972487E+04  0.7818609E-02  0.8251631E-01
       -2   -1    0    0    0  501  0.00000000000E+00  0.00000000000E+00  0.14231117610E+04  0.14231117610E+04  0.25500000920E-02 0. -1.
        2   -1    0    0  501    0  0.00000000000E+00  0.00000000000E+00 -0.15521761085E+04  0.15521761085E+04  0.25500000920E-02 0.  1.
    10030    2    1    2    0    0  0.00000000000E+00  0.00000000000E+00 -0.12906434746E+03  0.29752878695E+04  0.29724872246E+04 0.  0.
        4    1    3    3  502    0  0.68986380622E+03  0.12002839627E+04 -0.60571228242E+03  0.15111196657E+04  0.12699999809E+01 0.  1.
       -4    1    3    3    0  502 -0.68986380622E+03 -0.12002839627E+04  0.47664793496E+03  0.14641682038E+04  0.12699999809E+01 0. -1.
</event>
<event>
 5   0  0.5003556E-06  0.2992841E+04  0.7818609E-02  0.8245778E-01
        2   -1    0    0  501    0  0.00000000000E+00  0.00000000000E+00  0.30671780474E+04  0.30671780474E+04  0.25500000920E-02 0. -1.
       -2   -1    0    0    0  501  0.00000000000E+00  0.00000000000E+00 -0.73007662606E+03  0.73007662607E+03  0.25500000920E-02 0.  1.
    10030    2    1    2    0    0  0.00000000000E+00  0.00000000000E+00  0.23371014214E+04  0.37972546735E+04  0.29928414595E+04 0.  0.
        3    1    3    3  502    0  0.43324816767E+03  0.71933131213E+02  0.29835686457E+04  0.30157188570E+04  0.10100000352E+00 0. -1.
       -3    1    3    3    0  502 -0.43324816767E+03 -0.71933131213E+02 -0.64646722437E+03  0.78153581654E+03  0.10100000352E+00 0.  1.
</event>
<event>
 5   0  0.1545375E-06  0.2987926E+04  0.7818609E-02  0.8247187E-01
       -4   -1    0    0    0  501  0.00000000000E+00  0.00000000000E+00  0.14847916779E+04  0.14847922211E+04  0.12699999809E+01 0. -1.
        4   -1    0    0  501    0  0.00000000000E+00  0.00000000000E+00 -0.15031901286E+04  0.15031906651E+04  0.12699999809E+01 0.  1.
    10030    2    1    2    0    0  0.00000000000E+00  0.00000000000E+00 -0.18398450668E+02  0.29879828861E+04  0.29879262415E+04 0.  0.
        1    1    3    3  502    0 -0.40548088032E+03  0.13914974914E+03  0.14219632626E+04  0.14851790859E+04  0.50400001928E-02 0. -1.
       -1    1    3    3    0  502  0.40548088032E+03 -0.13914974914E+03 -0.14403617133E+04  0.15028038002E+04  0.50400001928E-02 0.  1.
</event>
<event>
 5   0  0.5003556E-06  0.2979060E+04  0.7818609E-02  0.8249736E-01
        2   -1    0    0  501    0  0.00000000000E+00  0.00000000000E+00  0.16691342929E+04  0.16691342929E+04  0.25500000920E-02 0.  1.
       -2   -1    0    0    0  501  0.00000000000E+00  0.00000000000E+00 -0.13292520135E+04  0.13292520135E+04  0.25500000920E-02 0. -1.
    10030    2    1    2    0    0  0.00000000000E+00  0.00000000000E+00  0.33988227939E+03  0.29983863064E+04  0.29790603349E+04 0.  0.
        3    1    3    3  502    0  0.42120626629E+03  0.30078252550E+03  0.15757178990E+04  0.16585450714E+04  0.10100000352E+00 0.  1.
       -3    1    3    3    0  502 -0.42120626629E+03 -0.30078252550E+03 -0.12358356196E+04  0.13398412351E+04  0.10100000352E+00 0. -1.
</event>
<event>
 5   0  0.1709858E-06  0.3030834E+04  0.7818609E-02  0.8234980E-01
       -1   -1    0    0    0  501  0.00000000000E+00  0.00000000000E+00  0.29105883671E+04  0.29105883671E+04  0.50400001928E-02 0.  1.
        1   -1    0    0  501    0  0.00000000000E+00  0.00000000000E+00 -0.78901198198E+03  0.78901198200E+03  0.50400001928E-02 0. -1.
    10030    2    1    2    0    0  0.00000000000E+00  0.00000000000E+00  0.21215763851E+04  0.36996003491E+04  0.30308342721E+04 0.  0.
        3    1    3    3  502    0  0.14434974388E+03  0.11586431825E+04 -0.11839036021E+03  0.11735873042E+04  0.10100000352E+00 0. -1.
       -3    1    3    3    0  502 -0.14434974388E+03 -0.11586431825E+04  0.22399667453E+04  0.25260130450E+04  0.10100000352E+00 0.  1.
</event>
<event>
 5   0  0.1709858E-06  0.3150048E+04  0.7818609E-02  0.8202135E-01
        1   -1    0    0  501    0  0.00000000000E+00  0.00000000000E+00  0.13496978490E+04  0.13496978490E+04  0.50400001928E-02 0. -1.
       -1   -1    0    0    0  501  0.00000000000E+00  0.00000000000E+00 -0.18379673143E+04  0.18379673143E+04  0.50400001928E-02 0.  1.
    10030    2    1    2    0    0  0.00000000000E+00  0.00000000000E+00 -0.48826946532E+03  0.31876651633E+04  0.31500479556E+04 0.  0.
        3    1    3    3  502    0  0.10793180981E+04 -0.73889480795E+03  0.64372953697E+03  0.14578342914E+04  0.10100000352E+00 0. -1.
       -3    1    3    3    0  502 -0.10793180981E+04  0.73889480795E+03 -0.11319990023E+04  0.17298308719E+04  0.10100000352E+00 0.  1.
</event>
<event>
 5   0  0.4532420E-06  0.3021959E+04  0.7818609E-02  0.8237488E-01
       -2   -1    0    0    0  501  0.00000000000E+00  0.00000000000E+00  0.11607254538E+04  0.11607254538E+04  0.25500000920E-02 0.  1.
        2   -1    0    0  501    0  0.00000000000E+00  0.00000000000E+00 -0.19669241669E+04  0.19669241669E+04  0.25500000920E-02 0. -1.
    10030    2    1    2    0    0  0.00000000000E+00  0.00000000000E+00 -0.80619871313E+03  0.31276496207E+04  0.30219589317E+04 0.  0.
        4    1    3    3  502    0 -0.10331898730E+04  0.98440415110E+03 -0.91697681614E+03  0.16962844516E+04  0.12699999809E+01 0.  1.
       -4    1    3    3    0  502  0.10331898730E+04 -0.98440415110E+03  0.11077810301E+03  0.14313651691E+04  0.12699999809E+01 0. -1.
</event>
<event>
 5   0  0.1672907E-06  0.3040134E+04  0.7818609E-02  0.8232362E-01
        1   -1    0    0  501    0  0.00000000000E+00  0.00000000000E+00  0.15627895485E+04  0.15627895485E+04  0.50400001928E-02 0. -1.
       -1   -1    0    0    0  501  0.00000000000E+00  0.00000000000E+00 -0.14785128357E+04  0.14785128357E+04  0.50400001928E-02 0.  1.
    10030    2    1    2    0    0  0.00000000000E+00  0.00000000000E+00  0.84276712813E+02  0.30413023842E+04  0.30401344753E+04 0.  0.
        5    1    3    3  502    0 -0.82199493779E+02  0.77190855576E+03 -0.12652618437E+04  0.14844221766E+04  0.46999998093E+01 0.  1.
       -5    1    3    3    0  502  0.82199493779E+02 -0.77190855576E+03  0.13495385566E+04  0.15568802076E+04  0.46999998093E+01 0. -1.
</event>
<event>
 5   0  0.1672907E-06  0.3018419E+04  0.7818609E-02  0.8238491E-01
       -1   -1    0    0    0  501  0.00000000000E+00  0.00000000000E+00  0.10112041922E+04  0.10112041923E+04  0.50400001928E-02 0.  1.
        1   -1    0    0  501    0  0.00000000000E+00  0.00000000000E+00 -0.22524765320E+04  0.22524765320E+04  0.50400001928E-02 0. -1.
    10030    2    1    2    0    0  0.00000000000E+00  0.00000000000E+00 -0.12412723398E+04  0.32636807242E+04  0.30184192632E+04 0.  0.
        5    1    3    3  502    0 -0.62938381892E+03 -0.45184148687E+03  0.77974839536E+03  0.10992335379E+04  0.46999998093E+01 0.  1.
       -5    1    3    3    0  502  0.62938381892E+03  0.45184148687E+03 -0.20210207351E+04  0.21644471864E+04  0.46999998093E+01 0. -1.
</event>
<event>
 5   0  0.1709858E-06  0.3161067E+04  0.7818609E-02  0.8199176E-01
        1   -1    0    0  501    0  0.00000000000E+00  0.00000000000E+00  0.15475014357E+04  0.15475014357E+04  0.50400001928E-02 0. -1.
       -1   -1    0    0    0  501  0.00000000000E+00  0.00000000000E+00 -0.16142701731E+04  0.16142701731E+04  0.50400001928E-02 0.  1.
    10030    2    1    2    0    0  0.00000000000E+00  0.00000000000E+00 -0.66768737374E+02  0.31617716088E+04  0.31610665355E+04 0.  0.
        3    1    3    3  502    0  0.24037593704E+03  0.71075195972E+03 -0.14247864739E+04  0.16102687495E+04  0.10100000352E+00 0.  1.
       -3    1    3    3    0  502 -0.24037593704E+03 -0.71075195972E+03  0.13580177365E+04  0.15515028592E+04  0.10100000352E+00 0. -1.
</event>
<event>
 5   0  0.4768570E-06  0.2994388E+04  0.7818609E-02  0.8245335E-01
       -2   -1    0    0    0  501  0.00000000000E+00  0.00000000000E+00  0.19443429697E+04  0.19443429697E+04  0.25500000920E-02 0. -1.
        2   -1    0    0  501    0  0.00000000000E+00  0.00000000000E+00 -0.11528775148E+04  0.11528775148E+04  0.25500000920E-02 0.  1.
    10030    2    1    2    0    0  0.00000000000E+00  0.00000000000E+00  0.79146545487E+03  0.30972204844E+04  0.29943876107E+04 0.  0.
        1    1    3    3  502    0 -0.10518632393E+04  0.75270666747E+03  0.11756880140E+04  0.17479204524E+04  0.50400001928E-02 0. -1.
       -1    1    3    3    0  502  0.10518632393E+04 -0.75270666747E+03 -0.38422255915E+03  0.13493000321E+04  0.50400001928E-02 0.  1.
</event>
<event>
 5   0  0.1734885E-06  0.2975375E+04  0.7818609E-02  0.8250798E-01
        1   -1    0    0  501    0  0.00000000000E+00  0.00000000000E+00  0.15746897358E+04  0.15746897358E+04  0.50400001928E-02 0.  1.
       -1   -1    0    0    0  501  0.00000000000E+00  0.00000000000E+00 -0.14054918070E+04  0.14054918070E+04  0.50400001928E-02 0. -1.
    10030    2    1    2    0    0  0.00000000000E+00  0.00000000000E+00  0.16919792874E+03  0.29801815428E+04  0.29753746132E+04 0.  0.
        2    1    3    3  502    0 -0.98855198824E+03 -0.66430375546E+03  0.97748686579E+03  0.15407839192E+04  0.25500000920E-02 0.  1.
       -2    1    3    3    0  502  0.98855198824E+03  0.66430375546E+03 -0.80828893705E+03  0.14393976236E+04  0.25500000920E-02 0. -1.
</event>
<event>
 5   0  0.1709858E-06  0.2653156E+04  0.7818609E-02  0.8350366E-01
        1   -1    0    0  501    0  0.00000000000E+00  0.00000000000E+00  0.19220428018E+04  0.19220428018E+04  0.50400001928E-02 0.  1.
       -1   -1    0    0    0  501  0.00000000000E+00  0.00000000000E+00 -0.91559288817E+03  0.91559288818E+03  0.50400001928E-02 0. -1.
    10030    2    1    2    0    0  0.00000000000E+00  0.00000000000E+00  0.10064499136E+04  0.28376356900E+04  0.26531556457E+04 0.  0.
        3    1    3    3  502    0  0.69487291340E+03  0.93533832640E+03  0.11814320507E+04  0.16593636887E+04  0.10100000352E+00 0.  1.
       -3    1    3    3    0  502 -0.69487291340E+03 -0.93533832640E+03 -0.17498213707E+03  0.11782720013E+04  0.10100000352E+00 0. -1.
</event>
<event>
 5   0  0.1734885E-06  0.2946087E+04  0.7818609E-02  0.8259296E-01
        1   -1    0    0  501    0  0.00000000000E+00  0.00000000000E+00  0.11869528748E+04  0.11869528748E+04  0.50400001928E-02 0.  1.
       -1   -1    0    0    0  501  0.00000000000E+00  0.00000000000E+00 -0.18280902288E+04  0.18280902288E+04  0.50400001928E-02 0. -1.
    10030    2    1    2    0    0  0.00000000000E+00  0.00000000000E+00 -0.64113735395E+03  0.30150431036E+04  0.29460868639E+04 0.  0.
        2    1    3    3  502    0  0.68783370717E+03 -0.11106269842E+04 -0.10171237055E+04  0.16556413075E+04  0.25500000920E-02 0. -1.
       -2    1    3    3    0  502 -0.68783370717E+03  0.11106269842E+04  0.37598635156E+03  0.13594017961E+04  0.25500000920E-02 0.  1.
</event>
<event>
 5   0  0.1709858E-06  0.2980347E+04  0.7818609E-02  0.8249365E-01
        1   -1    0    0  501    0  0.00000000000E+00  0.00000000000E+00  0.25040464883E+04  0.25040464883E+04  0.50400001928E-02 0. -1.
       -1   -1    0    0    0  501  0.00000000000E+00  0.00000000000E+00 -0.88681116453E+03  0.88681116455E+03  0.50400001928E-02 0.  1.
    10030    2    1    2    0    0  0.00000000000E+00  0.00000000000E+00  0.16172353238E+04  0.33908576529E+04  0.29803465452E+04 0.  0.
        3    1    3    3  502    0 -0.12568548095E+03 -0.10643991292E+04  0.19865345996E+04  0.22572244178E+04  0.10100000352E+00 0. -1.
       -3    1    3    3    0  502  0.12568548095E+03  0.10643991292E+04 -0.36929927585E+03  0.11336332351E+04  0.10100000352E+00 0.  1.
</event>
<event>
 5   0  0.4935331E-06  0.2965455E+04  0.7818609E-02  0.8253665E-01
       -2   -1    0    0    0  501  0.00000000000E+00  0.00000000000E+00  0.17108092229E+04  0.17108092229E+04  0.25500000920E-02 0. -1.
        2   -1    0    0  501    0  0.00000000000E+00  0.00000000000E+00 -0.12850532659E+04  0.12850532659E+04  0.25500000920E-02 0.  1.
    10030    2    1    2    0    0  0.00000000000E+00  0.00000000000E+00  0.42575595698E+03  0.29958624887E+04  0.29654550943E+04 0.  0.
        5    1    3    3  502    0  0.80340891744E+03  0.82768846817E+03  0.11540555566E+04  0.16316863690E+04  0.46999998093E+01 0. -1.
       -5    1    3    3    0  502 -0.80340891744E+03 -0.82768846817E+03 -0.72829959961E+03  0.13641761198E+04  0.46999998093E+01 0.  1.
</event>
<event>
 5   0  0.4768570E-06  0.2988452E+04  0.7818609E-02  0.8247036E-01
        2   -1    0    0  501    0  0.00000000000E+00  0.00000000000E+00  0.11930301143E+04  0.11930301143E+04  0.25500000920E-02 0. -1.
       -2   -1    0    0    0  501  0.00000000000E+00  0.00000000000E+00 -0.18714624363E+04  0.18714624363E+04  0.25500000920E-02 0.  1.
    10030    2    1    2    0    0  0.00000000000E+00  0.00000000000E+00 -0.67843232195E+03  0.30644925506E+04  0.29884518028E+04 0.  0.
        1    1    3    3  502    0 -0.15786341898E+03 -0.23973358299E+03  0.11644923526E+04  0.11993479434E+04  0.50400001928E-02 0. -1.
       -1    1    3    3    0  502  0.15786341898E+03  0.23973358299E+03 -0.18429246746E+04  0.18651446073E+04  0.50400001928E-02 0.  1.
</event>
<event>
 5   0  0.1700885E-06  0.3010636E+04  0.7818609E-02  0.8240700E-01
       -1   -1    0    0    0  501  0.00000000000E+00  0.00000000000E+00  0.13109128790E+04  0.13109128790E+04  0.50400001928E-02 0. -1.
        1   -1    0    0  501    0  0.00000000000E+00  0.00000000000E+00 -0.17285528742E+04  0.17285528742E+04  0.50400001928E-02 0.  1.
    10030    2    1    2    0    0  0.00000000000E+00  0.00000000000E+00 -0.41763999517E+03  0.30394657532E+04  0.30106359626E+04 0.  0.
        1    1    3    3  502    0 -0.10231172026E+04 -0.13377397661E+03 -0.13153622207E+04  0.16717781129E+04  0.50400001928E-02 0.  1.
       -1    1    3    3    0  502  0.10231172026E+04  0.13377397661E+03  0.89772222556E+03  0.13676876403E+04  0.50400001928E-02 0. -1.
</event>
<event>
 5   0  0.4702748E-06  0.2996043E+04  0.7818609E-02  0.8244862E-01
        2   -1    0    0  501    0  0.00000000000E+00  0.00000000000E+00  0.13133585340E+04  0.13133585340E+04  0.25500000920E-02 0. -1.
       -2   -1    0    0    0  501  0.00000000000E+00  0.00000000000E+00 -0.17086486443E+04  0.17086486443E+04  0.25500000920E-02 0.  1.
    10030    2    1    2    0    0  0.00000000000E+00  0.00000000000E+00 -0.39529011032E+03  0.30220071783E+04  0.29960429093E+04 0.  0.
        2    1    3    3  502    0 -0.94638319831E+03  0.82885890968E+03 -0.10179704069E+04  0.16183052862E+04  0.25500000920E-02 0.  1.
       -2    1    3    3    0  502  0.94638319831E+03 -0.82885890968E+03  0.62268029654E+03  0.14037018921E+04  0.25500000920E-02 0. -1.
</event>
<event>
 5   0  0.4935331E-06  0.3021153E+04  0.7818609E-02  0.8237716E-01
       -2   -1    0    0    0  501  0.00000000000E+00  0.00000000000E+00  0.17915527392E+04  0.17915527392E+04  0.25500000920E-02 0.  1.
        2   -1    0    0  501    0  0.00000000000E+00  0.00000000000E+00 -0.12736668013E+04  0.12736668013E+04  0.25500000920E-02 0. -1.
    10030    2    1    2    0    0  0.00000000000E+00  0.00000000000E+00  0.51788593792E+03  0.30652195406E+04  0.30211529235E+04 0.  0.
        5    1    3    3  502    0  0.69618674742E+03  0.90799357296E+03  0.12595793525E+04  0.17016728684E+04  0.46999998093E+01 0.  1.
       -5    1    3    3    0  502 -0.69618674742E+03 -0.90799357296E+03 -0.74169341462E+03  0.13635466721E+04  0.46999998093E+01 0. -1.
</event>
<event>
 5   0  0.1734885E-06  0.2967012E+04  0.7818609E-02  0.8253214E-01
       -1   -1    0    0    0  501  0.00000000000E+00  0.00000000000E+00  0.22825566424E+04  0.22825566424E+04  0.50400001928E-02 0. -1.
        1   -1    0    0  501    0  0.00000000000E+00  0.00000000000E+00 -0.96417740256E+03  0.96417740257E+03  0.50400001928E-02 0.  1.
    10030    2    1    2    0    0  0.00000000000E+00  0.00000000000E+00  0.13183792398E+04  0.32467340450E+04  0.29670116513E+04 0.  0.
        2    1    3    3  502    0  0.46995002914E+03 -0.26236080946E+03 -0.85356868425E+03  0.10090915335E+04  0.25500000920E-02 0.  1.
       -2    1    3    3    0  502 -0.46995002914E+03  0.26236080946E+03  0.21719479241E+04  0.22376425115E+04  0.25500000920E-02 0. -1.
</event>
<event>
 5   0  0.4702748E-06  0.2984631E+04  0.7818609E-02  0.8248133E-01
       -2   -1    0    0    0  501  0.00000000000E+00  0.00000000000E+00  0.30857597240E+04  0.30857597240E+04  0.25500000920E-02 0. -1.
        2   -1    0    0  501    0  0.00000000000E+00  0.00000000000E+00 -0.72170414670E+03  0.72170414670E+03  0.25500000920E-02 0.  1.
    10030    2    1    2    0    0  0.00000000000E+00  0.00000000000E+00  0.23640555773E+04  0.38074638707E+04  0.29846310248E+04 0.  0.
        2    1    3    3  502    0 -0.85449777579E+03  0.15858907566E+03 -0.36555222147E+03  0.94283899494E+03  0.25500000920E-02 0.  1.
       -2    1    3    3    0  502  0.85449777579E+03 -0.15858907566E+03  0.27296077988E+04  0.28646248758E+04  0.25500000920E-02 0. -1.
</event>
<event>
 5   0  0.5003556E-06  0.2880512E+04  0.7818609E-02  0.8278700E-01
       -2   -1    0    0    0  501  0.00000000000E+00  0.00000000000E+00  0.14328801393E+04  0.14328801393E+04  0.25500000920E-02 0.  1.
        2   -1    0    0  501    0  0.00000000000E+00  0.00000000000E+00 -0.14476694397E+04  0.14476694397E+04  0.25500000920E-02 0. -1.
    10030    2    1    2    0    0  0.00000000000E+00  0.00000000000E+00 -0.14789300373E+02  0.28805495789E+04  0.28805116131E+04 0.  0.
        3    1    3    3  502    0 -0.11884793468E+04 -0.80016250016E+03 -0.15434417567E+03  0.14410292568E+04  0.10100000352E+00 0. -1.
       -3    1    3    3    0  502  0.11884793468E+04  0.80016250016E+03  0.13955487529E+03  0.14395203221E+04  0.10100000352E+00 0.  1.
</event>
<event>
 5   0  0.1545375E-06  0.3002495E+04  0.7818609E-02  0.8243019E-01
       -3   -1    0    0    0  501  0.00000000000E+00  0.00000000000E+00  0.18737744984E+04  0.18737745011E+04  0.10100000352E+00 0.  1.
        3   -1    0    0  501    0  0.00000000000E+00  0.00000000000E+00 -0.12027829987E+04  0.12027830029E+04  0.10100000352E+00 0. -1.
    10030    2    1    2    0    0  0.00000000000E+00  0.00000000000E+00  0.67099149971E+03  0.30765575041E+04  0.30024950430E+04 0.  0.
        3    1    3    3  502    0  0.63191854432E+03 -0.11390989698E+04 -0.42915342256E+03  0.13715101822E+04  0.10100000352E+00 0. -1.
       -3    1    3    3    0  502 -0.63191854432E+03  0.11390989698E+04  0.11001449223E+04  0.17050473219E+04  0.10100000352E+00 0.  1.
</event>
<event>
 5   0  0.1672907E-06  0.2984517E+04  0.7818609E-02  0.8248166E-01
        1   -1    0    0  501    0  0.00000000000E+00  0.00000000000E+00  0.80141578893E+03  0.80141578895E+03  0.50400001928E-02 0.  1.
       -1   -1    0    0    0  501  0.00000000000E+00  0.00000000000E+00 -0.27786260277E+04  0.27786260277E+04  0.50400001928E-02 0. -1.
    10030    2    1    2    0    0  0.00000000000E+00  0.00000000000E+00 -0.19772102387E+04  0.35800418166E+04  0.29845165573E+04 0.  0.
        5    1    3    3  502    0  0.67418702472E+03 -0.12790563127E+04 -0.54575046434E+03  0.15454380785E+04  0.46999998093E+01 0.  1.
       -5    1    3    3    0  502 -0.67418702472E+03  0.12790563127E+04 -0.14314597744E+04  0.20346037381E+04  0.46999998093E+01 0. -1.
</event>
<event>
 5   0  0.4768570E-06  0.2938497E+04  0.7818609E-02  0.8261515E-01
       -2   -1    0    0    0  501  0.00000000000E+00  0.00000000000E+00  0.19546930890E+04  0.19546930890E+04  0.25500000920E-02 0.  1.
        2   -1    0    0  501    0  0.00000000000E+00  0.00000000000E+00 -0.11043629363E+04  0.11043629363E+04  0.25500000920E-02 0. -1.
    10030    2    1    2    0    0  0.00000000000E+00  0.00000000000E+00  0.85033015269E+03  0.30590560253E+04  0.29384966220E+04 0.  0.
        1    1    3    3  502    0 -0.17541309444E+03 -0.14531222207E+04  0.55830537058E+03  0.15665372095E+04  0.50400001928E-02 0. -1.
       -1    1    3    3    0  502  0.17541309444E+03  0.14531222207E+04  0.29202478211E+03  0.14925188158E+04  0.50400001928E-02 0.  1.
</event>
<event>
 5   0  0.1686012E-06  0.2956284E+04  0.7818609E-02  0.8256326E-01
       -1   -1    0    0    0  501  0.00000000000E+00  0.00000000000E+00  0.15872067033E+04  0.15872067033E+04  0.50400001928E-02 0.  1.
        1   -1    0    0  501    0  0.00000000000E+00  0.00000000000E+00 -0.13765713409E+04  0.13765713409E+04  0.50400001928E-02 0. -1.
    10030    2    1    2    0    0  0.00000000000E+00  0.00000000000E+00  0.21063536237E+03  0.29637780442E+04  0.29562836534E+04 0.  0.
        4    1    3    3  502    0  0.31702276628E+03 -0.79774445608E+03 -0.11010623910E+04  0.13961517301E+04  0.12699999809E+01 0. -1.
       -4    1    3    3    0  502 -0.31702276628E+03  0.79774445608E+03  0.13116977534E+04  0.15676263141E+04  0.12699999809E+01 0.  1.
</event>
<event>
 5   0  0.1734885E-06  0.3062248E+04  0.7818609E-02  0.8226176E-01
       -1   -1    0    0    0  501  0.00000000000E+00  0.00000000000E+00  0.11310551739E+04  0.11310551739E+04  0.50400001928E-02 0.  1.
        1   -1    0    0  501    0  0.00000000000E+00  0.00000000000E+00 -0.20727023361E+04  0.20727023361E+04  0.50400001928E-02 0. -1.
    10030    2    1    2    0    0  0.00000000000E+00  0.00000000000E+00 -0.94164716220E+03  0.32037575100E+04  0.30622479986E+04 0.  0.
        2    1    3    3  502    0 -0.74134264660E+03 -0.77387022553E+03 -0.16149195934E+04  0.19381510103E+04  0.25500000920E-02 0. -1.
       -2    1    3    3    0  502  0.74134264660E+03  0.77387022553E+03  0.67327243118E+03  0.12656064998E+04  0.25500000920E-02 0.  1.
</event>
<event>
 5   0  0.4532420E-06  0.2989832E+04  0.7818609E-02  0.8246640E-01
        2   -1    0    0  501    0  0.00000000000E+00  0.00000000000E+00  0.24561341732E+04  0.24561341732E+04  0.25500000920E-02 0.  1.
       -2   -1    0    0    0  501  0.00000000000E+00  0.00000000000E+00 -0.90987468553E+03  0.90987468553E+03  0.25500000920E-02 0. -1.
    10030    2    1    2    0    0  0.00000000000E+00  0.00000000000E+00  0.15462594877E+04  0.33660088588E+04  0.29898323087E+04 0.  0.
        4    1    3    3  502    0  0.57104488715E+03  0.13499674632E+04  0.44246035277E+03  0.15311032596E+04  0.12699999809E+01 0.  1.
       -4    1    3    3    0  502 -0.57104488715E+03 -0.13499674632E+04  0.11037991349E+04  0.18349055992E+04  0.12699999809E+01 0. -1.
</event>
<event>
 5   0  0.4702748E-06  0.2989375E+04  0.7818609E-02  0.8246771E-01
        2   -1    0    0  501    0  0.00000000000E+00  0.00000000000E+00  0.14959855906E+04  0.14959855906E+04  0.25500000920E-02 0.  1.
       -2   -1    0    0    0  501  0.00000000000E+00  0.00000000000E+00 -0.14933909093E+04  0.14933909093E+04  0.25500000920E-02 0. -1.
    10030    2    1    2    0    0  0.00000000000E+00  0.00000000000E+00  0.25946813621E+01  0.29893764999E+04  0.29893753739E+04 0.  0.
        2    1    3    3  502    0 -0.62115013764E+03  0.10197779287E+04 -0.89776738064E+03  0.14939078911E+04  0.25500000920E-02 0. -1.
       -2    1    3    3    0  502  0.62115013764E+03 -0.10197779287E+04  0.90036206200E+03  0.14954686088E+04  0.25500000920E-02 0.  1.
</event>
<event>
 5   0  0.4935331E-06  0.2912931E+04  0.7818609E-02  0.8269041E-01
        2   -1    0    0  501    0  0.00000000000E+00  0.00000000000E+00  0.20462865242E+04  0.20462865242E+04  0.25500000920E-02 0. -1.
       -2   -1    0    0    0  501  0.00000000000E+00  0.00000000000E+00 -0.10366541666E+04  0.10366541666E+04  0.25500000920E-02 0.  1.
    10030    2    1    2    0    0  0.00000000000E+00  0.00000000000E+00  0.10096323576E+04  0.30829406908E+04  0.29129307931E+04 0.  0.
        5    1    3    3  502    0  0.66224131482E+03  0.33767152337E+03 -0.82075392738E+03  0.11073593437E+04  0.46999998093E+01 0.  1.
       -5    1    3    3    0  502 -0.66224131482E+03 -0.33767152337E+03  0.18303862849E+04  0.19755813471E+04  0.46999998093E+01 0. -1.
</event>
<event>
 5   0  0.1734885E-06  0.3101760E+04  0.7818609E-02  0.8215255E-01
        1   -1    0    0  501    0  0.00000000000E+00  0.00000000000E+00  0.16091253743E+04  0.16091253743E+04  0.50400001928E-02 0. -1.
       -1   -1    0    0    0  501  0.00000000000E+00  0.00000000000E+00 -0.14947432954E+04  0.14947432954E+04  0.50400001928E-02 0.  1.
    10030    2    1    2    0    0  0.00000000000E+00  0.00000000000E+00  0.11438207893E+03  0.31038686697E+04  0.31017603806E+04 0.  0.
        2    1    3    3  502    0 -0.60481761773E+03  0.11658086414E+03  0.14814764041E+04  0.16044213239E+04  0.25500000920E-02 0. -1.
       -2    1    3    3    0  502  0.60481761773E+03 -0.11658086414E+03 -0.13670943252E+04  0.14994473457E+04  0.25500000920E-02 0.  1.
</event>
<event>
 5   0  0.4532420E-06  0.2994769E+04  0.7818609E-02  0.8245226E-01
        2   -1    0    0  501    0  0.00000000000E+00  0.00000000000E+00  0.13522997685E+04  0.13522997685E+04  0.25500000920E-02 0. -1.
       -2   -1    0    0    0  501  0.00000000000E+00  0.00000000000E+00 -0.16580345502E+04  0.16580345502E+04  0.25500000920E-02 0.  1.
    10030    2    1    2    0    0  0.00000000000E+00  0.00000000000E+00 -0.30573478176E+03  0.30103343187E+04  0.29947685977E+04 0.  0.
        4    1    3    3  502    0 -0.41614921086E+03 -0.14113545468E+04 -0.43190037487E+03  0.15335062338E+04  0.12699999809E+01 0.  1.
       -4    1    3    3    0  502  0.41614921086E+03  0.14113545468E+04  0.12616559311E+03  0.14768280849E+04  0.12699999809E+01 0. -1.
</event>
<event>
 5   0  0.5003556E-06  0.3020265E+04  0.7818609E-02  0.8237968E-01
        2   -1    0    0  501    0  0.00000000000E+00  0.00000000000E+00  0.21402133003E+04  0.21402133003E+04  0.25500000920E-02 0.  1.
       -2   -1    0    0    0  501  0.00000000000E+00  0.00000000000E+00 -0.10655481477E+04  0.10655481477E+04  0.25500000920E-02 0. -1.
    10030    2    1    2    0    0  0.00000000000E+00  0.00000000000E+00  0.10746651525E+04  0.32057614480E+04  0.30202650995E+04 0.  0.
        3    1    3    3  502    0 -0.85498018863E+03  0.42446896389E+03 -0.70472302291E+03  0.11865073002E+04  0.10100000352E+00 0. -1.
       -3    1    3    3    0  502  0.85498018863E+03 -0.42446896389E+03  0.17793881755E+04  0.20192541478E+04  0.10100000352E+00 0.  1.
</event>
<event>
 5   0  0.1709858E-06  0.2995425E+04  0.7818609E-02  0.8245039E-01
       -1   -1    0    0    0  501  0.00000000000E+00  0.00000000000E+00  0.13420268694E+04  0.13420268694E+04  0.50400001928E-02 0.  1.
        1   -1    0    0  501    0  0.00000000000E+00  0.00000000000E+00 -0.16714586529E+04  0.16714586529E+04  0.50400001928E-02 0. -1.
    10030    2    1    2    0    0  0.00000000000E+00  0.00000000000E+00 -0.32943178350E+03  0.30134855223E+04  0.29954247934E+04 0.  0.
        3    1    3    3  502    0 -0.49304373621E+03  0.13646772277E+04  0.20860962495E+03  0.14659311196E+04  0.10100000352E+00 0.  1.
       -3    1    3    3    0  502  0.49304373621E+03 -0.13646772277E+04 -0.53804140845E+03  0.15475544026E+04  0.10100000352E+00 0. -1.
</event>
<event>
 5   0  0.5003556E-06  0.2884171E+04  0.7818609E-02  0.8277603E-01
       -2   -1    0    0    0  501  0.00000000000E+00  0.00000000000E+00  0.96451386595E+03  0.96451386595E+03  0.25500000920E-02 0. -1.
        2   -1    0    0  501    0  0.00000000000E+00  0.00000000000E+00 -0.21561236341E+04  0.21561236341E+04  0.25500000920E-02 0.  1.
    10030    2    1    2    0    0  0.00000000000E+00  0.00000000000E+00 -0.11916097681E+04  0.31206375000E+04  0.28841713831E+04 0.  0.
        3    1    3    3  502    0 -0.40651643525E+03 -0.12058324738E+04  0.13829281580E+03  0.12800048751E+04  0.10100000352E+00 0.  1.
       -3    1    3    3    0  502  0.40651643525E+03  0.12058324738E+04 -0.13299025839E+04  0.18406326249E+04  0.10100000352E+00 0. -1.
</event>
<event>
 5   0  0.1734885E-06  0.2993544E+04  0.7818609E-02  0.8245577E-01
        1   -1    0    0  501    0  0.00000000000E+00  0.00000000000E+00  0.12061972354E+04  0.12061972354E+04  0.50400001928E-02 0. -1.
       -1   -1    0    0    0  501  0.00000000000E+00  0.00000000000E+00 -0.18573462328E+04  0.18573462328E+04  0.50400001928E-02 0.  1.
    10030    2    1    2    0    0  0.00000000000E+00  0.00000000000E+00 -0.65114899745E+03  0.30635434682E+04  0.29935436467E+04 0.  0.
        2    1    3    3  502    0 -0.80697047188E+03  0.69377890918E+03  0.75155575889E+03  0.13028302177E+04  0.25500000920E-02 0. -1.
       -2    1    3    3    0  502  0.80697047188E+03 -0.69377890918E+03 -0.14027047563E+04  0.17607132506E+04  0.25500000920E-02 0.  1.
</event>
<event>
 5   0  0.1700885E-06  0.3013449E+04  0.7818609E-02  0.8239901E-01
       -1   -1    0    0    0  501  0.00000000000E+00  0.00000000000E+00  0.97675808960E+03  0.97675808961E+03  0.50400001928E-02 0. -1.
        1   -1    0    0  501    0  0.00000000000E+00  0.00000000000E+00 -0.23242377769E+04  0.23242377769E+04  0.50400001928E-02 0.  1.
    10030    2    1    2    0    0  0.00000000000E+00  0.00000000000E+00 -0.13474796873E+04  0.33009958665E+04  0.30134485565E+04 0.  0.
        1    1    3    3  502    0  0.90217425818E+03 -0.40788642521E+03 -0.19178647600E+04  0.21583546895E+04  0.50400001928E-02 0.  1.
       -1    1    3    3    0  502 -0.90217425818E+03  0.40788642521E+03  0.57038507278E+03  0.11426411769E+04  0.50400001928E-02 0. -1.
</event>
<event>
 5   0  0.4532420E-06  0.2993823E+04  0.7818609E-02  0.8245497E-01
        2   -1    0    0  501    0  0.00000000000E+00  0.00000000000E+00  0.20158493035E+04  0.20158493035E+04  0.25500000920E-02 0.  1.
       -2   -1    0    0    0  501  0.00000000000E+00  0.00000000000E+00 -0.11115631446E+04  0.11115631446E+04  0.25500000920E-02 0. -1.
    10030    2    1    2    0    0  0.00000000000E+00  0.00000000000E+00  0.90428615883E+03  0.31274124481E+04  0.29938228344E+04 0.  0.
        4    1    3    3  502    0  0.11043722056E+04  0.92077752309E+03  0.88697805044E+03  0.16894380398E+04  0.12699999809E+01 0.  1.
       -4    1    3    3    0  502 -0.11043722056E+04 -0.92077752309E+03  0.17308108386E+02  0.14379744083E+04  0.12699999809E+01 0. -1.
</event>
<event>
 5   0  0.4532420E-06  0.2998341E+04  0.7818609E-02  0.8244205E-01
       -2   -1    0    0    0  501  0.00000000000E+00  0.00000000000E+00  0.91595480882E+03  0.91595480883E+03  0.25500000920E-02 0. -1.
        2   -1    0    0  501    0  0.00000000000E+00  0.00000000000E+00 -0.24537365335E+04  0.24537365335E+04  0.25500000920E-02 0.  1.
    10030    2    1    2    0    0  0.00000000000E+00  0.00000000000E+00 -0.15377817247E+04  0.33696913423E+04  0.29983407261E+04 0.  0.
        4    1    3    3  502    0 -0.92048041818E+03 -0.81613797680E+03  0.19405083313E+03  0.12454006328E+04  0.12699999809E+01 0. -1.
       -4    1    3    3    0  502  0.92048041818E+03  0.81613797680E+03 -0.17318325578E+04  0.21242907095E+04  0.12699999809E+01 0.  1.
</event>
<event>
 5   0  0.4532420E-06  0.3030995E+04  0.7818609E-02  0.8234935E-01
       -2   -1    0    0    0  501  0.00000000000E+00  0.00000000000E+00  0.11971799769E+04  0.11971799769E+04  0.25500000920E-02 0.  1.
        2   -1    0    0  501    0  0.00000000000E+00  0.00000000000E+00 -0.19184522826E+04  0.19184522826E+04  0.25500000920E-02 0. -1.
    10030    2    1    2    0    0  0.00000000000E+00  0.00000000000E+00 -0.72127230564E+03  0.31156322595E+04  0.30309949914E+04 0.  0.
        4    1    3    3  502    0  0.11656508565E+04  0.57927973889E+03 -0.11584694291E+04  0.17425154135E+04  0.12699999809E+01 0. -1.
       -4    1    3    3    0  502 -0.11656508565E+04 -0.57927973889E+03  0.43719712350E+03  0.13731168460E+04  0.12699999809E+01 0.  1.
</event>
<event>
 5   0  0.1709858E-06  0.3343042E+04  0.7818609E-02  0.8152029E-01
       -1   -1    0    0    0  501  0.00000000000E+00  0.00000000000E+00  0.12951640464E+04  0.12951640465E+04  0.50400001928E-02 0. -1.
        1   -1    0    0  501    0  0.00000000000E+00  0.00000000000E+00 -0.21572419589E+04  0.21572419589E+04  0.50400001928E-02 0.  1.
    10030    2    1    2    0    0  0.00000000000E+00  0.00000000000E+00 -0.86207791247E+03  0.34524060054E+04  0.33430418632E+04 0.  0.
        3    1    3    3  502    0 -0.34654407152E+03  0.12398957104E+04 -0.15320050609E+04  0.20011181082E+04  0.10100000352E+00 0.  1.
       -3    1    3    3    0  502  0.34654407152E+03 -0.12398957104E+04  0.66992714846E+03  0.14512878972E+04  0.10100000352E+00 0. -1.
</event>
<event>
 5   0  0.5003556E-06  0.3009000E+04  0.7818609E-02  0.8241165E-01
       -2   -1    0    0    0  501  0.00000000000E+00  0.00000000000E+00  0.12222217573E+04  0.12222217573E+04  0.25500000920E-02 0. -1.
        2   -1    0    0  501    0  0.00000000000E+00  0.00000000000E+00 -0.18519723777E+04  0.18519723777E+04  0.25500000920E-02 0.  1.
    10030    2    1    2    0    0  0.00000000000E+00  0.00000000000E+00 -0.62975062038E+03  0.30741941351E+04  0.30090004547E+04 0.  0.
        3    1    3    3  502    0 -0.22599011932E+03 -0.98311418260E+03 -0.14552744605E+04  0.17707085575E+04  0.10100000352E+00 0.  1.
       -3    1    3    3    0  502  0.22599011932E+03  0.98311418260E+03  0.82552384013E+03  0.13034855776E+04  0.10100000352E+00 0. -1.
</event>
<event>
 5   0  0.4768570E-06  0.3017781E+04  0.7818609E-02  0.8238672E-01
        2   -1    0    0  501    0  0.00000000000E+00  0.00000000000E+00  0.14749177027E+04  0.14749177027E+04  0.25500000920E-02 0. -1.
       -2   -1    0    0    0  501  0.00000000000E+00  0.00000000000E+00 -0.15436459434E+04  0.15436459435E+04  0.25500000920E-02 0.  1.
    10030    2    1    2    0    0  0.00000000000E+00  0.00000000000E+00 -0.68728240755E+02  0.30185636461E+04  0.30177811244E+04 0.  0.
        1    1    3    3  502    0 -0.11556863667E+04  0.96438922395E+03 -0.13971557519E+03  0.15116805203E+04  0.50400001928E-02 0. -1.
       -1    1    3    3    0  502  0.11556863667E+04 -0.96438922395E+03  0.70987334434E+02  0.15068831259E+04  0.50400001928E-02 0.  1.
</event>
<event>
 5   0  0.1734885E-06  0.3079424E+04  0.7818609E-02  0.8221408E-01
       -1   -1    0    0    0  501  0.00000000000E+00  0.00000000000E+00  0.14234032597E+04  0.14234032597E+04  0.50400001928E-02 0.  1.
        1   -1    0    0  501    0  0.00000000000E+00  0.00000000000E+00 -0.16655245995E+04  0.16655245995E+04  0.50400001928E-02 0. -1.
    10030    2    1    2    0    0  0.00000000000E+00  0.00000000000E+00 -0.24212133977E+03  0.30889278592E+04  0.30794240657E+04 0.  0.
        2    1    3    3  502    0  0.51734919664E+03  0.10054159599E+04  0.92724923769E+03  0.14622936068E+04  0.25500000920E-02 0.  1.
       -2    1    3    3    0  502 -0.51734919664E+03 -0.10054159599E+04 -0.11693705775E+04  0.16266342524E+04  0.25500000920E-02 0. -1.
</event>
<event>
 5   0  0.1700885E-06  0.3011742E+04  0.7818609E-02  0.8240386E-01
       -1   -1    0    0    0  501  0.00000000000E+00  0.00000000000E+00  0.11679373669E+04  0.11679373669E+04  0.50400001928E-02 0. -1.
        1   -1    0    0  501    0  0.00000000000E+00  0.00000000000E+00 -0.19415834621E+04  0.19415834621E+04  0.50400001928E-02 0.  1.
    10030    2    1    2    0    0  0.00000000000E+00  0.00000000000E+00 -0.77364609525E+03  0.31095208290E+04  0.30117422707E+04 0.  0.
        1    1    3    3  502    0  0.84581352407E+02  0.13516565731E+03  0.11591971931E+04  0.11701119146E+04  0.50400001928E-02 0. -1.
       -1    1    3    3    0  502 -0.84581352407E+02 -0.13516565731E+03 -0.19328432883E+04  0.19394089144E+04  0.50400001928E-02 0.  1.
</event>
<event>
 5   0  0.1734885E-06  0.3007957E+04  0.7818609E-02  0.8241462E-01
       -1   -1    0    0    0  501  0.00000000000E+00  0.00000000000E+00  0.15083525934E+04  0.15083525934E+04  0.50400001928E-02 0.  1.
        1   -1    0    0  501    0  0.00000000000E+00  0.00000000000E+00 -0.14996169393E+04  0.14996169393E+04  0.50400001928E-02 0. -1.
    10030    2    1    2    0    0  0.00000000000E+00  0.00000000000E+00  0.87356541383E+01  0.30079695327E+04  0.30079568478E+04 0.  0.
        2    1    3    3  502    0  0.64721627321E+03 -0.83854171787E+03 -0.10633023453E+04  0.15008840709E+04  0.25500000920E-02 0. -1.
       -2    1    3    3    0  502 -0.64721627321E+03  0.83854171787E+03  0.10720379994E+04  0.15070854618E+04  0.25500000920E-02 0.  1.
</event>
<event>
 5   0  0.5003556E-06  0.2695661E+04  0.7818609E-02  0.8336414E-01
       -2   -1    0    0    0  501  0.00000000000E+00  0.00000000000E+00  0.11610086100E+04  0.11610086100E+04  0.25500000920E-02 0.  1.
        2   -1    0    0  501    0  0.00000000000E+00  0.00000000000E+00 -0.15647150038E+04  0.15647150038E+04  0.25500000920E-02 0. -1.
    10030    2    1    2    0    0  0.00000000000E+00  0.00000000000E+00 -0.40370639379E+03  0.27257236139E+04  0.26956613969E+04 0.  0.
        3    1    3    3  502    0  0.10762532063E+04 -0.14175808370E+03 -0.10096562945E+04  0.14825053665E+04  0.10100000352E+00 0. -1.
       -3    1    3    3    0  502 -0.10762532063E+04  0.14175808370E+03  0.60594990066E+03  0.12432182474E+04  0.10100000352E+00 0.  1.
</event>
<event>
 5   0  0.1734885E-06  0.2987244E+04  0.7818609E-02  0.8247383E-01
       -1   -1    0    0    0  501  0.00000000000E+00  0.00000000000E+00  0.16014470389E+04  0.16014470389E+04  0.50400001928E-02 0. -1.
        1   -1    0    0  501    0  0.00000000000E+00  0.00000000000E+00 -0.13930567128E+04  0.13930567128E+04  0.50400001928E-02 0.  1.
    10030    2    1    2    0    0  0.00000000000E+00  0.00000000000E+00  0.20839032608E+03  0.29945037517E+04  0.29872439122E+04 0.  0.
        2    1    3    3  502    0  0.20462618782E+03 -0.32478508868E+02  0.15869721348E+04  0.16004397167E+04  0.25500000920E-02 0. -1.
       -2    1    3    3    0  502 -0.20462618782E+03  0.32478508868E+02 -0.13785818087E+04  0.13940640350E+04  0.25500000920E-02 0.  1.
</event>
<event>
 5   0  0.4532420E-06  0.2901577E+04  0.7818609E-02  0.8272409E-01
       -2   -1    0    0    0  501  0.00000000000E+00  0.00000000000E+00  0.15438687216E+04  0.15438687216E+04  0.25500000920E-02 0. -1.
        2   -1    0    0  501    0  0.00000000000E+00  0.00000000000E+00 -0.13633196588E+04  0.13633196588E+04  0.25500000920E-02 0.  1.
    10030    2    1    2    0    0  0.00000000000E+00  0.00000000000E+00  0.18054906280E+03  0.29071883804E+04  0.29015765223E+04 0.  0.
        4    1    3    3  502    0 -0.95221715384E+03 -0.91519237483E+03  0.69184427131E+03  0.14909542916E+04  0.12699999809E+01 0.  1.
       -4    1    3    3    0  502  0.95221715384E+03  0.91519237483E+03 -0.51129520851E+03  0.14162340888E+04  0.12699999809E+01 0. -1.
</event>
<event>
 5   0  0.1709858E-06  0.2990755E+04  0.7818609E-02  0.8246376E-01
        1   -1    0    0  501    0  0.00000000000E+00  0.00000000000E+00  0.18324539916E+04  0.18324539916E+04  0.50400001928E-02 0.  1.
       -1   -1    0    0    0  501  0.00000000000E+00  0.00000000000E+00 -0.12203056536E+04  0.12203056536E+04  0.50400001928E-02 0. -1.
    10030    2    1    2    0    0  0.00000000000E+00  0.00000000000E+00  0.61214833797E+03  0.30527596452E+04  0.29907550658E+04 0.  0.
        3    1    3    3  502    0  0.10118944812E+04 -0.82882530546E+03  0.10458564812E+04  0.16747231465E+04  0.10100000352E+00 0.  1.
       -3    1    3    3    0  502 -0.10118944812E+04  0.82882530546E+03 -0.43370814319E+03  0.13780364987E+04  0.10100000352E+00 0. -1.
</event>
<event>
 5   0  0.1700885E-06  0.3035387E+04  0.7818609E-02  0.8233698E-01
       -1   -1    0    0    0  501  0.00000000000E+00  0.00000000000E+00  0.14799336057E+04  0.14799336057E+04  0.50400001928E-02 0. -1.
        1   -1    0    0  501    0  0.00000000000E+00  0.00000000000E+00 -0.15564168301E+04  0.15564168301E+04  0.50400001928E-02 0.  1.
    10030    2    1    2    0    0  0.00000000000E+00  0.00000000000E+00 -0.76483224425E+02  0.30363504357E+04  0.30353870075E+04 0.  0.
        1    1    3    3  502    0  0.16792445671E+03  0.14853108224E+04 -0.30109241895E+03  0.15247962182E+04  0.50400001928E-02 0.  1.
       -1    1    3    3    0  502 -0.16792445671E+03 -0.14853108224E+04  0.22460919453E+03  0.15115542175E+04  0.50400001928E-02 0. -1.
</event>
<event>
 5   0  0.4532420E-06  0.2985557E+04  0.7818609E-02  0.8247867E-01
       -2   -1    0    0    0  501  0.00000000000E+00  0.00000000000E+00  0.11081679073E+04  0.11081679073E+04  0.25500000920E-02 0.  1.
        2   -1    0    0  501    0  0.00000000000E+00  0.00000000000E+00 -0.20108754967E+04  0.20108754967E+04  0.25500000920E-02 0. -1.
    10030    2    1    2    0    0  0.00000000000E+00  0.00000000000E+00 -0.90270758941E+03  0.31190434041E+04  0.29855570275E+04 0.  0.
        4    1    3    3  502    0 -0.22905106404E+03 -0.74328488486E+03  0.87976068641E+03  0.11742730893E+04  0.12699999809E+01 0.  1.
       -4    1    3    3    0  502  0.22905106404E+03  0.74328488486E+03 -0.17824682758E+04  0.19447703148E+04  0.12699999809E+01 0. -1.
</event>
<event>
 5   0  0.4935331E-06  0.2963540E+04  0.7818609E-02  0.8254220E-01
        2   -1    0    0  501    0  0.00000000000E+00  0.00000000000E+00  0.10323725620E+04  0.10323725620E+04  0.25500000920E-02 0.  1.
       -2   -1    0    0    0  501  0.00000000000E+00  0.00000000000E+00 -0.21267923379E+04  0.21267923379E+04  0.25500000920E-02 0. -1.
    10030    2    1    2    0    0  0.00000000000E+00  0.00000000000E+00 -0.10944197758E+04  0.31591648999E+04  0.29635398123E+04 0.  0.
        5    1    3    3  502    0  0.13203193507E+03 -0.93982719940E+03 -0.17602683145E+04  0.19998185482E+04  0.46999998093E+01 0. -1.
       -5    1    3    3    0  502 -0.13203193507E+03  0.93982719940E+03  0.66584853870E+03  0.11593463517E+04  0.46999998093E+01 0.  1.
</event>
<event>
 5   0  0.1734885E-06  0.2999785E+04  0.7818609E-02  0.8243792E-01
       -1   -1    0    0    0  501  0.00000000000E+00  0.00000000000E+00  0.17245749218E+04  0.17245749218E+04  0.50400001928E-02 0. -1.
        1   -1    0    0  501    0  0.00000000000E+00  0.00000000000E+00 -0.13044822852E+04  0.13044822852E+04  0.50400001928E-02 0.  1.
    10030    2    1    2    0    0  0.00000000000E+00  0.00000000000E+00  0.42009263654E+03  0.30290572070E+04  0.29997849490E+04 0.  0.
        2    1    3    3  502    0 -0.69482367274E+03  0.77040654143E+03 -0.88374652389E+03  0.13628331130E+04  0.25500000920E-02 0.  1.
       -2    1    3    3    0  502  0.69482367274E+03 -0.77040654143E+03  0.13038391604E+04  0.16662240940E+04  0.25500000920E-02 0. -1.
</event>
<event>
 5   0  0.1686012E-06  0.3015561E+04  0.7818609E-02  0.8239301E-01
       -1   -1    0    0    0  501  0.00000000000E+00  0.00000000000E+00  0.17579345957E+04  0.17579345957E+04  0.50400001928E-02 0. -1.
        1   -1    0    0  501    0  0.00000000000E+00  0.00000000000E+00 -0.12932229847E+04  0.12932229847E+04  0.50400001928E-02 0.  1.
    10030    2    1    2    0    0  0.00000000000E+00  0.00000000000E+00  0.46471161097E+03  0.30511575804E+04  0.30155605945E+04 0.  0.
        4    1    3    3  502    0  0.11843116610E+03 -0.10484127263E+04  0.13221986438E+04  0.16915691095E+04  0.12699999809E+01 0. -1.
       -4    1    3    3    0  502 -0.11843116610E+03  0.10484127263E+04 -0.85748703279E+03  0.13595884709E+04  0.12699999809E+01 0.  1.
</event>
<event>
 5   0  0.1700885E-06  0.3013915E+04  0.7818609E-02  0.8239768E-01
       -1   -1    0    0    0  501  0.00000000000E+00  0.00000000000E+00  0.15407656399E+04  0.15407656399E+04  0.50400001928E-02 0. -1.
        1   -1    0    0  501    0  0.00000000000E+00  0.00000000000E+00 -0.14738914524E+04  0.14738914525E+04  0.50400001928E-02 0.  1.
    10030    2    1    2    0    0  0.00000000000E+00  0.00000000000E+00  0.66874187467E+02  0.30146570924E+04  0.30139152655E+04 0.  0.
        1    1    3    3  502    0  0.83783540768E+03  0.35731497834E+03 -0.11673912560E+04  0.14806905513E+04  0.50400001928E-02 0.  1.
       -1    1    3    3    0  502 -0.83783540768E+03 -0.35731497834E+03  0.12342654435E+04  0.15339665411E+04  0.50400001928E-02 0. -1.
</event>
<event>
 5   0  0.1672907E-06  0.3003289E+04  0.7818609E-02  0.8242792E-01
       -1   -1    0    0    0  501  0.00000000000E+00  0.00000000000E+00  0.17042484167E+04  0.17042484167E+04  0.50400001928E-02 0. -1.
        1   -1    0    0  501    0  0.00000000000E+00  0.00000000000E+00 -0.13231261593E+04  0.13231261593E+04  0.50400001928E-02 0.  1.
    10030    2    1    2    0    0  0.00000000000E+00  0.00000000000E+00  0.38112225738E+03  0.30273745760E+04  0.30032886388E+04 0.  0.
        5    1    3    3  502    0  0.68417620002E+03  0.58818540356E+03  0.14005437684E+04  0.16660144294E+04  0.46999998093E+01 0. -1.
       -5    1    3    3    0  502 -0.68417620002E+03 -0.58818540356E+03 -0.10194215110E+04  0.13613601466E+04  0.46999998093E+01 0.  1.
</event>
<event>
 5   0  0.1709858E-06  0.2809842E+04  0.7818609E-02  0.8300219E-01
       -1   -1    0    0    0  501  0.00000000000E+00  0.00000000000E+00  0.12519482342E+04  0.12519482342E+04  0.50400001928E-02 0. -1.
        1   -1    0    0  501    0  0.00000000000E+00  0.00000000000E+00 -0.15765855272E+04  0.15765855272E+04  0.50400001928E-02 0.  1.
    10030    2    1    2    0    0  0.00000000000E+00  0.00000000000E+00 -0.32463729297E+03  0.28285337614E+04  0.28098423208E+04 0.  0.
        3    1    3    3  502    0 -0.13797621953E+04 -0.18686372986E+03 -0.35102682561E+03  0.14359253503E+04  0.10100000352E+00 0.  1.
       -3    1    3    3    0  502  0.13797621953E+04  0.18686372986E+03  0.26389532638E+02  0.13926084111E+04  0.10100000352E+00 0. -1.
</event>
<event>
 5   0  0.4768570E-06  0.2959139E+04  0.7818609E-02  0.8255496E-01
       -2   -1    0    0    0  501  0.00000000000E+00  0.00000000000E+00  0.11441859664E+04  0.11441859664E+04  0.25500000920E-02 0.  1.
        2   -1    0    0  501    0  0.00000000000E+00  0.00000000000E+00 -0.19132604020E+04  0.19132604020E+04  0.25500000920E-02 0. -1.
    10030    2    1    2    0    0  0.00000000000E+00  0.00000000000E+00 -0.76907443567E+03  0.30574463684E+04  0.29591388626E+04 0.  0.
        1    1    3    3  502    0 -0.50567267048E+03 -0.16389325864E+02  0.10520319156E+04  0.11673665282E+04  0.50400001928E-02 0.  1.
       -1    1    3    3    0  502  0.50567267048E+03  0.16389325864E+02 -0.18211063513E+04  0.18900798402E+04  0.50400001928E-02 0. -1.
</event>
<event>
 5   0  0.1672907E-06  0.2892937E+04  0.7818609E-02  0.8274982E-01
        1   -1    0    0  501    0  0.00000000000E+00  0.00000000000E+00  0.18208296672E+04  0.18208296672E+04  0.50400001928E-02 0. -1.
       -1   -1    0    0    0  501  0.00000000000E+00  0.00000000000E+00 -0.11490757755E+04  0.11490757755E+04  0.50400001928E-02 0.  1.
    10030    2    1    2    0    0  0.00000000000E+00  0.00000000000E+00  0.67175389170E+03  0.29699054428E+04  0.28929370971E+04 0.  0.
        5    1    3    3  502    0  0.50959424531E+03 -0.71945905230E+03 -0.84134095071E+03  0.12186813809E+04  0.46999998093E+01 0.  1.
       -5    1    3    3    0  502 -0.50959424531E+03  0.71945905230E+03  0.15130948424E+04  0.17512240619E+04  0.46999998093E+01 0. -1.
</event>
<event>
 5   0  0.1700885E-06  0.2775752E+04  0.7818609E-02  0.8310836E-01
       -1   -1    0    0    0  501  0.00000000000E+00  0.00000000000E+00  0.11772195262E+04  0.11772195262E+04  0.50400001928E-02 0.  1.
        1   -1    0    0  501    0  0.00000000000E+00  0.00000000000E+00 -0.16362282867E+04  0.16362282867E+04  0.50400001928E-02 0. -1.
    10030    2    1    2    0    0  0.00000000000E+00  0.00000000000E+00 -0.45900876047E+03  0.28134478129E+04  0.27757520699E+04 0.  0.
        1    1    3    3  502    0 -0.90582082043E+03 -0.57861523381E+03 -0.11194331067E+04  0.15519141175E+04  0.50400001928E-02 0. -1.
       -1    1    3    3    0  502  0.90582082043E+03  0.57861523381E+03  0.66042434626E+03  0.12615336954E+04  0.50400001928E-02 0.  1.
</event>
<event>
 5   0  0.1709858E-06  0.2983938E+04  0.7818609E-02  0.8248332E-01
       -1   -1    0    0    0  501  0.00000000000E+00  0.00000000000E+00  0.96600002994E+03  0.96600002995E+03  0.50400001928E-02 0. -1.
        1   -1    0    0  501    0  0.00000000000E+00  0.00000000000E+00 -0.23043186056E+04  0.23043186056E+04  0.50400001928E-02 0.  1.
    10030    2    1    2    0    0  0.00000000000E+00  0.00000000000E+00 -0.13383185756E+04  0.32703186355E+04  0.29839382313E+04 0.  0.
        3    1    3    3  502    0  0.85251345702E+03  0.38803329947E+03 -0.19419162708E+04  0.21560120243E+04  0.10100000352E+00 0.  1.
       -3    1    3    3    0  502 -0.85251345702E+03 -0.38803329947E+03  0.60359769521E+03  0.11143066112E+04  0.10100000352E+00 0. -1.
</event>
<event>
 5   0  0.1686012E-06  0.3002059E+04  0.7818609E-02  0.8243143E-01
       -1   -1    0    0    0  501  0.00000000000E+00  0.00000000000E+00  0.20955470052E+04  0.20955470052E+04  0.50400001928E-02 0. -1.
        1   -1    0    0  501    0  0.00000000000E+00  0.00000000000E+00 -0.10751797442E+04  0.10751797442E+04  0.50400001928E-02 0.  1.
    10030    2    1    2    0    0  0.00000000000E+00  0.00000000000E+00  0.10203672610E+04  0.31707267495E+04  0.30020590888E+04 0.  0.
        4    1    3    3  502    0 -0.10962988538E+03 -0.11115976825E+04 -0.54885873053E+03  0.12445543935E+04  0.12699999809E+01 0.  1.
       -4    1    3    3    0  502  0.10962988538E+03  0.11115976825E+04  0.15692259915E+04  0.19261723559E+04  0.12699999809E+01 0. -1.
</event>
<event>
 5   0  0.1709858E-06  0.3009832E+04  0.7818609E-02  0.8240929E-01
        1   -1    0    0  501    0  0.00000000000E+00  0.00000000000E+00  0.19569551313E+04  0.19569551313E+04  0.50400001928E-02 0. -1.
       -1   -1    0    0    0  501  0.00000000000E+00  0.00000000000E+00 -0.11572935083E+04  0.11572935083E+04  0.50400001928E-02 0.  1.
    10030    2    1    2    0    0  0.00000000000E+00  0.00000000000E+00  0.79966162299E+03  0.31142486396E+04  0.30098315365E+04 0.  0.
        3    1    3    3  502    0 -0.72958750038E+03 -0.29898608360E+03 -0.92646550493E+03  0.12165644006E+04  0.10100000352E+00 0.  1.
       -3    1    3    3    0  502  0.72958750038E+03  0.29898608360E+03  0.17261271279E+04  0.18976842390E+04  0.10100000352E+00 0. -1.
</event>
<event>
 5   0  0.4768570E-06  0.2978610E+04  0.7818609E-02  0.8249865E-01
       -2   -1    0    0    0  501  0.00000000000E+00  0.00000000000E+00  0.11901720470E+04  0.11901720470E+04  0.25500000920E-02 0. -1.
        2   -1    0    0  501    0  0.00000000000E+00  0.00000000000E+00 -0.18636206519E+04  0.18636206519E+04  0.25500000920E-02 0.  1.
    10030    2    1    2    0    0  0.00000000000E+00  0.00000000000E+00 -0.67344860485E+03  0.30537926989E+04  0.29786098813E+04 0.  0.
        1    1    3    3  502    0  0.14641214461E+04 -0.10074445835E+03 -0.59655391009E+03  0.15841962071E+04  0.50400001928E-02 0. -1.
       -1    1    3    3    0  502 -0.14641214461E+04  0.10074445835E+03 -0.76894694761E+02  0.14695964919E+04  0.50400001928E-02 0.  1.
</event>
<event>
 5   0  0.5003556E-06  0.2995799E+04  0.7818609E-02  0.8244931E-01
        2   -1    0    0  501    0  0.00000000000E+00  0.00000000000E+00  0.21627208821E+04  0.21627208821E+04  0.25500000920E-02 0.  1.
       -2   -1    0    0    0  501  0.00000000000E+00  0.00000000000E+00 -0.10374445831E+04  0.10374445831E+04  0.25500000920E-02 0. -1.
    10030    2    1    2    0    0  0.00000000000E+00  0.00000000000E+00  0.11252762990E+04  0.32001654652E+04  0.29957991013E+04 0.  0.
        3    1    3    3  502    0 -0.37570678848E+03  0.28248617542E+03  0.20818934076E+04  0.21342994638E+04  0.10100000352E+00 0.  1.
       -3    1    3    3    0  502  0.37570678848E+03 -0.28248617542E+03 -0.95661710863E+03  0.10658660014E+04  0.10100000352E+00 0. -1.
</event>
<event>
 5   0  0.1709858E-06  0.2950093E+04  0.7818609E-02  0.8258127E-01
       -1   -1    0    0    0  501  0.00000000000E+00  0.00000000000E+00  0.16231811550E+04  0.16231811550E+04  0.50400001928E-02 0.  1.
        1   -1    0    0  501    0  0.00000000000E+00  0.00000000000E+00 -0.13404309469E+04  0.13404309469E+04  0.50400001928E-02 0. -1.
    10030    2    1    2    0    0  0.00000000000E+00  0.00000000000E+00  0.28275020805E+03  0.29636121019E+04  0.29500930511E+04 0.  0.
        3    1    3    3  502    0  0.60151921122E+03  0.10363573174E+03 -0.12076100642E+04  0.13531030278E+04  0.10100000352E+00 0. -1.
       -3    1    3    3    0  502 -0.60151921122E+03 -0.10363573174E+03  0.14903602723E+04  0.16105090741E+04  0.10100000352E+00 0.  1.
</event>
<event>
 5   0  0.1734885E-06  0.2977700E+04  0.7818609E-02  0.8250128E-01
       -1   -1    0    0    0  501  0.00000000000E+00  0.00000000000E+00  0.17155326490E+04  0.17155326490E+04  0.50400001928E-02 0. -1.
        1   -1    0    0  501    0  0.00000000000E+00  0.00000000000E+00 -0.12921197902E+04  0.12921197902E+04  0.50400001928E-02 0.  1.
    10030    2    1    2    0    0  0.00000000000E+00  0.00000000000E+00  0.42341285884E+03  0.30076524392E+04  0.29776995729E+04 0.  0.
        2    1    3    3  502    0  0.82976041971E+03  0.62526752421E+03 -0.86542192623E+03  0.13521896839E+04  0.25500000920E-02 0.  1.
       -2    1    3    3    0  502 -0.82976041971E+03 -0.62526752421E+03  0.12888347851E+04  0.16554627553E+04  0.25500000920E-02 0. -1.
</event>
<event>
 5   0  0.1686012E-06  0.2977932E+04  0.7818609E-02  0.8250061E-01
        1   -1    0    0  501    0  0.00000000000E+00  0.00000000000E+00  0.12245482067E+04  0.12245482067E+04  0.50400001928E-02 0.  1.
       -1   -1    0    0    0  501  0.00000000000E+00  0.00000000000E+00 -0.18104799560E+04  0.18104799560E+04  0.50400001928E-02 0. -1.
    10030    2    1    2    0    0  0.00000000000E+00  0.00000000000E+00 -0.58593174932E+03  0.30350281628E+04  0.29779321574E+04 0.  0.
        4    1    3    3  502    0  0.59256649014E+03  0.60369382023E+03 -0.15417906234E+04  0.17586077485E+04  0.12699999809E+01 0. -1.
       -4    1    3    3    0  502 -0.59256649014E+03 -0.60369382023E+03  0.95585887409E+03  0.12764204142E+04  0.12699999809E+01 0.  1.
</event>
<event>
 5   0  0.1734885E-06  0.3054083E+04  0.7818609E-02  0.8228454E-01
       -1   -1    0    0    0  501  0.00000000000E+00  0.00000000000E+00  0.11466021545E+04  0.11466021545E+04  0.50400001928E-02 0. -1.
        1   -1    0    0  501    0  0.00000000000E+00  0.00000000000E+00 -0.20337093511E+04  0.20337093511E+04  0.50400001928E-02 0.  1.
    10030    2    1    2    0    0  0.00000000000E+00  0.00000000000E+00 -0.88710719658E+03  0.31803115056E+04  0.30540828565E+04 0.  0.
        2    1    3    3  502    0 -0.14360312413E+04 -0.55140031000E+02 -0.98125707207E+03  0.17401412559E+04  0.25500000920E-02 0.  1.
       -2    1    3    3    0  502  0.14360312413E+04  0.55140031000E+02  0.94149875499E+02  0.14401702497E+04  0.25500000920E-02 0. -1.
</event>
<event>
 5   0  0.1700885E-06  0.2722756E+04  0.7818609E-02  0.8327659E-01
        1   -1    0    0  501    0  0.00000000000E+00  0.00000000000E+00  0.13910791975E+04  0.13910791975E+04  0.50400001928E-02 0. -1.
       -1   -1    0    0    0  501  0.00000000000E+00  0.00000000000E+00 -0.13323107553E+04  0.13323107553E+04  0.50400001928E-02 0.  1.
    10030    2    1    2    0    0  0.00000000000E+00  0.00000000000E+00  0.58768442244E+02  0.27233899528E+04  0.27227557924E+04 0.  0.
        1    1    3    3  502    0  0.76043639283E+02  0.83888213657E+03  0.10991397036E+04  0.13847793912E+04  0.50400001928E-02 0. -1.
       -1    1    3    3    0  502 -0.76043639283E+02 -0.83888213657E+03 -0.10403712614E+04  0.13386105616E+04  0.50400001928E-02 0.  1.
</event>
<event>
 5   0  0.1672907E-06  0.3036641E+04  0.7818609E-02  0.8233344E-01
        1   -1    0    0  501    0  0.00000000000E+00  0.00000000000E+00  0.19417888232E+04  0.19417888232E+04  0.50400001928E-02 0. -1.
       -1   -1    0    0    0  501  0.00000000000E+00  0.00000000000E+00 -0.11872031769E+04  0.11872031769E+04  0.50400001928E-02 0.  1.
    10030    2    1    2    0    0  0.00000000000E+00  0.00000000000E+00  0.75458564633E+03  0.31289920000E+04  0.30366414735E+04 0.  0.
        5    1    3    3  502    0  0.65881479953E+03 -0.13677977825E+04  0.39706105407E+03  0.15692632935E+04  0.46999998093E+01 0. -1.
       -5    1    3    3    0  502 -0.65881479953E+03  0.13677977825E+04  0.35752459225E+03  0.15597287065E+04  0.46999998093E+01 0.  1.
</event>
<event>
 5   0  0.4935331E-06  0.2991450E+04  0.7818609E-02  0.8246177E-01
       -2   -1    0    0    0  501  0.00000000000E+00  0.00000000000E+00  0.90618371918E+03  0.90618371918E+03  0.25500000920E-02 0.  1.
        2   -1    0    0  501    0  0.00000000000E+00  0.00000000000E+00 -0.24688081010E+04  0.24688081010E+04  0.25500000920E-02 0. -1.
    10030    2    1    2    0    0  0.00000000000E+00  0.00000000000E+00 -0.15626243819E+04  0.33749918202E+04  0.29914502884E+04 0.  0.
        5    1    3    3  502    0  0.44594124989E+03  0.65941469601E+03  0.64732761185E+03  0.10260343399E+04  0.46999998093E+01 0.  1.
       -5    1    3    3    0  502 -0.44594124989E+03 -0.65941469601E+03 -0.22099519937E+04  0.23489574803E+04  0.46999998093E+01 0. -1.
</event>
<event>
 5   0  0.4532420E-06  0.3142384E+04  0.7818609E-02  0.8204201E-01
        2   -1    0    0  501    0  0.00000000000E+00  0.00000000000E+00  0.17025371735E+04  0.17025371735E+04  0.25500000920E-02 0.  1.
       -2   -1    0    0    0  501  0.00000000000E+00  0.00000000000E+00 -0.14499792225E+04  0.14499792225E+04  0.25500000920E-02 0. -1.
    10030    2    1    2    0    0  0.00000000000E+00  0.00000000000E+00  0.25255795099E+03  0.31525163960E+04  0.31423835075E+04 0.  0.
        4    1    3    3  502    0 -0.39399379064E+03 -0.36167538293E+03  0.16084059595E+04  0.16949960275E+04  0.12699999809E+01 0.  1.
       -4    1    3    3    0  502  0.39399379064E+03  0.36167538293E+03 -0.13558480085E+04  0.14575203685E+04  0.12699999809E+01 0. -1.
</event>
<event>
 5   0  0.1672907E-06  0.3000614E+04  0.7818609E-02  0.8243555E-01
        1   -1    0    0  501    0  0.00000000000E+00  0.00000000000E+00  0.80751125395E+03  0.80751125396E+03  0.50400001928E-02 0. -1.
       -1   -1    0    0    0  501  0.00000000000E+00  0.00000000000E+00 -0.27874803205E+04  0.27874803205E+04  0.50400001928E-02 0.  1.
    10030    2    1    2    0    0  0.00000000000E+00  0.00000000000E+00 -0.19799690666E+04  0.35949915745E+04  0.30006144231E+04 0.  0.
        5    1    3    3  502    0 -0.20422045274E+03  0.10402075669E+04 -0.22619661291E+04  0.24980493660E+04  0.46999998093E+01 0.  1.
       -5    1    3    3    0  502  0.20422045274E+03 -0.10402075669E+04  0.28199706251E+03  0.10969422085E+04  0.46999998093E+01 0. -1.
</event>
<event>
 5   0  0.1545375E-06  0.2811909E+04  0.7818609E-02  0.8299581E-01
       -3   -1    0    0    0  501  0.00000000000E+00  0.00000000000E+00  0.10736658147E+04  0.10736658194E+04  0.10100000352E+00 0.  1.
        3   -1    0    0  501    0  0.00000000000E+00  0.00000000000E+00 -0.18410825108E+04  0.18410825136E+04  0.10100000352E+00 0. -1.
    10030    2    1    2    0    0  0.00000000000E+00  0.00000000000E+00 -0.76741669610E+03  0.29147483330E+04  0.28119085083E+04 0.  0.
        5    1    3    3  502    0  0.10996455329E+04  0.50378897524E+03  0.35920548670E+03  0.12617742672E+04  0.46999998093E+01 0.  1.
       -5    1    3    3    0  502 -0.10996455329E+04 -0.50378897524E+03 -0.11266221828E+04  0.16529740659E+04  0.46999998093E+01 0. -1.
</event>
<event>
 5   0  0.4768570E-06  0.3005251E+04  0.7818609E-02  0.8242233E-01
        2   -1    0    0  501    0  0.00000000000E+00  0.00000000000E+00  0.12564421991E+04  0.12564421991E+04  0.25500000920E-02 0.  1.
       -2   -1    0    0    0  501  0.00000000000E+00  0.00000000000E+00 -0.17970455226E+04  0.17970455226E+04  0.25500000920E-02 0. -1.
    10030    2    1    2    0    0  0.00000000000E+00  0.00000000000E+00 -0.54060332356E+03  0.30534877217E+04  0.30052512895E+04 0.  0.
        1    1    3    3  502    0  0.19968855883E+03 -0.91412054318E+03 -0.14649249656E+04  0.17382453920E+04  0.50400001928E-02 0. -1.
       -1    1    3    3    0  502 -0.19968855883E+03  0.91412054318E+03  0.92432164200E+03  0.13152423297E+04  0.50400001928E-02 0.  1.
</event>
<event>
 5   0  0.4532420E-06  0.2965647E+04  0.7818609E-02  0.8253609E-01
       -2   -1    0    0    0  501  0.00000000000E+00  0.00000000000E+00  0.11538623678E+04  0.11538623678E+04  0.25500000920E-02 0.  1.
        2   -1    0    0  501    0  0.00000000000E+00  0.00000000000E+00 -0.19055705727E+04  0.19055705727E+04  0.25500000920E-02 0. -1.
    10030    2    1    2    0    0  0.00000000000E+00  0.00000000000E+00 -0.75170820488E+03  0.30594329405E+04  0.29656474322E+04 0.  0.
        4    1    3    3  502    0 -0.73584187434E+03  0.82266389066E+03 -0.13973834491E+04  0.17807080776E+04  0.12699999809E+01 0. -1.
       -4    1    3    3    0  502  0.73584187434E+03 -0.82266389066E+03  0.64567524424E+03  0.12787248629E+04  0.12699999809E+01 0.  1.
</event>
<event>
 5   0  0.4532420E-06  0.2981302E+04  0.7818609E-02  0.8249090E-01
        2   -1    0    0  501    0  0.00000000000E+00  0.00000000000E+00  0.26859092402E+04  0.26859092402E+04  0.25500000920E-02 0.  1.
       -2   -1    0    0    0  501  0.00000000000E+00  0.00000000000E+00 -0.82729543994E+03  0.82729543994E+03  0.25500000920E-02 0. -1.
    10030    2    1    2    0    0  0.00000000000E+00  0.00000000000E+00  0.18586138002E+04  0.35132046801E+04  0.29813020421E+04 0.  0.
        4    1    3    3  502    0 -0.59265899948E+03 -0.18291905496E+03 -0.66801197455E+03  0.91156222024E+03  0.12699999809E+01 0. -1.
       -4    1    3    3    0  502  0.59265899948E+03  0.18291905496E+03  0.25266257748E+04  0.26016424599E+04  0.12699999809E+01 0.  1.
</event>
<event>
 5   0  0.1700885E-06  0.3005997E+04  0.7818609E-02  0.8242020E-01
       -1   -1    0    0    0  501  0.00000000000E+00  0.00000000000E+00  0.21792166579E+04  0.21792166579E+04  0.50400001928E-02 0. -1.
        1   -1    0    0  501    0  0.00000000000E+00  0.00000000000E+00 -0.10366132731E+04  0.10366132731E+04  0.50400001928E-02 0.  1.
    10030    2    1    2    0    0  0.00000000000E+00  0.00000000000E+00  0.11426033848E+04  0.32158299310E+04  0.30059972805E+04 0.  0.
        1    1    3    3  502    0  0.30219074763E+03 -0.53395966914E+03 -0.89654389679E+03  0.10863807505E+04  0.50400001928E-02 0.  1.
       -1    1    3    3    0  502 -0.30219074763E+03  0.53395966914E+03  0.20391472816E+04  0.21294491805E+04  0.50400001928E-02 0. -1.
</event>
<event>
 5   0  0.1672907E-06  0.3000098E+04  0.7818609E-02  0.8243703E-01
       -1   -1    0    0    0  501  0.00000000000E+00  0.00000000000E+00  0.14003503441E+04  0.14003503441E+04  0.50400001928E-02 0.  1.
        1   -1    0    0  501    0  0.00000000000E+00  0.00000000000E+00 -0.16068461633E+04  0.16068461633E+04  0.50400001928E-02 0. -1.
    10030    2    1    2    0    0  0.00000000000E+00  0.00000000000E+00 -0.20649581918E+03  0.30071965074E+04  0.30000983835E+04 0.  0.
        5    1    3    3  502    0 -0.77652538091E+03  0.72227706359E+03  0.96013419958E+03  0.14305787622E+04  0.46999998093E+01 0.  1.
       -5    1    3    3    0  502  0.77652538091E+03 -0.72227706359E+03 -0.11666300188E+04  0.15766177452E+04  0.46999998093E+01 0. -1.
</event>
<event>
 5   0  0.1709858E-06  0.3014676E+04  0.7818609E-02  0.8239552E-01
        1   -1    0    0  501    0  0.00000000000E+00  0.00000000000E+00  0.10731074048E+04  0.10731074048E+04  0.50400001928E-02 0. -1.
       -1   -1    0    0    0  501  0.00000000000E+00  0.00000000000E+00 -0.21172795494E+04  0.21172795494E+04  0.50400001928E-02 0.  1.
    10030    2    1    2    0    0  0.00000000000E+00  0.00000000000E+00 -0.10441721446E+04  0.31903869541E+04  0.30146763424E+04 0.  0.
        3    1    3    3  502    0 -0.13851396797E+04  0.52886749441E+03 -0.23467721466E+03  0.15011282970E+04  0.10100000352E+00 0. -1.
       -3    1    3    3    0  502  0.13851396797E+04 -0.52886749441E+03 -0.80949492994E+03  0.16892586571E+04  0.10100000352E+00 0.  1.
</event>
<event>
 5   0  0.4532420E-06  0.2963645E+04  0.7818609E-02  0.8254189E-01
        2   -1    0    0  501    0  0.00000000000E+00  0.00000000000E+00  0.14585668059E+04  0.14585668059E+04  0.25500000920E-02 0.  1.
       -2   -1    0    0    0  501  0.00000000000E+00  0.00000000000E+00 -0.15054491156E+04  0.15054491156E+04  0.25500000920E-02 0. -1.
    10030    2    1    2    0    0  0.00000000000E+00  0.00000000000E+00 -0.46882309739E+02  0.29640159215E+04  0.29636451258E+04 0.  0.
        4    1    3    3  502    0 -0.73913540827E+03  0.91324664757E+03 -0.92658010753E+03  0.14962930527E+04  0.12699999809E+01 0. -1.
       -4    1    3    3    0  502  0.73913540827E+03 -0.91324664757E+03  0.87969779779E+03  0.14677228687E+04  0.12699999809E+01 0.  1.
</event>
<event>
 5   0  0.1686012E-06  0.2967784E+04  0.7818609E-02  0.8252991E-01
        1   -1    0    0  501    0  0.00000000000E+00  0.00000000000E+00  0.14409641983E+04  0.14409641983E+04  0.50400001928E-02 0.  1.
       -1   -1    0    0    0  501  0.00000000000E+00  0.00000000000E+00 -0.15280982162E+04  0.15280982163E+04  0.50400001928E-02 0. -1.
    10030    2    1    2    0    0  0.00000000000E+00  0.00000000000E+00 -0.87134017930E+02  0.29690624146E+04  0.29677835643E+04 0.  0.
        4    1    3    3  502    0 -0.36605574013E+03 -0.20915965481E+03 -0.14669199195E+04  0.15263027973E+04  0.12699999809E+01 0. -1.
       -4    1    3    3    0  502  0.36605574013E+03  0.20915965481E+03  0.13797859016E+04  0.14427596172E+04  0.12699999809E+01 0.  1.
</event>
<event>
 5   0  0.4768570E-06  0.3030243E+04  0.7818609E-02  0.8235147E-01
        2   -1    0    0  501    0  0.00000000000E+00  0.00000000000E+00  0.15190650732E+04  0.15190650732E+04  0.25500000920E-02 0.  1.
       -2   -1    0    0    0  501  0.00000000000E+00  0.00000000000E+00 -0.15111884340E+04  0.15111884340E+04  0.25500000920E-02 0. -1.
    10030    2    1    2    0    0  0.00000000000E+00  0.00000000000E+00  0.78766392198E+01  0.30302535072E+04  0.30302432702E+04 0.  0.
        1    1    3    3  502    0 -0.86914143876E+03 -0.97373546220E+03  0.77337316303E+03  0.15171267713E+04  0.50400001928E-02 0.  1.
       -1    1    3    3    0  502  0.86914143876E+03  0.97373546220E+03 -0.76549652381E+03  0.15131267359E+04  0.50400001928E-02 0. -1.
</event>
<event>
 5   0  0.1672907E-06  0.2965173E+04  0.7818609E-02  0.8253747E-01
       -1   -1    0    0    0  501  0.00000000000E+00  0.00000000000E+00  0.13084722936E+04  0.13084722936E+04  0.50400001928E-02 0. -1.
        1   -1    0    0  501    0  0.00000000000E+00  0.00000000000E+00 -0.16798692298E+04  0.16798692298E+04  0.50400001928E-02 0.  1.
    10030    2    1    2    0    0  0.00000000000E+00  0.00000000000E+00 -0.37139693625E+03  0.29883415234E+04  0.29651727397E+04 0.  0.
        5    1    3    3  502    0 -0.54245708230E+01  0.33800254739E+03 -0.16405028861E+04  0.16749767035E+04  0.46999998093E+01 0.  1.
       -5    1    3    3    0  502  0.54245708230E+01 -0.33800254739E+03  0.12691059499E+04  0.13133648199E+04  0.46999998093E+01 0. -1.
</event>
<event>
 5   0  0.5003556E-06  0.2793781E+04  0.7818609E-02  0.8305202E-01
        2   -1    0    0  501    0  0.00000000000E+00  0.00000000000E+00  0.22237274043E+04  0.22237274043E+04  0.25500000920E-02 0. -1.
       -2   -1    0    0    0  501  0.00000000000E+00  0.00000000000E+00 -0.87749223160E+03  0.87749223160E+03  0.25500000920E-02 0.  1.
    10030    2    1    2    0    0  0.00000000000E+00  0.00000000000E+00  0.13462351727E+04  0.31012196359E+04  0.27937813246E+04 0.  0.
        3    1    3    3  502    0 -0.28042532336E+03 -0.13321657756E+04  0.10206153689E+04  0.17014581268E+04  0.10100000352E+00 0.  1.
       -3    1    3    3    0  502  0.28042532336E+03  0.13321657756E+04  0.32561980374E+03  0.13997615091E+04  0.10100000352E+00 0. -1.
</event>
<event>
 5   0  0.4768570E-06  0.2534286E+04  0.7818609E-02  0.8390872E-01
        2   -1    0    0  501    0  0.00000000000E+00  0.00000000000E+00  0.10763913076E+04  0.10763913076E+04  0.25500000920E-02 0. -1.
       -2   -1    0    0    0  501  0.00000000000E+00  0.00000000000E+00 -0.14916981028E+04  0.14916981028E+04  0.25500000920E-02 0.  1.
    10030    2    1    2    0    0  0.00000000000E+00  0.00000000000E+00 -0.41530679514E+03  0.25680894104E+04  0.25342855967E+04 0.  0.
        1    1    3    3  502    0 -0.96451267888E+03  0.50854790296E+03  0.44651548947E+03  0.11782536907E+04  0.50400001928E-02 0. -1.
       -1    1    3    3    0  502  0.96451267888E+03 -0.50854790296E+03 -0.86182228462E+03  0.13898357196E+04  0.50400001928E-02 0.  1.
</event>
<event>
 5   0  0.1672907E-06  0.3046881E+04  0.7818609E-02  0.8230469E-01
        1   -1    0    0  501    0  0.00000000000E+00  0.00000000000E+00  0.24500269133E+04  0.24500269134E+04  0.50400001928E-02 0.  1.
       -1   -1    0    0    0  501  0.00000000000E+00  0.00000000000E+00 -0.94728371882E+03  0.94728371883E+03  0.50400001928E-02 0. -1.
    10030    2    1    2    0    0  0.00000000000E+00  0.00000000000E+00  0.15027431945E+04  0.33973106322E+04  0.30468807694E+04 0.  0.
        5    1    3    3  502    0 -0.19279392923E+02  0.91720963561E+03 -0.60473470042E+03  0.10988045133E+04  0.46999998093E+01 0. -1.
       -5    1    3    3    0  502  0.19279392923E+02 -0.91720963561E+03  0.21074778950E+04  0.22985061188E+04  0.46999998093E+01 0.  1.
</event>
<event>
 5   0  0.1734885E-06  0.3015433E+04  0.7818609E-02  0.8239338E-01
        1   -1    0    0  501    0  0.00000000000E+00  0.00000000000E+00  0.14717766831E+04  0.14717766831E+04  0.50400001928E-02 0. -1.
       -1   -1    0    0    0  501  0.00000000000E+00  0.00000000000E+00 -0.15445342611E+04  0.15445342611E+04  0.50400001928E-02 0.  1.
    10030    2    1    2    0    0  0.00000000000E+00  0.00000000000E+00 -0.72757577985E+02  0.30163109442E+04  0.30154333100E+04 0.  0.
        2    1    3    3  502    0  0.53877623070E+03  0.89591464645E+03  0.10503381743E+04  0.14819423609E+04  0.25500000920E-02 0.  1.
       -2    1    3    3    0  502 -0.53877623070E+03 -0.89591464645E+03 -0.11230957523E+04  0.15343685833E+04  0.25500000920E-02 0. -1.
</event>
<event>
 5   0  0.4702748E-06  0.2991329E+04  0.7818609E-02  0.8246211E-01
       -2   -1    0    0    0  501  0.00000000000E+00  0.00000000000E+00  0.11862758490E+04  0.11862758490E+04  0.25500000920E-02 0.  1.
        2   -1    0    0  501    0  0.00000000000E+00  0.00000000000E+00 -0.18857436364E+04  0.18857436364E+04  0.25500000920E-02 0. -1.
    10030    2    1    2    0    0  0.00000000000E+00  0.00000000000E+00 -0.69946778743E+03  0.30720194854E+04  0.29913288908E+04 0.  0.
        2    1    3    3  502    0  0.31774032928E+03 -0.14615153996E+04 -0.34450203558E+03  0.15348185015E+04  0.25500000920E-02 0. -1.
       -2    1    3    3    0  502 -0.31774032928E+03  0.14615153996E+04 -0.35496575184E+03  0.15372009839E+04  0.25500000920E-02 0.  1.
</event>
<event>
 5   0  0.4702748E-06  0.2993599E+04  0.7818609E-02  0.8245561E-01
        2   -1    0    0  501    0  0.00000000000E+00  0.00000000000E+00  0.72502099047E+03  0.72502099047E+03  0.25500000920E-02 0. -1.
       -2   -1    0    0    0  501  0.00000000000E+00  0.00000000000E+00 -0.30901299031E+04  0.30901299031E+04  0.25500000920E-02 0.  1.
    10030    2    1    2    0    0  0.00000000000E+00  0.00000000000E+00 -0.23651089126E+04  0.38151508935E+04  0.29935992003E+04 0.  0.
        2    1    3    3  502    0  0.13597046742E+04 -0.49819330344E+03 -0.16651867468E+04  0.22067714586E+04  0.25500000920E-02 0. -1.
       -2    1    3    3    0  502 -0.13597046742E+04  0.49819330344E+03 -0.69992216578E+03  0.16083794350E+04  0.25500000920E-02 0.  1.
</event>
<event>
 5   0  0.1709858E-06  0.3003539E+04  0.7818609E-02  0.8242721E-01
        1   -1    0    0  501    0  0.00000000000E+00  0.00000000000E+00  0.15691407997E+04  0.15691407997E+04  0.50400001928E-02 0. -1.
       -1   -1    0    0    0  501  0.00000000000E+00  0.00000000000E+00 -0.14372903843E+04  0.14372903843E+04  0.50400001928E-02 0.  1.
    10030    2    1    2    0    0  0.00000000000E+00  0.00000000000E+00  0.13185041537E+03  0.30064311840E+04  0.30035385684E+04 0.  0.
        3    1    3    3  502    0  0.10127554121E+04  0.69249583493E+02 -0.10418664219E+04  0.14546321462E+04  0.10100000352E+00 0.  1.
       -3    1    3    3    0  502 -0.10127554121E+04 -0.69249583493E+02  0.11737168372E+04  0.15517990378E+04  0.10100000352E+00 0. -1.
</event>
<event>
 5   0  0.1734885E-06  0.3065072E+04  0.7818609E-02  0.8225390E-01
       -1   -1    0    0    0  501  0.00000000000E+00  0.00000000000E+00  0.13103034119E+04  0.13103034119E+04  0.50400001928E-02 0.  1.
        1   -1    0    0  501    0  0.00000000000E+00  0.00000000000E+00 -0.17924595404E+04  0.17924595404E+04  0.50400001928E-02 0. -1.
    10030    2    1    2    0    0  0.00000000000E+00  0.00000000000E+00 -0.48215612850E+03  0.31027629523E+04  0.30650715172E+04 0.  0.
        2    1    3    3  502    0 -0.97482655791E+03 -0.23503517378E+03 -0.14142677125E+04  0.17336901434E+04  0.25500000920E-02 0. -1.
       -2    1    3    3    0  502  0.97482655791E+03  0.23503517378E+03  0.93211158397E+03  0.13690728088E+04  0.25500000920E-02 0.  1.
</event>
<event>
 5   0  0.4768570E-06  0.2997842E+04  0.7818609E-02  0.8244347E-01
       -2   -1    0    0    0  501  0.00000000000E+00  0.00000000000E+00  0.15772923933E+04  0.15772923933E+04  0.25500000920E-02 0. -1.
        2   -1    0    0  501    0  0.00000000000E+00  0.00000000000E+00 -0.14244434730E+04  0.14244434730E+04  0.25500000920E-02 0.  1.
    10030    2    1    2    0    0  0.00000000000E+00  0.00000000000E+00  0.15284892033E+03  0.30017358663E+04  0.29978417935E+04 0.  0.
        1    1    3    3  502    0 -0.62221842558E+03  0.11422810496E+04 -0.66939345020E+03  0.14628907535E+04  0.50400001928E-02 0.  1.
       -1    1    3    3    0  502  0.62221842558E+03 -0.11422810496E+04  0.82224237053E+03  0.15388451129E+04  0.50400001928E-02 0. -1.
</event>
<event>
 5   0  0.1686012E-06  0.2992473E+04  0.7818609E-02  0.8245884E-01
       -1   -1    0    0    0  501  0.00000000000E+00  0.00000000000E+00  0.11379357554E+04  0.11379357554E+04  0.50400001928E-02 0. -1.
        1   -1    0    0  501    0  0.00000000000E+00  0.00000000000E+00 -0.19673547345E+04  0.19673547346E+04  0.50400001928E-02 0.  1.
    10030    2    1    2    0    0  0.00000000000E+00  0.00000000000E+00 -0.82941897914E+03  0.31052904900E+04  0.29924727541E+04 0.  0.
        4    1    3    3  502    0 -0.76064724956E+03 -0.41481372462E+03  0.85114350671E+03  0.12145375854E+04  0.12699999809E+01 0. -1.
       -4    1    3    3    0  502  0.76064724956E+03  0.41481372462E+03 -0.16805624859E+04  0.18907529046E+04  0.12699999809E+01 0.  1.
</event>
<event>
 5   0  0.4768570E-06  0.2950472E+04  0.7818609E-02  0.8258017E-01
       -2   -1    0    0    0  501  0.00000000000E+00  0.00000000000E+00  0.15627486340E+04  0.15627486340E+04  0.25500000920E-02 0. -1.
        2   -1    0    0  501    0  0.00000000000E+00  0.00000000000E+00 -0.13926239864E+04  0.13926239864E+04  0.25500000920E-02 0.  1.
    10030    2    1    2    0    0  0.00000000000E+00  0.00000000000E+00  0.17012464764E+03  0.29553726205E+04  0.29504719843E+04 0.  0.
        1    1    3    3  502    0  0.72529491410E+03  0.17887469613E+03 -0.11891639595E+04  0.14043360680E+04  0.50400001928E-02 0.  1.
       -1    1    3    3    0  502 -0.72529491410E+03 -0.17887469613E+03  0.13592886072E+04  0.15510365524E+04  0.50400001928E-02 0. -1.
</event>
<event>
 5   0  0.1700885E-06  0.3073957E+04  0.7818609E-02  0.8222922E-01
       -1   -1    0    0    0  501  0.00000000000E+00  0.00000000000E+00  0.16369536674E+04  0.16369536674E+04  0.50400001928E-02 0. -1.
        1   -1    0    0  501    0  0.00000000000E+00  0.00000000000E+00 -0.14431094275E+04  0.14431094275E+04  0.50400001928E-02 0.  1.
    10030    2    1    2    0    0  0.00000000000E+00  0.00000000000E+00  0.19384423984E+03  0.30800630949E+04  0.30739572345E+04 0.  0.
        1    1    3    3  502    0 -0.11386507136E+03 -0.14828094940E+04  0.48578321222E+03  0.15645045795E+04  0.50400001928E-02 0.  1.
       -1    1    3    3    0  502  0.11386507136E+03  0.14828094940E+04 -0.29193897238E+03  0.15155585154E+04  0.50400001928E-02 0. -1.
</event>
<event>
 5   0  0.4532420E-06  0.3054342E+04  0.7818609E-02  0.8228381E-01
        2   -1    0    0  501    0  0.00000000000E+00  0.00000000000E+00  0.18338431191E+04  0.18338431191E+04  0.25500000920E-02 0.  1.
       -2   -1    0    0    0  501  0.00000000000E+00  0.00000000000E+00 -0.12717835885E+04  0.12717835885E+04  0.25500000920E-02 0. -1.
    10030    2    1    2    0    0  0.00000000000E+00  0.00000000000E+00  0.56205953053E+03  0.31056267076E+04  0.30543422092E+04 0.  0.
        4    1    3    3  502    0 -0.61557052929E+03 -0.89055984248E+03 -0.81419402026E+03  0.13545986214E+04  0.12699999809E+01 0. -1.
       -4    1    3    3    0  502  0.61557052929E+03  0.89055984248E+03  0.13762535508E+04  0.17510280862E+04  0.12699999809E+01 0.  1.
</event>
<event>
 5   0  0.1545375E-06  0.3006647E+04  0.7818609E-02  0.8241835E-01
       -3   -1    0    0    0  501  0.00000000000E+00  0.00000000000E+00  0.13609996595E+04  0.13609996632E+04  0.10100000352E+00 0. -1.
        3   -1    0    0  501    0  0.00000000000E+00  0.00000000000E+00 -0.16605306114E+04  0.16605306145E+04  0.10100000352E+00 0.  1.
    10030    2    1    2    0    0  0.00000000000E+00  0.00000000000E+00 -0.29953095198E+03  0.30215302777E+04  0.30066470408E+04 0.  0.
        5    1    3    3  502    0  0.38642913792E+02  0.15008198529E+04 -0.71883389681E+02  0.15030445161E+04  0.46999998093E+01 0.  1.
       -5    1    3    3    0  502 -0.38642913792E+02 -0.15008198529E+04 -0.22764756230E+03  0.15184857616E+04  0.46999998093E+01 0. -1.
</event>
<event>
 5   0  0.5003556E-06  0.3054490E+04  0.7818609E-02  0.8228340E-01
       -2   -1    0    0    0  501  0.00000000000E+00  0.00000000000E+00  0.90183875646E+03  0.90183875646E+03  0.25500000920E-02 0.  1.
        2   -1    0    0  501    0  0.00000000000E+00  0.00000000000E+00 -0.25863577462E+04  0.25863577462E+04  0.25500000920E-02 0. -1.
    10030    2    1    2    0    0  0.00000000000E+00  0.00000000000E+00 -0.16845189897E+04  0.34881965026E+04  0.30544902380E+04 0.  0.
        3    1    3    3  502    0 -0.36187497084E+03 -0.14770983913E+04 -0.10025636623E+04  0.18215123001E+04  0.10100000352E+00 0.  1.
       -3    1    3    3    0  502  0.36187497084E+03  0.14770983913E+04 -0.68195532743E+03  0.16666842026E+04  0.10100000352E+00 0. -1.
</event>
<event>
 5   0  0.4702748E-06  0.2868966E+04  0.7818609E-02  0.8282171E-01
        2   -1    0    0  501    0  0.00000000000E+00  0.00000000000E+00  0.16700176749E+04  0.16700176749E+04  0.25500000920E-02 0. -1.
       -2   -1    0    0    0  501  0.00000000000E+00  0.00000000000E+00 -0.12321676035E+04  0.12321676035E+04  0.25500000920E-02 0.  1.
    10030    2    1    2    0    0  0.00000000000E+00  0.00000000000E+00  0.43785007137E+03  0.29021852785E+04  0.28689661388E+04 0.  0.
        2    1    3    3  502    0  0.41460465980E+03 -0.86202350219E+03  0.13003023463E+04  0.16142390573E+04  0.25500000920E-02 0. -1.
       -2    1    3    3    0  502 -0.41460465980E+03  0.86202350219E+03 -0.86245227489E+03  0.12879462212E+04  0.25500000920E-02 0.  1.
</event>
<event>
 5   0  0.4768570E-06  0.2964400E+04  0.7818609E-02  0.8253970E-01
        2   -1    0    0  501    0  0.00000000000E+00  0.00000000000E+00  0.24389816982E+04  0.24389816982E+04  0.25500000920E-02 0.  1.
       -2   -1    0    0    0  501  0.00000000000E+00  0.00000000000E+00 -0.90075154040E+03  0.90075154040E+03  0.25500000920E-02 0. -1.
    10030    2    1    2    0    0  0.00000000000E+00  0.00000000000E+00  0.15382301578E+04  0.33397332386E+04  0.29643997853E+04 0.  0.
        1    1    3    3  502    0 -0.11825364158E+04 -0.81654603328E+03  0.36014234306E+03  0.14815000190E+04  0.50400001928E-02 0.  1.
       -1    1    3    3    0  502  0.11825364158E+04  0.81654603328E+03  0.11780878148E+04  0.18582332196E+04  0.50400001928E-02 0. -1.
</event>
<event>
 5   0  0.1686012E-06  0.2922622E+04  0.7818609E-02  0.8266178E-01
        1   -1    0    0  501    0  0.00000000000E+00  0.00000000000E+00  0.15692582447E+04  0.15692582447E+04  0.50400001928E-02 0.  1.
       -1   -1    0    0    0  501  0.00000000000E+00  0.00000000000E+00 -0.13607897635E+04  0.13607897635E+04  0.50400001928E-02 0. -1.
    10030    2    1    2    0    0  0.00000000000E+00  0.00000000000E+00  0.20846848125E+03  0.29300480082E+04  0.29226224906E+04 0.  0.
        4    1    3    3  502    0  0.95211202714E+03 -0.81068308460E+03  0.86226677362E+03  0.15189568716E+04  0.12699999809E+01 0.  1.
       -4    1    3    3    0  502 -0.95211202714E+03  0.81068308460E+03 -0.65379829237E+03  0.14110911366E+04  0.12699999809E+01 0. -1.
</event>
<event>
 5   0  0.4702748E-06  0.2995761E+04  0.7818609E-02  0.8244942E-01
       -2   -1    0    0    0  501  0.00000000000E+00  0.00000000000E+00  0.12335002956E+04  0.12335002956E+04  0.25500000920E-02 0.  1.
        2   -1    0    0  501    0  0.00000000000E+00  0.00000000000E+00 -0.18189261691E+04  0.18189261691E+04  0.25500000920E-02 0. -1.
    10030    2    1    2    0    0  0.00000000000E+00  0.00000000000E+00 -0.58542587341E+03  0.30524264647E+04  0.29957609833E+04 0.  0.
        2    1    3    3  502    0  0.26629107941E+02 -0.13465322063E+04 -0.96069550568E+03  0.16543258285E+04  0.25500000920E-02 0. -1.
       -2    1    3    3    0  502 -0.26629107941E+02  0.13465322063E+04  0.37526963227E+03  0.13981006362E+04  0.25500000920E-02 0.  1.
</event>
<event>
 5   0  0.1672907E-06  0.3073884E+04  0.7818609E-02  0.8222942E-01
        1   -1    0    0  501    0  0.00000000000E+00  0.00000000000E+00  0.83736663914E+03  0.83736663915E+03  0.50400001928E-02 0. -1.
       -1   -1    0    0    0  501  0.00000000000E+00  0.00000000000E+00 -0.28209763038E+04  0.28209763038E+04  0.50400001928E-02 0.  1.
    10030    2    1    2    0    0  0.00000000000E+00  0.00000000000E+00 -0.19836096647E+04  0.36583429430E+04  0.30738844784E+04 0.  0.
        5    1    3    3  502    0  0.69570309040E+03 -0.13658167261E+04 -0.85762390523E+03  0.17564165144E+04  0.46999998093E+01 0.  1.
       -5    1    3    3    0  502 -0.69570309040E+03  0.13658167261E+04 -0.11259857594E+04  0.19019264286E+04  0.46999998093E+01 0. -1.
</event>
<event>
 5   0  0.1686012E-06  0.2961288E+04  0.7818609E-02  0.8254873E-01
       -1   -1    0    0    0  501  0.00000000000E+00  0.00000000000E+00  0.76915423352E+03  0.76915423353E+03  0.50400001928E-02 0. -1.
        1   -1    0    0  501    0  0.00000000000E+00  0.00000000000E+00 -0.28502815605E+04  0.28502815605E+04  0.50400001928E-02 0.  1.
    10030    2    1    2    0    0  0.00000000000E+00  0.00000000000E+00 -0.20811273270E+04  0.36194357941E+04  0.29612876449E+04 0.  0.
        4    1    3    3  502    0 -0.74702454816E+03  0.36621335634E+02  0.52129752508E+03  0.91166853644E+03  0.12699999809E+01 0. -1.
       -4    1    3    3    0  502  0.74702454816E+03 -0.36621335634E+02 -0.26024248521E+04  0.27077672576E+04  0.12699999809E+01 0.  1.
</event>
<event>
 5   0  0.1734885E-06  0.2988142E+04  0.7818609E-02  0.8247125E-01
        1   -1    0    0  501    0  0.00000000000E+00  0.00000000000E+00  0.14025376595E+04  0.14025376595E+04  0.50400001928E-02 0.  1.
       -1   -1    0    0    0  501  0.00000000000E+00  0.00000000000E+00 -0.15915776365E+04  0.15915776365E+04  0.50400001928E-02 0. -1.
    10030    2    1    2    0    0  0.00000000000E+00  0.00000000000E+00 -0.18903997704E+03  0.29941152960E+04  0.29881416119E+04 0.  0.
        2    1    3    3  502    0  0.23998687785E+03 -0.14744621912E+04 -0.11937114844E+03  0.14986266800E+04  0.25500000920E-02 0.  1.
       -2    1    3    3    0  502 -0.23998687785E+03  0.14744621912E+04 -0.69668828596E+02  0.14954886160E+04  0.25500000920E-02 0. -1.
</event>
<event>
 5   0  0.1672907E-06  0.2611364E+04  0.7818609E-02  0.8364351E-01
        1   -1    0    0  501    0  0.00000000000E+00  0.00000000000E+00  0.31385467940E+04  0.31385467941E+04  0.50400001928E-02 0. -1.
       -1   -1    0    0    0  501  0.00000000000E+00  0.00000000000E+00 -0.54318290140E+03  0.54318290143E+03  0.50400001928E-02 0.  1.
    10030    2    1    2    0    0  0.00000000000E+00  0.00000000000E+00  0.25953638926E+04  0.36817296955E+04  0.26113635931E+04 0.  0.
        5    1    3    3  502    0 -0.59493751767E+03  0.19256988798E+03 -0.31831584638E+03  0.70169856757E+03  0.46999998093E+01 0.  1.
       -5    1    3    3    0  502  0.59493751767E+03 -0.19256988798E+03  0.29136797390E+04  0.29800311279E+04  0.46999998093E+01 0. -1.
</event>
<event>
 5   0  0.4768570E-06  0.2997692E+04  0.7818609E-02  0.8244390E-01
       -2   -1    0    0    0  501  0.00000000000E+00  0.00000000000E+00  0.14996824730E+04  0.14996824730E+04  0.25500000920E-02 0.  1.
        2   -1    0    0  501    0  0.00000000000E+00  0.00000000000E+00 -0.14980099549E+04  0.14980099549E+04  0.25500000920E-02 0. -1.
    10030    2    1    2    0    0  0.00000000000E+00  0.00000000000E+00  0.16725180296E+01  0.29976924279E+04  0.29976919613E+04 0.  0.
        1    1    3    3  502    0  0.14426935126E+04 -0.29798218084E+03  0.27720801258E+03  0.14990004115E+04  0.50400001928E-02 0. -1.
       -1    1    3    3    0  502 -0.14426935126E+04  0.29798218084E+03 -0.27553549455E+03  0.14986920164E+04  0.50400001928E-02 0.  1.
</event>
<event>
 5   0  0.4532420E-06  0.2970133E+04  0.7818609E-02  0.8252311E-01
       -2   -1    0    0    0  501  0.00000000000E+00  0.00000000000E+00  0.16333265243E+04  0.16333265243E+04  0.25500000920E-02 0. -1.
        2   -1    0    0  501    0  0.00000000000E+00  0.00000000000E+00 -0.13502642837E+04  0.13502642837E+04  0.25500000920E-02 0.  1.
    10030    2    1    2    0    0  0.00000000000E+00  0.00000000000E+00  0.28306224064E+03  0.29835908080E+04  0.29701329730E+04 0.  0.
        4    1    3    3  502    0 -0.33317035335E+03  0.14311174893E+04  0.35772969041E+03  0.15123068131E+04  0.12699999809E+01 0.  1.
       -4    1    3    3    0  502  0.33317035335E+03 -0.14311174893E+04 -0.74667449773E+02  0.14712839949E+04  0.12699999809E+01 0. -1.
</event>
<event>
 5   0  0.4935331E-06  0.2740268E+04  0.7818609E-02  0.8322056E-01
       -2   -1    0    0    0  501  0.00000000000E+00  0.00000000000E+00  0.16930464299E+04  0.16930464299E+04  0.25500000920E-02 0.  1.
        2   -1    0    0  501    0  0.00000000000E+00  0.00000000000E+00 -0.11088103271E+04  0.11088103271E+04  0.25500000920E-02 0. -1.
    10030    2    1    2    0    0  0.00000000000E+00  0.00000000000E+00  0.58423610279E+03  0.28018567570E+04  0.27402681370E+04 0.  0.
        5    1    3    3  502    0  0.93547537941E+03  0.70813171822E+03  0.10156092167E+04  0.15517889312E+04  0.46999998093E+01 0.  1.
       -5    1    3    3    0  502 -0.93547537941E+03 -0.70813171822E+03 -0.43137311389E+03  0.12500678258E+04  0.46999998093E+01 0. -1.
</event>
<event>
 5   0  0.1734885E-06  0.2992411E+04  0.7818609E-02  0.8245901E-01
       -1   -1    0    0    0  501  0.00000000000E+00  0.00000000000E+00  0.17769264981E+04  0.17769264981E+04  0.50400001928E-02 0. -1.
        1   -1    0    0  501    0  0.00000000000E+00  0.00000000000E+00 -0.12598329507E+04  0.12598329507E+04  0.50400001928E-02 0.  1.
    10030    2    1    2    0    0  0.00000000000E+00  0.00000000000E+00  0.51709354742E+03  0.30367594488E+04  0.29924107694E+04 0.  0.
        2    1    3    3  502    0 -0.98452580692E+03 -0.84451530207E+02  0.13986772328E+04  0.17125189420E+04  0.25500000920E-02 0. -1.
       -2    1    3    3    0  502  0.98452580692E+03  0.84451530207E+02 -0.88158368533E+03  0.13242405067E+04  0.25500000920E-02 0.  1.
</event>
<event>
 5   0  0.1734885E-06  0.3050967E+04  0.7818609E-02  0.8229325E-01
       -1   -1    0    0    0  501  0.00000000000E+00  0.00000000000E+00  0.25896915654E+04  0.25896915654E+04  0.50400001928E-02 0.  1.
        1   -1    0    0  501    0  0.00000000000E+00  0.00000000000E+00 -0.89860102429E+03  0.89860102430E+03  0.50400001928E-02 0. -1.
    10030    2    1    2    0    0  0.00000000000E+00  0.00000000000E+00  0.16910905411E+04  0.34882925897E+04  0.30509667277E+04 0.  0.
        2    1    3    3  502    0 -0.87780885876E+03 -0.59475228331E+03  0.20994828060E+04  0.23520430956E+04  0.25500000920E-02 0.  1.
       -2    1    3    3    0  502  0.87780885876E+03  0.59475228331E+03 -0.40839226481E+03  0.11362494942E+04  0.25500000920E-02 0. -1.
</event>
<event>
 5   0  0.1545375E-06  0.3039074E+04  0.7818609E-02  0.8232660E-01
       -3   -1    0    0    0  501  0.00000000000E+00  0.00000000000E+00  0.18310981258E+04  0.18310981286E+04  0.10100000352E+00 0. -1.
        3   -1    0    0  501    0  0.00000000000E+00  0.00000000000E+00 -0.12609879667E+04  0.12609879708E+04  0.10100000352E+00 0.  1.
    10030    2    1    2    0    0  0.00000000000E+00  0.00000000000E+00  0.57011015912E+03  0.30920860994E+04  0.30390740124E+04 0.  0.
        5    1    3    3  502    0  0.10863562434E+04 -0.41989043730E+03 -0.70792638612E+03  0.13629599132E+04  0.46999998093E+01 0.  1.
       -5    1    3    3    0  502 -0.10863562434E+04  0.41989043730E+03  0.12780365452E+04  0.17291261862E+04  0.46999998093E+01 0. -1.
</event>
<event>
 5   0  0.1686012E-06  0.3024897E+04  0.7818609E-02  0.8236657E-01
       -1   -1    0    0    0  501  0.00000000000E+00  0.00000000000E+00  0.94259887410E+03  0.94259887412E+03  0.50400001928E-02 0. -1.
        1   -1    0    0  501    0  0.00000000000E+00  0.00000000000E+00 -0.24268009593E+04  0.24268009593E+04  0.50400001928E-02 0.  1.
    10030    2    1    2    0    0  0.00000000000E+00  0.00000000000E+00 -0.14842020852E+04  0.33693998335E+04  0.30248965946E+04 0.  0.
        4    1    3    3  502    0 -0.43427484064E+03  0.13962425282E+04 -0.11726598104E+04  0.18743586846E+04  0.12699999809E+01 0.  1.
       -4    1    3    3    0  502  0.43427484064E+03 -0.13962425282E+04 -0.31154227480E+03  0.14950411488E+04  0.12699999809E+01 0. -1.
</event>
<event>
 5   0  0.1709858E-06  0.2876123E+04  0.7818609E-02  0.8280017E-01
        1   -1    0    0  501    0  0.00000000000E+00  0.00000000000E+00  0.16129615672E+04  0.16129615672E+04  0.50400001928E-02 0. -1.
       -1   -1    0    0    0  501  0.00000000000E+00  0.00000000000E+00 -0.12821269544E+04  0.12821269544E+04  0.50400001928E-02 0.  1.
    10030    2    1    2    0    0  0.00000000000E+00  0.00000000000E+00  0.33083461287E+03  0.28950885216E+04  0.28761234339E+04 0.  0.
        3    1    3    3  502    0  0.81543752297E+03  0.11437628571E+04  0.47549018596E+03  0.14829776648E+04  0.10100000352E+00 0. -1.
       -3    1    3    3    0  502 -0.81543752297E+03 -0.11437628571E+04 -0.14465557309E+03  0.14121108569E+04  0.10100000352E+00 0.  1.
</event>
<event>
 5   0  0.4532420E-06  0.2969755E+04  0.7818609E-02  0.8252421E-01
        2   -1    0    0  501    0  0.00000000000E+00  0.00000000000E+00  0.18161307967E+04  0.18161307967E+04  0.25500000920E-02 0.  1.
       -2   -1    0    0    0  501  0.00000000000E+00  0.00000000000E+00 -0.12140430034E+04  0.12140430034E+04  0.25500000920E-02 0. -1.
    10030    2    1    2    0    0  0.00000000000E+00  0.00000000000E+00  0.60208779329E+03  0.30301738001E+04  0.29697547959E+04 0.  0.
        4    1    3    3  502    0 -0.71112298242E+03  0.12920935334E+04  0.47676160332E+03  0.15500015595E+04  0.12699999809E+01 0.  1.
       -4    1    3    3    0  502  0.71112298242E+03 -0.12920935334E+04  0.12532618997E+03  0.14801722406E+04  0.12699999809E+01 0. -1.
</event>
<event>
 5   0  0.4935331E-06  0.3031738E+04  0.7818609E-02  0.8234725E-01
        2   -1    0    0  501    0  0.00000000000E+00  0.00000000000E+00  0.13229194034E+04  0.13229194034E+04  0.25500000920E-02 0. -1.
       -2   -1    0    0    0  501  0.00000000000E+00  0.00000000000E+00 -0.17369608615E+04  0.17369608615E+04  0.25500000920E-02 0.  1.
    10030    2    1    2    0    0  0.00000000000E+00  0.00000000000E+00 -0.41404145803E+03  0.30598802649E+04  0.30317382649E+04 0.  0.
        5    1    3    3  502    0 -0.25625047666E+03  0.14377524901E+04  0.20300219033E+03  0.14744587173E+04  0.46999998093E+01 0.  1.
       -5    1    3    3    0  502  0.25625047666E+03 -0.14377524901E+04 -0.61704364836E+03  0.15854215476E+04  0.46999998093E+01 0. -1.
</event>
<event>
 5   0  0.1672907E-06  0.3015293E+04  0.7818609E-02  0.8239377E-01
       -1   -1    0    0    0  501  0.00000000000E+00  0.00000000000E+00  0.15457522209E+04  0.15457522209E+04  0.50400001928E-02 0.  1.
        1   -1    0    0  501    0  0.00000000000E+00  0.00000000000E+00 -0.14704798460E+04  0.14704798460E+04  0.50400001928E-02 0. -1.
    10030    2    1    2    0    0  0.00000000000E+00  0.00000000000E+00  0.75272374924E+02  0.30162320669E+04  0.30152926808E+04 0.  0.
        5    1    3    3  502    0 -0.10675756415E+04 -0.74609974398E+03 -0.72193746893E+03  0.14891602927E+04  0.46999998093E+01 0. -1.
       -5    1    3    3    0  502  0.10675756415E+04  0.74609974398E+03  0.79720984386E+03  0.15270717742E+04  0.46999998093E+01 0.  1.
</event>
<event>
 5   0  0.4768570E-06  0.2984993E+04  0.7818609E-02  0.8248029E-01
       -2   -1    0    0    0  501  0.00000000000E+00  0.00000000000E+00  0.11111333249E+04  0.11111333249E+04  0.25500000920E-02 0. -1.
        2   -1    0    0  501    0  0.00000000000E+00  0.00000000000E+00 -0.20047505126E+04  0.20047505126E+04  0.25500000920E-02 0.  1.
    10030    2    1    2    0    0  0.00000000000E+00  0.00000000000E+00 -0.89361718771E+03  0.31158838376E+04  0.29849925311E+04 0.  0.
        1    1    3    3  502    0  0.63330426788E+03  0.32219232682E+03 -0.18168640970E+04  0.19508657919E+04  0.50400001928E-02 0.  1.
       -1    1    3    3    0  502 -0.63330426788E+03 -0.32219232682E+03  0.92324690926E+03  0.11650180456E+04  0.50400001928E-02 0. -1.
</event>
<event>
 5   0  0.4702748E-06  0.2997155E+04  0.7818609E-02  0.8244544E-01
       -2   -1    0    0    0  501  0.00000000000E+00  0.00000000000E+00  0.14403662216E+04  0.14403662216E+04  0.25500000920E-02 0. -1.
        2   -1    0    0  501    0  0.00000000000E+00  0.00000000000E+00 -0.15591409916E+04  0.15591409916E+04  0.25500000920E-02 0.  1.
    10030    2    1    2    0    0  0.00000000000E+00  0.00000000000E+00 -0.11877477001E+03  0.29995072132E+04  0.29971546634E+04 0.  0.
        2    1    3    3  502    0 -0.22314512250E+03  0.37906435006E+03  0.13743048738E+04  0.14429821251E+04  0.25500000920E-02 0. -1.
       -2    1    3    3    0  502  0.22314512250E+03 -0.37906435006E+03 -0.14930796438E+04  0.15565250881E+04  0.25500000920E-02 0.  1.
</event>
<event>
 5   0  0.4702748E-06  0.3007672E+04  0.7818609E-02  0.8241543E-01
       -2   -1    0    0    0  501  0.00000000000E+00  0.00000000000E+00  0.86761576551E+03  0.86761576551E+03  0.25500000920E-02 0.  1.
        2   -1    0    0  501    0  0.00000000000E+00  0.00000000000E+00 -0.26065952372E+04  0.26065952372E+04  0.25500000920E-02 0. -1.
    10030    2    1    2    0    0  0.00000000000E+00  0.00000000000E+00 -0.17389794717E+04  0.34742110027E+04  0.30076722708E+04 0.  0.
        2    1    3    3  502    0 -0.77017466263E+03 -0.93624941076E+03 -0.18973427214E+04  0.22515864124E+04  0.25500000920E-02 0. -1.
       -2    1    3    3    0  502  0.77017466263E+03  0.93624941076E+03  0.15836324965E+03  0.12226245904E+04  0.25500000920E-02 0.  1.
</event>
<event>
 5   0  0.1686012E-06  0.2962136E+04  0.7818609E-02  0.8254626E-01
       -1   -1    0    0    0  501  0.00000000000E+00  0.00000000000E+00  0.84125435254E+03  0.84125435255E+03  0.50400001928E-02 0. -1.
        1   -1    0    0  501    0  0.00000000000E+00  0.00000000000E+00 -0.26074908946E+04  0.26074908947E+04  0.50400001928E-02 0.  1.
    10030    2    1    2    0    0  0.00000000000E+00  0.00000000000E+00 -0.17662365421E+04  0.34487452472E+04  0.29621364346E+04 0.  0.
        4    1    3    3  502    0  0.12597092406E+04  0.57821037828E+03 -0.14907398268E+04  0.20355592490E+04  0.12699999809E+01 0.  1.
       -4    1    3    3    0  502 -0.12597092406E+04 -0.57821037828E+03 -0.27549671533E+03  0.14131859982E+04  0.12699999809E+01 0. -1.
</event>
<event>
 5   0  0.1700885E-06  0.2983599E+04  0.7818609E-02  0.8248430E-01
       -1   -1    0    0    0  501  0.00000000000E+00  0.00000000000E+00  0.84742256819E+03  0.84742256820E+03  0.50400001928E-02 0. -1.
        1   -1    0    0  501    0  0.00000000000E+00  0.00000000000E+00 -0.26261590766E+04  0.26261590766E+04  0.50400001928E-02 0.  1.
    10030    2    1    2    0    0  0.00000000000E+00  0.00000000000E+00 -0.17787365084E+04  0.34735816448E+04  0.29835994833E+04 0.  0.
        1    1    3    3  502    0  0.22340159618E+03 -0.72687831489E+02 -0.26044875750E+04  0.26150616288E+04  0.50400001928E-02 0.  1.
       -1    1    3    3    0  502 -0.22340159618E+03  0.72687831489E+02  0.82575106655E+03  0.85852001605E+03  0.50400001928E-02 0. -1.
</event>
<event>
 5   0  0.4935331E-06  0.2995677E+04  0.7818609E-02  0.8244966E-01
        2   -1    0    0  501    0  0.00000000000E+00  0.00000000000E+00  0.26801621964E+04  0.26801621964E+04  0.25500000920E-02 0. -1.
       -2   -1    0    0    0  501  0.00000000000E+00  0.00000000000E+00 -0.83708376890E+03  0.83708376890E+03  0.25500000920E-02 0.  1.
    10030    2    1    2    0    0  0.00000000000E+00  0.00000000000E+00  0.18430784275E+04  0.35172459653E+04  0.29956770671E+04 0.  0.
        5    1    3    3  502    0 -0.14532718296E+04  0.18847704818E+03  0.55780169055E+03  0.15680202244E+04  0.46999998093E+01 0.  1.
       -5    1    3    3    0  502  0.14532718296E+04 -0.18847704818E+03  0.12852767369E+04  0.19492257408E+04  0.46999998093E+01 0. -1.
</event>
<event>
 5   0  0.1672907E-06  0.3041133E+04  0.7818609E-02  0.8232082E-01
       -1   -1    0    0    0  501  0.00000000000E+00  0.00000000000E+00  0.24844640206E+04  0.24844640206E+04  0.50400001928E-02 0. -1.
        1   -1    0    0  501    0  0.00000000000E+00  0.00000000000E+00 -0.93063205305E+03  0.93063205306E+03  0.50400001928E-02 0.  1.
    10030    2    1    2    0    0  0.00000000000E+00  0.00000000000E+00  0.15538319675E+04  0.34150960736E+04  0.30411325865E+04 0.  0.
        5    1    3    3  502    0  0.81139879098E+03 -0.10629420878E+04  0.15897201453E+04  0.20773651847E+04  0.46999998093E+01 0. -1.
       -5    1    3    3    0  502 -0.81139879098E+03  0.10629420878E+04 -0.35888177774E+02  0.13377308890E+04  0.46999998093E+01 0.  1.
</event>
<event>
 5   0  0.4702748E-06  0.2974950E+04  0.7818609E-02  0.8250920E-01
       -2   -1    0    0    0  501  0.00000000000E+00  0.00000000000E+00  0.13633098552E+04  0.13633098552E+04  0.25500000920E-02 0. -1.
        2   -1    0    0  501    0  0.00000000000E+00  0.00000000000E+00 -0.16229486852E+04  0.16229486852E+04  0.25500000920E-02 0.  1.
    10030    2    1    2    0    0  0.00000000000E+00  0.00000000000E+00 -0.25963882997E+03  0.29862585405E+04  0.29749500413E+04 0.  0.
        2    1    3    3  502    0 -0.11426257998E+03 -0.46825063977E+03  0.12827494842E+04  0.13703141384E+04  0.25500000920E-02 0. -1.
       -2    1    3    3    0  502  0.11426257998E+03  0.46825063977E+03 -0.15423883141E+04  0.16159444020E+04  0.25500000920E-02 0.  1.
</event>
<event>
 5   0  0.4532420E-06  0.3010089E+04  0.7818609E-02  0.8240856E-01
        2   -1    0    0  501    0  0.00000000000E+00  0.00000000000E+00  0.14288207195E+04  0.14288207195E+04  0.25500000920E-02 0.  1.
       -2   -1    0    0    0  501  0.00000000000E+00  0.00000000000E+00 -0.15853343486E+04  0.15853343486E+04  0.25500000920E-02 0. -1.
    10030    2    1    2    0    0  0.00000000000E+00  0.00000000000E+00 -0.15651362907E+03  0.30141550681E+04  0.30100887460E+04 0.  0.
        4    1    3    3  502    0 -0.26835747232E+03 -0.37046393031E+03 -0.15140339777E+04  0.15816319910E+04  0.12699999809E+01 0. -1.
       -4    1    3    3    0  502  0.26835747232E+03  0.37046393031E+03  0.13575203486E+04  0.14325230771E+04  0.12699999809E+01 0.  1.
</event>
<event>
 5   0  0.1686012E-06  0.2958012E+04  0.7818609E-02  0.8255823E-01
       -1   -1    0    0    0  501  0.00000000000E+00  0.00000000000E+00  0.11537312497E+04  0.11537312498E+04  0.50400001928E-02 0. -1.
        1   -1    0    0  501    0  0.00000000000E+00  0.00000000000E+00 -0.18959867799E+04  0.18959867799E+04  0.50400001928E-02 0.  1.
    10030    2    1    2    0    0  0.00000000000E+00  0.00000000000E+00 -0.74225553015E+03  0.30497180297E+04  0.29580123036E+04 0.  0.
        4    1    3    3  502    0  0.11962164403E+04  0.55243535341E+03  0.32151792894E+03  0.13562794636E+04  0.12699999809E+01 0. -1.
       -4    1    3    3    0  502 -0.11962164403E+04 -0.55243535341E+03 -0.10637734591E+04  0.16934385661E+04  0.12699999809E+01 0.  1.
</event>
<event>
 5   0  0.4935331E-06  0.3038573E+04  0.7818609E-02  0.8232801E-01
        2   -1    0    0  501    0  0.00000000000E+00  0.00000000000E+00  0.15280203199E+04  0.15280203199E+04  0.25500000920E-02 0.  1.
       -2   -1    0    0    0  501  0.00000000000E+00  0.00000000000E+00 -0.15106021421E+04  0.15106021421E+04  0.25500000920E-02 0. -1.
    10030    2    1    2    0    0  0.00000000000E+00  0.00000000000E+00  0.17418177853E+02  0.30386224620E+04  0.30385725388E+04 0.  0.
        5    1    3    3  502    0 -0.56028540530E+03  0.68041870677E+03 -0.12287761213E+04  0.15122176424E+04  0.46999998093E+01 0. -1.
       -5    1    3    3    0  502  0.56028540530E+03 -0.68041870677E+03  0.12461942991E+04  0.15264048195E+04  0.46999998093E+01 0.  1.
</event>
<event>
 5   0  0.5003556E-06  0.3019935E+04  0.7818609E-02  0.8238061E-01
       -2   -1    0    0    0  501  0.00000000000E+00  0.00000000000E+00  0.74512211511E+03  0.74512211512E+03  0.25500000920E-02 0.  1.
        2   -1    0    0  501    0  0.00000000000E+00  0.00000000000E+00 -0.30599039594E+04  0.30599039594E+04  0.25500000920E-02 0. -1.
    10030    2    1    2    0    0  0.00000000000E+00  0.00000000000E+00 -0.23147818443E+04  0.38050260745E+04  0.30199351717E+04 0.  0.
        3    1    3    3  502    0 -0.56745217641E+03 -0.13290900434E+04 -0.60599082451E+03  0.15670696237E+04  0.10100000352E+00 0.  1.
       -3    1    3    3    0  502  0.56745217641E+03  0.13290900434E+04 -0.17087910198E+04  0.22379564508E+04  0.10100000352E+00 0. -1.
</event>
<event>
 5   0  0.4532420E-06  0.3008629E+04  0.7818609E-02  0.8241271E-01
        2   -1    0    0  501    0  0.00000000000E+00  0.00000000000E+00  0.24846194935E+04  0.24846194935E+04  0.25500000920E-02 0. -1.
       -2   -1    0    0    0  501  0.00000000000E+00  0.00000000000E+00 -0.91078835880E+03  0.91078835881E+03  0.25500000920E-02 0.  1.
    10030    2    1    2    0    0  0.00000000000E+00  0.00000000000E+00  0.15738311347E+04  0.33954078523E+04  0.30086292631E+04 0.  0.
        4    1    3    3  502    0 -0.91852988021E+03 -0.11127964201E+03  0.21255188744E+04  0.23181700537E+04  0.12699999809E+01 0. -1.
       -4    1    3    3    0  502  0.91852988021E+03  0.11127964201E+03 -0.55168773975E+03  0.10772377986E+04  0.12699999809E+01 0.  1.
</event>
<event>
 5   0  0.1734885E-06  0.3022034E+04  0.7818609E-02  0.8237467E-01
        1   -1    0    0  501    0  0.00000000000E+00  0.00000000000E+00  0.17237927933E+04  0.17237927933E+04  0.50400001928E-02 0. -1.
       -1   -1    0    0    0  501  0.00000000000E+00  0.00000000000E+00 -0.13245054210E+04  0.13245054210E+04  0.50400001928E-02 0.  1.
    10030    2    1    2    0    0  0.00000000000E+00  0.00000000000E+00  0.39928737237E+03  0.30482982143E+04  0.30220343475E+04 0.  0.
        2    1    3    3  502    0  0.29457439226E+03 -0.70645442294E+03  0.15137788751E+04  0.16962837048E+04  0.25500000920E-02 0. -1.
       -2    1    3    3    0  502 -0.29457439226E+03  0.70645442294E+03 -0.11144915028E+04  0.13520145095E+04  0.25500000920E-02 0.  1.
</event>
<event>
 5   0  0.4935331E-06  0.3045217E+04  0.7818609E-02  0.8230936E-01
       -2   -1    0    0    0  501  0.00000000000E+00  0.00000000000E+00  0.12913842004E+04  0.12913842004E+04  0.25500000920E-02 0.  1.
        2   -1    0    0  501    0  0.00000000000E+00  0.00000000000E+00 -0.17952336069E+04  0.17952336069E+04  0.25500000920E-02 0. -1.
    10030    2    1    2    0    0  0.00000000000E+00  0.00000000000E+00 -0.50384940653E+03  0.30866178073E+04  0.30452167844E+04 0.  0.
        5    1    3    3  502    0 -0.19159678626E+03  0.14513401462E+04 -0.67620451066E+03  0.16125669532E+04  0.46999998093E+01 0.  1.
       -5    1    3    3    0  502  0.19159678626E+03 -0.14513401462E+04  0.17235510412E+03  0.14740508540E+04  0.46999998093E+01 0. -1.
</event>
<event>
 5   0  0.1672907E-06  0.3012825E+04  0.7818609E-02  0.8240078E-01
       -1   -1    0    0    0  501  0.00000000000E+00  0.00000000000E+00  0.19028053411E+04  0.19028053411E+04  0.50400001928E-02 0. -1.
        1   -1    0    0  501    0  0.00000000000E+00  0.00000000000E+00 -0.11925966125E+04  0.11925966126E+04  0.50400001928E-02 0.  1.
    10030    2    1    2    0    0  0.00000000000E+00  0.00000000000E+00  0.71020872855E+03  0.30954019536E+04  0.30128253877E+04 0.  0.
        5    1    3    3  502    0  0.12645334252E+04 -0.59075324638E+03  0.93740378948E+03  0.16813037013E+04  0.46999998093E+01 0. -1.
       -5    1    3    3    0  502 -0.12645334252E+04  0.59075324638E+03 -0.22719506093E+03  0.14140982523E+04  0.46999998093E+01 0.  1.
</event>
<event>
 5   0  0.4532420E-06  0.2992593E+04  0.7818609E-02  0.8245849E-01
       -2   -1    0    0    0  501  0.00000000000E+00  0.00000000000E+00  0.87260671791E+03  0.87260671791E+03  0.25500000920E-02 0. -1.
        2   -1    0    0  501    0  0.00000000000E+00  0.00000000000E+00 -0.25657637626E+04  0.25657637626E+04  0.25500000920E-02 0.  1.
    10030    2    1    2    0    0  0.00000000000E+00  0.00000000000E+00 -0.16931570447E+04  0.34383704805E+04  0.29925926524E+04 0.  0.
        4    1    3    3  502    0  0.36177586688E+03 -0.12848939677E+04 -0.69804127921E+02  0.13366781644E+04  0.12699999809E+01 0. -1.
       -4    1    3    3    0  502 -0.36177586688E+03  0.12848939677E+04 -0.16233529168E+04  0.21016923161E+04  0.12699999809E+01 0.  1.
</event>
<event>
 5   0  0.1700885E-06  0.3000559E+04  0.7818609E-02  0.8243571E-01
        1   -1    0    0  501    0  0.00000000000E+00  0.00000000000E+00  0.20471925569E+04  0.20471925569E+04  0.50400001928E-02 0. -1.
       -1   -1    0    0    0  501  0.00000000000E+00  0.00000000000E+00 -0.10994758832E+04  0.10994758832E+04  0.50400001928E-02 0.  1.
    10030    2    1    2    0    0  0.00000000000E+00  0.00000000000E+00  0.94771667373E+03  0.31466684401E+04  0.30005591776E+04 0.  0.
        1    1    3    3  502    0 -0.71064207893E+02 -0.13538057482E+04 -0.20008462187E+03  0.13703554216E+04  0.50400001928E-02 0.  1.
       -1    1    3    3    0  502  0.71064207893E+02  0.13538057482E+04  0.11478012956E+04  0.17763130185E+04  0.50400001928E-02 0. -1.
</event>
<event>
 5   0  0.4935331E-06  0.2960715E+04  0.7818609E-02  0.8255039E-01
       -2   -1    0    0    0  501  0.00000000000E+00  0.00000000000E+00  0.10288105077E+04  0.10288105077E+04  0.25500000920E-02 0. -1.
        2   -1    0    0  501    0  0.00000000000E+00  0.00000000000E+00 -0.21300895869E+04  0.21300895869E+04  0.25500000920E-02 0.  1.
    10030    2    1    2    0    0  0.00000000000E+00  0.00000000000E+00 -0.11012790792E+04  0.31589000947E+04  0.29607151497E+04 0.  0.
        5    1    3    3  502    0 -0.15837587941E+03  0.28822340926E+03 -0.20906127692E+04  0.21163268872E+04  0.46999998093E+01 0.  1.
       -5    1    3    3    0  502  0.15837587941E+03 -0.28822340926E+03  0.98933368999E+03  0.10425732075E+04  0.46999998093E+01 0. -1.
</event>
<event>
 5   0  0.1672907E-06  0.3049126E+04  0.7818609E-02  0.8229840E-01
       -1   -1    0    0    0  501  0.00000000000E+00  0.00000000000E+00  0.10343854201E+04  0.10343854201E+04  0.50400001928E-02 0. -1.
        1   -1    0    0  501    0  0.00000000000E+00  0.00000000000E+00 -0.22470278778E+04  0.22470278778E+04  0.50400001928E-02 0.  1.
    10030    2    1    2    0    0  0.00000000000E+00  0.00000000000E+00 -0.12126424577E+04  0.32814132980E+04  0.30491263506E+04 0.  0.
        5    1    3    3  502    0 -0.45113991290E+03 -0.14168461919E+04 -0.96854932280E+03  0.17745676187E+04  0.46999998093E+01 0.  1.
       -5    1    3    3    0  502  0.45113991290E+03  0.14168461919E+04 -0.24409313487E+03  0.15068456793E+04  0.46999998093E+01 0. -1.
</event>
<event>
 5   0  0.1672907E-06  0.2995441E+04  0.7818609E-02  0.8245034E-01
        1   -1    0    0  501    0  0.00000000000E+00  0.00000000000E+00  0.12472880965E+04  0.12472880965E+04  0.50400001928E-02 0.  1.
       -1   -1    0    0    0  501  0.00000000000E+00  0.00000000000E+00 -0.17984348868E+04  0.17984348868E+04  0.50400001928E-02 0. -1.
    10030    2    1    2    0    0  0.00000000000E+00  0.00000000000E+00 -0.55114679027E+03  0.30457229833E+04  0.29954408200E+04 0.  0.
        5    1    3    3  502    0  0.19720289895E+03 -0.10917982257E+04 -0.12985593837E+04  0.17079786041E+04  0.46999998093E+01 0. -1.
       -5    1    3    3    0  502 -0.19720289895E+03  0.10917982257E+04  0.74741259346E+03  0.13377443791E+04  0.46999998093E+01 0.  1.
</event>
<event>
 5   0  0.4935331E-06  0.3240997E+04  0.7818609E-02  0.8178073E-01
       -2   -1    0    0    0  501  0.00000000000E+00  0.00000000000E+00  0.10873748797E+04  0.10873748797E+04  0.25500000920E-02 0. -1.
        2   -1    0    0  501    0  0.00000000000E+00  0.00000000000E+00 -0.24150045500E+04  0.24150045500E+04  0.25500000920E-02 0.  1.
    10030    2    1    2    0    0  0.00000000000E+00  0.00000000000E+00 -0.13276296703E+04  0.35023794297E+04  0.32409969343E+04 0.  0.
        5    1    3    3  502    0 -0.10837360011E+04  0.91102190785E+03  0.18815085207E+03  0.14282392901E+04  0.46999998093E+01 0. -1.
       -5    1    3    3    0  502  0.10837360011E+04 -0.91102190785E+03 -0.15157805224E+04  0.20741401396E+04  0.46999998093E+01 0.  1.
</event>
<event>
 5   0  0.1700885E-06  0.2970818E+04  0.7818609E-02  0.8252114E-01
       -1   -1    0    0    0  501  0.00000000000E+00  0.00000000000E+00  0.21354322988E+04  0.21354322988E+04  0.50400001928E-02 0.  1.
        1   -1    0    0  501    0  0.00000000000E+00  0.00000000000E+00 -0.10332517959E+04  0.10332517959E+04  0.50400001928E-02 0. -1.
    10030    2    1    2    0    0  0.00000000000E+00  0.00000000000E+00  0.11021805029E+04  0.31686840947E+04  0.29708175695E+04 0.  0.
        1    1    3    3  502    0  0.71402202006E+03 -0.13016160304E+04  0.49875575003E+03  0.15661382551E+04  0.50400001928E-02 0. -1.
       -1    1    3    3    0  502 -0.71402202006E+03  0.13016160304E+04  0.60342475291E+03  0.16025458397E+04  0.50400001928E-02 0.  1.
</event>
<event>
 5   0  0.1686012E-06  0.3004040E+04  0.7818609E-02  0.8242578E-01
       -1   -1    0    0    0  501  0.00000000000E+00  0.00000000000E+00  0.14882798248E+04  0.14882798248E+04  0.50400001928E-02 0.  1.
        1   -1    0    0  501    0  0.00000000000E+00  0.00000000000E+00 -0.15158875127E+04  0.15158875127E+04  0.50400001928E-02 0. -1.
    10030    2    1    2    0    0  0.00000000000E+00  0.00000000000E+00 -0.27607687928E+02  0.30041673375E+04  0.30040404803E+04 0.  0.
        4    1    3    3  502    0  0.26227594001E+03 -0.53275255620E+02 -0.14918501097E+04  0.15156666139E+04  0.12699999809E+01 0. -1.
       -4    1    3    3    0  502 -0.26227594001E+03  0.53275255620E+02  0.14642424218E+04  0.14885007236E+04  0.12699999809E+01 0.  1.
</event>
<event>
 5   0  0.1672907E-06  0.2951535E+04  0.7818609E-02  0.8257707E-01
       -1   -1    0    0    0  501  0.00000000000E+00  0.00000000000E+00  0.12874763983E+04  0.12874763984E+04  0.50400001928E-02 0. -1.
        1   -1    0    0  501    0  0.00000000000E+00  0.00000000000E+00 -0.16915955512E+04  0.16915955512E+04  0.50400001928E-02 0.  1.
    10030    2    1    2    0    0  0.00000000000E+00  0.00000000000E+00 -0.40411915288E+03  0.29790719496E+04  0.29515347518E+04 0.  0.
        5    1    3    3  502    0  0.21024126725E+03 -0.14606316380E+04 -0.21706724049E+03  0.14915718049E+04  0.46999998093E+01 0.  1.
       -5    1    3    3    0  502 -0.21024126725E+03  0.14606316380E+04 -0.18705191239E+03  0.14875001447E+04  0.46999998093E+01 0. -1.
</event>
<event>
 5   0  0.1686012E-06  0.2984941E+04  0.7818609E-02  0.8248044E-01
       -1   -1    0    0    0  501  0.00000000000E+00  0.00000000000E+00  0.10138587880E+04  0.10138587880E+04  0.50400001928E-02 0.  1.
        1   -1    0    0  501    0  0.00000000000E+00  0.00000000000E+00 -0.21970199612E+04  0.21970199612E+04  0.50400001928E-02 0. -1.
    10030    2    1    2    0    0  0.00000000000E+00  0.00000000000E+00 -0.11831611732E+04  0.32108787492E+04  0.29849408671E+04 0.  0.
        4    1    3    3  502    0 -0.54902115063E+03 -0.11053693918E+04 -0.14942659270E+04  0.19380655277E+04  0.12699999809E+01 0. -1.
       -4    1    3    3    0  502  0.54902115063E+03  0.11053693918E+04  0.31110475374E+03  0.12728132215E+04  0.12699999809E+01 0.  1.
</event>
<event>
 5   0  0.1686012E-06  0.2993744E+04  0.7818609E-02  0.8245519E-01
       -1   -1    0    0    0  501  0.00000000000E+00  0.00000000000E+00  0.18619280923E+04  0.18619280923E+04  0.50400001928E-02 0.  1.
        1   -1    0    0  501    0  0.00000000000E+00  0.00000000000E+00 -0.12033904649E+04  0.12033904649E+04  0.50400001928E-02 0. -1.
    10030    2    1    2    0    0  0.00000000000E+00  0.00000000000E+00  0.65853762740E+03  0.30653185572E+04  0.29937444865E+04 0.  0.
        4    1    3    3  502    0 -0.48611762883E+03 -0.11894611441E+04 -0.45687424902E+03  0.13637682555E+04  0.12699999809E+01 0. -1.
       -4    1    3    3    0  502  0.48611762883E+03  0.11894611441E+04  0.11154118764E+04  0.17015503017E+04  0.12699999809E+01 0.  1.
</event>
<event>
 5   0  0.1686012E-06  0.3008848E+04  0.7818609E-02  0.8241209E-01
        1   -1    0    0  501    0  0.00000000000E+00  0.00000000000E+00  0.79381683537E+03  0.79381683538E+03  0.50400001928E-02 0.  1.
       -1   -1    0    0    0  501  0.00000000000E+00  0.00000000000E+00 -0.28511517360E+04  0.28511517360E+04  0.50400001928E-02 0. -1.
    10030    2    1    2    0    0  0.00000000000E+00  0.00000000000E+00 -0.20573349007E+04  0.36449685714E+04  0.30088484497E+04 0.  0.
        4    1    3    3  502    0  0.16838514249E+03  0.13984667662E+04 -0.16688042414E+04  0.21837976237E+04  0.12699999809E+01 0. -1.
       -4    1    3    3    0  502 -0.16838514249E+03 -0.13984667662E+04 -0.38853065928E+03  0.14611709477E+04  0.12699999809E+01 0.  1.
</event>
<event>
 5   0  0.1709858E-06  0.2489874E+04  0.7818609E-02  0.8406602E-01
       -1   -1    0    0    0  501  0.00000000000E+00  0.00000000000E+00  0.58250851112E+03  0.58250851114E+03  0.50400001928E-02 0.  1.
        1   -1    0    0  501    0  0.00000000000E+00  0.00000000000E+00 -0.26606780315E+04  0.26606780315E+04  0.50400001928E-02 0. -1.
    10030    2    1    2    0    0  0.00000000000E+00  0.00000000000E+00 -0.20781695204E+04  0.32431865427E+04  0.24898735701E+04 0.  0.
        3    1    3    3  502    0  0.97913078351E+03  0.60145565962E+03 -0.41518937432E+03  0.12218134999E+04  0.10100000352E+00 0.  1.
       -3    1    3    3    0  502 -0.97913078351E+03 -0.60145565962E+03 -0.16629801461E+04  0.20213730428E+04  0.10100000352E+00 0. -1.
</event>
<event>
 5   0  0.4702748E-06  0.2996039E+04  0.7818609E-02  0.8244863E-01
       -2   -1    0    0    0  501  0.00000000000E+00  0.00000000000E+00  0.83904464272E+03  0.83904464272E+03  0.25500000920E-02 0. -1.
        2   -1    0    0  501    0  0.00000000000E+00  0.00000000000E+00 -0.26745443759E+04  0.26745443759E+04  0.25500000920E-02 0.  1.
    10030    2    1    2    0    0  0.00000000000E+00  0.00000000000E+00 -0.18354997332E+04  0.35135890186E+04  0.29960388050E+04 0.  0.
        2    1    3    3  502    0  0.43180908906E+03 -0.95864012602E+03 -0.21691362754E+04  0.24105190649E+04  0.25500000920E-02 0.  1.
       -2    1    3    3    0  502 -0.43180908906E+03  0.95864012602E+03  0.33363654225E+03  0.11030699538E+04  0.25500000920E-02 0. -1.
</event>
<event>
 5   0  0.1709858E-06  0.2991953E+04  0.7818609E-02  0.8246032E-01
       -1   -1    0    0    0  501  0.00000000000E+00  0.00000000000E+00  0.13865456126E+04  0.13865456126E+04  0.50400001928E-02 0. -1.
        1   -1    0    0  501    0  0.00000000000E+00  0.00000000000E+00 -0.16140444206E+04  0.16140444207E+04  0.50400001928E-02 0.  1.
    10030    2    1    2    0    0  0.00000000000E+00  0.00000000000E+00 -0.22749880806E+03  0.30005900333E+04  0.29919533486E+04 0.  0.
        3    1    3    3  502    0  0.15051850181E+03  0.62459131431E+03  0.12411411902E+04  0.13975698886E+04  0.10100000352E+00 0. -1.
       -3    1    3    3    0  502 -0.15051850181E+03 -0.62459131431E+03 -0.14686399983E+04  0.16030201446E+04  0.10100000352E+00 0.  1.
</event>
<event>
 5   0  0.1700885E-06  0.3024845E+04  0.7818609E-02  0.8236672E-01
       -1   -1    0    0    0  501  0.00000000000E+00  0.00000000000E+00  0.15239753670E+04  0.15239753670E+04  0.50400001928E-02 0.  1.
        1   -1    0    0  501    0  0.00000000000E+00  0.00000000000E+00 -0.15009575586E+04  0.15009575586E+04  0.50400001928E-02 0. -1.
    10030    2    1    2    0    0  0.00000000000E+00  0.00000000000E+00  0.23017808419E+02  0.30249329256E+04  0.30248453489E+04 0.  0.
        1    1    3    3  502    0 -0.37532441287E+03  0.44096885476E+03  0.14087252218E+04  0.15230983870E+04  0.50400001928E-02 0.  1.
       -1    1    3    3    0  502  0.37532441287E+03 -0.44096885476E+03 -0.13857074134E+04  0.15018345386E+04  0.50400001928E-02 0. -1.
</event>
<event>
 5   0  0.4935331E-06  0.2725964E+04  0.7818609E-02  0.8326630E-01
       -2   -1    0    0    0  501  0.00000000000E+00  0.00000000000E+00  0.11151095196E+04  0.11151095196E+04  0.25500000920E-02 0. -1.
        2   -1    0    0  501    0  0.00000000000E+00  0.00000000000E+00 -0.16659524718E+04  0.16659524718E+04  0.25500000920E-02 0.  1.
    10030    2    1    2    0    0  0.00000000000E+00  0.00000000000E+00 -0.55084295222E+03  0.27810619914E+04  0.27259636538E+04 0.  0.
        5    1    3    3  502    0  0.13373986110E+04  0.22397451315E+03 -0.13517382972E+03  0.13627522450E+04  0.46999998093E+01 0. -1.
       -5    1    3    3    0  502 -0.13373986110E+04 -0.22397451315E+03 -0.41566912249E+03  0.14183097463E+04  0.46999998093E+01 0.  1.
</event>
<event>
 5   0  0.1734885E-06  0.3043414E+04  0.7818609E-02  0.8231441E-01
        1   -1    0    0  501    0  0.00000000000E+00  0.00000000000E+00  0.12033881603E+04  0.12033881603E+04  0.50400001928E-02 0.  1.
       -1   -1    0    0    0  501  0.00000000000E+00  0.00000000000E+00 -0.19242270954E+04  0.19242270954E+04  0.50400001928E-02 0. -1.
    10030    2    1    2    0    0  0.00000000000E+00  0.00000000000E+00 -0.72083893514E+03  0.31276152557E+04  0.30434139412E+04 0.  0.
        2    1    3    3  502    0 -0.19085229324E+03 -0.10693953091E+04 -0.14555290162E+04  0.18162036345E+04  0.25500000920E-02 0. -1.
       -2    1    3    3    0  502  0.19085229324E+03  0.10693953091E+04  0.73469008107E+03  0.13114116212E+04  0.25500000920E-02 0.  1.
</event>
<event>
 5   0  0.1672907E-06  0.2947473E+04  0.7818609E-02  0.8258891E-01
       -1   -1    0    0    0  501  0.00000000000E+00  0.00000000000E+00  0.83125040690E+03  0.83125040691E+03  0.50400001928E-02 0.  1.
        1   -1    0    0  501    0  0.00000000000E+00  0.00000000000E+00 -0.26128094764E+04  0.26128094764E+04  0.50400001928E-02 0. -1.
    10030    2    1    2    0    0  0.00000000000E+00  0.00000000000E+00 -0.17815590695E+04  0.34440598833E+04  0.29474727754E+04 0.  0.
        5    1    3    3  502    0 -0.17093506409E+03 -0.13676574267E+04 -0.15003753678E+04  0.20373644660E+04  0.46999998093E+01 0. -1.
       -5    1    3    3    0  502  0.17093506409E+03  0.13676574267E+04 -0.28118370170E+03  0.14066954173E+04  0.46999998093E+01 0.  1.
</event>
<event>
 5   0  0.1686012E-06  0.2990797E+04  0.7818609E-02  0.8246364E-01
       -1   -1    0    0    0  501  0.00000000000E+00  0.00000000000E+00  0.11189225561E+04  0.11189225561E+04  0.50400001928E-02 0.  1.
        1   -1    0    0  501    0  0.00000000000E+00  0.00000000000E+00 -0.19985445945E+04  0.19985445945E+04  0.50400001928E-02 0. -1.
    10030    2    1    2    0    0  0.00000000000E+00  0.00000000000E+00 -0.87962203841E+03  0.31174671507E+04  0.29907969682E+04 0.  0.
        4    1    3    3  502    0 -0.80577797725E+03  0.16369692544E+03 -0.17417683921E+04  0.19260928266E+04  0.12699999809E+01 0. -1.
       -4    1    3    3    0  502  0.80577797725E+03 -0.16369692544E+03  0.86214635370E+03  0.11913743241E+04  0.12699999809E+01 0.  1.
</event>
<event>
 5   0  0.1686012E-06  0.3004053E+04  0.7818609E-02  0.8242575E-01
        1   -1    0    0  501    0  0.00000000000E+00  0.00000000000E+00  0.17885091824E+04  0.17885091824E+04  0.50400001928E-02 0.  1.
       -1   -1    0    0    0  501  0.00000000000E+00  0.00000000000E+00 -0.12614321781E+04  0.12614321781E+04  0.50400001928E-02 0. -1.
    10030    2    1    2    0    0  0.00000000000E+00  0.00000000000E+00  0.52707700437E+03  0.30499413605E+04  0.30040526184E+04 0.  0.
        4    1    3    3  502    0 -0.31774823974E+03  0.90931467957E+03 -0.90657018206E+03  0.13227578154E+04  0.12699999809E+01 0. -1.
       -4    1    3    3    0  502  0.31774823974E+03 -0.90931467957E+03  0.14336471864E+04  0.17271835451E+04  0.12699999809E+01 0.  1.
</event>
<event>
 5   0  0.4532420E-06  0.3073278E+04  0.7818609E-02  0.8223110E-01
       -2   -1    0    0    0  501  0.00000000000E+00  0.00000000000E+00  0.25510806361E+04  0.25510806361E+04  0.25500000920E-02 0. -1.
        2   -1    0    0  501    0  0.00000000000E+00  0.00000000000E+00 -0.92559160447E+03  0.92559160447E+03  0.25500000920E-02 0.  1.
    10030    2    1    2    0    0  0.00000000000E+00  0.00000000000E+00  0.16254890316E+04  0.34766722405E+04  0.30732776113E+04 0.  0.
        4    1    3    3  502    0  0.32561993993E+03 -0.52201198504E+03  0.24056646581E+04  0.24830926117E+04  0.12699999809E+01 0. -1.
       -4    1    3    3    0  502 -0.32561993993E+03  0.52201198504E+03 -0.78017562653E+03  0.99357962889E+03  0.12699999809E+01 0.  1.
</event>
<event>
 5   0  0.1709858E-06  0.2994389E+04  0.7818609E-02  0.8245335E-01
       -1   -1    0    0    0  501  0.00000000000E+00  0.00000000000E+00  0.15593505201E+04  0.15593505201E+04  0.50400001928E-02 0. -1.
        1   -1    0    0  501    0  0.00000000000E+00  0.00000000000E+00 -0.14375156135E+04  0.14375156135E+04  0.50400001928E-02 0.  1.
    10030    2    1    2    0    0  0.00000000000E+00  0.00000000000E+00  0.12183490654E+03  0.29968661336E+04  0.29943885650E+04 0.  0.
        3    1    3    3  502    0 -0.14072535024E+03 -0.14898602671E+04  0.15015905762E+02  0.14965669805E+04  0.10100000352E+00 0. -1.
       -3    1    3    3    0  502  0.14072535024E+03  0.14898602671E+04  0.10681900078E+03  0.15002991531E+04  0.10100000352E+00 0.  1.
</event>
<event>
 5   0  0.4702748E-06  0.3475473E+04  0.7818609E-02  0.8119627E-01
       -2   -1    0    0    0  501  0.00000000000E+00  0.00000000000E+00  0.12165453630E+04  0.12165453630E+04  0.25500000920E-02 0. -1.
        2   -1    0    0  501    0  0.00000000000E+00  0.00000000000E+00 -0.24822159230E+04  0.24822159230E+04  0.25500000920E-02 0.  1.
    10030    2    1    2    0    0  0.00000000000E+00  0.00000000000E+00 -0.12656705600E+04  0.36987612860E+04  0.34754730735E+04 0.  0.
        2    1    3    3  502    0 -0.15196913515E+04  0.67208333624E+03 -0.91667631438E+02  0.16641997384E+04  0.25500000920E-02 0.  1.
       -2    1    3    3    0  502  0.15196913515E+04 -0.67208333624E+03 -0.11740029286E+04  0.20345615476E+04  0.25500000920E-02 0. -1.
</event>
<event>
 5   0  0.4935331E-06  0.2418324E+04  0.7818609E-02  0.8432675E-01
       -2   -1    0    0    0  501  0.00000000000E+00  0.00000000000E+00  0.72022122621E+03  0.72022122621E+03  0.25500000920E-02 0.  1.
        2   -1    0    0  501    0  0.00000000000E+00  0.00000000000E+00 -0.20300331425E+04  0.20300331425E+04  0.25500000920E-02 0. -1.
    10030    2    1    2    0    0  0.00000000000E+00  0.00000000000E+00 -0.13098119163E+04  0.27502543687E+04  0.24183241794E+04 0.  0.
        5    1    3    3  502    0  0.29358806373E+03 -0.72513706036E+03 -0.17034248975E+04  0.18744855771E+04  0.46999998093E+01 0. -1.
       -5    1    3    3    0  502 -0.29358806373E+03  0.72513706036E+03  0.39361298115E+03  0.87576879163E+03  0.46999998093E+01 0.  1.
</event>
<event>
 5   0  0.5003556E-06  0.3033947E+04  0.7818609E-02  0.8234103E-01
       -2   -1    0    0    0  501  0.00000000000E+00  0.00000000000E+00  0.97688879691E+03  0.97688879691E+03  0.25500000920E-02 0. -1.
        2   -1    0    0  501    0  0.00000000000E+00  0.00000000000E+00 -0.23556508349E+04  0.23556508349E+04  0.25500000920E-02 0.  1.
    10030    2    1    2    0    0  0.00000000000E+00  0.00000000000E+00 -0.13787620380E+04  0.33325396318E+04  0.30339472046E+04 0.  0.
        3    1    3    3  502    0  0.48029654219E+03  0.41223442347E+03  0.82491636075E+03  0.10397639159E+04  0.10100000352E+00 0. -1.
       -3    1    3    3    0  502 -0.48029654219E+03 -0.41223442347E+03 -0.22036783987E+04  0.22927757159E+04  0.10100000352E+00 0.  1.
</event>
<event>
 5   0  0.1734885E-06  0.3004357E+04  0.7818609E-02  0.8242488E-01
        1   -1    0    0  501    0  0.00000000000E+00  0.00000000000E+00  0.15520553075E+04  0.15520553075E+04  0.50400001928E-02 0.  1.
       -1   -1    0    0    0  501  0.00000000000E+00  0.00000000000E+00 -0.14539049213E+04  0.14539049213E+04  0.50400001928E-02 0. -1.
    10030    2    1    2    0    0  0.00000000000E+00  0.00000000000E+00  0.98150386185E+02  0.30059602288E+04  0.30043574020E+04 0.  0.
        2    1    3    3  502    0  0.37185043165E+01  0.12812100544E+04  0.83373067765E+03  0.15286006260E+04  0.25500000920E-02 0.  1.
       -2    1    3    3    0  502 -0.37185043165E+01 -0.12812100544E+04 -0.73558029146E+03  0.14773596028E+04  0.25500000920E-02 0. -1.
</event>
<event>
 5   0  0.5003556E-06  0.3031993E+04  0.7818609E-02  0.8234654E-01
       -2   -1    0    0    0  501  0.00000000000E+00  0.00000000000E+00  0.19244520398E+04  0.19244520398E+04  0.25500000920E-02 0.  1.
        2   -1    0    0  501    0  0.00000000000E+00  0.00000000000E+00 -0.11942333941E+04  0.11942333941E+04  0.25500000920E-02 0. -1.
    10030    2    1    2    0    0  0.00000000000E+00  0.00000000000E+00  0.73021864572E+03  0.31186854339E+04  0.30319926723E+04 0.  0.
        3    1    3    3  502    0 -0.90941632880E+01  0.14517456829E+04  0.81416589363E+03  0.16644862102E+04  0.10100000352E+00 0.  1.
       -3    1    3    3    0  502  0.90941632880E+01 -0.14517456829E+04 -0.83947247910E+02  0.14541992237E+04  0.10100000352E+00 0. -1.
</event>
<event>
 5   0  0.1672907E-06  0.2953527E+04  0.7818609E-02  0.8257127E-01
        1   -1    0    0  501    0  0.00000000000E+00  0.00000000000E+00  0.24578353093E+04  0.24578353093E+04  0.50400001928E-02 0. -1.
       -1   -1    0    0    0  501  0.00000000000E+00  0.00000000000E+00 -0.88729734784E+03  0.88729734785E+03  0.50400001928E-02 0.  1.
    10030    2    1    2    0    0  0.00000000000E+00  0.00000000000E+00  0.15705379615E+04  0.33451326572E+04  0.29535272143E+04 0.  0.
        5    1    3    3  502    0  0.11855965740E+04  0.12844470965E+03  0.17717738186E+04  0.21357298129E+04  0.46999998093E+01 0. -1.
       -5    1    3    3    0  502 -0.11855965740E+04 -0.12844470965E+03 -0.20123585706E+03  0.12094028443E+04  0.46999998093E+01 0.  1.
</event>
<event>
 5   0  0.1709858E-06  0.3052150E+04  0.7818609E-02  0.8228994E-01
       -1   -1    0    0    0  501  0.00000000000E+00  0.00000000000E+00  0.10318923332E+04  0.10318923332E+04  0.50400001928E-02 0.  1.
        1   -1    0    0  501    0  0.00000000000E+00  0.00000000000E+00 -0.22569261162E+04  0.22569261162E+04  0.50400001928E-02 0. -1.
    10030    2    1    2    0    0  0.00000000000E+00  0.00000000000E+00 -0.12250337830E+04  0.32888184495E+04  0.30521499019E+04 0.  0.
        3    1    3    3  502    0 -0.47294191974E+02 -0.43126159869E+03 -0.21890752893E+04  0.22316527372E+04  0.10100000352E+00 0. -1.
       -3    1    3    3    0  502  0.47294191974E+02  0.43126159869E+03  0.96404150628E+03  0.10571657122E+04  0.10100000352E+00 0.  1.
</event>
<event>
 5   0  0.1700885E-06  0.2987867E+04  0.7818609E-02  0.8247204E-01
        1   -1    0    0  501    0  0.00000000000E+00  0.00000000000E+00  0.15997930262E+04  0.15997930262E+04  0.50400001928E-02 0.  1.
       -1   -1    0    0    0  501  0.00000000000E+00  0.00000000000E+00 -0.13950788850E+04  0.13950788850E+04  0.50400001928E-02 0. -1.
    10030    2    1    2    0    0  0.00000000000E+00  0.00000000000E+00  0.20471414119E+03  0.29948719113E+04  0.29878671131E+04 0.  0.
        1    1    3    3  502    0 -0.12369888844E+04  0.13268403526E+03 -0.72667987842E+03  0.14407672259E+04  0.50400001928E-02 0. -1.
       -1    1    3    3    0  502  0.12369888844E+04 -0.13268403526E+03  0.93139401961E+03  0.15541046854E+04  0.50400001928E-02 0.  1.
</event>
<event>
 5   0  0.4532420E-06  0.2975762E+04  0.7818609E-02  0.8250686E-01
       -2   -1    0    0    0  501  0.00000000000E+00  0.00000000000E+00  0.12975030612E+04  0.12975030612E+04  0.25500000920E-02 0.  1.
        2   -1    0    0  501    0  0.00000000000E+00  0.00000000000E+00 -0.17061927089E+04  0.17061927089E+04  0.25500000920E-02 0. -1.
    10030    2    1    2    0    0  0.00000000000E+00  0.00000000000E+00 -0.40868964774E+03  0.30036957701E+04  0.29757622639E+04 0.  0.
        4    1    3    3  502    0 -0.10824526276E+04 -0.44545663999E+03 -0.11314728855E+04  0.16279950284E+04  0.12699999809E+01 0.  1.
       -4    1    3    3    0  502  0.10824526276E+04  0.44545663999E+03  0.72278323773E+03  0.13757007417E+04  0.12699999809E+01 0. -1.
</event>
<event>
 5   0  0.1686012E-06  0.3019466E+04  0.7818609E-02  0.8238194E-01
       -1   -1    0    0    0  501  0.00000000000E+00  0.00000000000E+00  0.13169073912E+04  0.13169073912E+04  0.50400001928E-02 0.  1.
        1   -1    0    0  501    0  0.00000000000E+00  0.00000000000E+00 -0.17307930235E+04  0.17307930235E+04  0.50400001928E-02 0. -1.
    10030    2    1    2    0    0  0.00000000000E+00  0.00000000000E+00 -0.41388563229E+03  0.30477004147E+04  0.30194662609E+04 0.  0.
        4    1    3    3  502    0 -0.97464889225E+03 -0.11521798669E+04 -0.25016381532E+03  0.15297197313E+04  0.12699999809E+01 0. -1.
       -4    1    3    3    0  502  0.97464889225E+03  0.11521798669E+04 -0.16372181697E+03  0.15179806834E+04  0.12699999809E+01 0.  1.
</event>
<event>
 5   0  0.1734885E-06  0.3052425E+04  0.7818609E-02  0.8228917E-01
        1   -1    0    0  501    0  0.00000000000E+00  0.00000000000E+00  0.17903341765E+04  0.17903341765E+04  0.50400001928E-02 0.  1.
       -1   -1    0    0    0  501  0.00000000000E+00  0.00000000000E+00 -0.13010554424E+04  0.13010554424E+04  0.50400001928E-02 0. -1.
    10030    2    1    2    0    0  0.00000000000E+00  0.00000000000E+00  0.48927873407E+03  0.30913896189E+04  0.30524246258E+04 0.  0.
        2    1    3    3  502    0 -0.61680304551E+03  0.22396429232E+03 -0.11508901668E+04  0.13248223191E+04  0.25500000920E-02 0. -1.
       -2    1    3    3    0  502  0.61680304551E+03 -0.22396429232E+03  0.16401689009E+04  0.17665672998E+04  0.25500000920E-02 0.  1.
</event>
<event>
 5   0  0.1672907E-06  0.2997760E+04  0.7818609E-02  0.8244371E-01
       -1   -1    0    0    0  501  0.00000000000E+00  0.00000000000E+00  0.34352201346E+04  0.34352201346E+04  0.50400001928E-02 0.  1.
        1   -1    0    0  501    0  0.00000000000E+00  0.00000000000E+00 -0.65400194161E+03  0.65400194163E+03  0.50400001928E-02 0. -1.
    10030    2    1    2    0    0  0.00000000000E+00  0.00000000000E+00  0.27812181930E+04  0.40892220762E+04  0.29977595887E+04 0.  0.
        5    1    3    3  502    0  0.16995652830E+03  0.10516798000E+04 -0.47653777226E+02  0.10663998292E+04  0.46999998093E+01 0. -1.
       -5    1    3    3    0  502 -0.16995652830E+03 -0.10516798000E+04  0.28288719702E+04  0.30228222470E+04  0.46999998093E+01 0.  1.
</event>
<event>
 5   0  0.4702748E-06  0.2980762E+04  0.7818609E-02  0.8249246E-01
       -2   -1    0    0    0  501  0.00000000000E+00  0.00000000000E+00  0.15342764708E+04  0.15342764708E+04  0.25500000920E-02 0. -1.
        2   -1    0    0  501    0  0.00000000000E+00  0.00000000000E+00 -0.14477412781E+04  0.14477412781E+04  0.25500000920E-02 0.  1.
    10030    2    1    2    0    0  0.00000000000E+00  0.00000000000E+00  0.86535192658E+02  0.29820177489E+04  0.29807619018E+04 0.  0.
        2    1    3    3  502    0 -0.10107476645E+04 -0.31852671130E+03  0.10916429199E+04  0.15214316849E+04  0.25500000920E-02 0. -1.
       -2    1    3    3    0  502  0.10107476645E+04  0.31852671130E+03 -0.10051077273E+04  0.14605860640E+04  0.25500000920E-02 0.  1.
</event>
<event>
 5   0  0.4532420E-06  0.2743715E+04  0.7818609E-02  0.8320959E-01
       -2   -1    0    0    0  501  0.00000000000E+00  0.00000000000E+00  0.83125436199E+03  0.83125436199E+03  0.25500000920E-02 0. -1.
        2   -1    0    0  501    0  0.00000000000E+00  0.00000000000E+00 -0.22640399310E+04  0.22640399310E+04  0.25500000920E-02 0.  1.
    10030    2    1    2    0    0  0.00000000000E+00  0.00000000000E+00 -0.14327855691E+04  0.30952942930E+04  0.27437150496E+04 0.  0.
        4    1    3    3  502    0  0.24816051922E+03 -0.11902202032E+04 -0.14332576945E+04  0.18794778549E+04  0.12699999809E+01 0.  1.
       -4    1    3    3    0  502 -0.24816051922E+03  0.11902202032E+04  0.47212539765E+00  0.12158164381E+04  0.12699999809E+01 0. -1.
</event>
<event>
 5   0  0.4702748E-06  0.3007971E+04  0.7818609E-02  0.8241458E-01
        2   -1    0    0  501    0  0.00000000000E+00  0.00000000000E+00  0.16902188350E+04  0.16902188350E+04  0.25500000920E-02 0.  1.
       -2   -1    0    0    0  501  0.00000000000E+00  0.00000000000E+00 -0.13382721080E+04  0.13382721080E+04  0.25500000920E-02 0. -1.
    10030    2    1    2    0    0  0.00000000000E+00  0.00000000000E+00  0.35194672705E+03  0.30284909430E+04  0.30079712255E+04 0.  0.
        2    1    3    3  502    0  0.11860967463E+04  0.92464464303E+03  0.18946311317E+03  0.15158131411E+04  0.25500000920E-02 0. -1.
       -2    1    3    3    0  502 -0.11860967463E+04 -0.92464464303E+03  0.16248361388E+03  0.15126778019E+04  0.25500000920E-02 0.  1.
</event>
<event>
 5   0  0.1686012E-06  0.3071568E+04  0.7818609E-02  0.8223584E-01
       -1   -1    0    0    0  501  0.00000000000E+00  0.00000000000E+00  0.11056753548E+04  0.11056753548E+04  0.50400001928E-02 0. -1.
        1   -1    0    0  501    0  0.00000000000E+00  0.00000000000E+00 -0.21332055301E+04  0.21332055301E+04  0.50400001928E-02 0.  1.
    10030    2    1    2    0    0  0.00000000000E+00  0.00000000000E+00 -0.10275301753E+04  0.32388808849E+04  0.30715681867E+04 0.  0.
        4    1    3    3  502    0 -0.35048776594E+03 -0.24656452988E+03 -0.20688853846E+04  0.21128000590E+04  0.12699999809E+01 0.  1.
       -4    1    3    3    0  502  0.35048776594E+03  0.24656452988E+03  0.10413552094E+04  0.11260808259E+04  0.12699999809E+01 0. -1.
</event>
<event>
 5   0  0.4935331E-06  0.2929564E+04  0.7818609E-02  0.8264135E-01
        2   -1    0    0  501    0  0.00000000000E+00  0.00000000000E+00  0.14083674715E+04  0.14083674715E+04  0.25500000920E-02 0.  1.
       -2   -1    0    0    0  501  0.00000000000E+00  0.00000000000E+00 -0.15234560197E+04  0.15234560197E+04  0.25500000920E-02 0. -1.
    10030    2    1    2    0    0  0.00000000000E+00  0.00000000000E+00 -0.11508854813E+03  0.29318234912E+04  0.29295637235E+04 0.  0.
        5    1    3    3  502    0  0.41529661935E+03  0.25197972902E+03  0.13254039840E+04  0.14116241981E+04  0.46999998093E+01 0.  1.
       -5    1    3    3    0  502 -0.41529661935E+03 -0.25197972902E+03 -0.14404925321E+04  0.15201992932E+04  0.46999998093E+01 0. -1.
</event>
<event>
 5   0  0.1734885E-06  0.2987091E+04  0.7818609E-02  0.8247427E-01
       -1   -1    0    0    0  501  0.00000000000E+00  0.00000000000E+00  0.10619322370E+04  0.10619322370E+04  0.50400001928E-02 0. -1.
        1   -1    0    0  501    0  0.00000000000E+00  0.00000000000E+00 -0.21005836788E+04  0.21005836788E+04  0.50400001928E-02 0.  1.
    10030    2    1    2    0    0  0.00000000000E+00  0.00000000000E+00 -0.10386514418E+04  0.31625159158E+04  0.29870905745E+04 0.  0.
        2    1    3    3  502    0  0.14851223830E+04  0.11752622509E+03 -0.63175353935E+03  0.16181821407E+04  0.25500000920E-02 0.  1.
       -2    1    3    3    0  502 -0.14851223830E+04 -0.11752622509E+03 -0.40689790249E+03  0.15443337751E+04  0.25500000920E-02 0. -1.
</event>
<event>
 5   0  0.1700885E-06  0.2989092E+04  0.7818609E-02  0.8246852E-01
        1   -1    0    0  501    0  0.00000000000E+00  0.00000000000E+00  0.18051312844E+04  0.18051312844E+04  0.50400001928E-02 0.  1.
       -1   -1    0    0    0  501  0.00000000000E+00  0.00000000000E+00 -0.12373993385E+04  0.12373993385E+04  0.50400001928E-02 0. -1.
    10030    2    1    2    0    0  0.00000000000E+00  0.00000000000E+00  0.56773194592E+03  0.30425306229E+04  0.29890923420E+04 0.  0.
        1    1    3    3  502    0 -0.40771770019E+03  0.42485214271E+03 -0.11143495463E+04  0.12603602571E+04  0.50400001928E-02 0. -1.
       -1    1    3    3    0  502  0.40771770019E+03 -0.42485214271E+03  0.16820814923E+04  0.17821703658E+04  0.50400001928E-02 0.  1.
</event>
<event>
 5   0  0.1672907E-06  0.2996825E+04  0.7818609E-02  0.8244638E-01
        1   -1    0    0  501    0  0.00000000000E+00  0.00000000000E+00  0.13229633986E+04  0.13229633986E+04  0.50400001928E-02 0. -1.
       -1   -1    0    0    0  501  0.00000000000E+00  0.00000000000E+00 -0.16971290292E+04  0.16971290292E+04  0.50400001928E-02 0.  1.
    10030    2    1    2    0    0  0.00000000000E+00  0.00000000000E+00 -0.37416563062E+03  0.30200924278E+04  0.29968247118E+04 0.  0.
        5    1    3    3  502    0 -0.46464700477E+03  0.12640705447E+04 -0.84902837962E+03  0.15920560482E+04  0.46999998093E+01 0.  1.
       -5    1    3    3    0  502  0.46464700477E+03 -0.12640705447E+04  0.47486274900E+03  0.14280363796E+04  0.46999998093E+01 0. -1.
</event>
<event>
 5   0  0.1686012E-06  0.2997296E+04  0.7818609E-02  0.8244503E-01
        1   -1    0    0  501    0  0.00000000000E+00  0.00000000000E+00  0.20623041155E+04  0.20623041155E+04  0.50400001928E-02 0. -1.
       -1   -1    0    0    0  501  0.00000000000E+00  0.00000000000E+00 -0.10890471840E+04  0.10890471840E+04  0.50400001928E-02 0.  1.
    10030    2    1    2    0    0  0.00000000000E+00  0.00000000000E+00  0.97325693148E+03  0.31513512995E+04  0.29972964415E+04 0.  0.
        4    1    3    3  502    0 -0.64147373505E+03  0.13541400895E+04  0.51563146489E+03  0.15846328771E+04  0.12699999809E+01 0. -1.
       -4    1    3    3    0  502  0.64147373505E+03 -0.13541400895E+04  0.45762546659E+03  0.15667184224E+04  0.12699999809E+01 0.  1.
</event>
<event>
 5   0  0.4768570E-06  0.3041312E+04  0.7818609E-02  0.8232031E-01
       -2   -1    0    0    0  501  0.00000000000E+00  0.00000000000E+00  0.10917845105E+04  0.10917845105E+04  0.25500000920E-02 0. -1.
        2   -1    0    0  501    0  0.00000000000E+00  0.00000000000E+00 -0.21179954806E+04  0.21179954806E+04  0.25500000920E-02 0.  1.
    10030    2    1    2    0    0  0.00000000000E+00  0.00000000000E+00 -0.10262109701E+04  0.32097799911E+04  0.30413119926E+04 0.  0.
        1    1    3    3  502    0 -0.32467546248E+03  0.98984397237E+03 -0.16822551002E+04  0.19786832662E+04  0.50400001928E-02 0.  1.
       -1    1    3    3    0  502  0.32467546248E+03 -0.98984397237E+03  0.65604413011E+03  0.12310967250E+04  0.50400001928E-02 0. -1.
</event>
<event>
 5   0  0.1700885E-06  0.2965221E+04  0.7818609E-02  0.8253732E-01
        1   -1    0    0  501    0  0.00000000000E+00  0.00000000000E+00  0.18205843618E+04  0.18205843618E+04  0.50400001928E-02 0.  1.
       -1   -1    0    0    0  501  0.00000000000E+00  0.00000000000E+00 -0.12073785808E+04  0.12073785808E+04  0.50400001928E-02 0. -1.
    10030    2    1    2    0    0  0.00000000000E+00  0.00000000000E+00  0.61320578098E+03  0.30279629426E+04  0.29652214508E+04 0.  0.
        1    1    3    3  502    0 -0.77601798162E+03  0.10633855155E+04 -0.38984103412E+03  0.13729416208E+04  0.50400001928E-02 0. -1.
       -1    1    3    3    0  502  0.77601798162E+03 -0.10633855155E+04  0.10030468151E+04  0.16550213218E+04  0.50400001928E-02 0.  1.
</event>
<event>
 5   0  0.5003556E-06  0.3006273E+04  0.7818609E-02  0.8241942E-01
       -2   -1    0    0    0  501  0.00000000000E+00  0.00000000000E+00  0.17073866917E+04  0.17073866917E+04  0.25500000920E-02 0.  1.
        2   -1    0    0  501    0  0.00000000000E+00  0.00000000000E+00 -0.13233206436E+04  0.13233206436E+04  0.25500000920E-02 0. -1.
    10030    2    1    2    0    0  0.00000000000E+00  0.00000000000E+00  0.38406604814E+03  0.30307073353E+04  0.30062734777E+04 0.  0.
        3    1    3    3  502    0  0.13422904034E+04 -0.35805655157E+03 -0.38662874031E+03  0.14420228203E+04  0.10100000352E+00 0.  1.
       -3    1    3    3    0  502 -0.13422904034E+04  0.35805655157E+03  0.77069478845E+03  0.15886845150E+04  0.10100000352E+00 0. -1.
</event>
<event>
 5   0  0.4768570E-06  0.3028378E+04  0.7818609E-02  0.8235673E-01
        2   -1    0    0  501    0  0.00000000000E+00  0.00000000000E+00  0.20844681557E+04  0.20844681557E+04  0.25500000920E-02 0.  1.
       -2   -1    0    0    0  501  0.00000000000E+00  0.00000000000E+00 -0.10999296928E+04  0.10999296928E+04  0.25500000920E-02 0. -1.
    10030    2    1    2    0    0  0.00000000000E+00  0.00000000000E+00  0.98453846281E+03  0.31843978485E+04  0.30283780597E+04 0.  0.
        1    1    3    3  502    0  0.12668657994E+04  0.65366290696E+03 -0.44463391543E+02  0.14262542350E+04  0.50400001928E-02 0. -1.
       -1    1    3    3    0  502 -0.12668657994E+04 -0.65366290696E+03  0.10290018544E+04  0.17581436135E+04  0.50400001928E-02 0.  1.
</event>
<event>
 5   0  0.4768570E-06  0.2952162E+04  0.7818609E-02  0.8257525E-01
       -2   -1    0    0    0  501  0.00000000000E+00  0.00000000000E+00  0.13888688901E+04  0.13888688901E+04  0.25500000920E-02 0.  1.
        2   -1    0    0  501    0  0.00000000000E+00  0.00000000000E+00 -0.15687696850E+04  0.15687696850E+04  0.25500000920E-02 0. -1.
    10030    2    1    2    0    0  0.00000000000E+00  0.00000000000E+00 -0.17990079486E+03  0.29576385752E+04  0.29521621983E+04 0.  0.
        1    1    3    3  502    0  0.23613840090E+03 -0.11248578642E+04 -0.10178157537E+04  0.15352574597E+04  0.50400001928E-02 0. -1.
       -1    1    3    3    0  502 -0.23613840090E+03  0.11248578642E+04  0.83791495887E+03  0.14223811154E+04  0.50400001928E-02 0.  1.
</event>
<event>
 5   0  0.4935331E-06  0.2990878E+04  0.7818609E-02  0.8246340E-01
        2   -1    0    0  501    0  0.00000000000E+00  0.00000000000E+00  0.16501076608E+04  0.16501076608E+04  0.25500000920E-02 0. -1.
       -2   -1    0    0    0  501  0.00000000000E+00  0.00000000000E+00 -0.13552681123E+04  0.13552681123E+04  0.25500000920E-02 0.  1.
    10030    2    1    2    0    0  0.00000000000E+00  0.00000000000E+00  0.29483954845E+03  0.30053757731E+04  0.29908783289E+04 0.  0.
        5    1    3    3  502    0 -0.27590615373E+02  0.14580192427E+04 -0.18544843761E+03  0.14700321654E+04  0.46999998093E+01 0.  1.
       -5    1    3    3    0  502  0.27590615373E+02 -0.14580192427E+04  0.48028798606E+03  0.15353436077E+04  0.46999998093E+01 0. -1.
</event>
<event>
 5   0  0.1672907E-06  0.2984828E+04  0.7818609E-02  0.8248077E-01
        1   -1    0    0  501    0  0.00000000000E+00  0.00000000000E+00  0.19858224637E+04  0.19858224637E+04  0.50400001928E-02 0.  1.
       -1   -1    0    0    0  501  0.00000000000E+00  0.00000000000E+00 -0.11216001662E+04  0.11216001662E+04  0.50400001928E-02 0. -1.
    10030    2    1    2    0    0  0.00000000000E+00  0.00000000000E+00  0.86422229753E+03  0.31074226300E+04  0.29848275028E+04 0.  0.
        5    1    3    3  502    0  0.88834190379E+03  0.19381388034E+03  0.16641720828E+04  0.18963665177E+04  0.46999998093E+01 0.  1.
       -5    1    3    3    0  502 -0.88834190379E+03 -0.19381388034E+03 -0.79994978524E+03  0.12110561123E+04  0.46999998093E+01 0. -1.
</event>
<event>
 5   0  0.5003556E-06  0.3036348E+04  0.7818609E-02  0.8233427E-01
       -2   -1    0    0    0  501  0.00000000000E+00  0.00000000000E+00  0.14949274109E+04  0.14949274109E+04  0.25500000920E-02 0.  1.
        2   -1    0    0  501    0  0.00000000000E+00  0.00000000000E+00 -0.15417819240E+04  0.15417819240E+04  0.25500000920E-02 0. -1.
    10030    2    1    2    0    0  0.00000000000E+00  0.00000000000E+00 -0.46854513118E+02  0.30367093349E+04  0.30363478456E+04 0.  0.
        3    1    3    3  502    0  0.27237580701E+03  0.14653966833E+03 -0.15099384916E+04  0.15412905999E+04  0.10100000352E+00 0. -1.
       -3    1    3    3    0  502 -0.27237580701E+03 -0.14653966833E+03  0.14630839785E+04  0.14954187350E+04  0.10100000352E+00 0.  1.
</event>
<event>
 5   0  0.1686012E-06  0.3014879E+04  0.7818609E-02  0.8239495E-01
        1   -1    0    0  501    0  0.00000000000E+00  0.00000000000E+00  0.16452958807E+04  0.16452958807E+04  0.50400001928E-02 0. -1.
       -1   -1    0    0    0  501  0.00000000000E+00  0.00000000000E+00 -0.13811334551E+04  0.13811334551E+04  0.50400001928E-02 0.  1.
    10030    2    1    2    0    0  0.00000000000E+00  0.00000000000E+00  0.26416242560E+03  0.30264293358E+04  0.30148785610E+04 0.  0.
        4    1    3    3  502    0 -0.79662631468E+03 -0.10622041639E+04  0.84859484121E+03  0.15757556881E+04  0.12699999809E+01 0. -1.
       -4    1    3    3    0  502  0.79662631468E+03  0.10622041639E+04 -0.58443241561E+03  0.14506736478E+04  0.12699999809E+01 0.  1.
</event>
<event>
 5   0  0.1700885E-06  0.3019532E+04  0.7818609E-02  0.8238175E-01
        1   -1    0    0  501    0  0.00000000000E+00  0.00000000000E+00  0.17479107626E+04  0.17479107626E+04  0.50400001928E-02 0.  1.
       -1   -1    0    0    0  501  0.00000000000E+00  0.00000000000E+00 -0.13040669758E+04  0.13040669758E+04  0.50400001928E-02 0. -1.
    10030    2    1    2    0    0  0.00000000000E+00  0.00000000000E+00  0.44384378682E+03  0.30519777384E+04  0.30195315545E+04 0.  0.
        1    1    3    3  502    0  0.26310990860E+03  0.11729402998E+04 -0.70133579560E+03  0.13917211176E+04  0.50400001928E-02 0. -1.
       -1    1    3    3    0  502 -0.26310990860E+03 -0.11729402998E+04  0.11451795824E+04  0.16602566208E+04  0.50400001928E-02 0.  1.
</event>
<event>
 5   0  0.1709858E-06  0.3083658E+04  0.7818609E-02  0.8220237E-01
       -1   -1    0    0    0  501  0.00000000000E+00  0.00000000000E+00  0.10732381217E+04  0.10732381217E+04  0.50400001928E-02 0. -1.
        1   -1    0    0  501    0  0.00000000000E+00  0.00000000000E+00 -0.22150130222E+04  0.22150130222E+04  0.50400001928E-02 0.  1.
    10030    2    1    2    0    0  0.00000000000E+00  0.00000000000E+00 -0.11417749005E+04  0.32882511439E+04  0.30836578380E+04 0.  0.
        3    1    3    3  502    0 -0.80320491727E+03  0.21027697061E+03 -0.19562703419E+04  0.21251701589E+04  0.10100000352E+00 0.  1.
       -3    1    3    3    0  502  0.80320491727E+03 -0.21027697061E+03  0.81449544138E+03  0.11630809850E+04  0.10100000352E+00 0. -1.
</event>
<event>
 5   0  0.1709858E-06  0.3021711E+04  0.7818609E-02  0.8237558E-01
        1   -1    0    0  501    0  0.00000000000E+00  0.00000000000E+00  0.15505614565E+04  0.15505614565E+04  0.50400001928E-02 0.  1.
       -1   -1    0    0    0  501  0.00000000000E+00  0.00000000000E+00 -0.14721659071E+04  0.14721659071E+04  0.50400001928E-02 0. -1.
    10030    2    1    2    0    0  0.00000000000E+00  0.00000000000E+00  0.78395549320E+02  0.30227273636E+04  0.30217105838E+04 0.  0.
        3    1    3    3  502    0  0.13214486897E+04  0.64550978933E+03 -0.30700273771E+03  0.15023848438E+04  0.10100000352E+00 0. -1.
       -3    1    3    3    0  502 -0.13214486897E+04 -0.64550978933E+03  0.38539828703E+03  0.15203425198E+04  0.10100000352E+00 0.  1.
</event>
<event>
 5   0  0.4702748E-06  0.3013956E+04  0.7818609E-02  0.8239757E-01
       -2   -1    0    0    0  501  0.00000000000E+00  0.00000000000E+00  0.16409260513E+04  0.16409260513E+04  0.25500000920E-02 0.  1.
        2   -1    0    0  501    0  0.00000000000E+00  0.00000000000E+00 -0.13839643474E+04  0.13839643474E+04  0.25500000920E-02 0. -1.
    10030    2    1    2    0    0  0.00000000000E+00  0.00000000000E+00  0.25696170390E+03  0.30248903987E+04  0.30139563047E+04 0.  0.
        2    1    3    3  502    0 -0.40513745703E+03 -0.90699535116E+03  0.12658202330E+04  0.16090611513E+04  0.25500000920E-02 0.  1.
       -2    1    3    3    0  502  0.40513745703E+03  0.90699535116E+03 -0.10088585291E+04  0.14158292474E+04  0.25500000920E-02 0. -1.
</event>
<event>
 5   0  0.1672907E-06  0.2996434E+04  0.7818609E-02  0.8244750E-01
        1   -1    0    0  501    0  0.00000000000E+00  0.00000000000E+00  0.20064629006E+04  0.20064629006E+04  0.50400001928E-02 0. -1.
       -1   -1    0    0    0  501  0.00000000000E+00  0.00000000000E+00 -0.11187120475E+04  0.11187120475E+04  0.50400001928E-02 0.  1.
    10030    2    1    2    0    0  0.00000000000E+00  0.00000000000E+00  0.88775085304E+03  0.31251749481E+04  0.29964340272E+04 0.  0.
        5    1    3    3  502    0 -0.93621391118E+03 -0.77883463237E+03 -0.46628818643E+03  0.13040424207E+04  0.46999998093E+01 0.  1.
       -5    1    3    3    0  502  0.93621391118E+03  0.77883463237E+03  0.13540390395E+04  0.18211325274E+04  0.46999998093E+01 0. -1.
</event>
<event>
 5   0  0.4935331E-06  0.3030428E+04  0.7818609E-02  0.8235095E-01
       -2   -1    0    0    0  501  0.00000000000E+00  0.00000000000E+00  0.11177831727E+04  0.11177831727E+04  0.25500000920E-02 0. -1.
        2   -1    0    0  501    0  0.00000000000E+00  0.00000000000E+00 -0.20539518731E+04  0.20539518731E+04  0.25500000920E-02 0.  1.
    10030    2    1    2    0    0  0.00000000000E+00  0.00000000000E+00 -0.93616870032E+03  0.31717350458E+04  0.30304275878E+04 0.  0.
        5    1    3    3  502    0 -0.67900444270E+03 -0.94395650275E+03  0.54868263299E+03  0.12857587775E+04  0.46999998093E+01 0. -1.
       -5    1    3    3    0  502  0.67900444270E+03  0.94395650275E+03 -0.14848513333E+04  0.18859762682E+04  0.46999998093E+01 0.  1.
</event>
<event>
 5   0  0.1734885E-06  0.3039583E+04  0.7818609E-02  0.8232517E-01
        1   -1    0    0  501    0  0.00000000000E+00  0.00000000000E+00  0.24000218140E+04  0.24000218140E+04  0.50400001928E-02 0.  1.
       -1   -1    0    0    0  501  0.00000000000E+00  0.00000000000E+00 -0.96239378195E+03  0.96239378196E+03  0.50400001928E-02 0. -1.
    10030    2    1    2    0    0  0.00000000000E+00  0.00000000000E+00  0.14376280321E+04  0.33624155960E+04  0.30395829124E+04 0.  0.
        2    1    3    3  502    0  0.15862877505E+03  0.10492398631E+04 -0.48471892309E+03  0.11666275382E+04  0.25500000920E-02 0. -1.
       -2    1    3    3    0  502 -0.15862877505E+03 -0.10492398631E+04  0.19223469552E+04  0.21957880578E+04  0.25500000920E-02 0.  1.
</event>
<event>
 5   0  0.1734885E-06  0.2921395E+04  0.7818609E-02  0.8266540E-01
        1   -1    0    0  501    0  0.00000000000E+00  0.00000000000E+00  0.18422516898E+04  0.18422516898E+04  0.50400001928E-02 0.  1.
       -1   -1    0    0    0  501  0.00000000000E+00  0.00000000000E+00 -0.11581682198E+04  0.11581682199E+04  0.50400001928E-02 0. -1.
    10030    2    1    2    0    0  0.00000000000E+00  0.00000000000E+00  0.68408346998E+03  0.30004199097E+04  0.29213951189E+04 0.  0.
        2    1    3    3  502    0 -0.12997377989E+04  0.33165652996E+02 -0.34171395035E+03  0.13443164546E+04  0.25500000920E-02 0. -1.
       -2    1    3    3    0  502  0.12997377989E+04 -0.33165652996E+02  0.10257974203E+04  0.16561034551E+04  0.25500000920E-02 0.  1.
</event>
<event>
 5   0  0.1700885E-06  0.3036779E+04  0.7818609E-02  0.8233306E-01
       -1   -1    0    0    0  501  0.00000000000E+00  0.00000000000E+00  0.27082465064E+04  0.27082465064E+04  0.50400001928E-02 0.  1.
        1   -1    0    0  501    0  0.00000000000E+00  0.00000000000E+00 -0.85129124008E+03  0.85129124010E+03  0.50400001928E-02 0. -1.
    10030    2    1    2    0    0  0.00000000000E+00  0.00000000000E+00  0.18569552663E+04  0.35595377465E+04  0.30367789033E+04 0.  0.
        1    1    3    3  502    0  0.74074488436E+03 -0.10092557374E+04  0.19355700641E+04  0.23051532705E+04  0.50400001928E-02 0.  1.
       -1    1    3    3    0  502 -0.74074488436E+03  0.10092557374E+04 -0.78614797825E+02  0.12543844760E+04  0.50400001928E-02 0. -1.
</event>
<event>
 5   0  0.1734885E-06  0.3025163E+04  0.7818609E-02  0.8236582E-01
        1   -1    0    0  501    0  0.00000000000E+00  0.00000000000E+00  0.21588635897E+04  0.21588635897E+04  0.50400001928E-02 0.  1.
       -1   -1    0    0    0  501  0.00000000000E+00  0.00000000000E+00 -0.10597716860E+04  0.10597716861E+04  0.50400001928E-02 0. -1.
    10030    2    1    2    0    0  0.00000000000E+00  0.00000000000E+00  0.10990919037E+04  0.32186352758E+04  0.30251628098E+04 0.  0.
        2    1    3    3  502    0 -0.30616660428E+03  0.12019166222E+04  0.14706877523E+04  0.19238669448E+04  0.25500000920E-02 0.  1.
       -2    1    3    3    0  502  0.30616660428E+03 -0.12019166222E+04 -0.37159584867E+03  0.12947683310E+04  0.25500000920E-02 0. -1.
</event>
<event>
 5   0  0.4768570E-06  0.2985277E+04  0.7818609E-02  0.8247948E-01
       -2   -1    0    0    0  501  0.00000000000E+00  0.00000000000E+00  0.10727446493E+04  0.10727446493E+04  0.25500000920E-02 0.  1.
        2   -1    0    0  501    0  0.00000000000E+00  0.00000000000E+00 -0.20768876529E+04  0.20768876529E+04  0.25500000920E-02 0. -1.
    10030    2    1    2    0    0  0.00000000000E+00  0.00000000000E+00 -0.10041430036E+04  0.31496323022E+04  0.29852772848E+04 0.  0.
        1    1    3    3  502    0  0.84896424498E+03 -0.90762948106E+03  0.37014623975E+03  0.12967419955E+04  0.50400001928E-02 0.  1.
       -1    1    3    3    0  502 -0.84896424498E+03  0.90762948106E+03 -0.13742892433E+04  0.18528903067E+04  0.50400001928E-02 0. -1.
</event>
<event>
 5   0  0.4768570E-06  0.3000276E+04  0.7818609E-02  0.8243652E-01
       -2   -1    0    0    0  501  0.00000000000E+00  0.00000000000E+00  0.16516695087E+04  0.16516695087E+04  0.25500000920E-02 0. -1.
        2   -1    0    0  501    0  0.00000000000E+00  0.00000000000E+00 -0.13625086762E+04  0.13625086762E+04  0.25500000920E-02 0.  1.
    10030    2    1    2    0    0  0.00000000000E+00  0.00000000000E+00  0.28916083253E+03  0.30141781849E+04  0.30002760112E+04 0.  0.
        1    1    3    3  502    0 -0.17143623165E+03  0.13568861721E+04 -0.47462246468E+03  0.14476867580E+04  0.50400001928E-02 0.  1.
       -1    1    3    3    0  502  0.17143623165E+03 -0.13568861721E+04  0.76378329721E+03  0.15664914269E+04  0.50400001928E-02 0. -1.
</event>
<event>
 5   0  0.1686012E-06  0.2998059E+04  0.7818609E-02  0.8244285E-01
        1   -1    0    0  501    0  0.00000000000E+00  0.00000000000E+00  0.20278027785E+04  0.20278027785E+04  0.50400001928E-02 0. -1.
       -1   -1    0    0    0  501  0.00000000000E+00  0.00000000000E+00 -0.11081401204E+04  0.11081401204E+04  0.50400001928E-02 0.  1.
    10030    2    1    2    0    0  0.00000000000E+00  0.00000000000E+00  0.91966265808E+03  0.31359428989E+04  0.29980591156E+04 0.  0.
        4    1    3    3  502    0  0.13481538691E+03 -0.58899429484E+03 -0.97512140030E+03  0.11471498708E+04  0.12699999809E+01 0.  1.
       -4    1    3    3    0  502 -0.13481538691E+03  0.58899429484E+03  0.18947840584E+04  0.19887930281E+04  0.12699999809E+01 0. -1.
</event>
<event>
 5   0  0.4935331E-06  0.2946385E+04  0.7818609E-02  0.8259209E-01
       -2   -1    0    0    0  501  0.00000000000E+00  0.00000000000E+00  0.12614977647E+04  0.12614977647E+04  0.25500000920E-02 0. -1.
        2   -1    0    0  501    0  0.00000000000E+00  0.00000000000E+00 -0.17204120168E+04  0.17204120168E+04  0.25500000920E-02 0.  1.
    10030    2    1    2    0    0  0.00000000000E+00  0.00000000000E+00 -0.45891425206E+03  0.29819097815E+04  0.29463848449E+04 0.  0.
        5    1    3    3  502    0  0.14185154055E+04 -0.25509500473E+03 -0.53811697355E+03  0.15384574691E+04  0.46999998093E+01 0.  1.
       -5    1    3    3    0  502 -0.14185154055E+04  0.25509500473E+03  0.79202721491E+02  0.14434523124E+04  0.46999998093E+01 0. -1.
</event>
<event>
 5   0  0.1672907E-06  0.3001353E+04  0.7818609E-02  0.8243345E-01
        1   -1    0    0  501    0  0.00000000000E+00  0.00000000000E+00  0.91226632685E+03  0.91226632686E+03  0.50400001928E-02 0. -1.
       -1   -1    0    0    0  501  0.00000000000E+00  0.00000000000E+00 -0.24686097637E+04  0.24686097637E+04  0.50400001928E-02 0.  1.
    10030    2    1    2    0    0  0.00000000000E+00  0.00000000000E+00 -0.15563434369E+04  0.33808760906E+04  0.30013527361E+04 0.  0.
        5    1    3    3  502    0  0.56362869943E+03 -0.13227307307E+04 -0.29404213480E+03  0.14675751305E+04  0.46999998093E+01 0. -1.
       -5    1    3    3    0  502 -0.56362869943E+03  0.13227307307E+04 -0.12623013021E+04  0.19133009601E+04  0.46999998093E+01 0.  1.
</event>
<event>
 5   0  0.1734885E-06  0.3013599E+04  0.7818609E-02  0.8239858E-01
        1   -1    0    0  501    0  0.00000000000E+00  0.00000000000E+00  0.21518605554E+04  0.21518605554E+04  0.50400001928E-02 0.  1.
       -1   -1    0    0    0  501  0.00000000000E+00  0.00000000000E+00 -0.10551076018E+04  0.10551076018E+04  0.50400001928E-02 0. -1.
    10030    2    1    2    0    0  0.00000000000E+00  0.00000000000E+00  0.10967529536E+04  0.32069681572E+04  0.30135987988E+04 0.  0.
        2    1    3    3  502    0  0.18559299949E+03 -0.10723657463E+04 -0.56062059535E+03  0.12242175082E+04  0.25500000920E-02 0. -1.
       -2    1    3    3    0  502 -0.18559299949E+03  0.10723657463E+04  0.16573735490E+04  0.19827506490E+04  0.25500000920E-02 0.  1.
</event>
<event>
 5   0  0.4935331E-06  0.3017162E+04  0.7818609E-02  0.8238847E-01
       -2   -1    0    0    0  501  0.00000000000E+00  0.00000000000E+00  0.17006472608E+04  0.17006472608E+04  0.25500000920E-02 0.  1.
        2   -1    0    0  501    0  0.00000000000E+00  0.00000000000E+00 -0.13382063517E+04  0.13382063517E+04  0.25500000920E-02 0. -1.
    10030    2    1    2    0    0  0.00000000000E+00  0.00000000000E+00  0.36244090909E+03  0.30388536126E+04  0.30171622207E+04 0.  0.
        5    1    3    3  502    0  0.51021498579E+03 -0.13134841336E+04  0.72382820428E+03  0.15841430681E+04  0.46999998093E+01 0.  1.
       -5    1    3    3    0  502 -0.51021498579E+03  0.13134841336E+04 -0.36138729519E+03  0.14547105444E+04  0.46999998093E+01 0. -1.
</event>
<event>
 5   0  0.4768570E-06  0.3004636E+04  0.7818609E-02  0.8242408E-01
        2   -1    0    0  501    0  0.00000000000E+00  0.00000000000E+00  0.22641928315E+04  0.22641928315E+04  0.25500000920E-02 0. -1.
       -2   -1    0    0    0  501  0.00000000000E+00  0.00000000000E+00 -0.99680519313E+03  0.99680519313E+03  0.25500000920E-02 0.  1.
    10030    2    1    2    0    0  0.00000000000E+00  0.00000000000E+00  0.12673876383E+04  0.32609980246E+04  0.30046358666E+04 0.  0.
        1    1    3    3  502    0 -0.40154054461E+03  0.13927399918E+04  0.10623613022E+04  0.17971007290E+04  0.50400001928E-02 0.  1.
       -1    1    3    3    0  502  0.40154054461E+03 -0.13927399918E+04  0.20502633615E+03  0.14638972956E+04  0.50400001928E-02 0. -1.
</event>
<event>
 5   0  0.1686012E-06  0.3008499E+04  0.7818609E-02  0.8241308E-01
        1   -1    0    0  501    0  0.00000000000E+00  0.00000000000E+00  0.24407080363E+04  0.24407080363E+04  0.50400001928E-02 0.  1.
       -1   -1    0    0    0  501  0.00000000000E+00  0.00000000000E+00 -0.92709447774E+03  0.92709447776E+03  0.50400001928E-02 0. -1.
    10030    2    1    2    0    0  0.00000000000E+00  0.00000000000E+00  0.15136135586E+04  0.33678025141E+04  0.30084992553E+04 0.  0.
        4    1    3    3  502    0  0.57251252196E+03 -0.14414022805E+03  0.23055964534E+04  0.23799839520E+04  0.12699999809E+01 0.  1.
       -4    1    3    3    0  502 -0.57251252196E+03  0.14414022805E+03 -0.79198289476E+03  0.98781856210E+03  0.12699999809E+01 0. -1.
</event>
<event>
 5   0  0.1545375E-06  0.3021230E+04  0.7818609E-02  0.8237694E-01
       -3   -1    0    0    0  501  0.00000000000E+00  0.00000000000E+00  0.12831942142E+04  0.12831942182E+04  0.10100000352E+00 0.  1.
        3   -1    0    0  501    0  0.00000000000E+00  0.00000000000E+00 -0.17783418205E+04  0.17783418234E+04  0.10100000352E+00 0. -1.
    10030    2    1    2    0    0  0.00000000000E+00  0.00000000000E+00 -0.49514760631E+03  0.30615360416E+04  0.30212301769E+04 0.  0.
        2    1    3    3  502    0 -0.44868642083E+03  0.12516235473E+04 -0.97413068861E+03  0.16482753432E+04  0.25500000920E-02 0. -1.
       -2    1    3    3    0  502  0.44868642083E+03 -0.12516235473E+04  0.47898308231E+03  0.14132606984E+04  0.25500000920E-02 0.  1.
</event>
<event>
 5   0  0.1672907E-06  0.3022572E+04  0.7818609E-02  0.8237314E-01
       -1   -1    0    0    0  501  0.00000000000E+00  0.00000000000E+00  0.98572721399E+03  0.98572721400E+03  0.50400001928E-02 0. -1.
        1   -1    0    0  501    0  0.00000000000E+00  0.00000000000E+00 -0.23170569033E+04  0.23170569033E+04  0.50400001928E-02 0.  1.
    10030    2    1    2    0    0  0.00000000000E+00  0.00000000000E+00 -0.13313296893E+04  0.33027841173E+04  0.30225724448E+04 0.  0.
        5    1    3    3  502    0  0.55677780475E+03  0.93088602307E+03  0.48423073286E+03  0.11878770157E+04  0.46999998093E+01 0. -1.
       -5    1    3    3    0  502 -0.55677780475E+03 -0.93088602307E+03 -0.18155604222E+04  0.21149071016E+04  0.46999998093E+01 0.  1.
</event>
<event>
 5   0  0.1709858E-06  0.2983119E+04  0.7818609E-02  0.8248568E-01
       -1   -1    0    0    0  501  0.00000000000E+00  0.00000000000E+00  0.11869854571E+04  0.11869854571E+04  0.50400001928E-02 0. -1.
        1   -1    0    0  501    0  0.00000000000E+00  0.00000000000E+00 -0.18742850024E+04  0.18742850024E+04  0.50400001928E-02 0.  1.
    10030    2    1    2    0    0  0.00000000000E+00  0.00000000000E+00 -0.68729954527E+03  0.30612704595E+04  0.29831185295E+04 0.  0.
        3    1    3    3  502    0  0.64080402849E+03 -0.50302791162E+03 -0.16258152214E+04  0.18184999387E+04  0.10100000352E+00 0.  1.
       -3    1    3    3    0  502 -0.64080402849E+03  0.50302791162E+03  0.93851567612E+03  0.12427705208E+04  0.10100000352E+00 0. -1.
</event>
<event>
 5   0  0.1672907E-06  0.2866479E+04  0.7818609E-02  0.8282921E-01
       -1   -1    0    0    0  501  0.00000000000E+00  0.00000000000E+00  0.93123575285E+03  0.93123575287E+03  0.50400001928E-02 0. -1.
        1   -1    0    0  501    0  0.00000000000E+00  0.00000000000E+00 -0.22058591545E+04  0.22058591545E+04  0.50400001928E-02 0.  1.
    10030    2    1    2    0    0  0.00000000000E+00  0.00000000000E+00 -0.12746234017E+04  0.31370949074E+04  0.28664786136E+04 0.  0.
        5    1    3    3  502    0 -0.34501736016E+03  0.18292812770E+02 -0.21595928971E+04  0.21870608535E+04  0.46999998093E+01 0.  1.
       -5    1    3    3    0  502  0.34501736016E+03 -0.18292812770E+02  0.88496949539E+03  0.95003405391E+03  0.46999998093E+01 0. -1.
</event>
<event>
 5   0  0.1686012E-06  0.2958908E+04  0.7818609E-02  0.8255563E-01
        1   -1    0    0  501    0  0.00000000000E+00  0.00000000000E+00  0.27670641117E+04  0.27670641117E+04  0.50400001928E-02 0.  1.
       -1   -1    0    0    0  501  0.00000000000E+00  0.00000000000E+00 -0.79101339626E+03  0.79101339628E+03  0.50400001928E-02 0. -1.
    10030    2    1    2    0    0  0.00000000000E+00  0.00000000000E+00  0.19760507155E+04  0.35580775080E+04  0.29589084344E+04 0.  0.
        4    1    3    3  502    0  0.73687601636E+03  0.75828852526E+03  0.22323598234E+04  0.24701052093E+04  0.12699999809E+01 0.  1.
       -4    1    3    3    0  502 -0.73687601636E+03 -0.75828852526E+03 -0.25630910793E+03  0.10879722987E+04  0.12699999809E+01 0. -1.
</event>
<event>
 5   0  0.1672907E-06  0.3024092E+04  0.7818609E-02  0.8236885E-01
        1   -1    0    0  501    0  0.00000000000E+00  0.00000000000E+00  0.21752714020E+04  0.21752714021E+04  0.50400001928E-02 0. -1.
       -1   -1    0    0    0  501  0.00000000000E+00  0.00000000000E+00 -0.10510335925E+04  0.10510335925E+04  0.50400001928E-02 0.  1.
    10030    2    1    2    0    0  0.00000000000E+00  0.00000000000E+00  0.11242378096E+04  0.32263049945E+04  0.30240921390E+04 0.  0.
        5    1    3    3  502    0 -0.73779888173E+02  0.14708839696E+04  0.19669839777E+03  0.14858181160E+04  0.46999998093E+01 0. -1.
       -5    1    3    3    0  502  0.73779888173E+02 -0.14708839696E+04  0.92753941181E+03  0.17404868786E+04  0.46999998093E+01 0.  1.
</event>
<event>
 5   0  0.4532420E-06  0.2961234E+04  0.7818609E-02  0.8254888E-01
       -2   -1    0    0    0  501  0.00000000000E+00  0.00000000000E+00  0.15031410035E+04  0.15031410035E+04  0.25500000920E-02 0.  1.
        2   -1    0    0  501    0  0.00000000000E+00  0.00000000000E+00 -0.14584303063E+04  0.14584303063E+04  0.25500000920E-02 0. -1.
    10030    2    1    2    0    0  0.00000000000E+00  0.00000000000E+00  0.44710697273E+02  0.29615713098E+04  0.29612337929E+04 0.  0.
        4    1    3    3  502    0 -0.36232849441E+03  0.39685728082E+03  0.14021673180E+04  0.15016166087E+04  0.12699999809E+01 0.  1.
       -4    1    3    3    0  502  0.36232849441E+03 -0.39685728082E+03 -0.13574566207E+04  0.14599547011E+04  0.12699999809E+01 0. -1.
</event>
<event>
 5   0  0.1672907E-06  0.3009324E+04  0.7818609E-02  0.8241073E-01
       -1   -1    0    0    0  501  0.00000000000E+00  0.00000000000E+00  0.12298618005E+04  0.12298618005E+04  0.50400001928E-02 0.  1.
        1   -1    0    0  501    0  0.00000000000E+00  0.00000000000E+00 -0.18408636497E+04  0.18408636497E+04  0.50400001928E-02 0. -1.
    10030    2    1    2    0    0  0.00000000000E+00  0.00000000000E+00 -0.61100184928E+03  0.30707254502E+04  0.30093240987E+04 0.  0.
        5    1    3    3  502    0  0.13332222649E+04  0.63153027494E+03 -0.33619959270E+01  0.14752442133E+04  0.46999998093E+01 0.  1.
       -5    1    3    3    0  502 -0.13332222649E+04 -0.63153027494E+03 -0.60763985335E+03  0.15954812369E+04  0.46999998093E+01 0. -1.
</event>
<event>
 5   0  0.5003556E-06  0.2908817E+04  0.7818609E-02  0.8270259E-01
       -2   -1    0    0    0  501  0.00000000000E+00  0.00000000000E+00  0.84497293000E+03  0.84497293000E+03  0.25500000920E-02 0. -1.
        2   -1    0    0  501    0  0.00000000000E+00  0.00000000000E+00 -0.25033987111E+04  0.25033987111E+04  0.25500000920E-02 0.  1.
    10030    2    1    2    0    0  0.00000000000E+00  0.00000000000E+00 -0.16584257811E+04  0.33483716411E+04  0.29088170406E+04 0.  0.
        3    1    3    3  502    0 -0.11070253331E+04  0.92281078561E+03 -0.10542523162E+04  0.17856463229E+04  0.10100000352E+00 0. -1.
       -3    1    3    3    0  502  0.11070253331E+04 -0.92281078561E+03 -0.60417346485E+03  0.15627253181E+04  0.10100000352E+00 0.  1.
</event>
<event>
 5   0  0.5003556E-06  0.2949769E+04  0.7818609E-02  0.8258222E-01
        2   -1    0    0  501    0  0.00000000000E+00  0.00000000000E+00  0.14254103958E+04  0.14254103958E+04  0.25500000920E-02 0. -1.
       -2   -1    0    0    0  501  0.00000000000E+00  0.00000000000E+00 -0.15260754778E+04  0.15260754778E+04  0.25500000920E-02 0.  1.
    10030    2    1    2    0    0  0.00000000000E+00  0.00000000000E+00 -0.10066508201E+03  0.29514858735E+04  0.29497687033E+04 0.  0.
        3    1    3    3  502    0  0.45307518378E+03  0.89653398914E+03  0.10302190477E+04  0.14388890201E+04  0.10100000352E+00 0. -1.
       -3    1    3    3    0  502 -0.45307518378E+03 -0.89653398914E+03 -0.11308841297E+04  0.15125968534E+04  0.10100000352E+00 0.  1.
</event>
<event>
 5   0  0.1734885E-06  0.2922090E+04  0.7818609E-02  0.8266335E-01
       -1   -1    0    0    0  501  0.00000000000E+00  0.00000000000E+00  0.12626231545E+04  0.12626231545E+04  0.50400001928E-02 0. -1.
        1   -1    0    0  501    0  0.00000000000E+00  0.00000000000E+00 -0.16906492177E+04  0.16906492177E+04  0.50400001928E-02 0.  1.
    10030    2    1    2    0    0  0.00000000000E+00  0.00000000000E+00 -0.42802606326E+03  0.29532723722E+04  0.29220902439E+04 0.  0.
        2    1    3    3  502    0  0.51560821991E+03  0.10708447232E+04  0.64481522083E+03  0.13521637943E+04  0.25500000920E-02 0.  1.
       -2    1    3    3    0  502 -0.51560821991E+03 -0.10708447232E+04 -0.10728412841E+04  0.16011085780E+04  0.25500000920E-02 0. -1.
</event>
<event>
 5   0  0.4935331E-06  0.3081323E+04  0.7818609E-02  0.8220882E-01
        2   -1    0    0  501    0  0.00000000000E+00  0.00000000000E+00  0.20208551297E+04  0.20208551297E+04  0.25500000920E-02 0.  1.
       -2   -1    0    0    0  501  0.00000000000E+00  0.00000000000E+00 -0.11745707386E+04  0.11745707386E+04  0.25500000920E-02 0. -1.
    10030    2    1    2    0    0  0.00000000000E+00  0.00000000000E+00  0.84628439116E+03  0.31954258683E+04  0.30813226396E+04 0.  0.
        5    1    3    3  502    0  0.58624629063E+03  0.25031007117E+03 -0.10313927135E+04  0.12124903564E+04  0.46999998093E+01 0. -1.
       -5    1    3    3    0  502 -0.58624629063E+03 -0.25031007117E+03  0.18776771046E+04  0.19829355119E+04  0.46999998093E+01 0.  1.
</event>
<event>
 5   0  0.1672907E-06  0.3003306E+04  0.7818609E-02  0.8242788E-01
       -1   -1    0    0    0  501  0.00000000000E+00  0.00000000000E+00  0.13817143518E+04  0.13817143519E+04  0.50400001928E-02 0.  1.
        1   -1    0    0  501    0  0.00000000000E+00  0.00000000000E+00 -0.16320026900E+04  0.16320026900E+04  0.50400001928E-02 0. -1.
    10030    2    1    2    0    0  0.00000000000E+00  0.00000000000E+00 -0.25028833819E+03  0.30137170419E+04  0.30033058713E+04 0.  0.
        5    1    3    3  502    0  0.11953265156E+04 -0.21709764505E+03 -0.10108150325E+04  0.15804132328E+04  0.46999998093E+01 0. -1.
       -5    1    3    3    0  502 -0.11953265156E+04  0.21709764505E+03  0.76052669431E+03  0.14333038091E+04  0.46999998093E+01 0.  1.
</event>
<event>
 5   0  0.1734885E-06  0.2963776E+04  0.7818609E-02  0.8254151E-01
       -1   -1    0    0    0  501  0.00000000000E+00  0.00000000000E+00  0.10020249238E+04  0.10020249238E+04  0.50400001928E-02 0.  1.
        1   -1    0    0  501    0  0.00000000000E+00  0.00000000000E+00 -0.21915541647E+04  0.21915541647E+04  0.50400001928E-02 0. -1.
    10030    2    1    2    0    0  0.00000000000E+00  0.00000000000E+00 -0.11895292409E+04  0.31935790885E+04  0.29637758990E+04 0.  0.
        2    1    3    3  502    0  0.10631002674E+03  0.24125529885E+02 -0.21872276982E+04  0.21899426629E+04  0.25500000920E-02 0. -1.
       -2    1    3    3    0  502 -0.10631002674E+03 -0.24125529885E+02  0.99769845732E+03  0.10036364256E+04  0.25500000920E-02 0.  1.
</event>
<event>
 5   0  0.4935331E-06  0.3006647E+04  0.7818609E-02  0.8241835E-01
        2   -1    0    0  501    0  0.00000000000E+00  0.00000000000E+00  0.15021034884E+04  0.15021034884E+04  0.25500000920E-02 0. -1.
       -2   -1    0    0    0  501  0.00000000000E+00  0.00000000000E+00 -0.15045448085E+04  0.15045448085E+04  0.25500000920E-02 0.  1.
    10030    2    1    2    0    0  0.00000000000E+00  0.00000000000E+00 -0.24413200972E+01  0.30066482968E+04  0.30066473057E+04 0.  0.
        5    1    3    3  502    0 -0.14753063907E+04 -0.25233669813E+03  0.13933955017E+03  0.15032100172E+04  0.46999998093E+01 0. -1.
       -5    1    3    3    0  502  0.14753063907E+04  0.25233669813E+03 -0.14178087026E+03  0.15034382797E+04  0.46999998093E+01 0.  1.
</event>
<event>
 5   0  0.4768570E-06  0.3001639E+04  0.7818609E-02  0.8243263E-01
       -2   -1    0    0    0  501  0.00000000000E+00  0.00000000000E+00  0.28340967783E+04  0.28340967783E+04  0.25500000920E-02 0. -1.
        2   -1    0    0  501    0  0.00000000000E+00  0.00000000000E+00 -0.79477142987E+03  0.79477142988E+03  0.25500000920E-02 0.  1.
    10030    2    1    2    0    0  0.00000000000E+00  0.00000000000E+00  0.20393253484E+04  0.36288682082E+04  0.30016389849E+04 0.  0.
        1    1    3    3  502    0 -0.36698199629E+03  0.12551491301E+04  0.19100237863E+04  0.23147928609E+04  0.50400001928E-02 0. -1.
       -1    1    3    3    0  502  0.36698199629E+03 -0.12551491301E+04  0.12930156216E+03  0.13140753473E+04  0.50400001928E-02 0.  1.
</event>
<event>
 5   0  0.1734885E-06  0.3160057E+04  0.7818609E-02  0.8199446E-01
        1   -1    0    0  501    0  0.00000000000E+00  0.00000000000E+00  0.25912621162E+04  0.25912621162E+04  0.50400001928E-02 0. -1.
       -1   -1    0    0    0  501  0.00000000000E+00  0.00000000000E+00 -0.96342616616E+03  0.96342616617E+03  0.50400001928E-02 0.  1.
    10030    2    1    2    0    0  0.00000000000E+00  0.00000000000E+00  0.16278359501E+04  0.35546882824E+04  0.31600567882E+04 0.  0.
        2    1    3    3  502    0  0.44771659728E+03 -0.14690003973E+04  0.12319099534E+04  0.19687596227E+04  0.25500000920E-02 0. -1.
       -2    1    3    3    0  502 -0.44771659728E+03  0.14690003973E+04  0.39592599669E+03  0.15859286597E+04  0.25500000920E-02 0.  1.
</event>
<event>
 5   0  0.4768570E-06  0.2989754E+04  0.7818609E-02  0.8246663E-01
        2   -1    0    0  501    0  0.00000000000E+00  0.00000000000E+00  0.19237693455E+04  0.19237693456E+04  0.25500000920E-02 0.  1.
       -2   -1    0    0    0  501  0.00000000000E+00  0.00000000000E+00 -0.11616034217E+04  0.11616034217E+04  0.25500000920E-02 0. -1.
    10030    2    1    2    0    0  0.00000000000E+00  0.00000000000E+00  0.76216592389E+03  0.30853727672E+04  0.29897538723E+04 0.  0.
        1    1    3    3  502    0  0.45738371707E+03 -0.46633600269E+03 -0.10065351740E+04  0.11999092418E+04  0.50400001928E-02 0. -1.
       -1    1    3    3    0  502 -0.45738371707E+03  0.46633600269E+03  0.17687010979E+04  0.18854635254E+04  0.50400001928E-02 0.  1.
</event>
<event>
 5   0  0.1686012E-06  0.2989073E+04  0.7818609E-02  0.8246858E-01
       -1   -1    0    0    0  501  0.00000000000E+00  0.00000000000E+00  0.11561205176E+04  0.11561205176E+04  0.50400001928E-02 0.  1.
        1   -1    0    0  501    0  0.00000000000E+00  0.00000000000E+00 -0.19320127068E+04  0.19320127068E+04  0.50400001928E-02 0. -1.
    10030    2    1    2    0    0  0.00000000000E+00  0.00000000000E+00 -0.77589218919E+03  0.30881332245E+04  0.29890731210E+04 0.  0.
        4    1    3    3  502    0  0.14496632220E+04 -0.31972388686E+03 -0.20932595942E+03  0.14991883775E+04  0.12699999809E+01 0.  1.
       -4    1    3    3    0  502 -0.14496632220E+04  0.31972388686E+03 -0.56656622977E+03  0.15889448470E+04  0.12699999809E+01 0. -1.
</event>
<event>
 5   0  0.5003556E-06  0.3003641E+04  0.7818609E-02  0.8242692E-01
        2   -1    0    0  501    0  0.00000000000E+00  0.00000000000E+00  0.11911871800E+04  0.11911871800E+04  0.25500000920E-02 0.  1.
       -2   -1    0    0    0  501  0.00000000000E+00  0.00000000000E+00 -0.18934589892E+04  0.18934589892E+04  0.25500000920E-02 0. -1.
    10030    2    1    2    0    0  0.00000000000E+00  0.00000000000E+00 -0.70227180920E+03  0.30846461691E+04  0.30036405069E+04 0.  0.
        3    1    3    3  502    0  0.28011837204E+03  0.15971850833E+03 -0.18574891996E+04  0.18852698589E+04  0.10100000352E+00 0. -1.
       -3    1    3    3    0  502 -0.28011837204E+03 -0.15971850833E+03  0.11552173904E+04  0.11993763102E+04  0.10100000352E+00 0.  1.
</event>
<event>
 5   0  0.1686012E-06  0.2993525E+04  0.7818609E-02  0.8245582E-01
       -1   -1    0    0    0  501  0.00000000000E+00  0.00000000000E+00  0.89873515347E+03  0.89873515348E+03  0.50400001928E-02 0.  1.
        1   -1    0    0  501    0  0.00000000000E+00  0.00000000000E+00 -0.24927237811E+04  0.24927237811E+04  0.50400001928E-02 0. -1.
    10030    2    1    2    0    0  0.00000000000E+00  0.00000000000E+00 -0.15939886276E+04  0.33914589346E+04  0.29935253398E+04 0.  0.
        4    1    3    3  502    0  0.48779614953E+02  0.14905192645E+04 -0.94150303014E+03  0.17636486887E+04  0.12699999809E+01 0. -1.
       -4    1    3    3    0  502 -0.48779614953E+02 -0.14905192645E+04 -0.65248559749E+03  0.16278102458E+04  0.12699999809E+01 0.  1.
</event>
<event>
 5   0  0.5003556E-06  0.2992361E+04  0.7818609E-02  0.8245916E-01
        2   -1    0    0  501    0  0.00000000000E+00  0.00000000000E+00  0.23318799545E+04  0.23318799545E+04  0.25500000920E-02 0. -1.
       -2   -1    0    0    0  501  0.00000000000E+00  0.00000000000E+00 -0.95997931932E+03  0.95997931933E+03  0.25500000920E-02 0.  1.
    10030    2    1    2    0    0  0.00000000000E+00  0.00000000000E+00  0.13719006352E+04  0.32918592739E+04  0.29923612960E+04 0.  0.
        3    1    3    3  502    0 -0.13269821949E+04  0.52549221785E+02  0.14440641546E+04  0.19618777890E+04  0.10100000352E+00 0. -1.
       -3    1    3    3    0  502  0.13269821949E+04 -0.52549221785E+02 -0.72163519439E+02  0.13299814848E+04  0.10100000352E+00 0.  1.
</event>
<event>
 5   0  0.4532420E-06  0.3010015E+04  0.7818609E-02  0.8240877E-01
        2   -1    0    0  501    0  0.00000000000E+00  0.00000000000E+00  0.27360196576E+04  0.27360196576E+04  0.25500000920E-02 0. -1.
       -2   -1    0    0    0  501  0.00000000000E+00  0.00000000000E+00 -0.82786221993E+03  0.82786221993E+03  0.25500000920E-02 0.  1.
    10030    2    1    2    0    0  0.00000000000E+00  0.00000000000E+00  0.19081574377E+04  0.35638818776E+04  0.30100148223E+04 0.  0.
        4    1    3    3  502    0 -0.94353963475E+03  0.46694184123E+03 -0.31934603854E+03  0.11001296427E+04  0.12699999809E+01 0.  1.
       -4    1    3    3    0  502  0.94353963475E+03 -0.46694184123E+03  0.22275034763E+04  0.24637522349E+04  0.12699999809E+01 0. -1.
</event>
<event>
 5   0  0.4702748E-06  0.3012275E+04  0.7818609E-02  0.8240234E-01
       -2   -1    0    0    0  501  0.00000000000E+00  0.00000000000E+00  0.73713034629E+03  0.73713034629E+03  0.25500000920E-02 0. -1.
        2   -1    0    0  501    0  0.00000000000E+00  0.00000000000E+00 -0.30774073799E+04  0.30774073799E+04  0.25500000920E-02 0.  1.
    10030    2    1    2    0    0  0.00000000000E+00  0.00000000000E+00 -0.23402770336E+04  0.38145377262E+04  0.30122751319E+04 0.  0.
        2    1    3    3  502    0  0.45900129224E+03 -0.99147558250E+03  0.14266539909E+03  0.11018436518E+04  0.25500000920E-02 0. -1.
       -2    1    3    3    0  502 -0.45900129224E+03  0.99147558250E+03 -0.24829424327E+04  0.27126940744E+04  0.25500000920E-02 0.  1.
</event>
<event>
 5   0  0.4702748E-06  0.2838030E+04  0.7818609E-02  0.8291558E-01
       -2   -1    0    0    0  501  0.00000000000E+00  0.00000000000E+00  0.20162555756E+04  0.20162555756E+04  0.25500000920E-02 0.  1.
        2   -1    0    0  501    0  0.00000000000E+00  0.00000000000E+00 -0.99868458642E+03  0.99868458643E+03  0.25500000920E-02 0. -1.
    10030    2    1    2    0    0  0.00000000000E+00  0.00000000000E+00  0.10175709892E+04  0.30149401620E+04  0.28380298558E+04 0.  0.
        2    1    3    3  502    0  0.28759221153E+03 -0.51331704630E+03 -0.86298543812E+03  0.10444843400E+04  0.25500000920E-02 0. -1.
       -2    1    3    3    0  502 -0.28759221153E+03  0.51331704630E+03  0.18805564273E+04  0.19704558220E+04  0.25500000920E-02 0.  1.
</event>
<event>
 5   0  0.1686012E-06  0.2994619E+04  0.7818609E-02  0.8245269E-01
       -1   -1    0    0    0  501  0.00000000000E+00  0.00000000000E+00  0.93140746057E+03  0.93140746058E+03  0.50400001928E-02 0.  1.
        1   -1    0    0  501    0  0.00000000000E+00  0.00000000000E+00 -0.24070400587E+04  0.24070400587E+04  0.50400001928E-02 0. -1.
    10030    2    1    2    0    0  0.00000000000E+00  0.00000000000E+00 -0.14756325981E+04  0.33384475193E+04  0.29946185524E+04 0.  0.
        4    1    3    3  502    0 -0.44890523327E+03 -0.62484933851E+03 -0.21698145737E+04  0.23021836376E+04  0.12699999809E+01 0. -1.
       -4    1    3    3    0  502  0.44890523327E+03  0.62484933851E+03  0.69418197557E+03  0.10362638816E+04  0.12699999809E+01 0.  1.
</event>
<event>
 5   0  0.4702748E-06  0.3221885E+04  0.7818609E-02  0.8183061E-01
       -2   -1    0    0    0  501  0.00000000000E+00  0.00000000000E+00  0.11490869221E+04  0.11490869221E+04  0.25500000920E-02 0. -1.
        2   -1    0    0  501    0  0.00000000000E+00  0.00000000000E+00 -0.22584336165E+04  0.22584336165E+04  0.25500000920E-02 0.  1.
    10030    2    1    2    0    0  0.00000000000E+00  0.00000000000E+00 -0.11093466944E+04  0.34075205386E+04  0.32218854934E+04 0.  0.
        2    1    3    3  502    0  0.16856251983E+02  0.10735616330E+04  0.71548792113E+03  0.12902486885E+04  0.25500000920E-02 0. -1.
       -2    1    3    3    0  502 -0.16856251983E+02 -0.10735616330E+04 -0.18248346155E+04  0.21172718501E+04  0.25500000920E-02 0.  1.
</event>
<event>
 5   0  0.4935331E-06  0.3015060E+04  0.7818609E-02  0.8239443E-01
        2   -1    0    0  501    0  0.00000000000E+00  0.00000000000E+00  0.13795234829E+04  0.13795234829E+04  0.25500000920E-02 0.  1.
       -2   -1    0    0    0  501  0.00000000000E+00  0.00000000000E+00 -0.16474144597E+04  0.16474144597E+04  0.25500000920E-02 0. -1.
    10030    2    1    2    0    0  0.00000000000E+00  0.00000000000E+00 -0.26789097676E+03  0.30269379426E+04  0.30150601541E+04 0.  0.
        5    1    3    3  502    0 -0.11936527683E+04 -0.80440527768E+02 -0.10548088022E+04  0.15949674947E+04  0.46999998093E+01 0. -1.
       -5    1    3    3    0  502  0.11936527683E+04  0.80440527768E+02  0.78691782545E+03  0.14319704480E+04  0.46999998093E+01 0.  1.
</event>
<event>
 5   0  0.4935331E-06  0.3003894E+04  0.7818609E-02  0.8242620E-01
        2   -1    0    0  501    0  0.00000000000E+00  0.00000000000E+00  0.14761950804E+04  0.14761950805E+04  0.25500000920E-02 0. -1.
       -2   -1    0    0    0  501  0.00000000000E+00  0.00000000000E+00 -0.15281480396E+04  0.15281480396E+04  0.25500000920E-02 0.  1.
    10030    2    1    2    0    0  0.00000000000E+00  0.00000000000E+00 -0.51952959117E+02  0.30043431200E+04  0.30038938851E+04 0.  0.
        5    1    3    3  502    0  0.10755195467E+04  0.10278636729E+04  0.18039512332E+03  0.14986028546E+04  0.46999998093E+01 0. -1.
       -5    1    3    3    0  502 -0.10755195467E+04 -0.10278636729E+04 -0.23234808243E+03  0.15057402654E+04  0.46999998093E+01 0.  1.
</event>
<event>
 5   0  0.5003556E-06  0.2945436E+04  0.7818609E-02  0.8259486E-01
        2   -1    0    0  501    0  0.00000000000E+00  0.00000000000E+00  0.22979453144E+04  0.22979453144E+04  0.25500000920E-02 0.  1.
       -2   -1    0    0    0  501  0.00000000000E+00  0.00000000000E+00 -0.94384265882E+03  0.94384265883E+03  0.25500000920E-02 0. -1.
    10030    2    1    2    0    0  0.00000000000E+00  0.00000000000E+00  0.13541026556E+04  0.32417879732E+04  0.29454363448E+04 0.  0.
        3    1    3    3  502    0 -0.12462716779E+04  0.18020291907E+02  0.15404412985E+04  0.19815340599E+04  0.10100000352E+00 0.  1.
       -3    1    3    3    0  502  0.12462716779E+04 -0.18020291907E+02 -0.18633864294E+03  0.12602539134E+04  0.10100000352E+00 0. -1.
</event>
<event>
 5   0  0.1672907E-06  0.3011054E+04  0.7818609E-02  0.8240581E-01
       -1   -1    0    0    0  501  0.00000000000E+00  0.00000000000E+00  0.13920987990E+04  0.13920987990E+04  0.50400001928E-02 0.  1.
        1   -1    0    0  501    0  0.00000000000E+00  0.00000000000E+00 -0.16281972321E+04  0.16281972321E+04  0.50400001928E-02 0. -1.
    10030    2    1    2    0    0  0.00000000000E+00  0.00000000000E+00 -0.23609843305E+03  0.30202960311E+04  0.30110539094E+04 0.  0.
        5    1    3    3  502    0 -0.34520926816E+02 -0.13178476729E+04  0.61128304460E+03  0.14531356557E+04  0.46999998093E+01 0.  1.
       -5    1    3    3    0  502  0.34520926816E+02  0.13178476729E+04 -0.84738147765E+03  0.15671603753E+04  0.46999998093E+01 0. -1.
</event>
<event>
 5   0  0.1700885E-06  0.3015695E+04  0.7818609E-02  0.8239263E-01
        1   -1    0    0  501    0  0.00000000000E+00  0.00000000000E+00  0.16810340681E+04  0.16810340681E+04  0.50400001928E-02 0.  1.
       -1   -1    0    0    0  501  0.00000000000E+00  0.00000000000E+00 -0.13525029418E+04  0.13525029418E+04  0.50400001928E-02 0. -1.
    10030    2    1    2    0    0  0.00000000000E+00  0.00000000000E+00  0.32853112628E+03  0.30335370099E+04  0.30156946281E+04 0.  0.
        1    1    3    3  502    0 -0.10606325314E+04 -0.50249503932E+03 -0.78799309282E+03  0.14136391851E+04  0.50400001928E-02 0. -1.
       -1    1    3    3    0  502  0.10606325314E+04  0.50249503932E+03  0.11165242191E+04  0.16198978249E+04  0.50400001928E-02 0.  1.
</event>
<event>
 5   0  0.5003556E-06  0.2996056E+04  0.7818609E-02  0.8244858E-01
        2   -1    0    0  501    0  0.00000000000E+00  0.00000000000E+00  0.26784012395E+04  0.26784012395E+04  0.25500000920E-02 0.  1.
       -2   -1    0    0    0  501  0.00000000000E+00  0.00000000000E+00 -0.83784579048E+03  0.83784579048E+03  0.25500000920E-02 0. -1.
    10030    2    1    2    0    0  0.00000000000E+00  0.00000000000E+00  0.18405554490E+04  0.35162470299E+04  0.29960555427E+04 0.  0.
        3    1    3    3  502    0  0.62878801473E+01  0.41496208268E+03 -0.76903131242E+03  0.87386625818E+03  0.10100000352E+00 0. -1.
       -3    1    3    3    0  502 -0.62878801473E+01 -0.41496208268E+03  0.26095867614E+04  0.26423807718E+04  0.10100000352E+00 0.  1.
</event>
<event>
 5   0  0.1734885E-06  0.2998727E+04  0.7818609E-02  0.8244095E-01
        1   -1    0    0  501    0  0.00000000000E+00  0.00000000000E+00  0.15661303349E+04  0.15661303349E+04  0.50400001928E-02 0.  1.
       -1   -1    0    0    0  501  0.00000000000E+00  0.00000000000E+00 -0.14354428324E+04  0.14354428324E+04  0.50400001928E-02 0. -1.
    10030    2    1    2    0    0  0.00000000000E+00  0.00000000000E+00  0.13068750247E+03  0.30015731673E+04  0.29987267724E+04 0.  0.
        2    1    3    3  502    0 -0.91507504494E+02 -0.95203076860E+02  0.15602986007E+04  0.15658764231E+04  0.25500000920E-02 0.  1.
       -2    1    3    3    0  502  0.91507504494E+02  0.95203076860E+02 -0.14296110982E+04  0.14356967442E+04  0.25500000920E-02 0. -1.
</event>
<event>
 5   0  0.4532420E-06  0.2995795E+04  0.7818609E-02  0.8244933E-01
        2   -1    0    0  501    0  0.00000000000E+00  0.00000000000E+00  0.17736696465E+04  0.17736696466E+04  0.25500000920E-02 0.  1.
       -2   -1    0    0    0  501  0.00000000000E+00  0.00000000000E+00 -0.12650024183E+04  0.12650024183E+04  0.25500000920E-02 0. -1.
    10030    2    1    2    0    0  0.00000000000E+00  0.00000000000E+00  0.50866722826E+03  0.30386720648E+04  0.29957946473E+04 0.  0.
        4    1    3    3  502    0  0.74516662599E+03  0.78380162671E+03 -0.79687617838E+03  0.13433657533E+04  0.12699999809E+01 0. -1.
       -4    1    3    3    0  502 -0.74516662599E+03 -0.78380162671E+03  0.13055434066E+04  0.16953063116E+04  0.12699999809E+01 0.  1.
</event>
<event>
 5   0  0.1686012E-06  0.2917129E+04  0.7818609E-02  0.8267799E-01
       -1   -1    0    0    0  501  0.00000000000E+00  0.00000000000E+00  0.21598845711E+04  0.21598845712E+04  0.50400001928E-02 0.  1.
        1   -1    0    0  501    0  0.00000000000E+00  0.00000000000E+00 -0.98496508787E+03  0.98496508788E+03  0.50400001928E-02 0. -1.
    10030    2    1    2    0    0  0.00000000000E+00  0.00000000000E+00  0.11749194833E+04  0.31448496590E+04  0.29171293399E+04 0.  0.
        4    1    3    3  502    0  0.67195582453E+03  0.67513365876E+03  0.17782580644E+04  0.20173084652E+04  0.12699999809E+01 0.  1.
       -4    1    3    3    0  502 -0.67195582453E+03 -0.67513365876E+03 -0.60333858115E+03  0.11275411938E+04  0.12699999809E+01 0. -1.
</event>
<event>
 5   0  0.4532420E-06  0.3003485E+04  0.7818609E-02  0.8242736E-01
       -2   -1    0    0    0  501  0.00000000000E+00  0.00000000000E+00  0.17906043466E+04  0.17906043466E+04  0.25500000920E-02 0. -1.
        2   -1    0    0  501    0  0.00000000000E+00  0.00000000000E+00 -0.12594801421E+04  0.12594801421E+04  0.25500000920E-02 0.  1.
    10030    2    1    2    0    0  0.00000000000E+00  0.00000000000E+00  0.53112420444E+03  0.30500844887E+04  0.30034850537E+04 0.  0.
        4    1    3    3  502    0  0.12048355860E+04 -0.87200417445E+03  0.54469422592E+02  0.14882837769E+04  0.12699999809E+01 0.  1.
       -4    1    3    3    0  502 -0.12048355860E+04  0.87200417445E+03  0.47665478185E+03  0.15618007118E+04  0.12699999809E+01 0. -1.
</event>
<event>
 5   0  0.4768570E-06  0.2998656E+04  0.7818609E-02  0.8244115E-01
       -2   -1    0    0    0  501  0.00000000000E+00  0.00000000000E+00  0.94208450816E+03  0.94208450816E+03  0.25500000920E-02 0. -1.
        2   -1    0    0  501    0  0.00000000000E+00  0.00000000000E+00 -0.23861808750E+04  0.23861808750E+04  0.25500000920E-02 0.  1.
    10030    2    1    2    0    0  0.00000000000E+00  0.00000000000E+00 -0.14440963669E+04  0.33282653832E+04  0.29986557228E+04 0.  0.
        1    1    3    3  502    0  0.13527416130E+04  0.12566426748E+03 -0.14260227928E+04  0.19695792407E+04  0.50400001928E-02 0. -1.
       -1    1    3    3    0  502 -0.13527416130E+04 -0.12566426748E+03 -0.18073574051E+02  0.13586861425E+04  0.50400001928E-02 0.  1.
</event>
<event>
 5   0  0.4702748E-06  0.2999425E+04  0.7818609E-02  0.8243895E-01
        2   -1    0    0  501    0  0.00000000000E+00  0.00000000000E+00  0.18589255097E+04  0.18589255097E+04  0.25500000920E-02 0.  1.
       -2   -1    0    0    0  501  0.00000000000E+00  0.00000000000E+00 -0.12099127350E+04  0.12099127350E+04  0.25500000920E-02 0. -1.
    10030    2    1    2    0    0  0.00000000000E+00  0.00000000000E+00  0.64901277469E+03  0.30688382446E+04  0.29994250432E+04 0.  0.
        2    1    3    3  502    0 -0.28474895284E+03 -0.65355961280E+03 -0.10254658349E+04  0.12489204587E+04  0.25500000920E-02 0. -1.
       -2    1    3    3    0  502  0.28474895284E+03  0.65355961280E+03  0.16744786096E+04  0.18199177859E+04  0.25500000920E-02 0.  1.
</event>
<event>
 5   0  0.1709858E-06  0.3017471E+04  0.7818609E-02  0.8238759E-01
       -1   -1    0    0    0  501  0.00000000000E+00  0.00000000000E+00  0.99810885455E+03  0.99810885456E+03  0.50400001928E-02 0.  1.
        1   -1    0    0  501    0  0.00000000000E+00  0.00000000000E+00 -0.22805959405E+04  0.22805959405E+04  0.50400001928E-02 0. -1.
    10030    2    1    2    0    0  0.00000000000E+00  0.00000000000E+00 -0.12824870860E+04  0.32787047951E+04  0.30174711279E+04 0.  0.
        3    1    3    3  502    0 -0.12065730028E+03 -0.80690823270E+02  0.99050431992E+03  0.10010834186E+04  0.10100000352E+00 0.  1.
       -3    1    3    3    0  502  0.12065730028E+03  0.80690823270E+02 -0.22729914059E+04  0.22776213765E+04  0.10100000352E+00 0. -1.
</event>
<event>
 5   0  0.1700885E-06  0.3008149E+04  0.7818609E-02  0.8241408E-01
        1   -1    0    0  501    0  0.00000000000E+00  0.00000000000E+00  0.26099855174E+04  0.26099855174E+04  0.50400001928E-02 0.  1.
       -1   -1    0    0    0  501  0.00000000000E+00  0.00000000000E+00 -0.86676362603E+03  0.86676362605E+03  0.50400001928E-02 0. -1.
    10030    2    1    2    0    0  0.00000000000E+00  0.00000000000E+00  0.17432218914E+04  0.34767491434E+04  0.30081492722E+04 0.  0.
        1    1    3    3  502    0 -0.11529604870E+04 -0.20305473901E+03  0.19630041918E+04  0.22855928265E+04  0.50400001928E-02 0.  1.
       -1    1    3    3    0  502  0.11529604870E+04  0.20305473901E+03 -0.21978230046E+03  0.11911563169E+04  0.50400001928E-02 0. -1.
</event>
<event>
 5   0  0.1734885E-06  0.3051476E+04  0.7818609E-02  0.8229182E-01
        1   -1    0    0  501    0  0.00000000000E+00  0.00000000000E+00  0.16702821588E+04  0.16702821588E+04  0.50400001928E-02 0.  1.
       -1   -1    0    0    0  501  0.00000000000E+00  0.00000000000E+00 -0.13937026507E+04  0.13937026507E+04  0.50400001928E-02 0. -1.
    10030    2    1    2    0    0  0.00000000000E+00  0.00000000000E+00  0.27657950811E+03  0.30639848094E+04  0.30514761490E+04 0.  0.
        2    1    3    3  502    0 -0.10582857234E+04 -0.58205585147E+03  0.10743768242E+04  0.16164910291E+04  0.25500000920E-02 0. -1.
       -2    1    3    3    0  502  0.10582857234E+04  0.58205585147E+03 -0.79779731608E+03  0.14474937804E+04  0.25500000920E-02 0.  1.
</event>
<event>
 5   0  0.4702748E-06  0.3003909E+04  0.7818609E-02  0.8242616E-01
       -2   -1    0    0    0  501  0.00000000000E+00  0.00000000000E+00  0.10719032487E+04  0.10719032487E+04  0.25500000920E-02 0.  1.
        2   -1    0    0  501    0  0.00000000000E+00  0.00000000000E+00 -0.21045431131E+04  0.21045431131E+04  0.25500000920E-02 0. -1.
    10030    2    1    2    0    0  0.00000000000E+00  0.00000000000E+00 -0.10326398645E+04  0.31764463618E+04  0.30039085205E+04 0.  0.
        2    1    3    3  502    0  0.38347296761E+03 -0.98220566598E+03  0.61473675082E+03  0.12205247888E+04  0.25500000920E-02 0.  1.
       -2    1    3    3    0  502 -0.38347296761E+03  0.98220566598E+03 -0.16473766153E+04  0.19559215730E+04  0.25500000920E-02 0. -1.
</event>
<event>
 5   0  0.4935331E-06  0.3000300E+04  0.7818609E-02  0.8243645E-01
       -2   -1    0    0    0  501  0.00000000000E+00  0.00000000000E+00  0.16118066723E+04  0.16118066723E+04  0.25500000920E-02 0. -1.
        2   -1    0    0  501    0  0.00000000000E+00  0.00000000000E+00 -0.13962284311E+04  0.13962284311E+04  0.25500000920E-02 0.  1.
    10030    2    1    2    0    0  0.00000000000E+00  0.00000000000E+00  0.21557824122E+03  0.30080351033E+04  0.30003001858E+04 0.  0.
        5    1    3    3  502    0 -0.97945336558E+03 -0.67492072567E+03 -0.80866885489E+03  0.14383373346E+04  0.46999998093E+01 0.  1.
       -5    1    3    3    0  502  0.97945336558E+03  0.67492072567E+03  0.10242470961E+04  0.15696977687E+04  0.46999998093E+01 0. -1.
</event>
<event>
 5   0  0.1700885E-06  0.2993895E+04  0.7818609E-02  0.8245476E-01
       -1   -1    0    0    0  501  0.00000000000E+00  0.00000000000E+00  0.14578949210E+04  0.14578949210E+04  0.50400001928E-02 0. -1.
        1   -1    0    0  501    0  0.00000000000E+00  0.00000000000E+00 -0.15370463126E+04  0.15370463126E+04  0.50400001928E-02 0.  1.
    10030    2    1    2    0    0  0.00000000000E+00  0.00000000000E+00 -0.79151391527E+02  0.29949412336E+04  0.29938951301E+04 0.  0.
        1    1    3    3  502    0 -0.37131348706E+03  0.16302653802E+03 -0.14810513104E+04  0.15355664564E+04  0.50400001928E-02 0.  1.
       -1    1    3    3    0  502  0.37131348706E+03 -0.16302653802E+03  0.14018999189E+04  0.14593747772E+04  0.50400001928E-02 0. -1.
</event>
<event>
 5   0  0.4768570E-06  0.3039131E+04  0.7818609E-02  0.8232644E-01
        2   -1    0    0  501    0  0.00000000000E+00  0.00000000000E+00  0.17585263530E+04  0.17585263530E+04  0.25500000920E-02 0.  1.
       -2   -1    0    0    0  501  0.00000000000E+00  0.00000000000E+00 -0.13130763428E+04  0.13130763428E+04  0.25500000920E-02 0. -1.
    10030    2    1    2    0    0  0.00000000000E+00  0.00000000000E+00  0.44545001020E+03  0.30716026958E+04  0.30391310286E+04 0.  0.
        1    1    3    3  502    0  0.10377428266E+03  0.10560536605E+04  0.13220324499E+04  0.16952251279E+04  0.50400001928E-02 0.  1.
       -1    1    3    3    0  502 -0.10377428266E+03 -0.10560536605E+04 -0.87658243973E+03  0.13763775679E+04  0.50400001928E-02 0. -1.
</event>
<event>
 5   0  0.1700885E-06  0.2922319E+04  0.7818609E-02  0.8266268E-01
        1   -1    0    0  501    0  0.00000000000E+00  0.00000000000E+00  0.16992734966E+04  0.16992734966E+04  0.50400001928E-02 0. -1.
       -1   -1    0    0    0  501  0.00000000000E+00  0.00000000000E+00 -0.12564118157E+04  0.12564118157E+04  0.50400001928E-02 0.  1.
    10030    2    1    2    0    0  0.00000000000E+00  0.00000000000E+00  0.44286168084E+03  0.29556853123E+04  0.29223191470E+04 0.  0.
        1    1    3    3  502    0 -0.43317778367E+02  0.74213828798E+03 -0.10508432327E+04  0.12872129460E+04  0.50400001928E-02 0.  1.
       -1    1    3    3    0  502  0.43317778367E+02 -0.74213828798E+03  0.14937049136E+04  0.16684723664E+04  0.50400001928E-02 0. -1.
</event>
<event>
 5   0  0.4935331E-06  0.3019168E+04  0.7818609E-02  0.8238278E-01
       -2   -1    0    0    0  501  0.00000000000E+00  0.00000000000E+00  0.17516816755E+04  0.17516816755E+04  0.25500000920E-02 0.  1.
        2   -1    0    0  501    0  0.00000000000E+00  0.00000000000E+00 -0.13009467140E+04  0.13009467140E+04  0.25500000920E-02 0. -1.
    10030    2    1    2    0    0  0.00000000000E+00  0.00000000000E+00  0.45073496144E+03  0.30526283895E+04  0.30191684416E+04 0.  0.
        5    1    3    3  502    0 -0.39893993145E+03 -0.45417382032E+03 -0.11732178535E+04  0.13198064820E+04  0.46999998093E+01 0. -1.
       -5    1    3    3    0  502  0.39893993145E+03  0.45417382032E+03  0.16239528150E+04  0.17328219075E+04  0.46999998093E+01 0.  1.
</event>
<event>
 5   0  0.4532420E-06  0.2992863E+04  0.7818609E-02  0.8245772E-01
        2   -1    0    0  501    0  0.00000000000E+00  0.00000000000E+00  0.11954598635E+04  0.11954598635E+04  0.25500000920E-02 0.  1.
       -2   -1    0    0    0  501  0.00000000000E+00  0.00000000000E+00 -0.18731766553E+04  0.18731766553E+04  0.25500000920E-02 0. -1.
    10030    2    1    2    0    0  0.00000000000E+00  0.00000000000E+00 -0.67771679183E+03  0.30686365188E+04  0.29928631834E+04 0.  0.
        4    1    3    3  502    0  0.89387360928E+03 -0.92048555378E+03 -0.11284213111E+04  0.17086953948E+04  0.12699999809E+01 0.  1.
       -4    1    3    3    0  502 -0.89387360928E+03  0.92048555378E+03  0.45070451926E+03  0.13599411240E+04  0.12699999809E+01 0. -1.
</event>
<event>
 5   0  0.4935331E-06  0.3016654E+04  0.7818609E-02  0.8238991E-01
        2   -1    0    0  501    0  0.00000000000E+00  0.00000000000E+00  0.21962754770E+04  0.21962754770E+04  0.25500000920E-02 0. -1.
       -2   -1    0    0    0  501  0.00000000000E+00  0.00000000000E+00 -0.10358674237E+04  0.10358674237E+04  0.25500000920E-02 0.  1.
    10030    2    1    2    0    0  0.00000000000E+00  0.00000000000E+00  0.11604080534E+04  0.32321429007E+04  0.30166539212E+04 0.  0.
        5    1    3    3  502    0  0.81593519495E+03  0.59552790379E+01 -0.77897229653E+03  0.11280982388E+04  0.46999998093E+01 0.  1.
       -5    1    3    3    0  502 -0.81593519495E+03 -0.59552790379E+01  0.19393803499E+04  0.21040446619E+04  0.46999998093E+01 0. -1.
</event>
<event>
 5   0  0.4935331E-06  0.2992095E+04  0.7818609E-02  0.8245992E-01
       -2   -1    0    0    0  501  0.00000000000E+00  0.00000000000E+00  0.22546709655E+04  0.22546709655E+04  0.25500000920E-02 0. -1.
        2   -1    0    0  501    0  0.00000000000E+00  0.00000000000E+00 -0.99267648226E+03  0.99267648226E+03  0.25500000920E-02 0.  1.
    10030    2    1    2    0    0  0.00000000000E+00  0.00000000000E+00  0.12619944832E+04  0.32473474477E+04  0.29920954815E+04 0.  0.
        5    1    3    3  502    0 -0.31078165748E+03  0.27955856550E+03  0.21899927626E+04  0.22295355168E+04  0.46999998093E+01 0. -1.
       -5    1    3    3    0  502  0.31078165748E+03 -0.27955856550E+03 -0.92799827943E+03  0.10178119310E+04  0.46999998093E+01 0.  1.
</event>
<event>
 5   0  0.1734885E-06  0.3023662E+04  0.7818609E-02  0.8237006E-01
       -1   -1    0    0    0  501  0.00000000000E+00  0.00000000000E+00  0.11474583043E+04  0.11474583043E+04  0.50400001928E-02 0.  1.
        1   -1    0    0  501    0  0.00000000000E+00  0.00000000000E+00 -0.19919096672E+04  0.19919096672E+04  0.50400001928E-02 0. -1.
    10030    2    1    2    0    0  0.00000000000E+00  0.00000000000E+00 -0.84445136290E+03  0.31393679714E+04  0.30236622093E+04 0.  0.
        2    1    3    3  502    0  0.10741307051E+04  0.98954065951E+03 -0.16522628053E+02  0.14605548554E+04  0.25500000920E-02 0.  1.
       -2    1    3    3    0  502 -0.10741307051E+04 -0.98954065951E+03 -0.82792873484E+03  0.16788131160E+04  0.25500000920E-02 0. -1.
</event>
<event>
 5   0  0.4768570E-06  0.3013545E+04  0.7818609E-02  0.8239873E-01
       -2   -1    0    0    0  501  0.00000000000E+00  0.00000000000E+00  0.14754126099E+04  0.14754126099E+04  0.25500000920E-02 0.  1.
        2   -1    0    0  501    0  0.00000000000E+00  0.00000000000E+00 -0.15387994434E+04  0.15387994434E+04  0.25500000920E-02 0. -1.
    10030    2    1    2    0    0  0.00000000000E+00  0.00000000000E+00 -0.63386833483E+02  0.30142120533E+04  0.30135454885E+04 0.  0.
        1    1    3    3  502    0 -0.12613389171E+04 -0.81954607136E+03  0.56260531720E+02  0.15052564148E+04  0.50400001928E-02 0.  1.
       -1    1    3    3    0  502  0.12613389171E+04  0.81954607136E+03 -0.11964736520E+03  0.15089556385E+04  0.50400001928E-02 0. -1.
</event>
<event>
 5   0  0.1734885E-06  0.2932746E+04  0.7818609E-02  0.8263201E-01
        1   -1    0    0  501    0  0.00000000000E+00  0.00000000000E+00  0.31149177388E+04  0.31149177388E+04  0.50400001928E-02 0.  1.
       -1   -1    0    0    0  501  0.00000000000E+00  0.00000000000E+00 -0.69030731106E+03  0.69030731108E+03  0.50400001928E-02 0. -1.
    10030    2    1    2    0    0  0.00000000000E+00  0.00000000000E+00  0.24246104278E+04  0.38052250499E+04  0.29327464865E+04 0.  0.
        2    1    3    3  502    0  0.10485054344E+03 -0.74189324438E+03 -0.42318310292E+03  0.86051331258E+03  0.25500000920E-02 0. -1.
       -2    1    3    3    0  502 -0.10485054344E+03  0.74189324438E+03  0.28477935307E+04  0.29447117373E+04  0.25500000920E-02 0.  1.
</event>
<event>
 5   0  0.4532420E-06  0.2991499E+04  0.7818609E-02  0.8246162E-01
       -2   -1    0    0    0  501  0.00000000000E+00  0.00000000000E+00  0.12144280439E+04  0.12144280439E+04  0.25500000920E-02 0. -1.
        2   -1    0    0  501    0  0.00000000000E+00  0.00000000000E+00 -0.18422391456E+04  0.18422391456E+04  0.25500000920E-02 0.  1.
    10030    2    1    2    0    0  0.00000000000E+00  0.00000000000E+00 -0.62781110176E+03  0.30566671895E+04  0.29914992107E+04 0.  0.
        4    1    3    3  502    0  0.51825797164E+03  0.14027440762E+04 -0.28186971033E+03  0.15217537301E+04  0.12699999809E+01 0. -1.
       -4    1    3    3    0  502 -0.51825797164E+03 -0.14027440762E+04 -0.34594139143E+03  0.15349134594E+04  0.12699999809E+01 0.  1.
</event>
<event>
 5   0  0.1709858E-06  0.3192053E+04  0.7818609E-02  0.8190919E-01
        1   -1    0    0  501    0  0.00000000000E+00  0.00000000000E+00  0.75926787088E+03  0.75926787089E+03  0.50400001928E-02 0.  1.
       -1   -1    0    0    0  501  0.00000000000E+00  0.00000000000E+00 -0.33549431770E+04  0.33549431770E+04  0.50400001928E-02 0. -1.
    10030    2    1    2    0    0  0.00000000000E+00  0.00000000000E+00 -0.25956753062E+04  0.41142110479E+04  0.31920529839E+04 0.  0.
        3    1    3    3  502    0 -0.13736472688E+04 -0.24339142526E+03 -0.29850639753E+03  0.14266226847E+04  0.10100000352E+00 0.  1.
       -3    1    3    3    0  502  0.13736472688E+04  0.24339142526E+03 -0.22971689086E+04  0.26875883632E+04  0.10100000352E+00 0. -1.
</event>
<event>
 5   0  0.5003556E-06  0.3016749E+04  0.7818609E-02  0.8238964E-01
       -2   -1    0    0    0  501  0.00000000000E+00  0.00000000000E+00  0.15680274922E+04  0.15680274922E+04  0.25500000920E-02 0. -1.
        2   -1    0    0  501    0  0.00000000000E+00  0.00000000000E+00 -0.14509908742E+04  0.14509908742E+04  0.25500000920E-02 0.  1.
    10030    2    1    2    0    0  0.00000000000E+00  0.00000000000E+00  0.11703661792E+03  0.30190183664E+04  0.30167489665E+04 0.  0.
        3    1    3    3  502    0  0.29711307000E+03  0.52340745774E+03  0.14426574733E+04  0.15631673419E+04  0.10100000352E+00 0. -1.
       -3    1    3    3    0  502 -0.29711307000E+03 -0.52340745774E+03 -0.13256208554E+04  0.14558510245E+04  0.10100000352E+00 0.  1.
</event>
<event>
 5   0  0.1686012E-06  0.2879231E+04  0.7818609E-02  0.8279084E-01
       -1   -1    0    0    0  501  0.00000000000E+00  0.00000000000E+00  0.16516740435E+04  0.16516740435E+04  0.50400001928E-02 0. -1.
        1   -1    0    0  501    0  0.00000000000E+00  0.00000000000E+00 -0.12547828395E+04  0.12547828395E+04  0.50400001928E-02 0.  1.
    10030    2    1    2    0    0  0.00000000000E+00  0.00000000000E+00  0.39689120407E+03  0.29064568830E+04  0.28792306238E+04 0.  0.
        4    1    3    3  502    0 -0.74703295623E+03  0.11382177859E+04 -0.27383818685E+03  0.13887357313E+04  0.12699999809E+01 0. -1.
       -4    1    3    3    0  502  0.74703295623E+03 -0.11382177859E+04  0.67072939092E+03  0.15177211518E+04  0.12699999809E+01 0.  1.
</event>
<event>
 5   0  0.4768570E-06  0.3009254E+04  0.7818609E-02  0.8241093E-01
        2   -1    0    0  501    0  0.00000000000E+00  0.00000000000E+00  0.13618333049E+04  0.13618333049E+04  0.25500000920E-02 0. -1.
       -2   -1    0    0    0  501  0.00000000000E+00  0.00000000000E+00 -0.16623930177E+04  0.16623930177E+04  0.25500000920E-02 0.  1.
    10030    2    1    2    0    0  0.00000000000E+00  0.00000000000E+00 -0.30055971285E+03  0.30242263226E+04  0.30092538459E+04 0.  0.
        1    1    3    3  502    0 -0.60472313534E+03 -0.47921452705E+03 -0.14484365005E+04  0.16411291629E+04  0.50400001928E-02 0.  1.
       -1    1    3    3    0  502  0.60472313534E+03  0.47921452705E+03  0.11478767877E+04  0.13830971597E+04  0.50400001928E-02 0. -1.
</event>
<event>
 5   0  0.1672907E-06  0.2953601E+04  0.7818609E-02  0.8257106E-01
       -1   -1    0    0    0  501  0.00000000000E+00  0.00000000000E+00  0.17714323280E+04  0.17714323280E+04  0.50400001928E-02 0. -1.
        1   -1    0    0  501    0  0.00000000000E+00  0.00000000000E+00 -0.12311730010E+04  0.12311730010E+04  0.50400001928E-02 0.  1.
    10030    2    1    2    0    0  0.00000000000E+00  0.00000000000E+00  0.54025932698E+03  0.30026053290E+04  0.29536009584E+04 0.  0.
        5    1    3    3  502    0 -0.13758882274E+04  0.23351231739E+03  0.76117714031E+03  0.15896569270E+04  0.46999998093E+01 0. -1.
       -5    1    3    3    0  502  0.13758882274E+04 -0.23351231739E+03 -0.22091781333E+03  0.14129484020E+04  0.46999998093E+01 0.  1.
</event>
<event>
 5   0  0.1686012E-06  0.3152829E+04  0.7818609E-02  0.8201387E-01
       -1   -1    0    0    0  501  0.00000000000E+00  0.00000000000E+00  0.14554408207E+04  0.14554408207E+04  0.50400001928E-02 0. -1.
        1   -1    0    0  501    0  0.00000000000E+00  0.00000000000E+00 -0.17074430331E+04  0.17074430331E+04  0.50400001928E-02 0.  1.
    10030    2    1    2    0    0  0.00000000000E+00  0.00000000000E+00 -0.25200221239E+03  0.31628838539E+04  0.31528287550E+04 0.  0.
        4    1    3    3  502    0  0.58357202959E+03 -0.73121027525E+03  0.11468463610E+04  0.14800280298E+04  0.12699999809E+01 0. -1.
       -4    1    3    3    0  502 -0.58357202959E+03  0.73121027525E+03 -0.13988485734E+04  0.16828558241E+04  0.12699999809E+01 0.  1.
</event>
<event>
 5   0  0.5003556E-06  0.2985828E+04  0.7818609E-02  0.8247789E-01
        2   -1    0    0  501    0  0.00000000000E+00  0.00000000000E+00  0.20456938228E+04  0.20456938228E+04  0.25500000920E-02 0. -1.
       -2   -1    0    0    0  501  0.00000000000E+00  0.00000000000E+00 -0.10895043963E+04  0.10895043963E+04  0.25500000920E-02 0.  1.
    10030    2    1    2    0    0  0.00000000000E+00  0.00000000000E+00  0.95618942645E+03  0.31351982191E+04  0.29858281354E+04 0.  0.
        3    1    3    3  502    0 -0.28610961821E+02  0.14365708836E+04  0.52558126237E+02  0.14378166982E+04  0.10100000352E+00 0.  1.
       -3    1    3    3    0  502  0.28610961821E+02 -0.14365708836E+04  0.90363130022E+03  0.16973815209E+04  0.10100000352E+00 0. -1.
</event>
<event>
 5   0  0.1672907E-06  0.3002151E+04  0.7818609E-02  0.8243117E-01
        1   -1    0    0  501    0  0.00000000000E+00  0.00000000000E+00  0.14804571260E+04  0.14804571260E+04  0.50400001928E-02 0. -1.
       -1   -1    0    0    0  501  0.00000000000E+00  0.00000000000E+00 -0.15219810863E+04  0.15219810863E+04  0.50400001928E-02 0.  1.
    10030    2    1    2    0    0  0.00000000000E+00  0.00000000000E+00 -0.41523960307E+02  0.30024382124E+04  0.30021510588E+04 0.  0.
        5    1    3    3  502    0 -0.63597999296E+03  0.31358779505E+03 -0.13439145273E+04  0.15195184116E+04  0.46999998093E+01 0.  1.
       -5    1    3    3    0  502  0.63597999296E+03 -0.31358779505E+03  0.13023905669E+04  0.14829198008E+04  0.46999998093E+01 0. -1.
</event>
<event>
 5   0  0.1709858E-06  0.2984617E+04  0.7818609E-02  0.8248137E-01
       -1   -1    0    0    0  501  0.00000000000E+00  0.00000000000E+00  0.14431936646E+04  0.14431936646E+04  0.50400001928E-02 0.  1.
        1   -1    0    0  501    0  0.00000000000E+00  0.00000000000E+00 -0.15430946465E+04  0.15430946465E+04  0.50400001928E-02 0. -1.
    10030    2    1    2    0    0  0.00000000000E+00  0.00000000000E+00 -0.99900981898E+02  0.29862883111E+04  0.29846168382E+04 0.  0.
        3    1    3    3  502    0  0.12140541697E+04 -0.32346040760E+03 -0.85565312132E+03  0.15200975089E+04  0.10100000352E+00 0. -1.
       -3    1    3    3    0  502 -0.12140541697E+04  0.32346040760E+03  0.75575213942E+03  0.14661908023E+04  0.10100000352E+00 0.  1.
</event>
<event>
 5   0  0.1734885E-06  0.2987493E+04  0.7818609E-02  0.8247311E-01
       -1   -1    0    0    0  501  0.00000000000E+00  0.00000000000E+00  0.14702788668E+04  0.14702788668E+04  0.50400001928E-02 0.  1.
        1   -1    0    0  501    0  0.00000000000E+00  0.00000000000E+00 -0.15175888566E+04  0.15175888566E+04  0.50400001928E-02 0. -1.
    10030    2    1    2    0    0  0.00000000000E+00  0.00000000000E+00 -0.47309989883E+02  0.29878677234E+04  0.29874931460E+04 0.  0.
        2    1    3    3  502    0  0.44324569194E+03 -0.36974485721E+02 -0.14498229074E+04  0.15165158485E+04  0.25500000920E-02 0. -1.
       -2    1    3    3    0  502 -0.44324569194E+03  0.36974485721E+02  0.14025129175E+04  0.14713518749E+04  0.25500000920E-02 0.  1.
</event>
<event>
 5   0  0.4702748E-06  0.2998967E+04  0.7818609E-02  0.8244026E-01
       -2   -1    0    0    0  501  0.00000000000E+00  0.00000000000E+00  0.17211443805E+04  0.17211443805E+04  0.25500000920E-02 0.  1.
        2   -1    0    0  501    0  0.00000000000E+00  0.00000000000E+00 -0.13063695109E+04  0.13063695109E+04  0.25500000920E-02 0. -1.
    10030    2    1    2    0    0  0.00000000000E+00  0.00000000000E+00  0.41477486956E+03  0.30275138914E+04  0.29989668505E+04 0.  0.
        2    1    3    3  502    0  0.80550515101E+03  0.77697551261E+03  0.12148453993E+04  0.16517805059E+04  0.25500000920E-02 0.  1.
       -2    1    3    3    0  502 -0.80550515101E+03 -0.77697551261E+03 -0.80007052971E+03  0.13757333855E+04  0.25500000920E-02 0. -1.
</event>
<event>
 5   0  0.1686012E-06  0.2977049E+04  0.7818609E-02  0.8250315E-01
        1   -1    0    0  501    0  0.00000000000E+00  0.00000000000E+00  0.19937805600E+04  0.19937805600E+04  0.50400001928E-02 0.  1.
       -1   -1    0    0    0  501  0.00000000000E+00  0.00000000000E+00 -0.11113086844E+04  0.11113086844E+04  0.50400001928E-02 0. -1.
    10030    2    1    2    0    0  0.00000000000E+00  0.00000000000E+00  0.88247187557E+03  0.31050892444E+04  0.29770493117E+04 0.  0.
        4    1    3    3  502    0 -0.11175599105E+04  0.12340744374E+02 -0.58421304304E+03  0.12611102014E+04  0.12699999809E+01 0. -1.
       -4    1    3    3    0  502  0.11175599105E+04 -0.12340744374E+02  0.14666849186E+04  0.18439790430E+04  0.12699999809E+01 0.  1.
</event>
<event>
 5   0  0.1734885E-06  0.2991449E+04  0.7818609E-02  0.8246177E-01
       -1   -1    0    0    0  501  0.00000000000E+00  0.00000000000E+00  0.13156130685E+04  0.13156130685E+04  0.50400001928E-02 0.  1.
        1   -1    0    0  501    0  0.00000000000E+00  0.00000000000E+00 -0.17004934481E+04  0.17004934481E+04  0.50400001928E-02 0. -1.
    10030    2    1    2    0    0  0.00000000000E+00  0.00000000000E+00 -0.38488037957E+03  0.30161065166E+04  0.29914487482E+04 0.  0.
        2    1    3    3  502    0  0.84264250365E+03 -0.10249084830E+04  0.50369109770E+03  0.14192210925E+04  0.25500000920E-02 0.  1.
       -2    1    3    3    0  502 -0.84264250365E+03  0.10249084830E+04 -0.88857147727E+03  0.15968854241E+04  0.25500000920E-02 0. -1.
</event>
<event>
 5   0  0.1709858E-06  0.3012648E+04  0.7818609E-02  0.8240128E-01
        1   -1    0    0  501    0  0.00000000000E+00  0.00000000000E+00  0.12510011484E+04  0.12510011484E+04  0.50400001928E-02 0. -1.
       -1   -1    0    0    0  501  0.00000000000E+00  0.00000000000E+00 -0.18137567974E+04  0.18137567974E+04  0.50400001928E-02 0.  1.
    10030    2    1    2    0    0  0.00000000000E+00  0.00000000000E+00 -0.56275564896E+03  0.30647579458E+04  0.30126478961E+04 0.  0.
        3    1    3    3  502    0 -0.12536644733E+04 -0.68024492109E+03  0.21135962027E+03  0.14419017524E+04  0.10100000352E+00 0.  1.
       -3    1    3    3    0  502  0.12536644733E+04  0.68024492109E+03 -0.77411526923E+03  0.16228561934E+04  0.10100000352E+00 0. -1.
</event>
<event>
 5   0  0.4768570E-06  0.2852480E+04  0.7818609E-02  0.8287158E-01
       -2   -1    0    0    0  501  0.00000000000E+00  0.00000000000E+00  0.86356550810E+03  0.86356550810E+03  0.25500000920E-02 0. -1.
        2   -1    0    0  501    0  0.00000000000E+00  0.00000000000E+00 -0.23555367286E+04  0.23555367286E+04  0.25500000920E-02 0.  1.
    10030    2    1    2    0    0  0.00000000000E+00  0.00000000000E+00 -0.14919712205E+04  0.32191022367E+04  0.28524798137E+04 0.  0.
        1    1    3    3  502    0  0.89715927829E+03  0.10941236370E+04 -0.94836358362E+03  0.17033481120E+04  0.50400001928E-02 0.  1.
       -1    1    3    3    0  502 -0.89715927829E+03 -0.10941236370E+04 -0.54360763687E+03  0.15157541247E+04  0.50400001928E-02 0. -1.
</event>
<event>
 5   0  0.4532420E-06  0.2878727E+04  0.7818609E-02  0.8279235E-01
        2   -1    0    0  501    0  0.00000000000E+00  0.00000000000E+00  0.26662503489E+04  0.26662503489E+04  0.25500000920E-02 0. -1.
       -2   -1    0    0    0  501  0.00000000000E+00  0.00000000000E+00 -0.77703428001E+03  0.77703428001E+03  0.25500000920E-02 0.  1.
    10030    2    1    2    0    0  0.00000000000E+00  0.00000000000E+00  0.18892160689E+04  0.34432846289E+04  0.28787274412E+04 0.  0.
        4    1    3    3  502    0  0.68540599822E+03  0.92351191682E+03 -0.90642267975E+02  0.11536348107E+04  0.12699999809E+01 0.  1.
       -4    1    3    3    0  502 -0.68540599822E+03 -0.92351191682E+03  0.19798583368E+04  0.22896498182E+04  0.12699999809E+01 0. -1.
</event>
<event>
 5   0  0.1700885E-06  0.3006386E+04  0.7818609E-02  0.8241910E-01
       -1   -1    0    0    0  501  0.00000000000E+00  0.00000000000E+00  0.24922644505E+04  0.24922644505E+04  0.50400001928E-02 0.  1.
        1   -1    0    0  501    0  0.00000000000E+00  0.00000000000E+00 -0.90664084277E+03  0.90664084278E+03  0.50400001928E-02 0. -1.
    10030    2    1    2    0    0  0.00000000000E+00  0.00000000000E+00  0.15856236077E+04  0.33989052932E+04  0.30063856983E+04 0.  0.
        1    1    3    3  502    0  0.20279095517E+01 -0.11421184720E+04 -0.31210648610E+03  0.11839971179E+04  0.50400001928E-02 0. -1.
       -1    1    3    3    0  502 -0.20279095517E+01  0.11421184720E+04  0.18977300938E+04  0.22149081754E+04  0.50400001928E-02 0.  1.
</event>
<event>
 5   0  0.4768570E-06  0.3047071E+04  0.7818609E-02  0.8230416E-01
       -2   -1    0    0    0  501  0.00000000000E+00  0.00000000000E+00  0.22703760791E+04  0.22703760791E+04  0.25500000920E-02 0.  1.
        2   -1    0    0  501    0  0.00000000000E+00  0.00000000000E+00 -0.10223682830E+04  0.10223682830E+04  0.25500000920E-02 0. -1.
    10030    2    1    2    0    0  0.00000000000E+00  0.00000000000E+00  0.12480077962E+04  0.32927443621E+04  0.30470710486E+04 0.  0.
        1    1    3    3  502    0  0.12541858598E+04  0.57584085467E+03  0.13214771836E+04  0.19107267747E+04  0.50400001928E-02 0.  1.
       -1    1    3    3    0  502 -0.12541858598E+04 -0.57584085467E+03 -0.73469387398E+02  0.13820175874E+04  0.50400001928E-02 0. -1.
</event>
<event>
 5   0  0.4532420E-06  0.2882651E+04  0.7818609E-02  0.8278058E-01
        2   -1    0    0  501    0  0.00000000000E+00  0.00000000000E+00  0.14290345963E+04  0.14290345963E+04  0.25500000920E-02 0. -1.
       -2   -1    0    0    0  501  0.00000000000E+00  0.00000000000E+00 -0.14537218206E+04  0.14537218206E+04  0.25500000920E-02 0.  1.
    10030    2    1    2    0    0  0.00000000000E+00  0.00000000000E+00 -0.24687224289E+02  0.28827564169E+04  0.28826507073E+04 0.  0.
        4    1    3    3  502    0 -0.11487091593E+04 -0.84738296922E+02 -0.87880706177E+03  0.14487983905E+04  0.12699999809E+01 0.  1.
       -4    1    3    3    0  502  0.11487091593E+04  0.84738296922E+02  0.85411983748E+03  0.14339580264E+04  0.12699999809E+01 0. -1.
</event>
<event>
 5   0  0.4935331E-06  0.3032096E+04  0.7818609E-02  0.8234625E-01
       -2   -1    0    0    0  501  0.00000000000E+00  0.00000000000E+00  0.17571848929E+04  0.17571848929E+04  0.25500000920E-02 0. -1.
        2   -1    0    0  501    0  0.00000000000E+00  0.00000000000E+00 -0.13080017953E+04  0.13080017953E+04  0.25500000920E-02 0.  1.
    10030    2    1    2    0    0  0.00000000000E+00  0.00000000000E+00  0.44918309759E+03  0.30651866883E+04  0.30320956414E+04 0.  0.
        5    1    3    3  502    0  0.11659268055E+04 -0.93699032270E+03  0.47435620840E+03  0.15691947244E+04  0.46999998093E+01 0.  1.
       -5    1    3    3    0  502 -0.11659268055E+04  0.93699032270E+03 -0.25173110813E+02  0.14959919639E+04  0.46999998093E+01 0. -1.
</event>
<event>
 5   0  0.4768570E-06  0.2994075E+04  0.7818609E-02  0.8245425E-01
        2   -1    0    0  501    0  0.00000000000E+00  0.00000000000E+00  0.14591372612E+04  0.14591372612E+04  0.25500000920E-02 0. -1.
       -2   -1    0    0    0  501  0.00000000000E+00  0.00000000000E+00 -0.15359219534E+04  0.15359219534E+04  0.25500000920E-02 0.  1.
    10030    2    1    2    0    0  0.00000000000E+00  0.00000000000E+00 -0.76784692268E+02  0.29950592146E+04  0.29940747836E+04 0.  0.
        1    1    3    3  502    0 -0.96755194505E+03  0.87394242865E+03 -0.77428959048E+03  0.15163958932E+04  0.50400001928E-02 0.  1.
       -1    1    3    3    0  502  0.96755194505E+03 -0.87394242865E+03  0.69750489821E+03  0.14786633214E+04  0.50400001928E-02 0. -1.
</event>
<event>
 5   0  0.4935331E-06  0.2891868E+04  0.7818609E-02  0.8275301E-01
        2   -1    0    0  501    0  0.00000000000E+00  0.00000000000E+00  0.11754175223E+04  0.11754175223E+04  0.25500000920E-02 0. -1.
       -2   -1    0    0    0  501  0.00000000000E+00  0.00000000000E+00 -0.17787083387E+04  0.17787083387E+04  0.25500000920E-02 0.  1.
    10030    2    1    2    0    0  0.00000000000E+00  0.00000000000E+00 -0.60329081637E+03  0.29541258609E+04  0.28918678727E+04 0.  0.
        5    1    3    3  502    0 -0.11170686918E+04 -0.44812934781E+03  0.51687922650E+03  0.13099040421E+04  0.46999998093E+01 0. -1.
       -5    1    3    3    0  502  0.11170686918E+04  0.44812934781E+03 -0.11201700429E+04  0.16442218189E+04  0.46999998093E+01 0.  1.
</event>
<event>
 5   0  0.4768570E-06  0.3003269E+04  0.7818609E-02  0.8242798E-01
       -2   -1    0    0    0  501  0.00000000000E+00  0.00000000000E+00  0.94780470405E+03  0.94780470405E+03  0.25500000920E-02 0. -1.
        2   -1    0    0  501    0  0.00000000000E+00  0.00000000000E+00 -0.23790824666E+04  0.23790824666E+04  0.25500000920E-02 0.  1.
    10030    2    1    2    0    0  0.00000000000E+00  0.00000000000E+00 -0.14312777626E+04  0.33268871707E+04  0.30032685882E+04 0.  0.
        1    1    3    3  502    0  0.16800476392E+03 -0.14918633023E+04 -0.68019348168E+03  0.16481944321E+04  0.50400001928E-02 0.  1.
       -1    1    3    3    0  502 -0.16800476392E+03  0.14918633023E+04 -0.75108428088E+03  0.16786927386E+04  0.50400001928E-02 0. -1.
</event>
<event>
 5   0  0.1686012E-06  0.2984231E+04  0.7818609E-02  0.8248248E-01
       -1   -1    0    0    0  501  0.00000000000E+00  0.00000000000E+00  0.14563044779E+04  0.14563044779E+04  0.50400001928E-02 0. -1.
        1   -1    0    0  501    0  0.00000000000E+00  0.00000000000E+00 -0.15288073596E+04  0.15288073596E+04  0.50400001928E-02 0.  1.
    10030    2    1    2    0    0  0.00000000000E+00  0.00000000000E+00 -0.72502881649E+02  0.29851118375E+04  0.29842312268E+04 0.  0.
        4    1    3    3  502    0 -0.98947749035E+03 -0.48855464939E+02  0.10798532502E+04  0.14654477866E+04  0.12699999809E+01 0. -1.
       -4    1    3    3    0  502  0.98947749035E+03  0.48855464939E+02 -0.11523561318E+04  0.15196640510E+04  0.12699999809E+01 0.  1.
</event>
<event>
 5   0  0.1709858E-06  0.3002900E+04  0.7818609E-02  0.8242903E-01
        1   -1    0    0  501    0  0.00000000000E+00  0.00000000000E+00  0.14776716725E+04  0.14776716726E+04  0.50400001928E-02 0.  1.
       -1   -1    0    0    0  501  0.00000000000E+00  0.00000000000E+00 -0.15256112760E+04  0.15256112760E+04  0.50400001928E-02 0. -1.
    10030    2    1    2    0    0  0.00000000000E+00  0.00000000000E+00 -0.47939603495E+02  0.30032829486E+04  0.30029003087E+04 0.  0.
        3    1    3    3  502    0 -0.54545702721E+03 -0.10924542183E+04  0.84985370657E+03  0.14876931540E+04  0.10100000352E+00 0.  1.
       -3    1    3    3    0  502  0.54545702721E+03  0.10924542183E+04 -0.89779331007E+03  0.15155897946E+04  0.10100000352E+00 0. -1.
</event>
<event>
 5   0  0.4768570E-06  0.2994812E+04  0.7818609E-02  0.8245214E-01
        2   -1    0    0  501    0  0.00000000000E+00  0.00000000000E+00  0.71486481420E+03  0.71486481420E+03  0.25500000920E-02 0. -1.
       -2   -1    0    0    0  501  0.00000000000E+00  0.00000000000E+00 -0.31365726100E+04  0.31365726100E+04  0.25500000920E-02 0.  1.
    10030    2    1    2    0    0  0.00000000000E+00  0.00000000000E+00 -0.24217077958E+04  0.38514374242E+04  0.29948124456E+04 0.  0.
        1    1    3    3  502    0  0.11000417290E+04  0.41205820943E+03 -0.16610384266E+02  0.11748019741E+04  0.50400001928E-02 0. -1.
       -1    1    3    3    0  502 -0.11000417290E+04 -0.41205820943E+03 -0.24050974116E+04  0.26766354501E+04  0.50400001928E-02 0.  1.
</event>
<event>
 5   0  0.1734885E-06  0.3006995E+04  0.7818609E-02  0.8241736E-01
        1   -1    0    0  501    0  0.00000000000E+00  0.00000000000E+00  0.18433647369E+04  0.18433647369E+04  0.50400001928E-02 0.  1.
       -1   -1    0    0    0  501  0.00000000000E+00  0.00000000000E+00 -0.12262923507E+04  0.12262923508E+04  0.50400001928E-02 0. -1.
    10030    2    1    2    0    0  0.00000000000E+00  0.00000000000E+00  0.61707238615E+03  0.30696570876E+04  0.30069945637E+04 0.  0.
        2    1    3    3  502    0  0.30921771151E+03 -0.86606239159E+03  0.15227872586E+04  0.17789212164E+04  0.25500000920E-02 0. -1.
       -2    1    3    3    0  502 -0.30921771151E+03  0.86606239159E+03 -0.90571487242E+03  0.12907358713E+04  0.25500000920E-02 0.  1.
</event>
<event>
 5   0  0.4702748E-06  0.2992432E+04  0.7818609E-02  0.8245895E-01
       -2   -1    0    0    0  501  0.00000000000E+00  0.00000000000E+00  0.12274559292E+04  0.12274559292E+04  0.25500000920E-02 0.  1.
        2   -1    0    0  501    0  0.00000000000E+00  0.00000000000E+00 -0.18238227318E+04  0.18238227318E+04  0.25500000920E-02 0. -1.
    10030    2    1    2    0    0  0.00000000000E+00  0.00000000000E+00 -0.59636680268E+03  0.30512786610E+04  0.29924318044E+04 0.  0.
        2    1    3    3  502    0  0.73106237801E+03  0.28886667897E+03  0.99994529626E+03  0.12719224639E+04  0.25500000920E-02 0.  1.
       -2    1    3    3    0  502 -0.73106237801E+03 -0.28886667897E+03 -0.15963120989E+04  0.17793561971E+04  0.25500000920E-02 0. -1.
</event>
<event>
 5   0  0.1686012E-06  0.3004261E+04  0.7818609E-02  0.8242515E-01
        1   -1    0    0  501    0  0.00000000000E+00  0.00000000000E+00  0.17415415412E+04  0.17415415412E+04  0.50400001928E-02 0.  1.
       -1   -1    0    0    0  501  0.00000000000E+00  0.00000000000E+00 -0.12956311515E+04  0.12956311515E+04  0.50400001928E-02 0. -1.
    10030    2    1    2    0    0  0.00000000000E+00  0.00000000000E+00  0.44591038971E+03  0.30371726926E+04  0.30042606227E+04 0.  0.
        4    1    3    3  502    0 -0.13975956014E+04 -0.90047133034E+02 -0.32614507138E+03  0.14379687659E+04  0.12699999809E+01 0.  1.
       -4    1    3    3    0  502  0.13975956014E+04  0.90047133034E+02  0.77205546108E+03  0.15992039267E+04  0.12699999809E+01 0. -1.
</event>
<event>
 5   0  0.4935331E-06  0.3003392E+04  0.7818609E-02  0.8242763E-01
        2   -1    0    0  501    0  0.00000000000E+00  0.00000000000E+00  0.98708502230E+03  0.98708502231E+03  0.25500000920E-02 0. -1.
       -2   -1    0    0    0  501  0.00000000000E+00  0.00000000000E+00 -0.22845969465E+04  0.22845969465E+04  0.25500000920E-02 0.  1.
    10030    2    1    2    0    0  0.00000000000E+00  0.00000000000E+00 -0.12975119242E+04  0.32716819688E+04  0.30033923673E+04 0.  0.
        5    1    3    3  502    0 -0.88717457636E+03 -0.36332121030E+03 -0.19078562879E+04  0.21351858786E+04  0.46999998093E+01 0.  1.
       -5    1    3    3    0  502  0.88717457636E+03  0.36332121030E+03  0.61034436371E+03  0.11364960902E+04  0.46999998093E+01 0. -1.
</event>
<event>
 5   0  0.1700885E-06  0.2984845E+04  0.7818609E-02  0.8248072E-01
       -1   -1    0    0    0  501  0.00000000000E+00  0.00000000000E+00  0.95271560844E+03  0.95271560846E+03  0.50400001928E-02 0.  1.
        1   -1    0    0  501    0  0.00000000000E+00  0.00000000000E+00 -0.23378701276E+04  0.23378701276E+04  0.50400001928E-02 0. -1.
    10030    2    1    2    0    0  0.00000000000E+00  0.00000000000E+00 -0.13851545192E+04  0.32905857361E+04  0.29848452966E+04 0.  0.
        1    1    3    3  502    0 -0.17550069402E+03  0.11124060626E+04 -0.17722155091E+04  0.20997608322E+04  0.50400001928E-02 0. -1.
       -1    1    3    3    0  502  0.17550069402E+03 -0.11124060626E+04  0.38706098993E+03  0.11908249039E+04  0.50400001928E-02 0.  1.
</event>
<event>
 5   0  0.4768570E-06  0.3012173E+04  0.7818609E-02  0.8240263E-01
       -2   -1    0    0    0  501  0.00000000000E+00  0.00000000000E+00  0.13922524065E+04  0.13922524065E+04  0.25500000920E-02 0.  1.
        2   -1    0    0  501    0  0.00000000000E+00  0.00000000000E+00 -0.16292280985E+04  0.16292280985E+04  0.25500000920E-02 0. -1.
    10030    2    1    2    0    0  0.00000000000E+00  0.00000000000E+00 -0.23697569201E+03  0.30214805050E+04  0.30121731297E+04 0.  0.
        1    1    3    3  502    0  0.60080140624E+03  0.96128122460E+03  0.87617726131E+03  0.14327283468E+04  0.50400001928E-02 0.  1.
       -1    1    3    3    0  502 -0.60080140624E+03 -0.96128122460E+03 -0.11131529533E+04  0.15887521581E+04  0.50400001928E-02 0. -1.
</event>
<event>
 5   0  0.1734885E-06  0.2986821E+04  0.7818609E-02  0.8247504E-01
        1   -1    0    0  501    0  0.00000000000E+00  0.00000000000E+00  0.22232034077E+04  0.22232034077E+04  0.50400001928E-02 0. -1.
       -1   -1    0    0    0  501  0.00000000000E+00  0.00000000000E+00 -0.10031810248E+04  0.10031810248E+04  0.50400001928E-02 0.  1.
    10030    2    1    2    0    0  0.00000000000E+00  0.00000000000E+00  0.12200223829E+04  0.32263844325E+04  0.29868213692E+04 0.  0.
        2    1    3    3  502    0 -0.97440759696E+03 -0.25442858049E+03  0.18012159015E+04  0.20636333956E+04  0.25500000920E-02 0. -1.
       -2    1    3    3    0  502  0.97440759696E+03  0.25442858049E+03 -0.58119351862E+03  0.11627510368E+04  0.25500000920E-02 0.  1.
</event>
<event>
 5   0  0.1734885E-06  0.2993188E+04  0.7818609E-02  0.8245679E-01
        1   -1    0    0  501    0  0.00000000000E+00  0.00000000000E+00  0.15199888361E+04  0.15199888361E+04  0.50400001928E-02 0.  1.
       -1   -1    0    0    0  501  0.00000000000E+00  0.00000000000E+00 -0.14735590905E+04  0.14735590905E+04  0.50400001928E-02 0. -1.
    10030    2    1    2    0    0  0.00000000000E+00  0.00000000000E+00  0.46429745578E+02  0.29935479266E+04  0.29931878437E+04 0.  0.
        2    1    3    3  502    0  0.23267101863E+03  0.92710435044E+03 -0.11285030514E+04  0.14789108886E+04  0.25500000920E-02 0. -1.
       -2    1    3    3    0  502 -0.23267101863E+03 -0.92710435044E+03  0.11749327970E+04  0.15146370380E+04  0.25500000920E-02 0.  1.
</event>
<event>
 5   0  0.1672907E-06  0.3030461E+04  0.7818609E-02  0.8235086E-01
       -1   -1    0    0    0  501  0.00000000000E+00  0.00000000000E+00  0.12105353978E+04  0.12105353978E+04  0.50400001928E-02 0. -1.
        1   -1    0    0  501    0  0.00000000000E+00  0.00000000000E+00 -0.18966187472E+04  0.18966187472E+04  0.50400001928E-02 0.  1.
    10030    2    1    2    0    0  0.00000000000E+00  0.00000000000E+00 -0.68608334946E+03  0.31071541450E+04  0.30304614366E+04 0.  0.
        5    1    3    3  502    0  0.75197579168E+03 -0.12693171883E+04 -0.69713406626E+03  0.16317633751E+04  0.46999998093E+01 0.  1.
       -5    1    3    3    0  502 -0.75197579168E+03  0.12693171883E+04  0.11050716797E+02  0.14753907700E+04  0.46999998093E+01 0. -1.
</event>
<event>
 5   0  0.1672907E-06  0.2985271E+04  0.7818609E-02  0.8247950E-01
        1   -1    0    0  501    0  0.00000000000E+00  0.00000000000E+00  0.14088179773E+04  0.14088179773E+04  0.50400001928E-02 0. -1.
       -1   -1    0    0    0  501  0.00000000000E+00  0.00000000000E+00 -0.15814392357E+04  0.15814392357E+04  0.50400001928E-02 0.  1.
    10030    2    1    2    0    0  0.00000000000E+00  0.00000000000E+00 -0.17262125844E+03  0.29902572130E+04  0.29852705239E+04 0.  0.
        5    1    3    3  502    0  0.48548278273E+03  0.69159527063E+03  0.11461675554E+04  0.14239802336E+04  0.46999998093E+01 0. -1.
       -5    1    3    3    0  502 -0.48548278273E+03 -0.69159527063E+03 -0.13187888138E+04  0.15662769794E+04  0.46999998093E+01 0.  1.
</event>
<event>
 5   0  0.1686012E-06  0.3030472E+04  0.7818609E-02  0.8235083E-01
       -1   -1    0    0    0  501  0.00000000000E+00  0.00000000000E+00  0.11865621804E+04  0.11865621804E+04  0.50400001928E-02 0.  1.
        1   -1    0    0  501    0  0.00000000000E+00  0.00000000000E+00 -0.19349512402E+04  0.19349512402E+04  0.50400001928E-02 0. -1.
    10030    2    1    2    0    0  0.00000000000E+00  0.00000000000E+00 -0.74838905978E+03  0.31215134207E+04  0.30304718858E+04 0.  0.
        4    1    3    3  502    0 -0.32660543029E+03 -0.91877132858E+02  0.11469323430E+04  0.11960635129E+04  0.12699999809E+01 0.  1.
       -4    1    3    3    0  502  0.32660543029E+03  0.91877132858E+02 -0.18953214028E+04  0.19254499078E+04  0.12699999809E+01 0. -1.
</event>
<event>
 5   0  0.4532420E-06  0.2978188E+04  0.7818609E-02  0.8249987E-01
       -2   -1    0    0    0  501  0.00000000000E+00  0.00000000000E+00  0.14731337596E+04  0.14731337596E+04  0.25500000920E-02 0. -1.
        2   -1    0    0  501    0  0.00000000000E+00  0.00000000000E+00 -0.15052269990E+04  0.15052269990E+04  0.25500000920E-02 0.  1.
    10030    2    1    2    0    0  0.00000000000E+00  0.00000000000E+00 -0.32093239419E+02  0.29783607585E+04  0.29781878436E+04 0.  0.
        4    1    3    3  502    0  0.47071480835E+03 -0.11931062055E+04  0.74051845184E+03  0.14810280344E+04  0.12699999809E+01 0. -1.
       -4    1    3    3    0  502 -0.47071480835E+03  0.11931062055E+04 -0.77261169126E+03  0.14973327241E+04  0.12699999809E+01 0.  1.
</event>
<event>
 5   0  0.4768570E-06  0.2953922E+04  0.7818609E-02  0.8257013E-01
        2   -1    0    0  501    0  0.00000000000E+00  0.00000000000E+00  0.21604779158E+04  0.21604779158E+04  0.25500000920E-02 0. -1.
       -2   -1    0    0    0  501  0.00000000000E+00  0.00000000000E+00 -0.10096902207E+04  0.10096902207E+04  0.25500000920E-02 0.  1.
    10030    2    1    2    0    0  0.00000000000E+00  0.00000000000E+00  0.11507876951E+04  0.31701681365E+04  0.29539217482E+04 0.  0.
        1    1    3    3  502    0 -0.92166146410E+03  0.87800569316E+03  0.13792675069E+04  0.18768944315E+04  0.50400001928E-02 0. -1.
       -1    1    3    3    0  502  0.92166146410E+03 -0.87800569316E+03 -0.22847981171E+03  0.12932737050E+04  0.50400001928E-02 0.  1.
</event>
<event>
 5   0  0.4935331E-06  0.3032113E+04  0.7818609E-02  0.8234620E-01
        2   -1    0    0  501    0  0.00000000000E+00  0.00000000000E+00  0.13275640168E+04  0.13275640168E+04  0.25500000920E-02 0. -1.
       -2   -1    0    0    0  501  0.00000000000E+00  0.00000000000E+00 -0.17313122094E+04  0.17313122094E+04  0.25500000920E-02 0.  1.
    10030    2    1    2    0    0  0.00000000000E+00  0.00000000000E+00 -0.40374819252E+03  0.30588762262E+04  0.30321133165E+04 0.  0.
        5    1    3    3  502    0  0.21271787202E+03 -0.94495684451E+02  0.13094231952E+04  0.13299584661E+04  0.46999998093E+01 0. -1.
       -5    1    3    3    0  502 -0.21271787202E+03  0.94495684451E+02 -0.17131713877E+04  0.17289177601E+04  0.46999998093E+01 0.  1.
</event>
<event>
 5   0  0.4702748E-06  0.3001549E+04  0.7818609E-02  0.8243289E-01
       -2   -1    0    0    0  501  0.00000000000E+00  0.00000000000E+00  0.13737184964E+04  0.13737184964E+04  0.25500000920E-02 0.  1.
        2   -1    0    0  501    0  0.00000000000E+00  0.00000000000E+00 -0.16395820493E+04  0.16395820493E+04  0.25500000920E-02 0. -1.
    10030    2    1    2    0    0  0.00000000000E+00  0.00000000000E+00 -0.26586355295E+03  0.30133005457E+04  0.30015490584E+04 0.  0.
        2    1    3    3  502    0 -0.44419381881E+03  0.12223434325E+04 -0.88479154817E+03  0.15729868719E+04  0.25500000920E-02 0. -1.
       -2    1    3    3    0  502  0.44419381881E+03 -0.12223434325E+04  0.61892799521E+03  0.14403136738E+04  0.25500000920E-02 0.  1.
</event>
<event>
 5   0  0.1734885E-06  0.3003379E+04  0.7818609E-02  0.8242767E-01
        1   -1    0    0  501    0  0.00000000000E+00  0.00000000000E+00  0.18140210625E+04  0.18140210625E+04  0.50400001928E-02 0. -1.
       -1   -1    0    0    0  501  0.00000000000E+00  0.00000000000E+00 -0.12431336763E+04  0.12431336763E+04  0.50400001928E-02 0.  1.
    10030    2    1    2    0    0  0.00000000000E+00  0.00000000000E+00  0.57088738625E+03  0.30571547388E+04  0.30033785458E+04 0.  0.
        2    1    3    3  502    0 -0.11376598435E+04  0.67097118228E+03  0.10127997885E+04  0.16644024930E+04  0.25500000920E-02 0. -1.
       -2    1    3    3    0  502  0.11376598435E+04 -0.67097118228E+03 -0.44191240225E+03  0.13927522458E+04  0.25500000920E-02 0.  1.
</event>
<event>
 5   0  0.1700885E-06  0.2991923E+04  0.7818609E-02  0.8246041E-01
        1   -1    0    0  501    0  0.00000000000E+00  0.00000000000E+00  0.20050579762E+04  0.20050579762E+04  0.50400001928E-02 0. -1.
       -1   -1    0    0    0  501  0.00000000000E+00  0.00000000000E+00 -0.11161275071E+04  0.11161275071E+04  0.50400001928E-02 0.  1.
    10030    2    1    2    0    0  0.00000000000E+00  0.00000000000E+00  0.88893046909E+03  0.31211854833E+04  0.29919226999E+04 0.  0.
        1    1    3    3  502    0 -0.37193572572E+03 -0.91393212143E+03 -0.72852108793E+03  0.12265199070E+04  0.50400001928E-02 0.  1.
       -1    1    3    3    0  502  0.37193572572E+03  0.91393212143E+03  0.16174515570E+04  0.18946655763E+04  0.50400001928E-02 0. -1.
</event>
<event>
 5   0  0.4935331E-06  0.3006340E+04  0.7818609E-02  0.8241923E-01
        2   -1    0    0  501    0  0.00000000000E+00  0.00000000000E+00  0.15357857456E+04  0.15357857456E+04  0.25500000920E-02 0. -1.
       -2   -1    0    0    0  501  0.00000000000E+00  0.00000000000E+00 -0.14712470474E+04  0.14712470474E+04  0.25500000920E-02 0.  1.
    10030    2    1    2    0    0  0.00000000000E+00  0.00000000000E+00  0.64538698260E+02  0.30070327930E+04  0.30063401296E+04 0.  0.
        5    1    3    3  502    0  0.10631702471E+04  0.10622436318E+04  0.38789051511E+01  0.15029070642E+04  0.46999998093E+01 0.  1.
       -5    1    3    3    0  502 -0.10631702471E+04 -0.10622436318E+04  0.60659793109E+02  0.15041257288E+04  0.46999998093E+01 0. -1.
</event>
<event>
 5   0  0.4768570E-06  0.2993593E+04  0.7818609E-02  0.8245563E-01
        2   -1    0    0  501    0  0.00000000000E+00  0.00000000000E+00  0.17498249012E+04  0.17498249012E+04  0.25500000920E-02 0.  1.
       -2   -1    0    0    0  501  0.00000000000E+00  0.00000000000E+00 -0.12803566752E+04  0.12803566752E+04  0.25500000920E-02 0. -1.
    10030    2    1    2    0    0  0.00000000000E+00  0.00000000000E+00  0.46946822601E+03  0.30301815764E+04  0.29935931539E+04 0.  0.
        1    1    3    3  502    0  0.14184585163E+04 -0.34855480569E+03 -0.96194418240E+02  0.14638197912E+04  0.50400001928E-02 0. -1.
       -1    1    3    3    0  502 -0.14184585163E+04  0.34855480569E+03  0.56566264425E+03  0.15663617852E+04  0.50400001928E-02 0.  1.
</event>
<event>
 5   0  0.1672907E-06  0.3048542E+04  0.7818609E-02  0.8230004E-01
       -1   -1    0    0    0  501  0.00000000000E+00  0.00000000000E+00  0.85512689649E+03  0.85512689650E+03  0.50400001928E-02 0.  1.
        1   -1    0    0  501    0  0.00000000000E+00  0.00000000000E+00 -0.27170252474E+04  0.27170252474E+04  0.50400001928E-02 0. -1.
    10030    2    1    2    0    0  0.00000000000E+00  0.00000000000E+00 -0.18618983509E+04  0.35721521439E+04  0.30485415316E+04 0.  0.
        5    1    3    3  502    0  0.25665939886E+03 -0.29260410733E+03  0.79590852491E+03  0.88599304776E+03  0.46999998093E+01 0.  1.
       -5    1    3    3    0  502 -0.25665939886E+03  0.29260410733E+03 -0.26578068758E+04  0.26861590961E+04  0.46999998093E+01 0. -1.
</event>
<event>
 5   0  0.1709858E-06  0.2987073E+04  0.7818609E-02  0.8247432E-01
       -1   -1    0    0    0  501  0.00000000000E+00  0.00000000000E+00  0.11770335611E+04  0.11770335611E+04  0.50400001928E-02 0.  1.
        1   -1    0    0  501    0  0.00000000000E+00  0.00000000000E+00 -0.18951470034E+04  0.18951470034E+04  0.50400001928E-02 0. -1.
    10030    2    1    2    0    0  0.00000000000E+00  0.00000000000E+00 -0.71811344225E+03  0.30721805645E+04  0.29870732340E+04 0.  0.
        3    1    3    3  502    0 -0.47454527688E+03 -0.87064186909E+03 -0.15077680311E+04  0.18045982738E+04  0.10100000352E+00 0. -1.
       -3    1    3    3    0  502  0.47454527688E+03  0.87064186909E+03  0.78965458880E+03  0.12675822908E+04  0.10100000352E+00 0.  1.
</event>
<event>
 5   0  0.4935331E-06  0.2665182E+04  0.7818609E-02  0.8346391E-01
        2   -1    0    0  501    0  0.00000000000E+00  0.00000000000E+00  0.11880199754E+04  0.11880199754E+04  0.25500000920E-02 0.  1.
       -2   -1    0    0    0  501  0.00000000000E+00  0.00000000000E+00 -0.14947549972E+04  0.14947549972E+04  0.25500000920E-02 0. -1.
    10030    2    1    2    0    0  0.00000000000E+00  0.00000000000E+00 -0.30673502180E+03  0.26827749726E+04  0.26651820163E+04 0.  0.
        5    1    3    3  502    0  0.80058937821E+03  0.95476948211E+01 -0.12256420009E+04  0.14639859683E+04  0.46999998093E+01 0. -1.
       -5    1    3    3    0  502 -0.80058937821E+03 -0.95476948211E+01  0.91890697906E+03  0.12187890044E+04  0.46999998093E+01 0.  1.
</event>
<event>
 5   0  0.1709858E-06  0.3017755E+04  0.7818609E-02  0.8238679E-01
        1   -1    0    0  501    0  0.00000000000E+00  0.00000000000E+00  0.16528671195E+04  0.16528671195E+04  0.50400001928E-02 0. -1.
       -1   -1    0    0    0  501  0.00000000000E+00  0.00000000000E+00 -0.13774318862E+04  0.13774318862E+04  0.50400001928E-02 0.  1.
    10030    2    1    2    0    0  0.00000000000E+00  0.00000000000E+00  0.27543523337E+03  0.30302990057E+04  0.30177553738E+04 0.  0.
        3    1    3    3  502    0  0.82469598275E+03 -0.91953273815E+03  0.10079500834E+04  0.15942481932E+04  0.10100000352E+00 0. -1.
       -3    1    3    3    0  502 -0.82469598275E+03  0.91953273815E+03 -0.73251485006E+03  0.14360508126E+04  0.10100000352E+00 0.  1.
</event>
<event>
 5   0  0.4935331E-06  0.2997492E+04  0.7818609E-02  0.8244447E-01
        2   -1    0    0  501    0  0.00000000000E+00  0.00000000000E+00  0.22027858232E+04  0.22027858232E+04  0.25500000920E-02 0. -1.
       -2   -1    0    0    0  501  0.00000000000E+00  0.00000000000E+00 -0.10197267737E+04  0.10197267737E+04  0.25500000920E-02 0.  1.
    10030    2    1    2    0    0  0.00000000000E+00  0.00000000000E+00  0.11830590495E+04  0.32225125969E+04  0.29974920722E+04 0.  0.
        5    1    3    3  502    0  0.10059548077E+04 -0.11003592276E+04  0.75627174511E+03  0.16717369851E+04  0.46999998093E+01 0.  1.
       -5    1    3    3    0  502 -0.10059548077E+04  0.11003592276E+04  0.42678730437E+03  0.15507756118E+04  0.46999998093E+01 0. -1.
</event>
<event>
 5   0  0.1734885E-06  0.3028056E+04  0.7818609E-02  0.8235764E-01
       -1   -1    0    0    0  501  0.00000000000E+00  0.00000000000E+00  0.12883447617E+04  0.12883447617E+04  0.50400001928E-02 0.  1.
        1   -1    0    0  501    0  0.00000000000E+00  0.00000000000E+00 -0.17792446591E+04  0.17792446591E+04  0.50400001928E-02 0. -1.
    10030    2    1    2    0    0  0.00000000000E+00  0.00000000000E+00 -0.49089989735E+03  0.30675894208E+04  0.30280558359E+04 0.  0.
        2    1    3    3  502    0 -0.64802518815E+03  0.95103664510E+02  0.11373986988E+04  0.13125003434E+04  0.25500000920E-02 0.  1.
       -2    1    3    3    0  502  0.64802518815E+03 -0.95103664510E+02 -0.16282985961E+04  0.17550890774E+04  0.25500000920E-02 0. -1.
</event>
<event>
 5   0  0.4768570E-06  0.2993821E+04  0.7818609E-02  0.8245497E-01
       -2   -1    0    0    0  501  0.00000000000E+00  0.00000000000E+00  0.11784200987E+04  0.11784200987E+04  0.25500000920E-02 0. -1.
        2   -1    0    0  501    0  0.00000000000E+00  0.00000000000E+00 -0.19014792442E+04  0.19014792442E+04  0.25500000920E-02 0.  1.
    10030    2    1    2    0    0  0.00000000000E+00  0.00000000000E+00 -0.72305914550E+03  0.30798993430E+04  0.29938212096E+04 0.  0.
        1    1    3    3  502    0  0.88987563439E+03 -0.61543161923E+03  0.70267272183E+03  0.12901099475E+04  0.50400001928E-02 0. -1.
       -1    1    3    3    0  502 -0.88987563439E+03  0.61543161923E+03 -0.14257318673E+04  0.17897893955E+04  0.50400001928E-02 0.  1.
</event>
<event>
 5   0  0.1734885E-06  0.3033761E+04  0.7818609E-02  0.8234155E-01
       -1   -1    0    0    0  501  0.00000000000E+00  0.00000000000E+00  0.11760559029E+04  0.11760559030E+04  0.50400001928E-02 0.  1.
        1   -1    0    0  501    0  0.00000000000E+00  0.00000000000E+00 -0.19564774070E+04  0.19564774070E+04  0.50400001928E-02 0. -1.
    10030    2    1    2    0    0  0.00000000000E+00  0.00000000000E+00 -0.78042150402E+03  0.31325333099E+04  0.30337612322E+04 0.  0.
        2    1    3    3  502    0 -0.13675510967E+04 -0.64101456435E+03 -0.24480284370E+03  0.15300405570E+04  0.25500000920E-02 0. -1.
       -2    1    3    3    0  502  0.13675510967E+04  0.64101456435E+03 -0.53561866032E+03  0.16024927529E+04  0.25500000920E-02 0.  1.
</event>
<event>
 5   0  0.4532420E-06  0.3044088E+04  0.7818609E-02  0.8231252E-01
        2   -1    0    0  501    0  0.00000000000E+00  0.00000000000E+00  0.23238527105E+04  0.23238527105E+04  0.25500000920E-02 0.  1.
       -2   -1    0    0    0  501  0.00000000000E+00  0.00000000000E+00 -0.99688698168E+03  0.99688698168E+03  0.25500000920E-02 0. -1.
    10030    2    1    2    0    0  0.00000000000E+00  0.00000000000E+00  0.13269657289E+04  0.33207396922E+04  0.30440883788E+04 0.  0.
        4    1    3    3  502    0  0.41841009795E+03  0.11157709767E+04  0.16964301506E+04  0.20731350055E+04  0.12699999809E+01 0.  1.
       -4    1    3    3    0  502 -0.41841009795E+03 -0.11157709767E+04 -0.36946442172E+03  0.12476046867E+04  0.12699999809E+01 0. -1.
</event>
<event>
 5   0  0.1686012E-06  0.2991567E+04  0.7818609E-02  0.8246143E-01
       -1   -1    0    0    0  501  0.00000000000E+00  0.00000000000E+00  0.10200742392E+04  0.10200742392E+04  0.50400001928E-02 0.  1.
        1   -1    0    0  501    0  0.00000000000E+00  0.00000000000E+00 -0.21933381174E+04  0.21933381174E+04  0.50400001928E-02 0. -1.
    10030    2    1    2    0    0  0.00000000000E+00  0.00000000000E+00 -0.11732638782E+04  0.32134123566E+04  0.29915666206E+04 0.  0.
        4    1    3    3  502    0  0.14708777151E+04 -0.10303858550E+03 -0.31644803360E+03  0.15080580804E+04  0.12699999809E+01 0. -1.
       -4    1    3    3    0  502 -0.14708777151E+04  0.10303858550E+03 -0.85681584460E+03  0.17053542762E+04  0.12699999809E+01 0.  1.
</event>
<event>
 5   0  0.1734885E-06  0.2967492E+04  0.7818609E-02  0.8253075E-01
       -1   -1    0    0    0  501  0.00000000000E+00  0.00000000000E+00  0.16788291543E+04  0.16788291543E+04  0.50400001928E-02 0. -1.
        1   -1    0    0  501    0  0.00000000000E+00  0.00000000000E+00 -0.13113316181E+04  0.13113316181E+04  0.50400001928E-02 0.  1.
    10030    2    1    2    0    0  0.00000000000E+00  0.00000000000E+00  0.36749753623E+03  0.29901607724E+04  0.29674917027E+04 0.  0.
        2    1    3    3  502    0 -0.90855335826E+03 -0.10332191447E+04  0.74341112423E+03  0.15638641583E+04  0.25500000920E-02 0. -1.
       -2    1    3    3    0  502  0.90855335826E+03  0.10332191447E+04 -0.37591358800E+03  0.14262966141E+04  0.25500000920E-02 0.  1.
</event>
<event>
 5   0  0.1672907E-06  0.2986088E+04  0.7818609E-02  0.8247715E-01
        1   -1    0    0  501    0  0.00000000000E+00  0.00000000000E+00  0.23736699866E+04  0.23736699866E+04  0.50400001928E-02 0. -1.
       -1   -1    0    0    0  501  0.00000000000E+00  0.00000000000E+00 -0.93912823572E+03  0.93912823573E+03  0.50400001928E-02 0.  1.
    10030    2    1    2    0    0  0.00000000000E+00  0.00000000000E+00  0.14345417509E+04  0.33127982223E+04  0.29860880809E+04 0.  0.
        5    1    3    3  502    0 -0.21270772290E+03 -0.33377911013E+03  0.23144006286E+04  0.23480045633E+04  0.46999998093E+01 0. -1.
       -5    1    3    3    0  502  0.21270772290E+03  0.33377911013E+03 -0.87985887772E+03  0.96479365900E+03  0.46999998093E+01 0.  1.
</event>
<event>
 5   0  0.1734885E-06  0.2990514E+04  0.7818609E-02  0.8246445E-01
        1   -1    0    0  501    0  0.00000000000E+00  0.00000000000E+00  0.10205869582E+04  0.10205869582E+04  0.50400001928E-02 0. -1.
       -1   -1    0    0    0  501  0.00000000000E+00  0.00000000000E+00 -0.21906934387E+04  0.21906934387E+04  0.50400001928E-02 0.  1.
    10030    2    1    2    0    0  0.00000000000E+00  0.00000000000E+00 -0.11701064805E+04  0.32112803969E+04  0.29905137705E+04 0.  0.
        2    1    3    3  502    0  0.11964245911E+04 -0.30159991338E+03  0.32192866320E+03  0.12751597446E+04  0.25500000920E-02 0. -1.
       -2    1    3    3    0  502 -0.11964245911E+04  0.30159991338E+03 -0.14920351437E+04  0.19361206523E+04  0.25500000920E-02 0.  1.
</event>
<event>
 5   0  0.1709858E-06  0.3045445E+04  0.7818609E-02  0.8230872E-01
       -1   -1    0    0    0  501  0.00000000000E+00  0.00000000000E+00  0.85853967292E+03  0.85853967293E+03  0.50400001928E-02 0. -1.
        1   -1    0    0  501    0  0.00000000000E+00  0.00000000000E+00 -0.27007292554E+04  0.27007292554E+04  0.50400001928E-02 0.  1.
    10030    2    1    2    0    0  0.00000000000E+00  0.00000000000E+00 -0.18421895825E+04  0.35592689284E+04  0.30454446057E+04 0.  0.
        3    1    3    3  502    0 -0.31554604491E+03 -0.29067830432E+03 -0.26286328324E+04  0.26634139297E+04  0.10100000352E+00 0.  1.
       -3    1    3    3    0  502  0.31554604491E+03  0.29067830432E+03  0.78644324992E+03  0.89585499865E+03  0.10100000352E+00 0. -1.
</event>
<event>
 5   0  0.1672907E-06  0.2989395E+04  0.7818609E-02  0.8246766E-01
       -1   -1    0    0    0  501  0.00000000000E+00  0.00000000000E+00  0.16090193326E+04  0.16090193326E+04  0.50400001928E-02 0.  1.
        1   -1    0    0  501    0  0.00000000000E+00  0.00000000000E+00 -0.13884987621E+04  0.13884987621E+04  0.50400001928E-02 0. -1.
    10030    2    1    2    0    0  0.00000000000E+00  0.00000000000E+00  0.22052057045E+03  0.29975180947E+04  0.29893954918E+04 0.  0.
        5    1    3    3  502    0  0.10892426564E+03 -0.45972944856E+03 -0.13116490461E+04  0.13941524205E+04  0.46999998093E+01 0. -1.
       -5    1    3    3    0  502 -0.10892426564E+03  0.45972944856E+03  0.15321696165E+04  0.16033656742E+04  0.46999998093E+01 0.  1.
</event>
<event>
 5   0  0.1672907E-06  0.2997100E+04  0.7818609E-02  0.8244560E-01
        1   -1    0    0  501    0  0.00000000000E+00  0.00000000000E+00  0.16827497980E+04  0.16827497980E+04  0.50400001928E-02 0. -1.
       -1   -1    0    0    0  501  0.00000000000E+00  0.00000000000E+00 -0.13345132799E+04  0.13345132799E+04  0.50400001928E-02 0.  1.
    10030    2    1    2    0    0  0.00000000000E+00  0.00000000000E+00  0.34823651811E+03  0.30172630779E+04  0.29970998997E+04 0.  0.
        5    1    3    3  502    0  0.51319256608E+03 -0.68936828162E+03  0.14099904910E+04  0.16512693639E+04  0.46999998093E+01 0. -1.
       -5    1    3    3    0  502 -0.51319256608E+03  0.68936828162E+03 -0.10617539729E+04  0.13659937139E+04  0.46999998093E+01 0.  1.
</event>
<event>
 5   0  0.1672907E-06  0.3014654E+04  0.7818609E-02  0.8239559E-01
        1   -1    0    0  501    0  0.00000000000E+00  0.00000000000E+00  0.18196657931E+04  0.18196657931E+04  0.50400001928E-02 0.  1.
       -1   -1    0    0    0  501  0.00000000000E+00  0.00000000000E+00 -0.12486000263E+04  0.12486000263E+04  0.50400001928E-02 0. -1.
    10030    2    1    2    0    0  0.00000000000E+00  0.00000000000E+00  0.57106576673E+03  0.30682658194E+04  0.30146540479E+04 0.  0.
        5    1    3    3  502    0 -0.40677462660E+03 -0.13954439809E+04  0.69173337181E+03  0.16097349621E+04  0.46999998093E+01 0.  1.
       -5    1    3    3    0  502  0.40677462660E+03  0.13954439809E+04 -0.12066760508E+03  0.14585308573E+04  0.46999998093E+01 0. -1.
</event>
<event>
 5   0  0.4532420E-06  0.2996414E+04  0.7818609E-02  0.8244756E-01
       -2   -1    0    0    0  501  0.00000000000E+00  0.00000000000E+00  0.86668923884E+03  0.86668923884E+03  0.25500000920E-02 0. -1.
        2   -1    0    0  501    0  0.00000000000E+00  0.00000000000E+00 -0.25898837404E+04  0.25898837404E+04  0.25500000920E-02 0.  1.
    10030    2    1    2    0    0  0.00000000000E+00  0.00000000000E+00 -0.17231945015E+04  0.34565729792E+04  0.29964141020E+04 0.  0.
        4    1    3    3  502    0 -0.11527157362E+04  0.83537106120E+03 -0.14002345511E+04  0.19968116559E+04  0.12699999809E+01 0.  1.
       -4    1    3    3    0  502  0.11527157362E+04 -0.83537106120E+03 -0.32295995046E+03  0.14597613233E+04  0.12699999809E+01 0. -1.
</event>
<event>
 5   0  0.1686012E-06  0.2922828E+04  0.7818609E-02  0.8266118E-01
        1   -1    0    0  501    0  0.00000000000E+00  0.00000000000E+00  0.18941278965E+04  0.18941278965E+04  0.50400001928E-02 0. -1.
       -1   -1    0    0    0  501  0.00000000000E+00  0.00000000000E+00 -0.11275533498E+04  0.11275533498E+04  0.50400001928E-02 0.  1.
    10030    2    1    2    0    0  0.00000000000E+00  0.00000000000E+00  0.76657454674E+03  0.30216812464E+04  0.29228275726E+04 0.  0.
        4    1    3    3  502    0 -0.30398289494E+03 -0.27068896451E+03 -0.10677686017E+04  0.11427202263E+04  0.12699999809E+01 0.  1.
       -4    1    3    3    0  502  0.30398289494E+03  0.27068896451E+03  0.18343431484E+04  0.18789610201E+04  0.12699999809E+01 0. -1.
</event>
<event>
 5   0  0.5003556E-06  0.3001584E+04  0.7818609E-02  0.8243279E-01
        2   -1    0    0  501    0  0.00000000000E+00  0.00000000000E+00  0.24855090609E+04  0.24855090609E+04  0.25500000920E-02 0.  1.
       -2   -1    0    0    0  501  0.00000000000E+00  0.00000000000E+00 -0.90620336225E+03  0.90620336226E+03  0.25500000920E-02 0. -1.
    10030    2    1    2    0    0  0.00000000000E+00  0.00000000000E+00  0.15793056986E+04  0.33917124232E+04  0.30015840271E+04 0.  0.
        3    1    3    3  502    0  0.11319171585E+04 -0.95313523990E+03  0.50676766128E+03  0.15641344929E+04  0.10100000352E+00 0. -1.
       -3    1    3    3    0  502 -0.11319171585E+04  0.95313523990E+03  0.10725380374E+04  0.18275779302E+04  0.10100000352E+00 0.  1.
</event>
<event>
 5   0  0.4768570E-06  0.3006987E+04  0.7818609E-02  0.8241739E-01
       -2   -1    0    0    0  501  0.00000000000E+00  0.00000000000E+00  0.10836082693E+04  0.10836082693E+04  0.25500000920E-02 0.  1.
        2   -1    0    0  501    0  0.00000000000E+00  0.00000000000E+00 -0.20860789817E+04  0.20860789817E+04  0.25500000920E-02 0. -1.
    10030    2    1    2    0    0  0.00000000000E+00  0.00000000000E+00 -0.10024707124E+04  0.31696872510E+04  0.30069868207E+04 0.  0.
        1    1    3    3  502    0 -0.74923656723E+03 -0.81810919409E+03  0.56848084831E+03  0.12465265990E+04  0.50400001928E-02 0.  1.
       -1    1    3    3    0  502  0.74923656723E+03  0.81810919409E+03 -0.15709515607E+04  0.19231606520E+04  0.50400001928E-02 0. -1.
</event>
<event>
 5   0  0.1686012E-06  0.2959046E+04  0.7818609E-02  0.8255523E-01
        1   -1    0    0  501    0  0.00000000000E+00  0.00000000000E+00  0.12699750146E+04  0.12699750146E+04  0.50400001928E-02 0.  1.
       -1   -1    0    0    0  501  0.00000000000E+00  0.00000000000E+00 -0.17236466287E+04  0.17236466287E+04  0.50400001928E-02 0. -1.
    10030    2    1    2    0    0  0.00000000000E+00  0.00000000000E+00 -0.45367161416E+03  0.29936216433E+04  0.29590458952E+04 0.  0.
        4    1    3    3  502    0  0.63808308015E+03  0.89308001473E+02 -0.15742618994E+04  0.17010079591E+04  0.12699999809E+01 0. -1.
       -4    1    3    3    0  502 -0.63808308015E+03 -0.89308001473E+02  0.11205902852E+04  0.12926136842E+04  0.12699999809E+01 0.  1.
</event>
<event>
 5   0  0.4768570E-06  0.3011932E+04  0.7818609E-02  0.8240332E-01
       -2   -1    0    0    0  501  0.00000000000E+00  0.00000000000E+00  0.20812930204E+04  0.20812930204E+04  0.25500000920E-02 0.  1.
        2   -1    0    0  501    0  0.00000000000E+00  0.00000000000E+00 -0.10896750919E+04  0.10896750919E+04  0.25500000920E-02 0. -1.
    10030    2    1    2    0    0  0.00000000000E+00  0.00000000000E+00  0.99161792845E+03  0.31709681123E+04  0.30119317145E+04 0.  0.
        1    1    3    3  502    0 -0.19565624510E+03 -0.12221295025E+03  0.20625807940E+04  0.20754413755E+04  0.50400001928E-02 0.  1.
       -1    1    3    3    0  502  0.19565624510E+03  0.12221295025E+03 -0.10709628656E+04  0.10955267367E+04  0.50400001928E-02 0. -1.
</event>
<event>
 5   0  0.5003556E-06  0.3020770E+04  0.7818609E-02  0.8237825E-01
        2   -1    0    0  501    0  0.00000000000E+00  0.00000000000E+00  0.16378874966E+04  0.16378874966E+04  0.25500000920E-02 0.  1.
       -2   -1    0    0    0  501  0.00000000000E+00  0.00000000000E+00 -0.13928084315E+04  0.13928084315E+04  0.25500000920E-02 0. -1.
    10030    2    1    2    0    0  0.00000000000E+00  0.00000000000E+00  0.24507906509E+03  0.30306959282E+04  0.30207704416E+04 0.  0.
        3    1    3    3  502    0  0.86894855105E+03 -0.78519356491E+03 -0.83435683146E+03  0.14379679590E+04  0.10100000352E+00 0. -1.
       -3    1    3    3    0  502 -0.86894855105E+03  0.78519356491E+03  0.10794358965E+04  0.15927279692E+04  0.10100000352E+00 0.  1.
</event>
<event>
 5   0  0.1734885E-06  0.3104046E+04  0.7818609E-02  0.8214628E-01
        1   -1    0    0  501    0  0.00000000000E+00  0.00000000000E+00  0.23097546459E+04  0.23097546459E+04  0.50400001928E-02 0.  1.
       -1   -1    0    0    0  501  0.00000000000E+00  0.00000000000E+00 -0.10428705488E+04  0.10428705488E+04  0.50400001928E-02 0. -1.
    10030    2    1    2    0    0  0.00000000000E+00  0.00000000000E+00  0.12668840971E+04  0.33526251947E+04  0.31040458084E+04 0.  0.
        2    1    3    3  502    0  0.54128274829E+03 -0.25995909284E+03  0.21792091320E+04  0.22604243373E+04  0.25500000920E-02 0.  1.
       -2    1    3    3    0  502 -0.54128274829E+03  0.25995909284E+03 -0.91232503493E+03  0.10922008574E+04  0.25500000920E-02 0. -1.
</event>
<event>
 5   0  0.5003556E-06  0.3091568E+04  0.7818609E-02  0.8218056E-01
        2   -1    0    0  501    0  0.00000000000E+00  0.00000000000E+00  0.19080515699E+04  0.19080515699E+04  0.25500000920E-02 0.  1.
       -2   -1    0    0    0  501  0.00000000000E+00  0.00000000000E+00 -0.12522972124E+04  0.12522972124E+04  0.25500000920E-02 0. -1.
    10030    2    1    2    0    0  0.00000000000E+00  0.00000000000E+00  0.65575435747E+03  0.31603487823E+04  0.30915676684E+04 0.  0.
        3    1    3    3  502    0 -0.86025032225E+03  0.65781983427E+02  0.16390231907E+04  0.18522297147E+04  0.10100000352E+00 0.  1.
       -3    1    3    3    0  502  0.86025032225E+03 -0.65781983427E+02 -0.98326883325E+03  0.13081190676E+04  0.10100000352E+00 0. -1.
</event>
<event>
 5   0  0.1700885E-06  0.2694254E+04  0.7818609E-02  0.8336872E-01
        1   -1    0    0  501    0  0.00000000000E+00  0.00000000000E+00  0.18502879570E+04  0.18502879570E+04  0.50400001928E-02 0. -1.
       -1   -1    0    0    0  501  0.00000000000E+00  0.00000000000E+00 -0.98079385386E+03  0.98079385387E+03  0.50400001928E-02 0.  1.
    10030    2    1    2    0    0  0.00000000000E+00  0.00000000000E+00  0.86949410310E+03  0.28310818108E+04  0.26942539272E+04 0.  0.
        1    1    3    3  502    0  0.64979069664E+02 -0.69911203479E+03  0.16428168506E+04  0.17865685325E+04  0.50400001928E-02 0. -1.
       -1    1    3    3    0  502 -0.64979069664E+02  0.69911203479E+03 -0.77332274753E+03  0.10445132783E+04  0.50400001928E-02 0.  1.
</event>
<event>
 5   0  0.1734885E-06  0.3054273E+04  0.7818609E-02  0.8228401E-01
        1   -1    0    0  501    0  0.00000000000E+00  0.00000000000E+00  0.12907840161E+04  0.12907840161E+04  0.50400001928E-02 0.  1.
       -1   -1    0    0    0  501  0.00000000000E+00  0.00000000000E+00 -0.18067664440E+04  0.18067664440E+04  0.50400001928E-02 0. -1.
    10030    2    1    2    0    0  0.00000000000E+00  0.00000000000E+00 -0.51598242793E+03  0.30975504601E+04  0.30542725790E+04 0.  0.
        2    1    3    3  502    0 -0.83559459060E+03  0.85034045200E+03 -0.12258980596E+04  0.17100068002E+04  0.25500000920E-02 0. -1.
       -2    1    3    3    0  502  0.83559459060E+03 -0.85034045200E+03  0.70991563166E+03  0.13875436599E+04  0.25500000920E-02 0.  1.
</event>
<event>
 5   0  0.1700885E-06  0.3019048E+04  0.7818609E-02  0.8238312E-01
        1   -1    0    0  501    0  0.00000000000E+00  0.00000000000E+00  0.17685562549E+04  0.17685562549E+04  0.50400001928E-02 0. -1.
       -1   -1    0    0    0  501  0.00000000000E+00  0.00000000000E+00 -0.12884311073E+04  0.12884311073E+04  0.50400001928E-02 0.  1.
    10030    2    1    2    0    0  0.00000000000E+00  0.00000000000E+00  0.48012514761E+03  0.30569873622E+04  0.30190481241E+04 0.  0.
        1    1    3    3  502    0  0.13586260145E+04  0.14413090569E+03  0.89002034852E+03  0.16305749250E+04  0.50400001928E-02 0. -1.
       -1    1    3    3    0  502 -0.13586260145E+04 -0.14413090569E+03 -0.40989520090E+03  0.14264124372E+04  0.50400001928E-02 0.  1.
</event>
<event>
 5   0  0.4768570E-06  0.3009044E+04  0.7818609E-02  0.8241153E-01
        2   -1    0    0  501    0  0.00000000000E+00  0.00000000000E+00  0.15206608688E+04  0.15206608688E+04  0.25500000920E-02 0.  1.
       -2   -1    0    0    0  501  0.00000000000E+00  0.00000000000E+00 -0.14885545700E+04  0.14885545700E+04  0.25500000920E-02 0. -1.
    10030    2    1    2    0    0  0.00000000000E+00  0.00000000000E+00  0.32106298797E+02  0.30092154388E+04  0.30090441577E+04 0.  0.
        1    1    3    3  502    0 -0.14596497250E+04 -0.34589071143E+03 -0.99577744927E+02  0.15033740158E+04  0.50400001928E-02 0.  1.
       -1    1    3    3    0  502  0.14596497250E+04  0.34589071143E+03  0.13168404372E+03  0.15058414231E+04  0.50400001928E-02 0. -1.
</event>
<event>
 5   0  0.1700885E-06  0.3013784E+04  0.7818609E-02  0.8239806E-01
       -1   -1    0    0    0  501  0.00000000000E+00  0.00000000000E+00  0.23325812455E+04  0.23325812456E+04  0.50400001928E-02 0. -1.
        1   -1    0    0  501    0  0.00000000000E+00  0.00000000000E+00 -0.97348128263E+03  0.97348128264E+03  0.50400001928E-02 0.  1.
    10030    2    1    2    0    0  0.00000000000E+00  0.00000000000E+00  0.13590999629E+04  0.33060625282E+04  0.30137844533E+04 0.  0.
        1    1    3    3  502    0  0.13500570686E+04 -0.42591466889E+03  0.12460283633E+04  0.18859066986E+04  0.50400001928E-02 0. -1.
       -1    1    3    3    0  502 -0.13500570686E+04  0.42591466889E+03  0.11307159957E+03  0.14201558296E+04  0.50400001928E-02 0.  1.
</event>
<event>
 5   0  0.1686012E-06  0.3079842E+04  0.7818609E-02  0.8221292E-01
       -1   -1    0    0    0  501  0.00000000000E+00  0.00000000000E+00  0.22175451261E+04  0.22175451261E+04  0.50400001928E-02 0. -1.
        1   -1    0    0  501    0  0.00000000000E+00  0.00000000000E+00 -0.10693613684E+04  0.10693613684E+04  0.50400001928E-02 0.  1.
    10030    2    1    2    0    0  0.00000000000E+00  0.00000000000E+00  0.11481837577E+04  0.32869064946E+04  0.30798422626E+04 0.  0.
        4    1    3    3  502    0 -0.10092199999E+04 -0.52674734783E+03 -0.53262712997E+03  0.12568536308E+04  0.12699999809E+01 0.  1.
       -4    1    3    3    0  502  0.10092199999E+04  0.52674734783E+03  0.16808108877E+04  0.20300528638E+04  0.12699999809E+01 0. -1.
</event>
<event>
 5   0  0.4702748E-06  0.2989820E+04  0.7818609E-02  0.8246644E-01
       -2   -1    0    0    0  501  0.00000000000E+00  0.00000000000E+00  0.88707668799E+03  0.88707668799E+03  0.25500000920E-02 0.  1.
        2   -1    0    0  501    0  0.00000000000E+00  0.00000000000E+00 -0.25192356664E+04  0.25192356664E+04  0.25500000920E-02 0. -1.
    10030    2    1    2    0    0  0.00000000000E+00  0.00000000000E+00 -0.16321589785E+04  0.34063123544E+04  0.29898195472E+04 0.  0.
        2    1    3    3  502    0  0.95288680568E+03  0.60862164936E+03  0.29807657637E+03  0.11693003130E+04  0.25500000920E-02 0.  1.
       -2    1    3    3    0  502 -0.95288680568E+03 -0.60862164936E+03 -0.19302355548E+04  0.22370120415E+04  0.25500000920E-02 0. -1.
</event>
<event>
 5   0  0.4702748E-06  0.2954775E+04  0.7818609E-02  0.8256764E-01
       -2   -1    0    0    0  501  0.00000000000E+00  0.00000000000E+00  0.11372051785E+04  0.11372051785E+04  0.25500000920E-02 0.  1.
        2   -1    0    0  501    0  0.00000000000E+00  0.00000000000E+00 -0.19193310106E+04  0.19193310106E+04  0.25500000920E-02 0. -1.
    10030    2    1    2    0    0  0.00000000000E+00  0.00000000000E+00 -0.78212583206E+03  0.30565361891E+04  0.29547745529E+04 0.  0.
        2    1    3    3  502    0 -0.13626935773E+04 -0.19510789479E+03  0.16375976434E+03  0.13862965543E+04  0.25500000920E-02 0.  1.
       -2    1    3    3    0  502  0.13626935773E+04  0.19510789479E+03 -0.94588559641E+03  0.16702396348E+04  0.25500000920E-02 0. -1.
</event>
<event>
 5   0  0.1734885E-06  0.3007029E+04  0.7818609E-02  0.8241727E-01
       -1   -1    0    0    0  501  0.00000000000E+00  0.00000000000E+00  0.14823598524E+04  0.14823598524E+04  0.50400001928E-02 0. -1.
        1   -1    0    0  501    0  0.00000000000E+00  0.00000000000E+00 -0.15249706016E+04  0.15249706016E+04  0.50400001928E-02 0.  1.
    10030    2    1    2    0    0  0.00000000000E+00  0.00000000000E+00 -0.42610749266E+02  0.30073304540E+04  0.30070285638E+04 0.  0.
        2    1    3    3  502    0  0.82933577618E+03  0.40375522030E+03 -0.12087489159E+04  0.15204900687E+04  0.25500000920E-02 0.  1.
       -2    1    3    3    0  502 -0.82933577618E+03 -0.40375522030E+03  0.11661381666E+04  0.14868403852E+04  0.25500000920E-02 0. -1.
</event>
<event>
 5   0  0.4768570E-06  0.3015345E+04  0.7818609E-02  0.8239363E-01
       -2   -1    0    0    0  501  0.00000000000E+00  0.00000000000E+00  0.10179873893E+04  0.10179873893E+04  0.25500000920E-02 0. -1.
        2   -1    0    0  501    0  0.00000000000E+00  0.00000000000E+00 -0.22329116256E+04  0.22329116256E+04  0.25500000920E-02 0.  1.
    10030    2    1    2    0    0  0.00000000000E+00  0.00000000000E+00 -0.12149242363E+04  0.32508990150E+04  0.30153446745E+04 0.  0.
        1    1    3    3  502    0  0.16332301624E+03  0.10036709589E+03  0.10047948373E+04  0.10229177028E+04  0.50400001928E-02 0. -1.
       -1    1    3    3    0  502 -0.16332301624E+03 -0.10036709589E+03 -0.22197190736E+04  0.22279813122E+04  0.50400001928E-02 0.  1.
</event>
<event>
 5   0  0.1709858E-06  0.2954946E+04  0.7818609E-02  0.8256715E-01
        1   -1    0    0  501    0  0.00000000000E+00  0.00000000000E+00  0.12716467308E+04  0.12716467308E+04  0.50400001928E-02 0. -1.
       -1   -1    0    0    0  501  0.00000000000E+00  0.00000000000E+00 -0.17166135955E+04  0.17166135955E+04  0.50400001928E-02 0.  1.
    10030    2    1    2    0    0  0.00000000000E+00  0.00000000000E+00 -0.44496686470E+03  0.29882603264E+04  0.29549457300E+04 0.  0.
        3    1    3    3  502    0 -0.74854838852E+03  0.71657834340E+03 -0.12875029588E+04  0.16527168818E+04  0.10100000352E+00 0.  1.
       -3    1    3    3    0  502  0.74854838852E+03 -0.71657834340E+03  0.84253609414E+03  0.13355434446E+04  0.10100000352E+00 0. -1.
</event>
<event>
 5   0  0.4532420E-06  0.2999272E+04  0.7818609E-02  0.8243939E-01
       -2   -1    0    0    0  501  0.00000000000E+00  0.00000000000E+00  0.12677732294E+04  0.12677732294E+04  0.25500000920E-02 0. -1.
        2   -1    0    0  501    0  0.00000000000E+00  0.00000000000E+00 -0.17739046271E+04  0.17739046271E+04  0.25500000920E-02 0.  1.
    10030    2    1    2    0    0  0.00000000000E+00  0.00000000000E+00 -0.50613139770E+03  0.30416778566E+04  0.29992724437E+04 0.  0.
        4    1    3    3  502    0  0.36292644017E+03 -0.84262215049E+03  0.94995208617E+03  0.13206582709E+04  0.12699999809E+01 0. -1.
       -4    1    3    3    0  502 -0.36292644017E+03  0.84262215049E+03 -0.14560834839E+04  0.17210195857E+04  0.12699999809E+01 0.  1.
</event>
<event>
 5   0  0.4935331E-06  0.3099620E+04  0.7818609E-02  0.8215842E-01
       -2   -1    0    0    0  501  0.00000000000E+00  0.00000000000E+00  0.11079210862E+04  0.11079210862E+04  0.25500000920E-02 0.  1.
        2   -1    0    0  501    0  0.00000000000E+00  0.00000000000E+00 -0.21679443833E+04  0.21679443833E+04  0.25500000920E-02 0. -1.
    10030    2    1    2    0    0  0.00000000000E+00  0.00000000000E+00 -0.10600232972E+04  0.32758654695E+04  0.30996201676E+04 0.  0.
        5    1    3    3  502    0 -0.11293125935E+04 -0.74612375572E+03  0.26778950624E+03  0.13797756711E+04  0.46999998093E+01 0. -1.
       -5    1    3    3    0  502  0.11293125935E+04  0.74612375572E+03 -0.13278128034E+04  0.18960897984E+04  0.46999998093E+01 0.  1.
</event>
<event>
 5   0  0.4768570E-06  0.2797881E+04  0.7818609E-02  0.8303927E-01
        2   -1    0    0  501    0  0.00000000000E+00  0.00000000000E+00  0.14603586483E+04  0.14603586483E+04  0.25500000920E-02 0. -1.
       -2   -1    0    0    0  501  0.00000000000E+00  0.00000000000E+00 -0.13401049715E+04  0.13401049715E+04  0.25500000920E-02 0.  1.
    10030    2    1    2    0    0  0.00000000000E+00  0.00000000000E+00  0.12025367688E+03  0.28004636198E+04  0.27978805441E+04 0.  0.
        1    1    3    3  502    0 -0.99307463100E+01 -0.23693717677E+03 -0.13198396059E+04  0.13409751791E+04  0.50400001928E-02 0.  1.
       -1    1    3    3    0  502  0.99307463100E+01  0.23693717677E+03  0.14400932828E+04  0.14594884407E+04  0.50400001928E-02 0. -1.
</event>
<event>
 5   0  0.1700885E-06  0.3012738E+04  0.7818609E-02  0.8240103E-01
       -1   -1    0    0    0  501  0.00000000000E+00  0.00000000000E+00  0.11807339856E+04  0.11807339856E+04  0.50400001928E-02 0.  1.
        1   -1    0    0  501    0  0.00000000000E+00  0.00000000000E+00 -0.19218106364E+04  0.19218106364E+04  0.50400001928E-02 0. -1.
    10030    2    1    2    0    0  0.00000000000E+00  0.00000000000E+00 -0.74107665083E+03  0.31025446220E+04  0.30127377133E+04 0.  0.
        1    1    3    3  502    0  0.53133575424E+03 -0.72672677169E+02  0.10790978734E+04  0.12050108805E+04  0.50400001928E-02 0.  1.
       -1    1    3    3    0  502 -0.53133575424E+03  0.72672677169E+02 -0.18201745242E+04  0.18975337416E+04  0.50400001928E-02 0. -1.
</event>
<event>
 5   0  0.1734885E-06  0.2962388E+04  0.7818609E-02  0.8254553E-01
        1   -1    0    0  501    0  0.00000000000E+00  0.00000000000E+00  0.14120690819E+04  0.14120690819E+04  0.50400001928E-02 0.  1.
       -1   -1    0    0    0  501  0.00000000000E+00  0.00000000000E+00 -0.15537029360E+04  0.15537029360E+04  0.50400001928E-02 0. -1.
    10030    2    1    2    0    0  0.00000000000E+00  0.00000000000E+00 -0.14163385414E+03  0.29657720180E+04  0.29623881437E+04 0.  0.
        2    1    3    3  502    0 -0.96043821834E+03 -0.11122327923E+04 -0.25658891334E+03  0.14917577639E+04  0.25500000920E-02 0. -1.
       -2    1    3    3    0  502  0.96043821834E+03  0.11122327923E+04  0.11495505919E+03  0.14740142541E+04  0.25500000920E-02 0.  1.
</event>
<event>
 5   0  0.1734885E-06  0.2994309E+04  0.7818609E-02  0.8245358E-01
       -1   -1    0    0    0  501  0.00000000000E+00  0.00000000000E+00  0.81688781204E+03  0.81688781206E+03  0.50400001928E-02 0. -1.
        1   -1    0    0  501    0  0.00000000000E+00  0.00000000000E+00 -0.27439163145E+04  0.27439163145E+04  0.50400001928E-02 0.  1.
    10030    2    1    2    0    0  0.00000000000E+00  0.00000000000E+00 -0.19270285024E+04  0.35608041266E+04  0.29943091321E+04 0.  0.
        2    1    3    3  502    0 -0.39020054863E+02 -0.27238633123E+03 -0.27135870080E+04  0.27275027641E+04  0.25500000920E-02 0.  1.
       -2    1    3    3    0  502  0.39020054863E+02  0.27238633123E+03  0.78655850552E+03  0.83330136250E+03  0.25500000920E-02 0. -1.
</event>
<event>
 5   0  0.4702748E-06  0.3014029E+04  0.7818609E-02  0.8239736E-01
       -2   -1    0    0    0  501  0.00000000000E+00  0.00000000000E+00  0.13637609188E+04  0.13637609188E+04  0.25500000920E-02 0. -1.
        2   -1    0    0  501    0  0.00000000000E+00  0.00000000000E+00 -0.16653160856E+04  0.16653160856E+04  0.25500000920E-02 0.  1.
    10030    2    1    2    0    0  0.00000000000E+00  0.00000000000E+00 -0.30155516688E+03  0.30290770044E+04  0.30140291936E+04 0.  0.
        2    1    3    3  502    0  0.13778364320E+04  0.46069314826E+03  0.25174871584E+03  0.14744656070E+04  0.25500000920E-02 0. -1.
       -2    1    3    3    0  502 -0.13778364320E+04 -0.46069314826E+03 -0.55330388272E+03  0.15546113974E+04  0.25500000920E-02 0.  1.
</event>
<event>
 5   0  0.4532420E-06  0.3003552E+04  0.7818609E-02  0.8242717E-01
       -2   -1    0    0    0  501  0.00000000000E+00  0.00000000000E+00  0.20317247462E+04  0.20317247462E+04  0.25500000920E-02 0.  1.
        2   -1    0    0  501    0  0.00000000000E+00  0.00000000000E+00 -0.11100576680E+04  0.11100576680E+04  0.25500000920E-02 0. -1.
    10030    2    1    2    0    0  0.00000000000E+00  0.00000000000E+00  0.92166707815E+03  0.31417824142E+04  0.30035523194E+04 0.  0.
        4    1    3    3  502    0  0.28627592584E+02 -0.14731320811E+04  0.15696030215E+03  0.14817475550E+04  0.12699999809E+01 0. -1.
       -4    1    3    3    0  502 -0.28627592584E+02  0.14731320811E+04  0.76470677600E+03  0.16600348592E+04  0.12699999809E+01 0.  1.
</event>
<event>
 5   0  0.4935331E-06  0.2977889E+04  0.7818609E-02  0.8250073E-01
        2   -1    0    0  501    0  0.00000000000E+00  0.00000000000E+00  0.22652226524E+04  0.22652226524E+04  0.25500000920E-02 0.  1.
       -2   -1    0    0    0  501  0.00000000000E+00  0.00000000000E+00 -0.97869219713E+03  0.97869219713E+03  0.25500000920E-02 0. -1.
    10030    2    1    2    0    0  0.00000000000E+00  0.00000000000E+00  0.12865304552E+04  0.32439148495E+04  0.29778890071E+04 0.  0.
        5    1    3    3  502    0 -0.27373125743E+03 -0.10267060832E+04 -0.49292572878E+03  0.11713462539E+04  0.46999998093E+01 0. -1.
       -5    1    3    3    0  502  0.27373125743E+03  0.10267060832E+04  0.17794561840E+04  0.20725685956E+04  0.46999998093E+01 0.  1.
</event>
<event>
 5   0  0.1700885E-06  0.2917428E+04  0.7818609E-02  0.8267711E-01
        1   -1    0    0  501    0  0.00000000000E+00  0.00000000000E+00  0.13846157408E+04  0.13846157408E+04  0.50400001928E-02 0.  1.
       -1   -1    0    0    0  501  0.00000000000E+00  0.00000000000E+00 -0.15367775365E+04  0.15367775365E+04  0.50400001928E-02 0. -1.
    10030    2    1    2    0    0  0.00000000000E+00  0.00000000000E+00 -0.15216179570E+03  0.29213932773E+04  0.29174278858E+04 0.  0.
        1    1    3    3  502    0 -0.13195714407E+04 -0.45652630452E+03  0.34658440592E+03  0.14386819678E+04  0.50400001928E-02 0. -1.
       -1    1    3    3    0  502  0.13195714407E+04  0.45652630452E+03 -0.49874620162E+03  0.14827113096E+04  0.50400001928E-02 0.  1.
</event>
<event>
 5   0  0.1686012E-06  0.3039242E+04  0.7818609E-02  0.8232613E-01
       -1   -1    0    0    0  501  0.00000000000E+00  0.00000000000E+00  0.13950413288E+04  0.13950413288E+04  0.50400001928E-02 0. -1.
        1   -1    0    0  501    0  0.00000000000E+00  0.00000000000E+00 -0.16553255857E+04  0.16553255857E+04  0.50400001928E-02 0.  1.
    10030    2    1    2    0    0  0.00000000000E+00  0.00000000000E+00 -0.26028425689E+03  0.30503669145E+04  0.30392417506E+04 0.  0.
        4    1    3    3  502    0 -0.27567020410E+03  0.12705226430E+04  0.65951876224E+03  0.14578026130E+04  0.12699999809E+01 0. -1.
       -4    1    3    3    0  502  0.27567020410E+03 -0.12705226430E+04 -0.91980301913E+03  0.15925643016E+04  0.12699999809E+01 0.  1.
</event>
<event>
 5   0  0.4702748E-06  0.3051753E+04  0.7818609E-02  0.8229105E-01
        2   -1    0    0  501    0  0.00000000000E+00  0.00000000000E+00  0.15047797449E+04  0.15047797449E+04  0.25500000920E-02 0.  1.
       -2   -1    0    0    0  501  0.00000000000E+00  0.00000000000E+00 -0.15472694976E+04  0.15472694976E+04  0.25500000920E-02 0. -1.
    10030    2    1    2    0    0  0.00000000000E+00  0.00000000000E+00 -0.42489752663E+02  0.30520492425E+04  0.30517534631E+04 0.  0.
        2    1    3    3  502    0  0.22385353799E+03 -0.15947511347E+03 -0.15223090929E+04  0.15469220060E+04  0.25500000920E-02 0. -1.
       -2    1    3    3    0  502 -0.22385353799E+03  0.15947511347E+03  0.14798193402E+04  0.15051272365E+04  0.25500000920E-02 0.  1.
</event>
<event>
 5   0  0.4768570E-06  0.3018469E+04  0.7818609E-02  0.8238477E-01
        2   -1    0    0  501    0  0.00000000000E+00  0.00000000000E+00  0.18287163126E+04  0.18287163126E+04  0.25500000920E-02 0.  1.
       -2   -1    0    0    0  501  0.00000000000E+00  0.00000000000E+00 -0.12455666913E+04  0.12455666913E+04  0.25500000920E-02 0. -1.
    10030    2    1    2    0    0  0.00000000000E+00  0.00000000000E+00  0.58314962122E+03  0.30742830039E+04  0.30184685699E+04 0.  0.
        1    1    3    3  502    0  0.45810032070E+03 -0.86528624954E+03  0.14613824979E+04  0.17590380902E+04  0.50400001928E-02 0.  1.
       -1    1    3    3    0  502 -0.45810032070E+03  0.86528624954E+03 -0.87823287667E+03  0.13152449138E+04  0.50400001928E-02 0. -1.
</event>
<event>
 5   0  0.4768570E-06  0.2977933E+04  0.7818609E-02  0.8250060E-01
        2   -1    0    0  501    0  0.00000000000E+00  0.00000000000E+00  0.15257314960E+04  0.15257314960E+04  0.25500000920E-02 0.  1.
       -2   -1    0    0    0  501  0.00000000000E+00  0.00000000000E+00 -0.14530874212E+04  0.14530874212E+04  0.25500000920E-02 0. -1.
    10030    2    1    2    0    0  0.00000000000E+00  0.00000000000E+00  0.72644074805E+02  0.29788189171E+04  0.29779330045E+04 0.  0.
        1    1    3    3  502    0 -0.33904217938E+03  0.14414247223E+04 -0.11982185497E+03  0.14856015975E+04  0.50400001928E-02 0. -1.
       -1    1    3    3    0  502  0.33904217938E+03 -0.14414247223E+04  0.19246592978E+03  0.14932173196E+04  0.50400001928E-02 0.  1.
</event>
<event>
 5   0  0.1734885E-06  0.2825163E+04  0.7818609E-02  0.8295498E-01
        1   -1    0    0  501    0  0.00000000000E+00  0.00000000000E+00  0.18632682810E+04  0.18632682810E+04  0.50400001928E-02 0. -1.
       -1   -1    0    0    0  501  0.00000000000E+00  0.00000000000E+00 -0.10709069942E+04  0.10709069942E+04  0.50400001928E-02 0.  1.
    10030    2    1    2    0    0  0.00000000000E+00  0.00000000000E+00  0.79236128686E+03  0.29341752752E+04  0.28251633823E+04 0.  0.
        2    1    3    3  502    0  0.73056725688E+03  0.44573440312E+03  0.15633680984E+04  0.17822815395E+04  0.25500000920E-02 0. -1.
       -2    1    3    3    0  502 -0.73056725688E+03 -0.44573440312E+03 -0.77100681152E+03  0.11518937357E+04  0.25500000920E-02 0.  1.
</event>
<event>
 5   0  0.4935331E-06  0.2963334E+04  0.7818609E-02  0.8254279E-01
       -2   -1    0    0    0  501  0.00000000000E+00  0.00000000000E+00  0.15009180829E+04  0.15009180829E+04  0.25500000920E-02 0. -1.
        2   -1    0    0  501    0  0.00000000000E+00  0.00000000000E+00 -0.14626627354E+04  0.14626627354E+04  0.25500000920E-02 0.  1.
    10030    2    1    2    0    0  0.00000000000E+00  0.00000000000E+00  0.38255347475E+02  0.29635808183E+04  0.29633338987E+04 0.  0.
        5    1    3    3  502    0 -0.12240715051E+04  0.50913646515E+03 -0.64254960563E+03  0.14732491559E+04  0.46999998093E+01 0.  1.
       -5    1    3    3    0  502  0.12240715051E+04 -0.50913646515E+03  0.68080495311E+03  0.14903316624E+04  0.46999998093E+01 0. -1.
</event>
<event>
 5   0  0.1686012E-06  0.3017245E+04  0.7818609E-02  0.8238823E-01
       -1   -1    0    0    0  501  0.00000000000E+00  0.00000000000E+00  0.11693640410E+04  0.11693640411E+04  0.50400001928E-02 0.  1.
        1   -1    0    0  501    0  0.00000000000E+00  0.00000000000E+00 -0.19463078081E+04  0.19463078081E+04  0.50400001928E-02 0. -1.
    10030    2    1    2    0    0  0.00000000000E+00  0.00000000000E+00 -0.77694376702E+03  0.31156718491E+04  0.30172453421E+04 0.  0.
        4    1    3    3  502    0 -0.10796266937E+03 -0.13974510590E+04 -0.96472208857E+03  0.17015333442E+04  0.12699999809E+01 0. -1.
       -4    1    3    3    0  502  0.10796266937E+03  0.13974510590E+04  0.18777832155E+03  0.14141385050E+04  0.12699999809E+01 0.  1.
</event>
<event>
 5   0  0.1700885E-06  0.2942351E+04  0.7818609E-02  0.8260387E-01
       -1   -1    0    0    0  501  0.00000000000E+00  0.00000000000E+00  0.11863220172E+04  0.11863220173E+04  0.50400001928E-02 0.  1.
        1   -1    0    0  501    0  0.00000000000E+00  0.00000000000E+00 -0.18244262999E+04  0.18244262999E+04  0.50400001928E-02 0. -1.
    10030    2    1    2    0    0  0.00000000000E+00  0.00000000000E+00 -0.63810428269E+03  0.30107483172E+04  0.29423508210E+04 0.  0.
        1    1    3    3  502    0  0.98341837365E+03  0.66358470859E+03  0.57117218960E+03  0.13166981557E+04  0.50400001928E-02 0.  1.
       -1    1    3    3    0  502 -0.98341837365E+03 -0.66358470859E+03 -0.12092764723E+04  0.16940501615E+04  0.50400001928E-02 0. -1.
</event>
<event>
 5   0  0.1700885E-06  0.3017166E+04  0.7818609E-02  0.8238846E-01
       -1   -1    0    0    0  501  0.00000000000E+00  0.00000000000E+00  0.10806325068E+04  0.10806325069E+04  0.50400001928E-02 0.  1.
        1   -1    0    0  501    0  0.00000000000E+00  0.00000000000E+00 -0.21060095183E+04  0.21060095183E+04  0.50400001928E-02 0. -1.
    10030    2    1    2    0    0  0.00000000000E+00  0.00000000000E+00 -0.10253770114E+04  0.31866420252E+04  0.30171657861E+04 0.  0.
        1    1    3    3  502    0 -0.12632083909E+04  0.30683476122E+03 -0.13211796282E+04  0.18534720444E+04  0.50400001928E-02 0. -1.
       -1    1    3    3    0  502  0.12632083909E+04 -0.30683476122E+03  0.29580261676E+03  0.13331699807E+04  0.50400001928E-02 0.  1.
</event>
<event>
 5   0  0.1734885E-06  0.3002498E+04  0.7818609E-02  0.8243018E-01
       -1   -1    0    0    0  501  0.00000000000E+00  0.00000000000E+00  0.16245597257E+04  0.16245597258E+04  0.50400001928E-02 0.  1.
        1   -1    0    0  501    0  0.00000000000E+00  0.00000000000E+00 -0.13872976384E+04  0.13872976384E+04  0.50400001928E-02 0. -1.
    10030    2    1    2    0    0  0.00000000000E+00  0.00000000000E+00  0.23726208739E+03  0.30118573641E+04  0.30024975410E+04 0.  0.
        2    1    3    3  502    0  0.36650091203E+03  0.45783142586E+03 -0.12676376917E+04  0.13967239708E+04  0.25500000920E-02 0. -1.
       -2    1    3    3    0  502 -0.36650091203E+03 -0.45783142586E+03  0.15048997791E+04  0.16151333933E+04  0.25500000920E-02 0.  1.
</event>
<event>
 5   0  0.1709858E-06  0.3057446E+04  0.7818609E-02  0.8227515E-01
       -1   -1    0    0    0  501  0.00000000000E+00  0.00000000000E+00  0.10468587469E+04  0.10468587469E+04  0.50400001928E-02 0. -1.
        1   -1    0    0  501    0  0.00000000000E+00  0.00000000000E+00 -0.22323864740E+04  0.22323864740E+04  0.50400001928E-02 0.  1.
    10030    2    1    2    0    0  0.00000000000E+00  0.00000000000E+00 -0.11855277272E+04  0.32792452209E+04  0.30574455395E+04 0.  0.
        3    1    3    3  502    0  0.10363231076E+04  0.50357396784E+03  0.48483128753E+03  0.12500454839E+04  0.10100000352E+00 0. -1.
       -3    1    3    3    0  502 -0.10363231076E+04 -0.50357396784E+03 -0.16703590147E+04  0.20291997370E+04  0.10100000352E+00 0.  1.
</event>
<event>
 5   0  0.5003556E-06  0.2959420E+04  0.7818609E-02  0.8255414E-01
        2   -1    0    0  501    0  0.00000000000E+00  0.00000000000E+00  0.21964053018E+04  0.21964053018E+04  0.25500000920E-02 0. -1.
       -2   -1    0    0    0  501  0.00000000000E+00  0.00000000000E+00 -0.99687532852E+03  0.99687532853E+03  0.25500000920E-02 0.  1.
    10030    2    1    2    0    0  0.00000000000E+00  0.00000000000E+00  0.11995299732E+04  0.31932806303E+04  0.29594203870E+04 0.  0.
        3    1    3    3  502    0 -0.73785911856E+02 -0.30385737544E+02 -0.99455194981E+03  0.99774808690E+03  0.10100000352E+00 0.  1.
       -3    1    3    3    0  502  0.73785911856E+02  0.30385737544E+02  0.21940819230E+04  0.21955325434E+04  0.10100000352E+00 0. -1.
</event>
<event>
 5   0  0.1709858E-06  0.2968639E+04  0.7818609E-02  0.8252743E-01
        1   -1    0    0  501    0  0.00000000000E+00  0.00000000000E+00  0.94653579241E+03  0.94653579242E+03  0.50400001928E-02 0.  1.
       -1   -1    0    0    0  501  0.00000000000E+00  0.00000000000E+00 -0.23276499991E+04  0.23276499991E+04  0.50400001928E-02 0. -1.
    10030    2    1    2    0    0  0.00000000000E+00  0.00000000000E+00 -0.13811142067E+04  0.32741857915E+04  0.29686387698E+04 0.  0.
        3    1    3    3  502    0 -0.56625335117E+03 -0.10163473877E+04 -0.17071638809E+04  0.20659170837E+04  0.10100000352E+00 0. -1.
       -3    1    3    3    0  502  0.56625335117E+03  0.10163473877E+04  0.32604967422E+03  0.12082687079E+04  0.10100000352E+00 0.  1.
</event>
<event>
 5   0  0.4532420E-06  0.2993351E+04  0.7818609E-02  0.8245632E-01
       -2   -1    0    0    0  501  0.00000000000E+00  0.00000000000E+00  0.18367820783E+04  0.18367820783E+04  0.25500000920E-02 0. -1.
        2   -1    0    0  501    0  0.00000000000E+00  0.00000000000E+00 -0.12195444524E+04  0.12195444524E+04  0.25500000920E-02 0.  1.
    10030    2    1    2    0    0  0.00000000000E+00  0.00000000000E+00  0.61723762590E+03  0.30563265307E+04  0.29933508942E+04 0.  0.
        4    1    3    3  502    0 -0.79377263595E+03 -0.80971075307E+03 -0.68883144253E+03  0.13267241124E+04  0.12699999809E+01 0.  1.
       -4    1    3    3    0  502  0.79377263595E+03  0.80971075307E+03  0.13060690684E+04  0.17296024184E+04  0.12699999809E+01 0. -1.
</event>
<event>
 5   0  0.5003556E-06  0.2963983E+04  0.7818609E-02  0.8254091E-01
       -2   -1    0    0    0  501  0.00000000000E+00  0.00000000000E+00  0.20515643254E+04  0.20515643254E+04  0.25500000920E-02 0.  1.
        2   -1    0    0  501    0  0.00000000000E+00  0.00000000000E+00 -0.10705486342E+04  0.10705486342E+04  0.25500000920E-02 0. -1.
    10030    2    1    2    0    0  0.00000000000E+00  0.00000000000E+00  0.98101569124E+03  0.31221129596E+04  0.29639833917E+04 0.  0.
        3    1    3    3  502    0 -0.30447017560E+03 -0.36712934620E+03 -0.98749447844E+03  0.10966455215E+04  0.10100000352E+00 0. -1.
       -3    1    3    3    0  502  0.30447017560E+03  0.36712934620E+03  0.19685101697E+04  0.20254674381E+04  0.10100000352E+00 0.  1.
</event>
<event>
 5   0  0.4702748E-06  0.2982703E+04  0.7818609E-02  0.8248687E-01
       -2   -1    0    0    0  501  0.00000000000E+00  0.00000000000E+00  0.71686100303E+03  0.71686100303E+03  0.25500000920E-02 0. -1.
        2   -1    0    0  501    0  0.00000000000E+00  0.00000000000E+00 -0.31025951485E+04  0.31025951485E+04  0.25500000920E-02 0.  1.
    10030    2    1    2    0    0  0.00000000000E+00  0.00000000000E+00 -0.23857341455E+04  0.38194561515E+04  0.29827031164E+04 0.  0.
        2    1    3    3  502    0  0.10261144428E+04  0.10763349659E+04 -0.10484350736E+04  0.18195119983E+04  0.25500000920E-02 0. -1.
       -2    1    3    3    0  502 -0.10261144428E+04 -0.10763349659E+04 -0.13372990718E+04  0.19999441532E+04  0.25500000920E-02 0.  1.
</event>
<event>
 5   0  0.1672907E-06  0.3011673E+04  0.7818609E-02  0.8240405E-01
        1   -1    0    0  501    0  0.00000000000E+00  0.00000000000E+00  0.18276752300E+04  0.18276752301E+04  0.50400001928E-02 0. -1.
       -1   -1    0    0    0  501  0.00000000000E+00  0.00000000000E+00 -0.12406709277E+04  0.12406709277E+04  0.50400001928E-02 0.  1.
    10030    2    1    2    0    0  0.00000000000E+00  0.00000000000E+00  0.58700430234E+03  0.30683461578E+04  0.30116729724E+04 0.  0.
        5    1    3    3  502    0 -0.57767457271E+02  0.27678499672E+02  0.18262790591E+04  0.18274081290E+04  0.46999998093E+01 0. -1.
       -5    1    3    3    0  502  0.57767457271E+02 -0.27678499672E+02 -0.12392747567E+04  0.12409380287E+04  0.46999998093E+01 0.  1.
</event>
<event>
 5   0  0.1700885E-06  0.3003588E+04  0.7818609E-02  0.8242707E-01
       -1   -1    0    0    0  501  0.00000000000E+00  0.00000000000E+00  0.18021117182E+04  0.18021117182E+04  0.50400001928E-02 0.  1.
        1   -1    0    0  501    0  0.00000000000E+00  0.00000000000E+00 -0.12515231940E+04  0.12515231940E+04  0.50400001928E-02 0. -1.
    10030    2    1    2    0    0  0.00000000000E+00  0.00000000000E+00  0.55058852414E+03  0.30536349122E+04  0.30035875972E+04 0.  0.
        1    1    3    3  502    0  0.47263375627E+03 -0.14254713598E+04  0.28116529871E+03  0.15278760389E+04  0.50400001928E-02 0. -1.
       -1    1    3    3    0  502 -0.47263375627E+03  0.14254713598E+04  0.26942322543E+03  0.15257588733E+04  0.50400001928E-02 0.  1.
</event>
<event>
 5   0  0.4532420E-06  0.2973502E+04  0.7818609E-02  0.8251338E-01
        2   -1    0    0  501    0  0.00000000000E+00  0.00000000000E+00  0.17952513926E+04  0.17952513926E+04  0.25500000920E-02 0. -1.
       -2   -1    0    0    0  501  0.00000000000E+00  0.00000000000E+00 -0.12312641102E+04  0.12312641102E+04  0.25500000920E-02 0.  1.
    10030    2    1    2    0    0  0.00000000000E+00  0.00000000000E+00  0.56398728241E+03  0.30265155027E+04  0.29735020487E+04 0.  0.
        4    1    3    3  502    0 -0.30963806198E+03  0.12788433781E+04 -0.42252530616E+03  0.13819715491E+04  0.12699999809E+01 0.  1.
       -4    1    3    3    0  502  0.30963806198E+03 -0.12788433781E+04  0.98651258856E+03  0.16445439537E+04  0.12699999809E+01 0. -1.
</event>
<event>
 5   0  0.4532420E-06  0.3022256E+04  0.7818609E-02  0.8237404E-01
       -2   -1    0    0    0  501  0.00000000000E+00  0.00000000000E+00  0.12821766575E+04  0.12821766575E+04  0.25500000920E-02 0.  1.
        2   -1    0    0  501    0  0.00000000000E+00  0.00000000000E+00 -0.17809617200E+04  0.17809617200E+04  0.25500000920E-02 0. -1.
    10030    2    1    2    0    0  0.00000000000E+00  0.00000000000E+00 -0.49878506252E+03  0.30631383775E+04  0.30222558100E+04 0.  0.
        4    1    3    3  502    0  0.86315666158E+03  0.11237653310E+04  0.28270246718E+03  0.14449256864E+04  0.12699999809E+01 0.  1.
       -4    1    3    3    0  502 -0.86315666158E+03 -0.11237653310E+04 -0.78148752970E+03  0.16182126910E+04  0.12699999809E+01 0. -1.
</event>
<event>
 5   0  0.1545375E-06  0.3000193E+04  0.7818609E-02  0.8243676E-01
        4   -1    0    0  501    0  0.00000000000E+00  0.00000000000E+00  0.15279273985E+04  0.15279279263E+04  0.12699999809E+01 0.  1.
       -4   -1    0    0    0  501  0.00000000000E+00  0.00000000000E+00 -0.14727713417E+04  0.14727718893E+04  0.12699999809E+01 0. -1.
    10030    2    1    2    0    0  0.00000000000E+00  0.00000000000E+00  0.55156056805E+02  0.30006998156E+04  0.30001928593E+04 0.  0.
        1    1    3    3  502    0  0.24224065669E+03 -0.11364771502E+04  0.97643662647E+03  0.15177909389E+04  0.50400001928E-02 0.  1.
       -1    1    3    3    0  502 -0.24224065669E+03  0.11364771502E+04 -0.92128056967E+03  0.14829088767E+04  0.50400001928E-02 0. -1.
</event>
<event>
 5   0  0.5003556E-06  0.3028674E+04  0.7818609E-02  0.8235590E-01
        2   -1    0    0  501    0  0.00000000000E+00  0.00000000000E+00  0.23964749924E+04  0.23964749924E+04  0.25500000920E-02 0. -1.
       -2   -1    0    0    0  501  0.00000000000E+00  0.00000000000E+00 -0.95691223734E+03  0.95691223735E+03  0.25500000920E-02 0.  1.
    10030    2    1    2    0    0  0.00000000000E+00  0.00000000000E+00  0.14395627551E+04  0.33533872297E+04  0.30286738000E+04 0.  0.
        3    1    3    3  502    0  0.85989521782E+02 -0.11379546532E+03  0.23890212693E+04  0.23932752122E+04  0.10100000352E+00 0. -1.
       -3    1    3    3    0  502 -0.85989521782E+02  0.11379546532E+03 -0.94945851426E+03  0.96011201757E+03  0.10100000352E+00 0.  1.
</event>
<event>
 5   0  0.4532420E-06  0.2980128E+04  0.7818609E-02  0.8249428E-01
        2   -1    0    0  501    0  0.00000000000E+00  0.00000000000E+00  0.17502305579E+04  0.17502305579E+04  0.25500000920E-02 0.  1.
       -2   -1    0    0    0  501  0.00000000000E+00  0.00000000000E+00 -0.12685703496E+04  0.12685703496E+04  0.25500000920E-02 0. -1.
    10030    2    1    2    0    0  0.00000000000E+00  0.00000000000E+00  0.48166020831E+03  0.30188009075E+04  0.29801279105E+04 0.  0.
        4    1    3    3  502    0  0.89695852457E+03 -0.46307379298E+03 -0.86943933720E+03  0.13322530940E+04  0.12699999809E+01 0. -1.
       -4    1    3    3    0  502 -0.89695852457E+03  0.46307379298E+03  0.13510995455E+04  0.16865478135E+04  0.12699999809E+01 0.  1.
</event>
<event>
 5   0  0.1672907E-06  0.3022395E+04  0.7818609E-02  0.8237365E-01
       -1   -1    0    0    0  501  0.00000000000E+00  0.00000000000E+00  0.23324140485E+04  0.23324140485E+04  0.50400001928E-02 0. -1.
        1   -1    0    0  501    0  0.00000000000E+00  0.00000000000E+00 -0.97912226187E+03  0.97912226188E+03  0.50400001928E-02 0.  1.
    10030    2    1    2    0    0  0.00000000000E+00  0.00000000000E+00  0.13532917867E+04  0.33115363104E+04  0.30223954201E+04 0.  0.
        5    1    3    3  502    0 -0.11664267119E+04 -0.51988375420E+03  0.15619455119E+04  0.20175545257E+04  0.46999998093E+01 0. -1.
       -5    1    3    3    0  502  0.11664267119E+04  0.51988375420E+03 -0.20865372522E+03  0.12939817847E+04  0.46999998093E+01 0.  1.
</event>
<event>
 5   0  0.1734885E-06  0.3056049E+04  0.7818609E-02  0.8227904E-01
       -1   -1    0    0    0  501  0.00000000000E+00  0.00000000000E+00  0.11307968725E+04  0.11307968725E+04  0.50400001928E-02 0. -1.
        1   -1    0    0  501    0  0.00000000000E+00  0.00000000000E+00 -0.20647907307E+04  0.20647907307E+04  0.50400001928E-02 0.  1.
    10030    2    1    2    0    0  0.00000000000E+00  0.00000000000E+00 -0.93399385818E+03  0.31955876032E+04  0.30560490184E+04 0.  0.
        2    1    3    3  502    0 -0.12345859553E+04  0.16977481218E+03 -0.13915830967E+04  0.18680282339E+04  0.25500000920E-02 0.  1.
       -2    1    3    3    0  502  0.12345859553E+04 -0.16977481218E+03  0.45758923848E+03  0.13275593693E+04  0.25500000920E-02 0. -1.
</event>
<event>
 5   0  0.4532420E-06  0.3011804E+04  0.7818609E-02  0.8240368E-01
       -2   -1    0    0    0  501  0.00000000000E+00  0.00000000000E+00  0.13744621145E+04  0.13744621145E+04  0.25500000920E-02 0.  1.
        2   -1    0    0  501    0  0.00000000000E+00  0.00000000000E+00 -0.16499117583E+04  0.16499117583E+04  0.25500000920E-02 0. -1.
    10030    2    1    2    0    0  0.00000000000E+00  0.00000000000E+00 -0.27544964384E+03  0.30243738728E+04  0.30118042460E+04 0.  0.
        4    1    3    3  502    0 -0.70326117145E+03 -0.13257152839E+04 -0.26331598083E+03  0.15236253503E+04  0.12699999809E+01 0.  1.
       -4    1    3    3    0  502  0.70326117145E+03  0.13257152839E+04 -0.12133663017E+02  0.15007485226E+04  0.12699999809E+01 0. -1.
</event>
<event>
 5   0  0.5003556E-06  0.2988488E+04  0.7818609E-02  0.8247026E-01
       -2   -1    0    0    0  501  0.00000000000E+00  0.00000000000E+00  0.12636302276E+04  0.12636302276E+04  0.25500000920E-02 0.  1.
        2   -1    0    0  501    0  0.00000000000E+00  0.00000000000E+00 -0.17669455738E+04  0.17669455738E+04  0.25500000920E-02 0. -1.
    10030    2    1    2    0    0  0.00000000000E+00  0.00000000000E+00 -0.50331534619E+03  0.30305758014E+04  0.29884884725E+04 0.  0.
        3    1    3    3  502    0 -0.14073444307E+03 -0.67135483463E+03 -0.15978477368E+04  0.17388619547E+04  0.10100000352E+00 0. -1.
       -3    1    3    3    0  502  0.14073444307E+03  0.67135483463E+03  0.10945323906E+04  0.12917138467E+04  0.10100000352E+00 0.  1.
</event>
<event>
 5   0  0.1545375E-06  0.2995187E+04  0.7818609E-02  0.8245107E-01
       -3   -1    0    0    0  501  0.00000000000E+00  0.00000000000E+00  0.81408713550E+03  0.81408714177E+03  0.10100000352E+00 0.  1.
        3   -1    0    0  501    0  0.00000000000E+00  0.00000000000E+00 -0.27549705094E+04  0.27549705113E+04  0.10100000352E+00 0. -1.
    10030    2    1    2    0    0  0.00000000000E+00  0.00000000000E+00 -0.19408833739E+04  0.35690576530E+04  0.29951868488E+04 0.  0.
        5    1    3    3  502    0 -0.34630992645E+03  0.18250477658E+03 -0.26929188486E+04  0.27212262996E+04  0.46999998093E+01 0. -1.
       -5    1    3    3    0  502  0.34630992645E+03 -0.18250477658E+03  0.75203547469E+03  0.84783135341E+03  0.46999998093E+01 0.  1.
</event>
<event>
 5   0  0.4702748E-06  0.3014502E+04  0.7818609E-02  0.8239602E-01
        2   -1    0    0  501    0  0.00000000000E+00  0.00000000000E+00  0.18142580028E+04  0.18142580028E+04  0.25500000920E-02 0. -1.
       -2   -1    0    0    0  501  0.00000000000E+00  0.00000000000E+00 -0.12521951874E+04  0.12521951875E+04  0.25500000920E-02 0.  1.
    10030    2    1    2    0    0  0.00000000000E+00  0.00000000000E+00  0.56206281539E+03  0.30664531903E+04  0.30145017100E+04 0.  0.
        2    1    3    3  502    0 -0.62187351301E+03 -0.51150750229E+03 -0.10150692531E+04  0.12956589751E+04  0.25500000920E-02 0.  1.
       -2    1    3    3    0  502  0.62187351301E+03  0.51150750229E+03  0.15771320685E+04  0.17707942152E+04  0.25500000920E-02 0. -1.
</event>
<event>
 5   0  0.4532420E-06  0.2999096E+04  0.7818609E-02  0.8243989E-01
       -2   -1    0    0    0  501  0.00000000000E+00  0.00000000000E+00  0.13733261915E+04  0.13733261915E+04  0.25500000920E-02 0. -1.
        2   -1    0    0  501    0  0.00000000000E+00  0.00000000000E+00 -0.16373711963E+04  0.16373711963E+04  0.25500000920E-02 0.  1.
    10030    2    1    2    0    0  0.00000000000E+00  0.00000000000E+00 -0.26404500478E+03  0.30106973877E+04  0.29990963632E+04 0.  0.
        4    1    3    3  502    0  0.19378843892E+03 -0.12111653541E+02 -0.16246980144E+04  0.16362597294E+04  0.12699999809E+01 0.  1.
       -4    1    3    3    0  502 -0.19378843892E+03  0.12111653541E+02  0.13606530096E+04  0.13744376583E+04  0.12699999809E+01 0. -1.
</event>
<event>
 5   0  0.1700885E-06  0.3049236E+04  0.7818609E-02  0.8229809E-01
       -1   -1    0    0    0  501  0.00000000000E+00  0.00000000000E+00  0.95813420543E+03  0.95813420544E+03  0.50400001928E-02 0. -1.
        1   -1    0    0  501    0  0.00000000000E+00  0.00000000000E+00 -0.24260281171E+04  0.24260281171E+04  0.50400001928E-02 0.  1.
    10030    2    1    2    0    0  0.00000000000E+00  0.00000000000E+00 -0.14678939117E+04  0.33841623225E+04  0.30492363125E+04 0.  0.
        1    1    3    3  502    0  0.56229982248E+03  0.12509652028E+04  0.50472745360E+01  0.13715394649E+04  0.50400001928E-02 0. -1.
       -1    1    3    3    0  502 -0.56229982248E+03 -0.12509652028E+04 -0.14729411862E+04  0.20126228576E+04  0.50400001928E-02 0.  1.
</event>
<event>
 5   0  0.4702748E-06  0.2988964E+04  0.7818609E-02  0.8246889E-01
       -2   -1    0    0    0  501  0.00000000000E+00  0.00000000000E+00  0.90705482985E+03  0.90705482986E+03  0.25500000920E-02 0. -1.
        2   -1    0    0  501    0  0.00000000000E+00  0.00000000000E+00 -0.24623392629E+04  0.24623392629E+04  0.25500000920E-02 0.  1.
    10030    2    1    2    0    0  0.00000000000E+00  0.00000000000E+00 -0.15552844330E+04  0.33693940927E+04  0.29889641825E+04 0.  0.
        2    1    3    3  502    0  0.69787012958E+03 -0.31075296778E+03  0.67032305753E+03  0.10163282571E+04  0.25500000920E-02 0. -1.
       -2    1    3    3    0  502 -0.69787012958E+03  0.31075296778E+03 -0.22256074905E+04  0.23530658356E+04  0.25500000920E-02 0.  1.
</event>
<event>
 5   0  0.1672907E-06  0.2976589E+04  0.7818609E-02  0.8250448E-01
       -1   -1    0    0    0  501  0.00000000000E+00  0.00000000000E+00  0.13525411854E+04  0.13525411854E+04  0.50400001928E-02 0.  1.
        1   -1    0    0  501    0  0.00000000000E+00  0.00000000000E+00 -0.16376729450E+04  0.16376729450E+04  0.50400001928E-02 0. -1.
    10030    2    1    2    0    0  0.00000000000E+00  0.00000000000E+00 -0.28513175966E+03  0.29902141304E+04  0.29765887229E+04 0.  0.
        5    1    3    3  502    0  0.86987633865E+03  0.94972356398E+03 -0.89186107245E+03  0.15665560811E+04  0.46999998093E+01 0. -1.
       -5    1    3    3    0  502 -0.86987633865E+03 -0.94972356398E+03  0.60672931279E+03  0.14236580494E+04  0.46999998093E+01 0.  1.
</event>
<event>
 5   0  0.1709858E-06  0.3006579E+04  0.7818609E-02  0.8241855E-01
       -1   -1    0    0    0  501  0.00000000000E+00  0.00000000000E+00  0.81135848133E+03  0.81135848135E+03  0.50400001928E-02 0. -1.
        1   -1    0    0  501    0  0.00000000000E+00  0.00000000000E+00 -0.27853033836E+04  0.27853033836E+04  0.50400001928E-02 0.  1.
    10030    2    1    2    0    0  0.00000000000E+00  0.00000000000E+00 -0.19739449023E+04  0.35966618650E+04  0.30065791348E+04 0.  0.
        3    1    3    3  502    0  0.13341275893E+04  0.68753698903E+03 -0.88493193687E+03  0.17423283499E+04  0.10100000352E+00 0.  1.
       -3    1    3    3    0  502 -0.13341275893E+04 -0.68753698903E+03 -0.10890129654E+04  0.18543335150E+04  0.10100000352E+00 0. -1.
</event>
<event>
 5   0  0.4935331E-06  0.2872375E+04  0.7818609E-02  0.8281145E-01
       -2   -1    0    0    0  501  0.00000000000E+00  0.00000000000E+00  0.11310469299E+04  0.11310469299E+04  0.25500000920E-02 0.  1.
        2   -1    0    0  501    0  0.00000000000E+00  0.00000000000E+00 -0.18236503087E+04  0.18236503087E+04  0.25500000920E-02 0. -1.
    10030    2    1    2    0    0  0.00000000000E+00  0.00000000000E+00 -0.69260337876E+03  0.29546972386E+04  0.28723746851E+04 0.  0.
        5    1    3    3  502    0 -0.89013975225E+03 -0.34349138457E+03  0.75790486405E+03  0.12185142522E+04  0.46999998093E+01 0.  1.
       -5    1    3    3    0  502  0.89013975225E+03  0.34349138457E+03 -0.14505082428E+04  0.17361829864E+04  0.46999998093E+01 0. -1.
</event>
<event>
 5   0  0.1672907E-06  0.3001764E+04  0.7818609E-02  0.8243227E-01
        1   -1    0    0  501    0  0.00000000000E+00  0.00000000000E+00  0.14233913343E+04  0.14233913343E+04  0.50400001928E-02 0.  1.
       -1   -1    0    0    0  501  0.00000000000E+00  0.00000000000E+00 -0.15825914032E+04  0.15825914032E+04  0.50400001928E-02 0. -1.
    10030    2    1    2    0    0  0.00000000000E+00  0.00000000000E+00 -0.15920006892E+03  0.30059827376E+04  0.30017640741E+04 0.  0.
        5    1    3    3  502    0  0.64630432931E+03 -0.48713127349E+03  0.11861457381E+04  0.14359561155E+04  0.46999998093E+01 0.  1.
       -5    1    3    3    0  502 -0.64630432931E+03  0.48713127349E+03 -0.13453458070E+04  0.15700266221E+04  0.46999998093E+01 0. -1.
</event>
<event>
 5   0  0.5003556E-06  0.2996625E+04  0.7818609E-02  0.8244695E-01
       -2   -1    0    0    0  501  0.00000000000E+00  0.00000000000E+00  0.14418465152E+04  0.14418465152E+04  0.25500000920E-02 0. -1.
        2   -1    0    0  501    0  0.00000000000E+00  0.00000000000E+00 -0.15569893785E+04  0.15569893785E+04  0.25500000920E-02 0.  1.
    10030    2    1    2    0    0  0.00000000000E+00  0.00000000000E+00 -0.11514286333E+03  0.29988358936E+04  0.29966245741E+04 0.  0.
        3    1    3    3  502    0  0.28053353907E+03  0.69875639649E+03 -0.13538960559E+04  0.15491914370E+04  0.10100000352E+00 0.  1.
       -3    1    3    3    0  502 -0.28053353907E+03 -0.69875639649E+03  0.12387531926E+04  0.14496444566E+04  0.10100000352E+00 0. -1.
</event>
<event>
 5   0  0.1700885E-06  0.2970483E+04  0.7818609E-02  0.8252210E-01
       -1   -1    0    0    0  501  0.00000000000E+00  0.00000000000E+00  0.10630507813E+04  0.10630507813E+04  0.50400001928E-02 0.  1.
        1   -1    0    0  501    0  0.00000000000E+00  0.00000000000E+00 -0.20751055960E+04  0.20751055960E+04  0.50400001928E-02 0. -1.
    10030    2    1    2    0    0  0.00000000000E+00  0.00000000000E+00 -0.10120548147E+04  0.31381563773E+04  0.29704832099E+04 0.  0.
        1    1    3    3  502    0 -0.39232634039E+03  0.91149419106E+03 -0.16734848443E+04  0.19455829825E+04  0.50400001928E-02 0. -1.
       -1    1    3    3    0  502  0.39232634039E+03 -0.91149419106E+03  0.66143002966E+03  0.11925733948E+04  0.50400001928E-02 0.  1.
</event>
<event>
 5   0  0.1672907E-06  0.3037418E+04  0.7818609E-02  0.8233126E-01
       -1   -1    0    0    0  501  0.00000000000E+00  0.00000000000E+00  0.16183772905E+04  0.16183772905E+04  0.50400001928E-02 0. -1.
        1   -1    0    0  501    0  0.00000000000E+00  0.00000000000E+00 -0.14251790383E+04  0.14251790383E+04  0.50400001928E-02 0.  1.
    10030    2    1    2    0    0  0.00000000000E+00  0.00000000000E+00  0.19319825218E+03  0.30435563288E+04  0.30374182396E+04 0.  0.
        5    1    3    3  502    0  0.14089387281E+03 -0.29651627126E+03 -0.13891927837E+04  0.14274633665E+04  0.46999998093E+01 0.  1.
       -5    1    3    3    0  502 -0.14089387281E+03  0.29651627126E+03  0.15823910358E+04  0.16160929623E+04  0.46999998093E+01 0. -1.
</event>
<event>
 5   0  0.5003556E-06  0.3001053E+04  0.7818609E-02  0.8243430E-01
        2   -1    0    0  501    0  0.00000000000E+00  0.00000000000E+00  0.22985557170E+04  0.22985557170E+04  0.25500000920E-02 0. -1.
       -2   -1    0    0    0  501  0.00000000000E+00  0.00000000000E+00 -0.97956302035E+03  0.97956302035E+03  0.25500000920E-02 0.  1.
    10030    2    1    2    0    0  0.00000000000E+00  0.00000000000E+00  0.13189926967E+04  0.32781187374E+04  0.30010532689E+04 0.  0.
        3    1    3    3  502    0  0.26876493435E+03  0.30170068556E+03  0.22380150681E+04  0.22741964182E+04  0.10100000352E+00 0. -1.
       -3    1    3    3    0  502 -0.26876493435E+03 -0.30170068556E+03 -0.91902237138E+03  0.10039223192E+04  0.10100000352E+00 0.  1.
</event>
<event>
 5   0  0.4935331E-06  0.2897910E+04  0.7818609E-02  0.8273499E-01
       -2   -1    0    0    0  501  0.00000000000E+00  0.00000000000E+00  0.14177083981E+04  0.14177083981E+04  0.25500000920E-02 0.  1.
        2   -1    0    0  501    0  0.00000000000E+00  0.00000000000E+00 -0.14808906704E+04  0.14808906704E+04  0.25500000920E-02 0. -1.
    10030    2    1    2    0    0  0.00000000000E+00  0.00000000000E+00 -0.63182272343E+02  0.28985990685E+04  0.28979103782E+04 0.  0.
        5    1    3    3  502    0 -0.22901871372E+03  0.13649845903E+04  0.39724907362E+03  0.14399518810E+04  0.46999998093E+01 0.  1.
       -5    1    3    3    0  502  0.22901871372E+03 -0.13649845903E+04 -0.46043134597E+03  0.14586471875E+04  0.46999998093E+01 0. -1.
</event>
<event>
 5   0  0.4935331E-06  0.3050418E+04  0.7818609E-02  0.8229478E-01
       -2   -1    0    0    0  501  0.00000000000E+00  0.00000000000E+00  0.77719617759E+03  0.77719617759E+03  0.25500000920E-02 0. -1.
        2   -1    0    0  501    0  0.00000000000E+00  0.00000000000E+00 -0.29931477066E+04  0.29931477066E+04  0.25500000920E-02 0.  1.
    10030    2    1    2    0    0  0.00000000000E+00  0.00000000000E+00 -0.22159515290E+04  0.37703438842E+04  0.30504183035E+04 0.  0.
        5    1    3    3  502    0  0.14754655875E+04  0.12903790767E+03 -0.15580448867E+04  0.21496919408E+04  0.46999998093E+01 0.  1.
       -5    1    3    3    0  502 -0.14754655875E+04 -0.12903790767E+03 -0.65790664231E+03  0.16206519434E+04  0.46999998093E+01 0. -1.
</event>
<event>
 5   0  0.1686012E-06  0.3014210E+04  0.7818609E-02  0.8239685E-01
        1   -1    0    0  501    0  0.00000000000E+00  0.00000000000E+00  0.12934689621E+04  0.12934689621E+04  0.50400001928E-02 0.  1.
       -1   -1    0    0    0  501  0.00000000000E+00  0.00000000000E+00 -0.17560258602E+04  0.17560258602E+04  0.50400001928E-02 0. -1.
    10030    2    1    2    0    0  0.00000000000E+00  0.00000000000E+00 -0.46255689811E+03  0.30494948223E+04  0.30142096455E+04 0.  0.
        4    1    3    3  502    0 -0.21113579433E+03  0.13991519383E+04  0.29360005647E+03  0.14451322003E+04  0.12699999809E+01 0.  1.
       -4    1    3    3    0  502  0.21113579433E+03 -0.13991519383E+04 -0.75615695458E+03  0.16043626220E+04  0.12699999809E+01 0. -1.
</event>
<event>
 5   0  0.1545375E-06  0.2707528E+04  0.7818609E-02  0.8332567E-01
        3   -1    0    0  501    0  0.00000000000E+00  0.00000000000E+00  0.16229970618E+04  0.16229970650E+04  0.10100000352E+00 0. -1.
       -3   -1    0    0    0  501  0.00000000000E+00  0.00000000000E+00 -0.11291926396E+04  0.11291926442E+04  0.10100000352E+00 0.  1.
    10030    2    1    2    0    0  0.00000000000E+00  0.00000000000E+00  0.49380442219E+03  0.27521897091E+04  0.27075275414E+04 0.  0.
        1    1    3    3  502    0  0.12663297396E+04  0.34680846991E+03 -0.88401482654E+02  0.13159338685E+04  0.50400001928E-02 0.  1.
       -1    1    3    3    0  502 -0.12663297396E+04 -0.34680846991E+03  0.58220590484E+03  0.14362558406E+04  0.50400001928E-02 0. -1.
</event>
<event>
 5   0  0.1686012E-06  0.2996000E+04  0.7818609E-02  0.8244874E-01
       -1   -1    0    0    0  501  0.00000000000E+00  0.00000000000E+00  0.10265994903E+04  0.10265994903E+04  0.50400001928E-02 0. -1.
        1   -1    0    0  501    0  0.00000000000E+00  0.00000000000E+00 -0.21858614621E+04  0.21858614621E+04  0.50400001928E-02 0.  1.
    10030    2    1    2    0    0  0.00000000000E+00  0.00000000000E+00 -0.11592619719E+04  0.32124609524E+04  0.29960001754E+04 0.  0.
        4    1    3    3  502    0 -0.14847207137E+04 -0.11074493217E+03 -0.75693396193E+03  0.16702127629E+04  0.12699999809E+01 0. -1.
       -4    1    3    3    0  502  0.14847207137E+04  0.11074493217E+03 -0.40232800993E+03  0.15422481895E+04  0.12699999809E+01 0.  1.
</event>
<event>
 5   0  0.1709858E-06  0.2930646E+04  0.7818609E-02  0.8263817E-01
        1   -1    0    0  501    0  0.00000000000E+00  0.00000000000E+00  0.11045719991E+04  0.11045719991E+04  0.50400001928E-02 0.  1.
       -1   -1    0    0    0  501  0.00000000000E+00  0.00000000000E+00 -0.19438948644E+04  0.19438948644E+04  0.50400001928E-02 0. -1.
    10030    2    1    2    0    0  0.00000000000E+00  0.00000000000E+00 -0.83932286529E+03  0.30484668635E+04  0.29306462334E+04 0.  0.
        3    1    3    3  502    0 -0.59405537157E+03  0.87846245446E+03  0.63221664401E+03  0.12346238146E+04  0.10100000352E+00 0.  1.
       -3    1    3    3    0  502  0.59405537157E+03 -0.87846245446E+03 -0.14715395093E+04  0.18138430489E+04  0.10100000352E+00 0. -1.
</event>
<event>
 5   0  0.1700885E-06  0.2982067E+04  0.7818609E-02  0.8248870E-01
        1   -1    0    0  501    0  0.00000000000E+00  0.00000000000E+00  0.17287768425E+04  0.17287768425E+04  0.50400001928E-02 0.  1.
       -1   -1    0    0    0  501  0.00000000000E+00  0.00000000000E+00 -0.12859846891E+04  0.12859846891E+04  0.50400001928E-02 0. -1.
    10030    2    1    2    0    0  0.00000000000E+00  0.00000000000E+00  0.44279215337E+03  0.30147615316E+04  0.29820667667E+04 0.  0.
        1    1    3    3  502    0  0.17074270543E+03  0.11471346173E+04 -0.72595287042E+03  0.13682391866E+04  0.50400001928E-02 0. -1.
       -1    1    3    3    0  502 -0.17074270543E+03 -0.11471346173E+04  0.11687450238E+04  0.16465223449E+04  0.50400001928E-02 0.  1.
</event>
<event>
 5   0  0.5003556E-06  0.3094235E+04  0.7818609E-02  0.8217322E-01
       -2   -1    0    0    0  501  0.00000000000E+00  0.00000000000E+00  0.11630720251E+04  0.11630720251E+04  0.25500000920E-02 0. -1.
        2   -1    0    0  501    0  0.00000000000E+00  0.00000000000E+00 -0.20579739372E+04  0.20579739372E+04  0.25500000920E-02 0.  1.
    10030    2    1    2    0    0  0.00000000000E+00  0.00000000000E+00 -0.89490191208E+03  0.32210459623E+04  0.30942345837E+04 0.  0.
        3    1    3    3  502    0 -0.14292526647E+04  0.41536949234E+03 -0.88698370042E+03  0.17326381878E+04  0.10100000352E+00 0. -1.
       -3    1    3    3    0  502  0.14292526647E+04 -0.41536949234E+03 -0.79182116570E+01  0.14884077745E+04  0.10100000352E+00 0.  1.
</event>
<event>
 5   0  0.4935331E-06  0.2692534E+04  0.7818609E-02  0.8337432E-01
       -2   -1    0    0    0  501  0.00000000000E+00  0.00000000000E+00  0.91458067662E+03  0.91458067662E+03  0.25500000920E-02 0.  1.
        2   -1    0    0  501    0  0.00000000000E+00  0.00000000000E+00 -0.19817108279E+04  0.19817108279E+04  0.25500000920E-02 0. -1.
    10030    2    1    2    0    0  0.00000000000E+00  0.00000000000E+00 -0.10671301513E+04  0.28962915045E+04  0.26925336988E+04 0.  0.
        5    1    3    3  502    0 -0.82413476156E+03  0.76638441970E+03  0.26117552562E+03  0.11553258974E+04  0.46999998093E+01 0.  1.
       -5    1    3    3    0  502  0.82413476156E+03 -0.76638441970E+03 -0.13283056769E+04  0.17409656071E+04  0.46999998093E+01 0. -1.
</event>
<event>
 5   0  0.4935331E-06  0.2810416E+04  0.7818609E-02  0.8300042E-01
        2   -1    0    0  501    0  0.00000000000E+00  0.00000000000E+00  0.75589060061E+03  0.75589060061E+03  0.25500000920E-02 0.  1.
       -2   -1    0    0    0  501  0.00000000000E+00  0.00000000000E+00 -0.26122955986E+04  0.26122955986E+04  0.25500000920E-02 0. -1.
    10030    2    1    2    0    0  0.00000000000E+00  0.00000000000E+00 -0.18564049980E+04  0.33681861992E+04  0.28104161180E+04 0.  0.
        5    1    3    3  502    0 -0.51877342914E+03  0.10146959833E+04  0.57059746431E+02  0.11410572790E+04  0.46999998093E+01 0.  1.
       -5    1    3    3    0  502  0.51877342914E+03 -0.10146959833E+04 -0.19134647445E+04  0.22271289203E+04  0.46999998093E+01 0. -1.
</event>
<event>
 5   0  0.1700885E-06  0.3137773E+04  0.7818609E-02  0.8205447E-01
        1   -1    0    0  501    0  0.00000000000E+00  0.00000000000E+00  0.12661338878E+04  0.12661338878E+04  0.50400001928E-02 0.  1.
       -1   -1    0    0    0  501  0.00000000000E+00  0.00000000000E+00 -0.19440322502E+04  0.19440322502E+04  0.50400001928E-02 0. -1.
    10030    2    1    2    0    0  0.00000000000E+00  0.00000000000E+00 -0.67789836237E+03  0.32101661381E+04  0.31377731665E+04 0.  0.
        1    1    3    3  502    0 -0.44888657063E+03  0.11807098071E+04 -0.12909171964E+04  0.18061124023E+04  0.50400001928E-02 0. -1.
       -1    1    3    3    0  502  0.44888657063E+03 -0.11807098071E+04  0.61301883398E+03  0.14040537357E+04  0.50400001928E-02 0.  1.
</event>
<event>
 5   0  0.4768570E-06  0.3003600E+04  0.7818609E-02  0.8242704E-01
        2   -1    0    0  501    0  0.00000000000E+00  0.00000000000E+00  0.14718123951E+04  0.14718123951E+04  0.25500000920E-02 0. -1.
       -2   -1    0    0    0  501  0.00000000000E+00  0.00000000000E+00 -0.15323983723E+04  0.15323983723E+04  0.25500000920E-02 0.  1.
    10030    2    1    2    0    0  0.00000000000E+00  0.00000000000E+00 -0.60585977182E+02  0.30042107674E+04  0.30035997860E+04 0.  0.
        1    1    3    3  502    0 -0.75647338737E+02  0.96995461142E+03 -0.11745835965E+04  0.15251823147E+04  0.50400001928E-02 0.  1.
       -1    1    3    3    0  502  0.75647338737E+02 -0.96995461142E+03  0.11139976193E+04  0.14790284527E+04  0.50400001928E-02 0. -1.
</event>
<event>
 5   0  0.4768570E-06  0.2993164E+04  0.7818609E-02  0.8245686E-01
        2   -1    0    0  501    0  0.00000000000E+00  0.00000000000E+00  0.13948288089E+04  0.13948288089E+04  0.25500000920E-02 0. -1.
       -2   -1    0    0    0  501  0.00000000000E+00  0.00000000000E+00 -0.16057577524E+04  0.16057577524E+04  0.25500000920E-02 0.  1.
    10030    2    1    2    0    0  0.00000000000E+00  0.00000000000E+00 -0.21092894350E+03  0.30005865614E+04  0.29931636596E+04 0.  0.
        1    1    3    3  502    0 -0.56069469923E+02 -0.22109110347E+03  0.13773020329E+04  0.13960608695E+04  0.50400001928E-02 0. -1.
       -1    1    3    3    0  502  0.56069469923E+02  0.22109110347E+03 -0.15882309764E+04  0.16045256919E+04  0.50400001928E-02 0.  1.
</event>
<event>
 5   0  0.1709858E-06  0.2986072E+04  0.7818609E-02  0.8247719E-01
        1   -1    0    0  501    0  0.00000000000E+00  0.00000000000E+00  0.19357013725E+04  0.19357013725E+04  0.50400001928E-02 0.  1.
       -1   -1    0    0    0  501  0.00000000000E+00  0.00000000000E+00 -0.11516011788E+04  0.11516011789E+04  0.50400001928E-02 0. -1.
    10030    2    1    2    0    0  0.00000000000E+00  0.00000000000E+00  0.78410019362E+03  0.30873025513E+04  0.29860716552E+04 0.  0.
        3    1    3    3  502    0 -0.48794004479E+03 -0.56955655970E+03  0.17268142447E+04  0.18826490931E+04  0.10100000352E+00 0.  1.
       -3    1    3    3    0  502  0.48794004479E+03  0.56955655970E+03 -0.94271405108E+03  0.12046534582E+04  0.10100000352E+00 0. -1.
</event>
<event>
 5   0  0.4532420E-06  0.3009683E+04  0.7818609E-02  0.8240971E-01
        2   -1    0    0  501    0  0.00000000000E+00  0.00000000000E+00  0.21154990841E+04  0.21154990841E+04  0.25500000920E-02 0.  1.
       -2   -1    0    0    0  501  0.00000000000E+00  0.00000000000E+00 -0.10704555405E+04  0.10704555405E+04  0.25500000920E-02 0. -1.
    10030    2    1    2    0    0  0.00000000000E+00  0.00000000000E+00  0.10450435436E+04  0.31859546246E+04  0.30096828507E+04 0.  0.
        4    1    3    3  502    0  0.11929728719E+02  0.11497384531E+04 -0.50516495396E+03  0.12558798002E+04  0.12699999809E+01 0. -1.
       -4    1    3    3    0  502 -0.11929728719E+02 -0.11497384531E+04  0.15502084975E+04  0.19300748244E+04  0.12699999809E+01 0.  1.
</event>
<event>
 5   0  0.1734885E-06  0.2996739E+04  0.7818609E-02  0.8244663E-01
        1   -1    0    0  501    0  0.00000000000E+00  0.00000000000E+00  0.99257564790E+03  0.99257564791E+03  0.50400001928E-02 0.  1.
       -1   -1    0    0    0  501  0.00000000000E+00  0.00000000000E+00 -0.22619039580E+04  0.22619039580E+04  0.50400001928E-02 0. -1.
    10030    2    1    2    0    0  0.00000000000E+00  0.00000000000E+00 -0.12693283101E+04  0.32544796059E+04  0.29967387518E+04 0.  0.
        2    1    3    3  502    0 -0.63310446083E+03 -0.50998822784E+03 -0.20015677494E+04  0.21603663361E+04  0.25500000920E-02 0. -1.
       -2    1    3    3    0  502  0.63310446083E+03  0.50998822784E+03  0.73223943924E+03  0.10941132698E+04  0.25500000920E-02 0.  1.
</event>
<event>
 5   0  0.4702748E-06  0.3001824E+04  0.7818609E-02  0.8243210E-01
       -2   -1    0    0    0  501  0.00000000000E+00  0.00000000000E+00  0.14368768075E+04  0.14368768075E+04  0.25500000920E-02 0.  1.
        2   -1    0    0  501    0  0.00000000000E+00  0.00000000000E+00 -0.15678009668E+04  0.15678009668E+04  0.25500000920E-02 0. -1.
    10030    2    1    2    0    0  0.00000000000E+00  0.00000000000E+00 -0.13092415927E+03  0.30046777743E+04  0.30018240108E+04 0.  0.
        2    1    3    3  502    0  0.10469319117E+04  0.66260643032E+03  0.78246966421E+03  0.14653915806E+04  0.25500000920E-02 0.  1.
       -2    1    3    3    0  502 -0.10469319117E+04 -0.66260643032E+03 -0.91339382348E+03  0.15392861937E+04  0.25500000920E-02 0. -1.
</event>
<event>
 5   0  0.1700885E-06  0.3002275E+04  0.7818609E-02  0.8243082E-01
        1   -1    0    0  501    0  0.00000000000E+00  0.00000000000E+00  0.18224531808E+04  0.18224531808E+04  0.50400001928E-02 0.  1.
       -1   -1    0    0    0  501  0.00000000000E+00  0.00000000000E+00 -0.12364725813E+04  0.12364725813E+04  0.50400001928E-02 0. -1.
    10030    2    1    2    0    0  0.00000000000E+00  0.00000000000E+00  0.58598059947E+03  0.30589257621E+04  0.30022747301E+04 0.  0.
        1    1    3    3  502    0 -0.25323558553E+03 -0.73588773443E+03  0.16008607942E+04  0.17800040174E+04  0.50400001928E-02 0.  1.
       -1    1    3    3    0  502  0.25323558553E+03  0.73588773443E+03 -0.10148801947E+04  0.12789217447E+04  0.50400001928E-02 0. -1.
</event>
<event>
 5   0  0.4702748E-06  0.2993524E+04  0.7818609E-02  0.8245582E-01
       -2   -1    0    0    0  501  0.00000000000E+00  0.00000000000E+00  0.96131561054E+03  0.96131561054E+03  0.25500000920E-02 0.  1.
        2   -1    0    0  501    0  0.00000000000E+00  0.00000000000E+00 -0.23304491408E+04  0.23304491408E+04  0.25500000920E-02 0. -1.
    10030    2    1    2    0    0  0.00000000000E+00  0.00000000000E+00 -0.13691335303E+04  0.32917647514E+04  0.29935244369E+04 0.  0.
        2    1    3    3  502    0  0.90129572682E+03 -0.11154360583E+04 -0.11559542344E+04  0.18419451076E+04  0.25500000920E-02 0. -1.
       -2    1    3    3    0  502 -0.90129572682E+03  0.11154360583E+04 -0.21317929590E+03  0.14498196438E+04  0.25500000920E-02 0.  1.
</event>
<event>
 5   0  0.4935331E-06  0.3013520E+04  0.7818609E-02  0.8239881E-01
       -2   -1    0    0    0  501  0.00000000000E+00  0.00000000000E+00  0.11483390639E+04  0.11483390639E+04  0.25500000920E-02 0. -1.
        2   -1    0    0  501    0  0.00000000000E+00  0.00000000000E+00 -0.19770514751E+04  0.19770514751E+04  0.25500000920E-02 0.  1.
    10030    2    1    2    0    0  0.00000000000E+00  0.00000000000E+00 -0.82871241121E+03  0.31253905390E+04  0.30135198292E+04 0.  0.
        5    1    3    3  502    0 -0.20251908825E+03  0.12849233162E+04 -0.12030208220E+04  0.17718135054E+04  0.46999998093E+01 0.  1.
       -5    1    3    3    0  502  0.20251908825E+03 -0.12849233162E+04  0.37430841076E+03  0.13535770337E+04  0.46999998093E+01 0. -1.
</event>
<event>
 5   0  0.4935331E-06  0.3001049E+04  0.7818609E-02  0.8243432E-01
        2   -1    0    0  501    0  0.00000000000E+00  0.00000000000E+00  0.19514382610E+04  0.19514382610E+04  0.25500000920E-02 0.  1.
       -2   -1    0    0    0  501  0.00000000000E+00  0.00000000000E+00 -0.11538019241E+04  0.11538019241E+04  0.25500000920E-02 0. -1.
    10030    2    1    2    0    0  0.00000000000E+00  0.00000000000E+00  0.79763633685E+03  0.31052401851E+04  0.30010486303E+04 0.  0.
        5    1    3    3  502    0 -0.11710117345E+04 -0.90888786298E+03  0.63972207580E+03  0.16145005587E+04  0.46999998093E+01 0.  1.
       -5    1    3    3    0  502  0.11710117345E+04  0.90888786298E+03  0.15791426105E+03  0.14907396264E+04  0.46999998093E+01 0. -1.
</event>
<event>
 5   0  0.1734885E-06  0.2567924E+04  0.7818609E-02  0.8379179E-01
        1   -1    0    0  501    0  0.00000000000E+00  0.00000000000E+00  0.22316066227E+04  0.22316066227E+04  0.50400001928E-02 0.  1.
       -1   -1    0    0    0  501  0.00000000000E+00  0.00000000000E+00 -0.73873172709E+03  0.73873172710E+03  0.50400001928E-02 0. -1.
    10030    2    1    2    0    0  0.00000000000E+00  0.00000000000E+00  0.14928748957E+04  0.29703383499E+04  0.25679241536E+04 0.  0.
        2    1    3    3  502    0  0.25939940660E+03 -0.69790640564E+03 -0.46352399750E+03  0.87704954218E+03  0.25500000920E-02 0. -1.
       -2    1    3    3    0  502 -0.25939940660E+03  0.69790640564E+03  0.19563988932E+04  0.20932888077E+04  0.25500000920E-02 0.  1.
</event>
<event>
 5   0  0.1709858E-06  0.3028387E+04  0.7818609E-02  0.8235671E-01
        1   -1    0    0  501    0  0.00000000000E+00  0.00000000000E+00  0.23404406512E+04  0.23404406512E+04  0.50400001928E-02 0. -1.
       -1   -1    0    0    0  501  0.00000000000E+00  0.00000000000E+00 -0.97963679332E+03  0.97963679333E+03  0.50400001928E-02 0.  1.
    10030    2    1    2    0    0  0.00000000000E+00  0.00000000000E+00  0.13608038579E+04  0.33200774445E+04  0.30283868805E+04 0.  0.
        3    1    3    3  502    0  0.10307567023E+04 -0.45885845636E+03  0.17875054989E+04  0.21138085015E+04  0.10100000352E+00 0. -1.
       -3    1    3    3    0  502 -0.10307567023E+04  0.45885845636E+03 -0.42670164103E+03  0.12062689430E+04  0.10100000352E+00 0.  1.
</event>
<event>
 5   0  0.1709858E-06  0.2875856E+04  0.7818609E-02  0.8280097E-01
        1   -1    0    0  501    0  0.00000000000E+00  0.00000000000E+00  0.21491303308E+04  0.21491303308E+04  0.50400001928E-02 0. -1.
       -1   -1    0    0    0  501  0.00000000000E+00  0.00000000000E+00 -0.96208078110E+03  0.96208078112E+03  0.50400001928E-02 0.  1.
    10030    2    1    2    0    0  0.00000000000E+00  0.00000000000E+00  0.11870495497E+04  0.31112111119E+04  0.28758560377E+04 0.  0.
        3    1    3    3  502    0  0.62511637173E+03 -0.11885350938E+04  0.37402207274E+02  0.13434228979E+04  0.10100000352E+00 0.  1.
       -3    1    3    3    0  502 -0.62511637173E+03  0.11885350938E+04  0.11496473424E+04  0.17677882140E+04  0.10100000352E+00 0. -1.
</event>
<event>
 5   0  0.1672907E-06  0.3010012E+04  0.7818609E-02  0.8240878E-01
       -1   -1    0    0    0  501  0.00000000000E+00  0.00000000000E+00  0.14540851721E+04  0.14540851721E+04  0.50400001928E-02 0. -1.
        1   -1    0    0  501    0  0.00000000000E+00  0.00000000000E+00 -0.15577098129E+04  0.15577098129E+04  0.50400001928E-02 0.  1.
    10030    2    1    2    0    0  0.00000000000E+00  0.00000000000E+00 -0.10362464081E+03  0.30117949851E+04  0.30100117883E+04 0.  0.
        5    1    3    3  502    0  0.89889356111E+03 -0.10740116858E+04 -0.60305603634E+03  0.15248637344E+04  0.46999998093E+01 0.  1.
       -5    1    3    3    0  502 -0.89889356111E+03  0.10740116858E+04  0.49943139553E+03  0.14869312507E+04  0.46999998093E+01 0. -1.
</event>
<event>
 5   0  0.4768570E-06  0.2989580E+04  0.7818609E-02  0.8246713E-01
       -2   -1    0    0    0  501  0.00000000000E+00  0.00000000000E+00  0.93048561341E+03  0.93048561342E+03  0.25500000920E-02 0. -1.
        2   -1    0    0  501    0  0.00000000000E+00  0.00000000000E+00 -0.24013231416E+04  0.24013231416E+04  0.25500000920E-02 0.  1.
    10030    2    1    2    0    0  0.00000000000E+00  0.00000000000E+00 -0.14708375281E+04  0.33318087550E+04  0.29895796603E+04 0.  0.
        1    1    3    3  502    0 -0.10005360331E+04 -0.11016844919E+04 -0.89150705438E+03  0.17348100476E+04  0.50400001928E-02 0. -1.
       -1    1    3    3    0  502  0.10005360331E+04  0.11016844919E+04 -0.57933047376E+03  0.15969987073E+04  0.50400001928E-02 0.  1.
</event>
<event>
 5   0  0.1672907E-06  0.2973890E+04  0.7818609E-02  0.8251226E-01
        1   -1    0    0  501    0  0.00000000000E+00  0.00000000000E+00  0.84971251447E+03  0.84971251449E+03  0.50400001928E-02 0. -1.
       -1   -1    0    0    0  501  0.00000000000E+00  0.00000000000E+00 -0.26020632452E+04  0.26020632452E+04  0.50400001928E-02 0.  1.
    10030    2    1    2    0    0  0.00000000000E+00  0.00000000000E+00 -0.17523507307E+04  0.34517757597E+04  0.29738901815E+04 0.  0.
        5    1    3    3  502    0  0.42463500061E+03  0.14226784440E+04 -0.97086104700E+03  0.17739566233E+04  0.46999998093E+01 0. -1.
       -5    1    3    3    0  502 -0.42463500061E+03 -0.14226784440E+04 -0.78148968372E+03  0.16778191364E+04  0.46999998093E+01 0.  1.
</event>
<event>
 5   0  0.4768570E-06  0.3000757E+04  0.7818609E-02  0.8243515E-01
        2   -1    0    0  501    0  0.00000000000E+00  0.00000000000E+00  0.14214765307E+04  0.14214765307E+04  0.25500000920E-02 0.  1.
       -2   -1    0    0    0  501  0.00000000000E+00  0.00000000000E+00 -0.15836601187E+04  0.15836601187E+04  0.25500000920E-02 0. -1.
    10030    2    1    2    0    0  0.00000000000E+00  0.00000000000E+00 -0.16218358808E+03  0.30051366494E+04  0.30007570321E+04 0.  0.
        1    1    3    3  502    0  0.13462488361E+04  0.27470168264E+03 -0.68470588019E+03  0.15351446464E+04  0.50400001928E-02 0. -1.
       -1    1    3    3    0  502 -0.13462488361E+04 -0.27470168264E+03  0.52252229211E+03  0.14699920030E+04  0.50400001928E-02 0.  1.
</event>
<event>
 5   0  0.5003556E-06  0.3005645E+04  0.7818609E-02  0.8242121E-01
        2   -1    0    0  501    0  0.00000000000E+00  0.00000000000E+00  0.24656259423E+04  0.24656259423E+04  0.25500000920E-02 0.  1.
       -2   -1    0    0    0  501  0.00000000000E+00  0.00000000000E+00 -0.91598467227E+03  0.91598467227E+03  0.25500000920E-02 0. -1.
    10030    2    1    2    0    0  0.00000000000E+00  0.00000000000E+00  0.15496412700E+04  0.33816106146E+04  0.30056450693E+04 0.  0.
        3    1    3    3  502    0  0.67562708551E+01 -0.68897684800E+03  0.22774496784E+04  0.23793931563E+04  0.10100000352E+00 0.  1.
       -3    1    3    3    0  502 -0.67562708551E+01  0.68897684800E+03 -0.72780840835E+03  0.10022174583E+04  0.10100000352E+00 0. -1.
</event>
<event>
 5   0  0.4702748E-06  0.3012643E+04  0.7818609E-02  0.8240130E-01
        2   -1    0    0  501    0  0.00000000000E+00  0.00000000000E+00  0.27662585128E+04  0.27662585128E+04  0.25500000920E-02 0. -1.
       -2   -1    0    0    0  501  0.00000000000E+00  0.00000000000E+00 -0.82024322568E+03  0.82024322568E+03  0.25500000920E-02 0.  1.
    10030    2    1    2    0    0  0.00000000000E+00  0.00000000000E+00  0.19460152871E+04  0.35865017385E+04  0.30126432285E+04 0.  0.
        2    1    3    3  502    0  0.10514570358E+04 -0.54648694110E+03 -0.13407466262E+03  0.11925543552E+04  0.25500000920E-02 0.  1.
       -2    1    3    3    0  502 -0.10514570358E+04  0.54648694110E+03  0.20800899498E+04  0.23939473833E+04  0.25500000920E-02 0. -1.
</event>
<event>
 5   0  0.1686012E-06  0.3050613E+04  0.7818609E-02  0.8229424E-01
        1   -1    0    0  501    0  0.00000000000E+00  0.00000000000E+00  0.13045062603E+04  0.13045062603E+04  0.50400001928E-02 0.  1.
       -1   -1    0    0    0  501  0.00000000000E+00  0.00000000000E+00 -0.17834798081E+04  0.17834798081E+04  0.50400001928E-02 0. -1.
    10030    2    1    2    0    0  0.00000000000E+00  0.00000000000E+00 -0.47897354783E+03  0.30879860684E+04  0.30506134300E+04 0.  0.
        4    1    3    3  502    0 -0.78343169942E+03 -0.98722428309E+03  0.63021401703E+03  0.14090948630E+04  0.12699999809E+01 0.  1.
       -4    1    3    3    0  502  0.78343169942E+03  0.98722428309E+03 -0.11091875649E+04  0.16788912054E+04  0.12699999809E+01 0. -1.
</event>
<event>
 5   0  0.4935331E-06  0.3000731E+04  0.7818609E-02  0.8243522E-01
       -2   -1    0    0    0  501  0.00000000000E+00  0.00000000000E+00  0.14423600693E+04  0.14423600693E+04  0.25500000920E-02 0.  1.
        2   -1    0    0  501    0  0.00000000000E+00  0.00000000000E+00 -0.15607040162E+04  0.15607040162E+04  0.25500000920E-02 0. -1.
    10030    2    1    2    0    0  0.00000000000E+00  0.00000000000E+00 -0.11834394691E+03  0.30030640855E+04  0.30007313461E+04 0.  0.
        5    1    3    3  502    0  0.45803416714E+03 -0.94686103709E+03 -0.11299261203E+04  0.15437280360E+04  0.46999998093E+01 0. -1.
       -5    1    3    3    0  502 -0.45803416714E+03  0.94686103709E+03  0.10115821734E+04  0.14593360495E+04  0.46999998093E+01 0.  1.
</event>
<event>
 5   0  0.4935331E-06  0.3069444E+04  0.7818609E-02  0.8224174E-01
        2   -1    0    0  501    0  0.00000000000E+00  0.00000000000E+00  0.12553053426E+04  0.12553053426E+04  0.25500000920E-02 0. -1.
       -2   -1    0    0    0  501  0.00000000000E+00  0.00000000000E+00 -0.18763336477E+04  0.18763336477E+04  0.25500000920E-02 0.  1.
    10030    2    1    2    0    0  0.00000000000E+00  0.00000000000E+00 -0.62102830508E+03  0.31316389903E+04  0.30694440229E+04 0.  0.
        5    1    3    3  502    0  0.11606178203E+03 -0.82060764497E+03 -0.16283847790E+04  0.18271634636E+04  0.46999998093E+01 0.  1.
       -5    1    3    3    0  502 -0.11606178203E+03  0.82060764497E+03  0.10073564739E+04  0.13044755267E+04  0.46999998093E+01 0. -1.
</event>
<event>
 5   0  0.4768570E-06  0.3005992E+04  0.7818609E-02  0.8242022E-01
        2   -1    0    0  501    0  0.00000000000E+00  0.00000000000E+00  0.15251389444E+04  0.15251389444E+04  0.25500000920E-02 0.  1.
       -2   -1    0    0    0  501  0.00000000000E+00  0.00000000000E+00 -0.14811741495E+04  0.14811741495E+04  0.25500000920E-02 0. -1.
    10030    2    1    2    0    0  0.00000000000E+00  0.00000000000E+00  0.43964794903E+02  0.30063130940E+04  0.30059916028E+04 0.  0.
        1    1    3    3  502    0  0.12898017378E+04  0.75764909447E+03  0.16820236311E+03  0.15052948907E+04  0.50400001928E-02 0. -1.
       -1    1    3    3    0  502 -0.12898017378E+04 -0.75764909447E+03 -0.12423756821E+03  0.15010182032E+04  0.50400001928E-02 0.  1.
</event>
<event>
 5   0  0.4532420E-06  0.2992654E+04  0.7818609E-02  0.8245832E-01
       -2   -1    0    0    0  501  0.00000000000E+00  0.00000000000E+00  0.12096266454E+04  0.12096266454E+04  0.25500000920E-02 0. -1.
        2   -1    0    0  501    0  0.00000000000E+00  0.00000000000E+00 -0.18509803311E+04  0.18509803311E+04  0.25500000920E-02 0.  1.
    10030    2    1    2    0    0  0.00000000000E+00  0.00000000000E+00 -0.64135368575E+03  0.30606069765E+04  0.29926544261E+04 0.  0.
        4    1    3    3  502    0 -0.67956580907E+03 -0.13328536252E+04 -0.34744442428E+03  0.15359126655E+04  0.12699999809E+01 0. -1.
       -4    1    3    3    0  502  0.67956580907E+03  0.13328536252E+04 -0.29390926147E+03  0.15246943110E+04  0.12699999809E+01 0.  1.
</event>
<event>
 5   0  0.1686012E-06  0.2988999E+04  0.7818609E-02  0.8246879E-01
       -1   -1    0    0    0  501  0.00000000000E+00  0.00000000000E+00  0.10396106669E+04  0.10396106669E+04  0.50400001928E-02 0.  1.
        1   -1    0    0  501    0  0.00000000000E+00  0.00000000000E+00 -0.21484286717E+04  0.21484286717E+04  0.50400001928E-02 0. -1.
    10030    2    1    2    0    0  0.00000000000E+00  0.00000000000E+00 -0.11088180048E+04  0.31880393386E+04  0.29889994072E+04 0.  0.
        4    1    3    3  502    0  0.54286024779E+03  0.98061568321E+03 -0.16087831971E+04  0.19607369418E+04  0.12699999809E+01 0.  1.
       -4    1    3    3    0  502 -0.54286024779E+03 -0.98061568321E+03  0.49996519228E+03  0.12273023968E+04  0.12699999809E+01 0. -1.
</event>
<event>
 5   0  0.1734885E-06  0.2934504E+04  0.7818609E-02  0.8262685E-01
       -1   -1    0    0    0  501  0.00000000000E+00  0.00000000000E+00  0.15748994982E+04  0.15748994982E+04  0.50400001928E-02 0. -1.
        1   -1    0    0  501    0  0.00000000000E+00  0.00000000000E+00 -0.13669625511E+04  0.13669625511E+04  0.50400001928E-02 0.  1.
    10030    2    1    2    0    0  0.00000000000E+00  0.00000000000E+00  0.20793694706E+03  0.29418620493E+04  0.29345041393E+04 0.  0.
        2    1    3    3  502    0  0.69351650153E+03  0.10684170526E+04  0.83404477213E+03  0.15225343406E+04  0.25500000920E-02 0. -1.
       -2    1    3    3    0  502 -0.69351650153E+03 -0.10684170526E+04 -0.62610782507E+03  0.14193277088E+04  0.25500000920E-02 0.  1.
</event>
<event>
 5   0  0.4935331E-06  0.3053669E+04  0.7818609E-02  0.8228569E-01
       -2   -1    0    0    0  501  0.00000000000E+00  0.00000000000E+00  0.83161879378E+03  0.83161879378E+03  0.25500000920E-02 0.  1.
        2   -1    0    0  501    0  0.00000000000E+00  0.00000000000E+00 -0.28032366985E+04  0.28032366985E+04  0.25500000920E-02 0. -1.
    10030    2    1    2    0    0  0.00000000000E+00  0.00000000000E+00 -0.19716179047E+04  0.36348554922E+04  0.30536694791E+04 0.  0.
        5    1    3    3  502    0  0.11712060615E+04 -0.52910616634E+03 -0.45854919726E+01  0.12851926278E+04  0.46999998093E+01 0. -1.
       -5    1    3    3    0  502 -0.11712060615E+04  0.52910616634E+03 -0.19670324127E+04  0.23496628644E+04  0.46999998093E+01 0.  1.
</event>
<event>
 5   0  0.5003556E-06  0.3009843E+04  0.7818609E-02  0.8240926E-01
        2   -1    0    0  501    0  0.00000000000E+00  0.00000000000E+00  0.32094419908E+04  0.32094419908E+04  0.25500000920E-02 0.  1.
       -2   -1    0    0    0  501  0.00000000000E+00  0.00000000000E+00 -0.70566444819E+03  0.70566444820E+03  0.25500000920E-02 0. -1.
    10030    2    1    2    0    0  0.00000000000E+00  0.00000000000E+00  0.25037775426E+04  0.39151064390E+04  0.30098432593E+04 0.  0.
        3    1    3    3  502    0  0.11273452030E+04  0.71766767175E+03  0.21519926657E+04  0.25331850579E+04  0.10100000352E+00 0. -1.
       -3    1    3    3    0  502 -0.11273452030E+04 -0.71766767175E+03  0.35178487686E+03  0.13819213811E+04  0.10100000352E+00 0.  1.
</event>
<event>
 5   0  0.1734885E-06  0.3000402E+04  0.7818609E-02  0.8243616E-01
        1   -1    0    0  501    0  0.00000000000E+00  0.00000000000E+00  0.15481566674E+04  0.15481566674E+04  0.50400001928E-02 0.  1.
       -1   -1    0    0    0  501  0.00000000000E+00  0.00000000000E+00 -0.14537306664E+04  0.14537306664E+04  0.50400001928E-02 0. -1.
    10030    2    1    2    0    0  0.00000000000E+00  0.00000000000E+00  0.94426001033E+02  0.30018873338E+04  0.30004018556E+04 0.  0.
        2    1    3    3  502    0 -0.59460328932E+03  0.62231375043E+03 -0.11821244946E+04  0.14622741865E+04  0.25500000920E-02 0. -1.
       -2    1    3    3    0  502  0.59460328932E+03 -0.62231375043E+03  0.12765504956E+04  0.15396131474E+04  0.25500000920E-02 0.  1.
</event>
<event>
 5   0  0.4532420E-06  0.3003063E+04  0.7818609E-02  0.8242857E-01
       -2   -1    0    0    0  501  0.00000000000E+00  0.00000000000E+00  0.12508931336E+04  0.12508931336E+04  0.25500000920E-02 0.  1.
        2   -1    0    0  501    0  0.00000000000E+00  0.00000000000E+00 -0.18023890825E+04  0.18023890825E+04  0.25500000920E-02 0. -1.
    10030    2    1    2    0    0  0.00000000000E+00  0.00000000000E+00 -0.55149594893E+03  0.30532822162E+04  0.30030625218E+04 0.  0.
        4    1    3    3  502    0 -0.13252966691E+04 -0.26282034506E+03 -0.94176639973E+03  0.16469399987E+04  0.12699999809E+01 0. -1.
       -4    1    3    3    0  502  0.13252966691E+04  0.26282034506E+03  0.39027045079E+03  0.14063422174E+04  0.12699999809E+01 0.  1.
</event>
<event>
 5   0  0.1686012E-06  0.2977333E+04  0.7818609E-02  0.8250233E-01
       -1   -1    0    0    0  501  0.00000000000E+00  0.00000000000E+00  0.10068679299E+04  0.10068679299E+04  0.50400001928E-02 0.  1.
        1   -1    0    0  501    0  0.00000000000E+00  0.00000000000E+00 -0.22010121208E+04  0.22010121208E+04  0.50400001928E-02 0. -1.
    10030    2    1    2    0    0  0.00000000000E+00  0.00000000000E+00 -0.11941441910E+04  0.32078800507E+04  0.29773333825E+04 0.  0.
        4    1    3    3  502    0 -0.68855093400E+03  0.50142116962E+03 -0.19125131914E+04  0.20936174193E+04  0.12699999809E+01 0. -1.
       -4    1    3    3    0  502  0.68855093400E+03 -0.50142116962E+03  0.71836900046E+03  0.11142626314E+04  0.12699999809E+01 0.  1.
</event>
<event>
 5   0  0.1709858E-06  0.2962423E+04  0.7818609E-02  0.8254543E-01
        1   -1    0    0  501    0  0.00000000000E+00  0.00000000000E+00  0.16126214930E+04  0.16126214930E+04  0.50400001928E-02 0. -1.
       -1   -1    0    0    0  501  0.00000000000E+00  0.00000000000E+00 -0.13605097422E+04  0.13605097422E+04  0.50400001928E-02 0.  1.
    10030    2    1    2    0    0  0.00000000000E+00  0.00000000000E+00  0.25211175073E+03  0.29731312352E+04  0.29624228272E+04 0.  0.
        3    1    3    3  502    0  0.12464904220E+04  0.58615485880E+03 -0.42058844304E+03  0.14402119772E+04  0.10100000352E+00 0.  1.
       -3    1    3    3    0  502 -0.12464904220E+04 -0.58615485880E+03  0.67270019378E+03  0.15329192580E+04  0.10100000352E+00 0. -1.
</event>
<event>
 5   0  0.4768570E-06  0.2973336E+04  0.7818609E-02  0.8251386E-01
        2   -1    0    0  501    0  0.00000000000E+00  0.00000000000E+00  0.13062995074E+04  0.13062995074E+04  0.25500000920E-02 0. -1.
       -2   -1    0    0    0  501  0.00000000000E+00  0.00000000000E+00 -0.16919415817E+04  0.16919415817E+04  0.25500000920E-02 0.  1.
    10030    2    1    2    0    0  0.00000000000E+00  0.00000000000E+00 -0.38564207429E+03  0.29982410892E+04  0.29733364793E+04 0.  0.
        1    1    3    3  502    0 -0.31122305755E+03  0.12101144286E+04 -0.10051401711E+04  0.16036032818E+04  0.50400001928E-02 0.  1.
       -1    1    3    3    0  502  0.31122305755E+03 -0.12101144286E+04  0.61949809685E+03  0.13946378074E+04  0.50400001928E-02 0. -1.
</event>
<event>
 5   0  0.1734885E-06  0.2921636E+04  0.7818609E-02  0.8266469E-01
       -1   -1    0    0    0  501  0.00000000000E+00  0.00000000000E+00  0.12185964833E+04  0.12185964833E+04  0.50400001928E-02 0. -1.
        1   -1    0    0  501    0  0.00000000000E+00  0.00000000000E+00 -0.17511856346E+04  0.17511856346E+04  0.50400001928E-02 0.  1.
    10030    2    1    2    0    0  0.00000000000E+00  0.00000000000E+00 -0.53258915133E+03  0.29697821179E+04  0.29216356077E+04 0.  0.
        2    1    3    3  502    0 -0.79535465104E+03  0.13276731184E+03 -0.15044700415E+04  0.17069406217E+04  0.25500000920E-02 0.  1.
       -2    1    3    3    0  502  0.79535465104E+03 -0.13276731184E+03  0.97188089019E+03  0.12628414963E+04  0.25500000920E-02 0. -1.
</event>
<event>
 5   0  0.4768570E-06  0.2979390E+04  0.7818609E-02  0.8249641E-01
        2   -1    0    0  501    0  0.00000000000E+00  0.00000000000E+00  0.23074627775E+04  0.23074627775E+04  0.25500000920E-02 0.  1.
       -2   -1    0    0    0  501  0.00000000000E+00  0.00000000000E+00 -0.96174485745E+03  0.96174485745E+03  0.25500000920E-02 0. -1.
    10030    2    1    2    0    0  0.00000000000E+00  0.00000000000E+00  0.13457179200E+04  0.32692076349E+04  0.29793895079E+04 0.  0.
        1    1    3    3  502    0 -0.74106676856E+03  0.33590579707E+03  0.20421139182E+04  0.21982360918E+04  0.50400001928E-02 0.  1.
       -1    1    3    3    0  502  0.74106676856E+03 -0.33590579707E+03 -0.69639599821E+03  0.10709715432E+04  0.50400001928E-02 0. -1.
</event>
<event>
 5   0  0.5003556E-06  0.2920743E+04  0.7818609E-02  0.8266732E-01
        2   -1    0    0  501    0  0.00000000000E+00  0.00000000000E+00  0.18873299421E+04  0.18873299421E+04  0.25500000920E-02 0. -1.
       -2   -1    0    0    0  501  0.00000000000E+00  0.00000000000E+00 -0.11300010781E+04  0.11300010781E+04  0.25500000920E-02 0.  1.
    10030    2    1    2    0    0  0.00000000000E+00  0.00000000000E+00  0.75732886399E+03  0.30173310201E+04  0.29207429666E+04 0.  0.
        3    1    3    3  502    0  0.29833439646E+03 -0.27618587800E+03  0.18276907102E+04  0.18723609143E+04  0.10100000352E+00 0. -1.
       -3    1    3    3    0  502 -0.29833439646E+03  0.27618587800E+03 -0.10703618462E+04  0.11449701058E+04  0.10100000352E+00 0.  1.
</event>
<event>
 5   0  0.1700885E-06  0.2996906E+04  0.7818609E-02  0.8244615E-01
        1   -1    0    0  501    0  0.00000000000E+00  0.00000000000E+00  0.21110669562E+04  0.21110669562E+04  0.50400001928E-02 0. -1.
       -1   -1    0    0    0  501  0.00000000000E+00  0.00000000000E+00 -0.10636141974E+04  0.10636141974E+04  0.50400001928E-02 0.  1.
    10030    2    1    2    0    0  0.00000000000E+00  0.00000000000E+00  0.10474527588E+04  0.31746811537E+04  0.29969055951E+04 0.  0.
        1    1    3    3  502    0  0.53321098504E+03  0.12868580348E+04  0.11087962675E+04  0.17803782517E+04  0.50400001928E-02 0. -1.
       -1    1    3    3    0  502 -0.53321098504E+03 -0.12868580348E+04 -0.61343508663E+02  0.13943029020E+04  0.50400001928E-02 0.  1.
</event>
<event>
 5   0  0.1700885E-06  0.3008581E+04  0.7818609E-02  0.8241285E-01
       -1   -1    0    0    0  501  0.00000000000E+00  0.00000000000E+00  0.12690168572E+04  0.12690168572E+04  0.50400001928E-02 0. -1.
        1   -1    0    0  501    0  0.00000000000E+00  0.00000000000E+00 -0.17831837874E+04  0.17831837874E+04  0.50400001928E-02 0.  1.
    10030    2    1    2    0    0  0.00000000000E+00  0.00000000000E+00 -0.51416693015E+03  0.30522006446E+04  0.30085812508E+04 0.  0.
        1    1    3    3  502    0 -0.94849813815E+03  0.97390025448E+03 -0.91043918215E+03  0.16361631728E+04  0.50400001928E-02 0.  1.
       -1    1    3    3    0  502  0.94849813815E+03 -0.97390025448E+03  0.39627225200E+03  0.14160374718E+04  0.50400001928E-02 0. -1.
</event>
<event>
 5   0  0.4768570E-06  0.3011833E+04  0.7818609E-02  0.8240360E-01
       -2   -1    0    0    0  501  0.00000000000E+00  0.00000000000E+00  0.16943412332E+04  0.16943412332E+04  0.25500000920E-02 0.  1.
        2   -1    0    0  501    0  0.00000000000E+00  0.00000000000E+00 -0.13384459650E+04  0.13384459650E+04  0.25500000920E-02 0. -1.
    10030    2    1    2    0    0  0.00000000000E+00  0.00000000000E+00  0.35589526821E+03  0.30327871982E+04  0.30118327888E+04 0.  0.
        1    1    3    3  502    0  0.11057862340E+04 -0.10176851335E+04  0.27525306956E+03  0.15278123179E+04  0.50400001928E-02 0. -1.
       -1    1    3    3    0  502 -0.11057862340E+04  0.10176851335E+04  0.80642198651E+02  0.15049748804E+04  0.50400001928E-02 0.  1.
</event>
<event>
 5   0  0.1734885E-06  0.3013463E+04  0.7818609E-02  0.8239897E-01
       -1   -1    0    0    0  501  0.00000000000E+00  0.00000000000E+00  0.13323849679E+04  0.13323849679E+04  0.50400001928E-02 0. -1.
        1   -1    0    0  501    0  0.00000000000E+00  0.00000000000E+00 -0.17038915164E+04  0.17038915164E+04  0.50400001928E-02 0.  1.
    10030    2    1    2    0    0  0.00000000000E+00  0.00000000000E+00 -0.37150654851E+03  0.30362764844E+04  0.30134627547E+04 0.  0.
        2    1    3    3  502    0 -0.35978388709E+03 -0.13424591961E+04  0.40054400348E+03  0.14464012712E+04  0.25500000920E-02 0. -1.
       -2    1    3    3    0  502  0.35978388709E+03  0.13424591961E+04 -0.77205055199E+03  0.15898752132E+04  0.25500000920E-02 0.  1.
</event>
<event>
 5   0  0.1700885E-06  0.2988595E+04  0.7818609E-02  0.8246995E-01
       -1   -1    0    0    0  501  0.00000000000E+00  0.00000000000E+00  0.14450702390E+04  0.14450702390E+04  0.50400001928E-02 0.  1.
        1   -1    0    0  501    0  0.00000000000E+00  0.00000000000E+00 -0.15452016506E+04  0.15452016506E+04  0.50400001928E-02 0. -1.
    10030    2    1    2    0    0  0.00000000000E+00  0.00000000000E+00 -0.10013141167E+03  0.29902718896E+04  0.29885949331E+04 0.  0.
        1    1    3    3  502    0  0.86910258324E+03  0.51248711688E+03 -0.11529285304E+04  0.15320661022E+04  0.50400001928E-02 0. -1.
       -1    1    3    3    0  502 -0.86910258324E+03 -0.51248711688E+03  0.10527971188E+04  0.14582057874E+04  0.50400001928E-02 0.  1.
</event>
<event>
 5   0  0.5003556E-06  0.3042272E+04  0.7818609E-02  0.8231762E-01
        2   -1    0    0  501    0  0.00000000000E+00  0.00000000000E+00  0.22376725467E+04  0.22376725467E+04  0.25500000920E-02 0.  1.
       -2   -1    0    0    0  501  0.00000000000E+00  0.00000000000E+00 -0.10340452906E+04  0.10340452906E+04  0.25500000920E-02 0. -1.
    10030    2    1    2    0    0  0.00000000000E+00  0.00000000000E+00  0.12036272560E+04  0.32717178373E+04  0.30422720187E+04 0.  0.
        3    1    3    3  502    0 -0.12744907867E+04  0.77863570501E+03  0.91211339863E+03  0.17500146252E+04  0.10100000352E+00 0.  1.
       -3    1    3    3    0  502  0.12744907867E+04 -0.77863570501E+03  0.29151385741E+03  0.15217032121E+04  0.10100000352E+00 0. -1.
</event>
<event>
 5   0  0.1686012E-06  0.2983408E+04  0.7818609E-02  0.8248485E-01
       -1   -1    0    0    0  501  0.00000000000E+00  0.00000000000E+00  0.13893415492E+04  0.13893415492E+04  0.50400001928E-02 0.  1.
        1   -1    0    0  501    0  0.00000000000E+00  0.00000000000E+00 -0.16016080628E+04  0.16016080628E+04  0.50400001928E-02 0. -1.
    10030    2    1    2    0    0  0.00000000000E+00  0.00000000000E+00 -0.21226651357E+03  0.29909496120E+04  0.29834078683E+04 0.  0.
        4    1    3    3  502    0 -0.23166766173E+03 -0.10191284697E+04 -0.11731951795E+04  0.15712037695E+04  0.12699999809E+01 0. -1.
       -4    1    3    3    0  502  0.23166766173E+03  0.10191284697E+04  0.96092866592E+03  0.14197458425E+04  0.12699999809E+01 0.  1.
</event>
<event>
 5   0  0.1700885E-06  0.2846948E+04  0.7818609E-02  0.8288839E-01
       -1   -1    0    0    0  501  0.00000000000E+00  0.00000000000E+00  0.11036592438E+04  0.11036592438E+04  0.50400001928E-02 0.  1.
        1   -1    0    0  501    0  0.00000000000E+00  0.00000000000E+00 -0.18359640324E+04  0.18359640324E+04  0.50400001928E-02 0. -1.
    10030    2    1    2    0    0  0.00000000000E+00  0.00000000000E+00 -0.73230478857E+03  0.29396232763E+04  0.28469483141E+04 0.  0.
        1    1    3    3  502    0  0.19313078980E+03 -0.11246167340E+04 -0.12448638031E+04  0.16887119910E+04  0.50400001928E-02 0. -1.
       -1    1    3    3    0  502 -0.19313078980E+03  0.11246167340E+04  0.51255901448E+03  0.12509112853E+04  0.50400001928E-02 0.  1.
</event>
<event>
 5   0  0.1700885E-06  0.3023843E+04  0.7818609E-02  0.8236955E-01
        1   -1    0    0  501    0  0.00000000000E+00  0.00000000000E+00  0.24594269950E+04  0.24594269950E+04  0.50400001928E-02 0. -1.
       -1   -1    0    0    0  501  0.00000000000E+00  0.00000000000E+00 -0.92944664827E+03  0.92944664828E+03  0.50400001928E-02 0.  1.
    10030    2    1    2    0    0  0.00000000000E+00  0.00000000000E+00  0.15299803467E+04  0.33888736432E+04  0.30238427057E+04 0.  0.
        1    1    3    3  502    0 -0.20202099312E+03 -0.34861157554E+03 -0.86817015860E+03  0.95711124566E+03  0.50400001928E-02 0.  1.
       -1    1    3    3    0  502  0.20202099312E+03  0.34861157554E+03  0.23981505053E+04  0.24317623976E+04  0.50400001928E-02 0. -1.
</event>
<event>
 5   0  0.4702748E-06  0.2983348E+04  0.7818609E-02  0.8248502E-01
       -2   -1    0    0    0  501  0.00000000000E+00  0.00000000000E+00  0.30013476623E+04  0.30013476623E+04  0.25500000920E-02 0.  1.
        2   -1    0    0  501    0  0.00000000000E+00  0.00000000000E+00 -0.74136390155E+03  0.74136390156E+03  0.25500000920E-02 0. -1.
    10030    2    1    2    0    0  0.00000000000E+00  0.00000000000E+00  0.22599837607E+04  0.37427115638E+04  0.29833476585E+04 0.  0.
        2    1    3    3  502    0 -0.14142975285E+04  0.42587711010E+03  0.86839217393E+03  0.17133924769E+04  0.25500000920E-02 0.  1.
       -2    1    3    3    0  502  0.14142975285E+04 -0.42587711010E+03  0.13915915868E+04  0.20293190869E+04  0.25500000920E-02 0. -1.
</event>
<event>
 5   0  0.4532420E-06  0.2608373E+04  0.7818609E-02  0.8365363E-01
        2   -1    0    0  501    0  0.00000000000E+00  0.00000000000E+00  0.18232353102E+04  0.18232353102E+04  0.25500000920E-02 0.  1.
       -2   -1    0    0    0  501  0.00000000000E+00  0.00000000000E+00 -0.93290345355E+03  0.93290345355E+03  0.25500000920E-02 0. -1.
    10030    2    1    2    0    0  0.00000000000E+00  0.00000000000E+00  0.89033185666E+03  0.27561387638E+04  0.26083730696E+04 0.  0.
        4    1    3    3  502    0  0.80903993125E+03 -0.55860439848E+01  0.15260135815E+04  0.17272220118E+04  0.12699999809E+01 0.  1.
       -4    1    3    3    0  502 -0.80903993125E+03  0.55860439848E+01 -0.63568172485E+03  0.10289167520E+04  0.12699999809E+01 0. -1.
</event>
<event>
 5   0  0.5003556E-06  0.3014284E+04  0.7818609E-02  0.8239664E-01
        2   -1    0    0  501    0  0.00000000000E+00  0.00000000000E+00  0.19703003328E+04  0.19703003328E+04  0.25500000920E-02 0.  1.
       -2   -1    0    0    0  501  0.00000000000E+00  0.00000000000E+00 -0.11528581238E+04  0.11528581238E+04  0.25500000920E-02 0. -1.
    10030    2    1    2    0    0  0.00000000000E+00  0.00000000000E+00  0.81744220900E+03  0.31231584566E+04  0.30142838254E+04 0.  0.
        3    1    3    3  502    0  0.49161380232E+03  0.14246751770E+04  0.41872618746E+03  0.15641979161E+04  0.10100000352E+00 0. -1.
       -3    1    3    3    0  502 -0.49161380232E+03 -0.14246751770E+04  0.39871602154E+03  0.15589605404E+04  0.10100000352E+00 0.  1.
</event>
<event>
 5   0  0.1709858E-06  0.3011792E+04  0.7818609E-02  0.8240372E-01
       -1   -1    0    0    0  501  0.00000000000E+00  0.00000000000E+00  0.11274827727E+04  0.11274827727E+04  0.50400001928E-02 0.  1.
        1   -1    0    0  501    0  0.00000000000E+00  0.00000000000E+00 -0.20113149062E+04  0.20113149062E+04  0.50400001928E-02 0. -1.
    10030    2    1    2    0    0  0.00000000000E+00  0.00000000000E+00 -0.88383213346E+03  0.31387976789E+04  0.30117920959E+04 0.  0.
        3    1    3    3  502    0 -0.12107723471E+04  0.89070870861E+03 -0.53738252346E+03  0.15962805727E+04  0.10100000352E+00 0.  1.
       -3    1    3    3    0  502  0.12107723471E+04 -0.89070870861E+03 -0.34644961001E+03  0.15425171061E+04  0.10100000352E+00 0. -1.
</event>
<event>
 5   0  0.4935331E-06  0.2986567E+04  0.7818609E-02  0.8247577E-01
       -2   -1    0    0    0  501  0.00000000000E+00  0.00000000000E+00  0.11147626057E+04  0.11147626057E+04  0.25500000920E-02 0. -1.
        2   -1    0    0  501    0  0.00000000000E+00  0.00000000000E+00 -0.20003326422E+04  0.20003326422E+04  0.25500000920E-02 0.  1.
    10030    2    1    2    0    0  0.00000000000E+00  0.00000000000E+00 -0.88557003652E+03  0.31150952479E+04  0.29865672793E+04 0.  0.
        5    1    3    3  502    0 -0.40469833660E+03 -0.16874072057E+03  0.10460980799E+04  0.11342827942E+04  0.46999998093E+01 0. -1.
       -5    1    3    3    0  502  0.40469833660E+03  0.16874072057E+03 -0.19316681165E+04  0.19808124537E+04  0.46999998093E+01 0.  1.
</event>
<event>
 5   0  0.4702748E-06  0.3027564E+04  0.7818609E-02  0.8235903E-01
        2   -1    0    0  501    0  0.00000000000E+00  0.00000000000E+00  0.22653819770E+04  0.22653819770E+04  0.25500000920E-02 0. -1.
       -2   -1    0    0    0  501  0.00000000000E+00  0.00000000000E+00 -0.10115450432E+04  0.10115450432E+04  0.25500000920E-02 0.  1.
    10030    2    1    2    0    0  0.00000000000E+00  0.00000000000E+00  0.12538369338E+04  0.32769270201E+04  0.30275639776E+04 0.  0.
        2    1    3    3  502    0  0.44495202396E+03  0.14222175584E+03 -0.93158329500E+03  0.10421404737E+04  0.25500000920E-02 0.  1.
       -2    1    3    3    0  502 -0.44495202396E+03 -0.14222175584E+03  0.21854202288E+04  0.22347865464E+04  0.25500000920E-02 0. -1.
</event>
<event>
 5   0  0.1709858E-06  0.3082972E+04  0.7818609E-02  0.8220427E-01
        1   -1    0    0  501    0  0.00000000000E+00  0.00000000000E+00  0.14111771037E+04  0.14111771038E+04  0.50400001928E-02 0. -1.
       -1   -1    0    0    0  501  0.00000000000E+00  0.00000000000E+00 -0.16838274708E+04  0.16838274708E+04  0.50400001928E-02 0.  1.
    10030    2    1    2    0    0  0.00000000000E+00  0.00000000000E+00 -0.27265036709E+03  0.30950045746E+04  0.30829717959E+04 0.  0.
        3    1    3    3  502    0 -0.92551460009E+03  0.13284695031E+03  0.10940000757E+04  0.14391183979E+04  0.10100000352E+00 0. -1.
       -3    1    3    3    0  502  0.92551460009E+03 -0.13284695031E+03 -0.13666504428E+04  0.16558861767E+04  0.10100000352E+00 0.  1.
</event>
<event>
 5   0  0.4935331E-06  0.3048445E+04  0.7818609E-02  0.8230031E-01
        2   -1    0    0  501    0  0.00000000000E+00  0.00000000000E+00  0.17214917684E+04  0.17214917684E+04  0.25500000920E-02 0. -1.
       -2   -1    0    0    0  501  0.00000000000E+00  0.00000000000E+00 -0.13495590717E+04  0.13495590717E+04  0.25500000920E-02 0.  1.
    10030    2    1    2    0    0  0.00000000000E+00  0.00000000000E+00  0.37193269664E+03  0.30710508401E+04  0.30484453959E+04 0.  0.
        5    1    3    3  502    0 -0.11272424628E+04 -0.79653626608E+03 -0.46542501411E+03  0.14566358938E+04  0.46999998093E+01 0.  1.
       -5    1    3    3    0  502  0.11272424628E+04  0.79653626608E+03  0.83735771074E+03  0.16144149463E+04  0.46999998093E+01 0. -1.
</event>
<event>
 5   0  0.1545375E-06  0.2930039E+04  0.7818609E-02  0.8263996E-01
        3   -1    0    0  501    0  0.00000000000E+00  0.00000000000E+00  0.24048742023E+04  0.24048742044E+04  0.10100000352E+00 0. -1.
       -3   -1    0    0    0  501  0.00000000000E+00  0.00000000000E+00 -0.89247174293E+03  0.89247174864E+03  0.10100000352E+00 0.  1.
    10030    2    1    2    0    0  0.00000000000E+00  0.00000000000E+00  0.15124024594E+04  0.32973459531E+04  0.29300391013E+04 0.  0.
        3    1    3    3  502    0 -0.64860873643E+03  0.86952403795E+01 -0.72205685845E+03  0.97063639805E+03  0.10100000352E+00 0.  1.
       -3    1    3    3    0  502  0.64860873643E+03 -0.86952403795E+01  0.22344593178E+04  0.23267095550E+04  0.10100000352E+00 0. -1.
</event>
<event>
 5   0  0.4935331E-06  0.3010941E+04  0.7818609E-02  0.8240614E-01
       -2   -1    0    0    0  501  0.00000000000E+00  0.00000000000E+00  0.13792017439E+04  0.13792017439E+04  0.25500000920E-02 0. -1.
        2   -1    0    0  501    0  0.00000000000E+00  0.00000000000E+00 -0.16432993808E+04  0.16432993808E+04  0.25500000920E-02 0.  1.
    10030    2    1    2    0    0  0.00000000000E+00  0.00000000000E+00 -0.26409763693E+03  0.30225011247E+04  0.30109409637E+04 0.  0.
        5    1    3    3  502    0  0.19656443007E+03 -0.45164615689E+03 -0.15601130896E+04  0.16360307969E+04  0.46999998093E+01 0.  1.
       -5    1    3    3    0  502 -0.19656443007E+03  0.45164615689E+03  0.12960154527E+04  0.13864703278E+04  0.46999998093E+01 0. -1.
</event>
<event>
 5   0  0.4768570E-06  0.2981432E+04  0.7818609E-02  0.8249053E-01
       -2   -1    0    0    0  501  0.00000000000E+00  0.00000000000E+00  0.15833520784E+04  0.15833520784E+04  0.25500000920E-02 0. -1.
        2   -1    0    0  501    0  0.00000000000E+00  0.00000000000E+00 -0.14034996490E+04  0.14034996490E+04  0.25500000920E-02 0.  1.
    10030    2    1    2    0    0  0.00000000000E+00  0.00000000000E+00  0.17985242937E+03  0.29868517274E+04  0.29814319286E+04 0.  0.
        1    1    3    3  502    0  0.33593888010E+03 -0.81678586736E+03  0.12930423032E+04  0.15658711576E+04  0.50400001928E-02 0. -1.
       -1    1    3    3    0  502 -0.33593888010E+03  0.81678586736E+03 -0.11131898739E+04  0.14209805697E+04  0.50400001928E-02 0.  1.
</event>
<event>
 5   0  0.4532420E-06  0.2867343E+04  0.7818609E-02  0.8282661E-01
       -2   -1    0    0    0  501  0.00000000000E+00  0.00000000000E+00  0.11440417799E+04  0.11440417799E+04  0.25500000920E-02 0. -1.
        2   -1    0    0  501    0  0.00000000000E+00  0.00000000000E+00 -0.17966247969E+04  0.17966247969E+04  0.25500000920E-02 0.  1.
    10030    2    1    2    0    0  0.00000000000E+00  0.00000000000E+00 -0.65258301699E+03  0.29406665768E+04  0.28673429027E+04 0.  0.
        4    1    3    3  502    0  0.99956562158E+03  0.88268938129E+03 -0.86619476675E+03  0.15901468368E+04  0.12699999809E+01 0.  1.
       -4    1    3    3    0  502 -0.99956562158E+03 -0.88268938129E+03  0.21361174976E+03  0.13505197400E+04  0.12699999809E+01 0. -1.
</event>
<event>
 5   0  0.1709858E-06  0.3080433E+04  0.7818609E-02  0.8221128E-01
        1   -1    0    0  501    0  0.00000000000E+00  0.00000000000E+00  0.11764384384E+04  0.11764384384E+04  0.50400001928E-02 0.  1.
       -1   -1    0    0    0  501  0.00000000000E+00  0.00000000000E+00 -0.20164823706E+04  0.20164823706E+04  0.50400001928E-02 0. -1.
    10030    2    1    2    0    0  0.00000000000E+00  0.00000000000E+00 -0.84004393218E+03  0.31929208090E+04  0.30804333274E+04 0.  0.
        3    1    3    3  502    0 -0.95614284676E+03 -0.11774791491E+04 -0.14266690653E+03  0.15234894639E+04  0.10100000352E+00 0.  1.
       -3    1    3    3    0  502  0.95614284676E+03  0.11774791491E+04 -0.69737702565E+03  0.16694313451E+04  0.10100000352E+00 0. -1.
</event>
<event>
 5   0  0.1686012E-06  0.3017463E+04  0.7818609E-02  0.8238762E-01
        1   -1    0    0  501    0  0.00000000000E+00  0.00000000000E+00  0.68180358654E+03  0.68180358655E+03  0.50400001928E-02 0.  1.
       -1   -1    0    0    0  501  0.00000000000E+00  0.00000000000E+00 -0.33386016772E+04  0.33386016772E+04  0.50400001928E-02 0. -1.
    10030    2    1    2    0    0  0.00000000000E+00  0.00000000000E+00 -0.26567980906E+04  0.40204052637E+04  0.30174629062E+04 0.  0.
        4    1    3    3  502    0  0.38689845028E+03  0.12068390089E+04 -0.24190947259E+04  0.27309653439E+04  0.12699999809E+01 0. -1.
       -4    1    3    3    0  502 -0.38689845028E+03 -0.12068390089E+04 -0.23770336476E+03  0.12894399198E+04  0.12699999809E+01 0.  1.
</event>
<event>
 5   0  0.4768570E-06  0.2610214E+04  0.7818609E-02  0.8364740E-01
        2   -1    0    0  501    0  0.00000000000E+00  0.00000000000E+00  0.14411292849E+04  0.14411292849E+04  0.25500000920E-02 0.  1.
       -2   -1    0    0    0  501  0.00000000000E+00  0.00000000000E+00 -0.11819237016E+04  0.11819237016E+04  0.25500000920E-02 0. -1.
    10030    2    1    2    0    0  0.00000000000E+00  0.00000000000E+00  0.25920558322E+03  0.26230529865E+04  0.26102144425E+04 0.  0.
        1    1    3    3  502    0 -0.72187942441E+03  0.20300871229E+03  0.12030244441E+04  0.14176001742E+04  0.50400001928E-02 0.  1.
       -1    1    3    3    0  502  0.72187942441E+03 -0.20300871229E+03 -0.94381886087E+03  0.12054528124E+04  0.50400001928E-02 0. -1.
</event>
<event>
 5   0  0.1700885E-06  0.2795220E+04  0.7818609E-02  0.8304754E-01
        1   -1    0    0  501    0  0.00000000000E+00  0.00000000000E+00  0.13492913377E+04  0.13492913377E+04  0.50400001928E-02 0.  1.
       -1   -1    0    0    0  501  0.00000000000E+00  0.00000000000E+00 -0.14476591627E+04  0.14476591627E+04  0.50400001928E-02 0. -1.
    10030    2    1    2    0    0  0.00000000000E+00  0.00000000000E+00 -0.98367825036E+02  0.27969505004E+04  0.27952201832E+04 0.  0.
        1    1    3    3  502    0  0.13580404652E+04 -0.33021172547E+03 -0.48654872932E+02  0.13984566441E+04  0.50400001928E-02 0.  1.
       -1    1    3    3    0  502 -0.13580404652E+04  0.33021172547E+03 -0.49712952104E+02  0.13984938564E+04  0.50400001928E-02 0. -1.
</event>
<event>
 5   0  0.4532420E-06  0.3019345E+04  0.7818609E-02  0.8238228E-01
       -2   -1    0    0    0  501  0.00000000000E+00  0.00000000000E+00  0.12878269013E+04  0.12878269013E+04  0.25500000920E-02 0.  1.
        2   -1    0    0  501    0  0.00000000000E+00  0.00000000000E+00 -0.17697336273E+04  0.17697336273E+04  0.25500000920E-02 0. -1.
    10030    2    1    2    0    0  0.00000000000E+00  0.00000000000E+00 -0.48190672596E+03  0.30575605286E+04  0.30193446795E+04 0.  0.
        4    1    3    3  502    0 -0.18279165031E+03 -0.24077436902E+03 -0.17387699059E+04  0.17648533885E+04  0.12699999809E+01 0. -1.
       -4    1    3    3    0  502  0.18279165031E+03  0.24077436902E+03  0.12568631800E+04  0.12927071402E+04  0.12699999809E+01 0.  1.
</event>
<event>
 5   0  0.4935331E-06  0.3012963E+04  0.7818609E-02  0.8240039E-01
        2   -1    0    0  501    0  0.00000000000E+00  0.00000000000E+00  0.16973975008E+04  0.16973975008E+04  0.25500000920E-02 0. -1.
       -2   -1    0    0    0  501  0.00000000000E+00  0.00000000000E+00 -0.13370387324E+04  0.13370387324E+04  0.25500000920E-02 0.  1.
    10030    2    1    2    0    0  0.00000000000E+00  0.00000000000E+00  0.36035876833E+03  0.30344362332E+04  0.30129627962E+04 0.  0.
        5    1    3    3  502    0  0.11267252275E+04 -0.47629371578E+03  0.10657061849E+04  0.16223801048E+04  0.46999998093E+01 0.  1.
       -5    1    3    3    0  502 -0.11267252275E+04  0.47629371578E+03 -0.70534741652E+03  0.14120561284E+04  0.46999998093E+01 0. -1.
</event>
<event>
 5   0  0.4935331E-06  0.2880131E+04  0.7818609E-02  0.8278814E-01
        2   -1    0    0  501    0  0.00000000000E+00  0.00000000000E+00  0.16028748356E+04  0.16028748356E+04  0.25500000920E-02 0. -1.
       -2   -1    0    0    0  501  0.00000000000E+00  0.00000000000E+00 -0.12937929852E+04  0.12937929852E+04  0.25500000920E-02 0.  1.
    10030    2    1    2    0    0  0.00000000000E+00  0.00000000000E+00  0.30908185038E+03  0.28966678208E+04  0.28801307043E+04 0.  0.
        5    1    3    3  502    0 -0.39576519880E+03 -0.13459521535E+04 -0.17220728896E+03  0.14134690419E+04  0.46999998093E+01 0. -1.
       -5    1    3    3    0  502  0.39576519880E+03  0.13459521535E+04  0.48128913934E+03  0.14831987789E+04  0.46999998093E+01 0.  1.
</event>
<event>
 5   0  0.1686012E-06  0.3008619E+04  0.7818609E-02  0.8241274E-01
       -1   -1    0    0    0  501  0.00000000000E+00  0.00000000000E+00  0.13827160356E+04  0.13827160356E+04  0.50400001928E-02 0.  1.
        1   -1    0    0  501    0  0.00000000000E+00  0.00000000000E+00 -0.16365956132E+04  0.16365956132E+04  0.50400001928E-02 0. -1.
    10030    2    1    2    0    0  0.00000000000E+00  0.00000000000E+00 -0.25387957755E+03  0.30193116488E+04  0.30086189511E+04 0.  0.
        4    1    3    3  502    0 -0.35241856836E+03  0.78784387262E+03 -0.13634098049E+04  0.16136247160E+04  0.12699999809E+01 0. -1.
       -4    1    3    3    0  502  0.35241856836E+03 -0.78784387262E+03  0.11095302274E+04  0.14056869329E+04  0.12699999809E+01 0.  1.
</event>
<event>
 5   0  0.1686012E-06  0.2934820E+04  0.7818609E-02  0.8262592E-01
       -1   -1    0    0    0  501  0.00000000000E+00  0.00000000000E+00  0.15608825123E+04  0.15608825123E+04  0.50400001928E-02 0. -1.
        1   -1    0    0  501    0  0.00000000000E+00  0.00000000000E+00 -0.13795351974E+04  0.13795351974E+04  0.50400001928E-02 0.  1.
    10030    2    1    2    0    0  0.00000000000E+00  0.00000000000E+00  0.18134731490E+03  0.29404177098E+04  0.29348201750E+04 0.  0.
        4    1    3    3  502    0 -0.66985338801E+03 -0.10491167670E+04 -0.68794510104E+03  0.14221883234E+04  0.12699999809E+01 0.  1.
       -4    1    3    3    0  502  0.66985338801E+03  0.10491167670E+04  0.86929241594E+03  0.15182293864E+04  0.12699999809E+01 0. -1.
</event>
<event>
 5   0  0.1700885E-06  0.2967323E+04  0.7818609E-02  0.8253124E-01
        1   -1    0    0  501    0  0.00000000000E+00  0.00000000000E+00  0.21417158998E+04  0.21417158998E+04  0.50400001928E-02 0. -1.
       -1   -1    0    0    0  501  0.00000000000E+00  0.00000000000E+00 -0.10277982607E+04  0.10277982607E+04  0.50400001928E-02 0.  1.
    10030    2    1    2    0    0  0.00000000000E+00  0.00000000000E+00  0.11139176391E+04  0.31695141605E+04  0.29673232899E+04 0.  0.
        1    1    3    3  502    0  0.68166440252E+03 -0.11572240023E+04 -0.11640793029E+03  0.13481040595E+04  0.50400001928E-02 0.  1.
       -1    1    3    3    0  502 -0.68166440252E+03  0.11572240023E+04  0.12303255694E+04  0.18214101009E+04  0.50400001928E-02 0. -1.
</event>
<event>
 5   0  0.4935331E-06  0.2993763E+04  0.7818609E-02  0.8245514E-01
        2   -1    0    0  501    0  0.00000000000E+00  0.00000000000E+00  0.13118625475E+04  0.13118625475E+04  0.25500000920E-02 0. -1.
       -2   -1    0    0    0  501  0.00000000000E+00  0.00000000000E+00 -0.17079941230E+04  0.17079941230E+04  0.25500000920E-02 0.  1.
    10030    2    1    2    0    0  0.00000000000E+00  0.00000000000E+00 -0.39613157547E+03  0.30198566705E+04  0.29937625298E+04 0.  0.
        5    1    3    3  502    0  0.54464845276E+03 -0.12195771876E+04  0.48356141188E+03  0.14205154637E+04  0.46999998093E+01 0. -1.
       -5    1    3    3    0  502 -0.54464845276E+03  0.12195771876E+04 -0.87969298735E+03  0.15993412067E+04  0.46999998093E+01 0.  1.
</event>
<event>
 5   0  0.4532420E-06  0.2999638E+04  0.7818609E-02  0.8243834E-01
       -2   -1    0    0    0  501  0.00000000000E+00  0.00000000000E+00  0.19446759703E+04  0.19446759703E+04  0.25500000920E-02 0.  1.
        2   -1    0    0  501    0  0.00000000000E+00  0.00000000000E+00 -0.11567258891E+04  0.11567258891E+04  0.25500000920E-02 0. -1.
    10030    2    1    2    0    0  0.00000000000E+00  0.00000000000E+00  0.78795008115E+03  0.31014018594E+04  0.29996380053E+04 0.  0.
        4    1    3    3  502    0  0.29833354894E+03  0.14372862227E+04  0.75867208716E+02  0.14698816411E+04  0.12699999809E+01 0. -1.
       -4    1    3    3    0  502 -0.29833354894E+03 -0.14372862227E+04  0.71208287244E+03  0.16315202183E+04  0.12699999809E+01 0.  1.
</event>
<event>
 5   0  0.4768570E-06  0.2976088E+04  0.7818609E-02  0.8250592E-01
       -2   -1    0    0    0  501  0.00000000000E+00  0.00000000000E+00  0.10080179598E+04  0.10080179598E+04  0.25500000920E-02 0.  1.
        2   -1    0    0  501    0  0.00000000000E+00  0.00000000000E+00 -0.21966625461E+04  0.21966625461E+04  0.25500000920E-02 0. -1.
    10030    2    1    2    0    0  0.00000000000E+00  0.00000000000E+00 -0.11886445863E+04  0.32046805059E+04  0.29760882367E+04 0.  0.
        1    1    3    3  502    0  0.10795512301E+04  0.10240044798E+04 -0.57698381524E+03  0.15959092569E+04  0.50400001928E-02 0. -1.
       -1    1    3    3    0  502 -0.10795512301E+04 -0.10240044798E+04 -0.61166077104E+03  0.16087712491E+04  0.50400001928E-02 0.  1.
</event>
<event>
 5   0  0.4768570E-06  0.2978838E+04  0.7818609E-02  0.8249800E-01
       -2   -1    0    0    0  501  0.00000000000E+00  0.00000000000E+00  0.22062160941E+04  0.22062160941E+04  0.25500000920E-02 0. -1.
        2   -1    0    0  501    0  0.00000000000E+00  0.00000000000E+00 -0.10055085675E+04  0.10055085675E+04  0.25500000920E-02 0.  1.
    10030    2    1    2    0    0  0.00000000000E+00  0.00000000000E+00  0.12007075267E+04  0.32117246616E+04  0.29788381522E+04 0.  0.
        1    1    3    3  502    0  0.21788878831E+03  0.84116970655E+03  0.19046075892E+04  0.20934593543E+04  0.50400001928E-02 0. -1.
       -1    1    3    3    0  502 -0.21788878831E+03 -0.84116970655E+03 -0.70390006256E+03  0.11182653072E+04  0.50400001928E-02 0.  1.
</event>
<event>
 5   0  0.1734885E-06  0.3017319E+04  0.7818609E-02  0.8238803E-01
       -1   -1    0    0    0  501  0.00000000000E+00  0.00000000000E+00  0.18001433532E+04  0.18001433532E+04  0.50400001928E-02 0.  1.
        1   -1    0    0  501    0  0.00000000000E+00  0.00000000000E+00 -0.12643731634E+04  0.12643731634E+04  0.50400001928E-02 0. -1.
    10030    2    1    2    0    0  0.00000000000E+00  0.00000000000E+00  0.53577018977E+03  0.30645165166E+04  0.30173186415E+04 0.  0.
        2    1    3    3  502    0  0.12652709169E+04  0.17170094026E+02 -0.56645604322E+03  0.13863901883E+04  0.25500000920E-02 0. -1.
       -2    1    3    3    0  502 -0.12652709169E+04 -0.17170094026E+02  0.11022262330E+04  0.16781263283E+04  0.25500000920E-02 0.  1.
</event>
<event>
 5   0  0.1672907E-06  0.2976672E+04  0.7818609E-02  0.8250424E-01
        1   -1    0    0  501    0  0.00000000000E+00  0.00000000000E+00  0.20139527003E+04  0.20139527003E+04  0.50400001928E-02 0. -1.
       -1   -1    0    0    0  501  0.00000000000E+00  0.00000000000E+00 -0.10998988932E+04  0.10998988933E+04  0.50400001928E-02 0.  1.
    10030    2    1    2    0    0  0.00000000000E+00  0.00000000000E+00  0.91405380701E+03  0.31138515935E+04  0.29766721997E+04 0.  0.
        5    1    3    3  502    0  0.99782337975E+03 -0.65383679450E+03 -0.47391112616E+03  0.12836541187E+04  0.46999998093E+01 0.  1.
       -5    1    3    3    0  502 -0.99782337975E+03  0.65383679450E+03  0.13879649332E+04  0.18301974748E+04  0.46999998093E+01 0. -1.
</event>
<event>
 5   0  0.4935331E-06  0.2989115E+04  0.7818609E-02  0.8246846E-01
        2   -1    0    0  501    0  0.00000000000E+00  0.00000000000E+00  0.18775047066E+04  0.18775047066E+04  0.25500000920E-02 0. -1.
       -2   -1    0    0    0  501  0.00000000000E+00  0.00000000000E+00 -0.11897188827E+04  0.11897188827E+04  0.25500000920E-02 0.  1.
    10030    2    1    2    0    0  0.00000000000E+00  0.00000000000E+00  0.68778582395E+03  0.30672235893E+04  0.29891154556E+04 0.  0.
        5    1    3    3  502    0 -0.10959222884E+04  0.10157376755E+04  0.31290403019E+03  0.15266629326E+04  0.46999998093E+01 0.  1.
       -5    1    3    3    0  502  0.10959222884E+04 -0.10157376755E+04  0.37488179376E+03  0.15405606567E+04  0.46999998093E+01 0. -1.
</event>
<event>
 5   0  0.1686012E-06  0.2801532E+04  0.7818609E-02  0.8302793E-01
       -1   -1    0    0    0  501  0.00000000000E+00  0.00000000000E+00  0.12885997093E+04  0.12885997093E+04  0.50400001928E-02 0. -1.
        1   -1    0    0  501    0  0.00000000000E+00  0.00000000000E+00 -0.15226957320E+04  0.15226957320E+04  0.50400001928E-02 0.  1.
    10030    2    1    2    0    0  0.00000000000E+00  0.00000000000E+00 -0.23409602269E+03  0.28112954413E+04  0.28015319221E+04 0.  0.
        4    1    3    3  502    0  0.88959420970E+03  0.10756554835E+04  0.54009099216E+00  0.13958561823E+04  0.12699999809E+01 0. -1.
       -4    1    3    3    0  502 -0.88959420970E+03 -0.10756554835E+04 -0.23463611368E+03  0.14154392590E+04  0.12699999809E+01 0.  1.
</event>
<event>
 5   0  0.4702748E-06  0.3106257E+04  0.7818609E-02  0.8214023E-01
        2   -1    0    0  501    0  0.00000000000E+00  0.00000000000E+00  0.11654716930E+04  0.11654716930E+04  0.25500000920E-02 0. -1.
       -2   -1    0    0    0  501  0.00000000000E+00  0.00000000000E+00 -0.20697265811E+04  0.20697265811E+04  0.25500000920E-02 0.  1.
    10030    2    1    2    0    0  0.00000000000E+00  0.00000000000E+00 -0.90425488816E+03  0.32351982741E+04  0.31062567457E+04 0.  0.
        2    1    3    3  502    0  0.60549333675E+03  0.11222507284E+04 -0.13755770207E+04  0.18757081378E+04  0.25500000920E-02 0.  1.
       -2    1    3    3    0  502 -0.60549333675E+03 -0.11222507284E+04  0.47132213256E+03  0.13594901363E+04  0.25500000920E-02 0. -1.
</event>
<event>
 5   0  0.1700885E-06  0.3022630E+04  0.7818609E-02  0.8237298E-01
       -1   -1    0    0    0  501  0.00000000000E+00  0.00000000000E+00  0.11070893802E+04  0.11070893802E+04  0.50400001928E-02 0. -1.
        1   -1    0    0  501    0  0.00000000000E+00  0.00000000000E+00 -0.20631333629E+04  0.20631333629E+04  0.50400001928E-02 0.  1.
    10030    2    1    2    0    0  0.00000000000E+00  0.00000000000E+00 -0.95604398268E+03  0.31702227431E+04  0.30226300045E+04 0.  0.
        1    1    3    3  502    0  0.65657900447E+03 -0.62969748887E+03  0.78774506611E+03  0.12033940360E+04  0.50400001928E-02 0. -1.
       -1    1    3    3    0  502 -0.65657900447E+03  0.62969748887E+03 -0.17437890488E+04  0.19668287072E+04  0.50400001928E-02 0.  1.
</event>
<event>
 5   0  0.5003556E-06  0.3005359E+04  0.7818609E-02  0.8242202E-01
        2   -1    0    0  501    0  0.00000000000E+00  0.00000000000E+00  0.22995634238E+04  0.22995634238E+04  0.25500000920E-02 0.  1.
       -2   -1    0    0    0  501  0.00000000000E+00  0.00000000000E+00 -0.98194534644E+03  0.98194534645E+03  0.25500000920E-02 0. -1.
    10030    2    1    2    0    0  0.00000000000E+00  0.00000000000E+00  0.13176180773E+04  0.32815087702E+04  0.30053589488E+04 0.  0.
        3    1    3    3  502    0  0.24069279232E+02 -0.10575529595E+04 -0.50651909739E+03  0.11728423588E+04  0.10100000352E+00 0. -1.
       -3    1    3    3    0  502 -0.24069279232E+02  0.10575529595E+04  0.18241371747E+04  0.21086664114E+04  0.10100000352E+00 0.  1.
</event>
<event>
 5   0  0.4935331E-06  0.2995785E+04  0.7818609E-02  0.8244936E-01
       -2   -1    0    0    0  501  0.00000000000E+00  0.00000000000E+00  0.91212570451E+03  0.91212570451E+03  0.25500000920E-02 0. -1.
        2   -1    0    0  501    0  0.00000000000E+00  0.00000000000E+00 -0.24598383485E+04  0.24598383485E+04  0.25500000920E-02 0.  1.
    10030    2    1    2    0    0  0.00000000000E+00  0.00000000000E+00 -0.15477126439E+04  0.33719640530E+04  0.29957848965E+04 0.  0.
        5    1    3    3  502    0 -0.92854739196E+03 -0.11418804365E+04 -0.46037257917E+03  0.15420947416E+04  0.46999998093E+01 0. -1.
       -5    1    3    3    0  502  0.92854739196E+03  0.11418804365E+04 -0.10873400648E+04  0.18298693114E+04  0.46999998093E+01 0.  1.
</event>
<event>
 5   0  0.1700885E-06  0.3007864E+04  0.7818609E-02  0.8241489E-01
        1   -1    0    0  501    0  0.00000000000E+00  0.00000000000E+00  0.24161674773E+04  0.24161674773E+04  0.50400001928E-02 0. -1.
       -1   -1    0    0    0  501  0.00000000000E+00  0.00000000000E+00 -0.93611524877E+03  0.93611524878E+03  0.50400001928E-02 0.  1.
    10030    2    1    2    0    0  0.00000000000E+00  0.00000000000E+00  0.14800522285E+04  0.33522827261E+04  0.30078638394E+04 0.  0.
        1    1    3    3  502    0  0.11669000703E+04  0.71799817106E+03  0.14312302731E+04  0.19813120003E+04  0.50400001928E-02 0. -1.
       -1    1    3    3    0  502 -0.11669000703E+04 -0.71799817106E+03  0.48821955391E+02  0.13709707258E+04  0.50400001928E-02 0.  1.
</event>
<event>
 5   0  0.1686012E-06  0.3000915E+04  0.7818609E-02  0.8243470E-01
        1   -1    0    0  501    0  0.00000000000E+00  0.00000000000E+00  0.15535404458E+04  0.15535404458E+04  0.50400001928E-02 0. -1.
       -1   -1    0    0    0  501  0.00000000000E+00  0.00000000000E+00 -0.14491882465E+04  0.14491882465E+04  0.50400001928E-02 0.  1.
    10030    2    1    2    0    0  0.00000000000E+00  0.00000000000E+00  0.10435219922E+03  0.30027286923E+04  0.30009148968E+04 0.  0.
        4    1    3    3  502    0  0.97736343080E+02  0.14030183573E+04  0.57532864019E+03  0.15195451822E+04  0.12699999809E+01 0. -1.
       -4    1    3    3    0  502 -0.97736343080E+02 -0.14030183573E+04 -0.47097644097E+03  0.14831835101E+04  0.12699999809E+01 0.  1.
</event>
<event>
 5   0  0.1545375E-06  0.2999973E+04  0.7818609E-02  0.8243739E-01
       -3   -1    0    0    0  501  0.00000000000E+00  0.00000000000E+00  0.13588109703E+04  0.13588109740E+04  0.10100000352E+00 0. -1.
        3   -1    0    0  501    0  0.00000000000E+00  0.00000000000E+00 -0.16558297686E+04  0.16558297717E+04  0.10100000352E+00 0.  1.
    10030    2    1    2    0    0  0.00000000000E+00  0.00000000000E+00 -0.29701879834E+03  0.30146407457E+04  0.29999731097E+04 0.  0.
        1    1    3    3  502    0  0.64305066626E+03  0.12302994126E+03  0.12076478076E+04  0.13737043907E+04  0.50400001928E-02 0. -1.
       -1    1    3    3    0  502 -0.64305066626E+03 -0.12302994126E+03 -0.15046666060E+04  0.16409363549E+04  0.50400001928E-02 0.  1.
</event>
<event>
 5   0  0.1672907E-06  0.2994743E+04  0.7818609E-02  0.8245234E-01
        1   -1    0    0  501    0  0.00000000000E+00  0.00000000000E+00  0.16582784455E+04  0.16582784455E+04  0.50400001928E-02 0. -1.
       -1   -1    0    0    0  501  0.00000000000E+00  0.00000000000E+00 -0.13520773446E+04  0.13520773446E+04  0.50400001928E-02 0.  1.
    10030    2    1    2    0    0  0.00000000000E+00  0.00000000000E+00  0.30620110093E+03  0.30103557901E+04  0.29947425380E+04 0.  0.
        5    1    3    3  502    0  0.11247243782E+04 -0.55840556649E+03 -0.66679695592E+03  0.14217812680E+04  0.46999998093E+01 0.  1.
       -5    1    3    3    0  502 -0.11247243782E+04  0.55840556649E+03  0.97299805686E+03  0.15885745221E+04  0.46999998093E+01 0. -1.
</event>
<event>
 5   0  0.4935331E-06  0.2783760E+04  0.7818609E-02  0.8308328E-01
       -2   -1    0    0    0  501  0.00000000000E+00  0.00000000000E+00  0.10816581289E+04  0.10816581289E+04  0.25500000920E-02 0. -1.
        2   -1    0    0  501    0  0.00000000000E+00  0.00000000000E+00 -0.17910746813E+04  0.17910746813E+04  0.25500000920E-02 0.  1.
    10030    2    1    2    0    0  0.00000000000E+00  0.00000000000E+00 -0.70941655248E+03  0.28727328102E+04  0.27837603981E+04 0.  0.
        5    1    3    3  502    0 -0.12205891601E+03  0.66428681149E+03 -0.16106237724E+04  0.17465126318E+04  0.46999998093E+01 0.  1.
       -5    1    3    3    0  502  0.12205891601E+03 -0.66428681149E+03  0.90120721993E+03  0.11262201784E+04  0.46999998093E+01 0. -1.
</event>
<event>
 5   0  0.4935331E-06  0.2984198E+04  0.7818609E-02  0.8248258E-01
        2   -1    0    0  501    0  0.00000000000E+00  0.00000000000E+00  0.15125316858E+04  0.15125316858E+04  0.25500000920E-02 0.  1.
       -2   -1    0    0    0  501  0.00000000000E+00  0.00000000000E+00 -0.14719423099E+04  0.14719423099E+04  0.25500000920E-02 0. -1.
    10030    2    1    2    0    0  0.00000000000E+00  0.00000000000E+00  0.40589375976E+02  0.29844739957E+04  0.29841979716E+04 0.  0.
        5    1    3    3  502    0  0.74140126855E+03  0.65267993775E+03 -0.10981424913E+04  0.14770260537E+04  0.46999998093E+01 0. -1.
       -5    1    3    3    0  502 -0.74140126855E+03 -0.65267993775E+03  0.11387318673E+04  0.15074479420E+04  0.46999998093E+01 0.  1.
</event>
<event>
 5   0  0.5003556E-06  0.2977394E+04  0.7818609E-02  0.8250216E-01
        2   -1    0    0  501    0  0.00000000000E+00  0.00000000000E+00  0.18805609152E+04  0.18805609152E+04  0.25500000920E-02 0.  1.
       -2   -1    0    0    0  501  0.00000000000E+00  0.00000000000E+00 -0.11784885276E+04  0.11784885276E+04  0.25500000920E-02 0. -1.
    10030    2    1    2    0    0  0.00000000000E+00  0.00000000000E+00  0.70207238761E+03  0.30590494428E+04  0.29773944744E+04 0.  0.
        3    1    3    3  502    0 -0.22021934698E+02 -0.31495856525E+03 -0.11436943401E+04  0.11864740272E+04  0.10100000352E+00 0. -1.
       -3    1    3    3    0  502  0.22021934698E+02  0.31495856525E+03  0.18457667278E+04  0.18725754156E+04  0.10100000352E+00 0.  1.
</event>
<event>
 5   0  0.4935331E-06  0.2996310E+04  0.7818609E-02  0.8244785E-01
       -2   -1    0    0    0  501  0.00000000000E+00  0.00000000000E+00  0.15806262589E+04  0.15806262589E+04  0.25500000920E-02 0. -1.
        2   -1    0    0  501    0  0.00000000000E+00  0.00000000000E+00 -0.14199869189E+04  0.14199869189E+04  0.25500000920E-02 0.  1.
    10030    2    1    2    0    0  0.00000000000E+00  0.00000000000E+00  0.16063934000E+03  0.30006131778E+04  0.29963101384E+04 0.  0.
        5    1    3    3  502    0 -0.42414684698E+03 -0.12439494608E+04  0.80047389613E+03  0.15388604086E+04  0.46999998093E+01 0. -1.
       -5    1    3    3    0  502  0.42414684698E+03  0.12439494608E+04 -0.63983455613E+03  0.14617527692E+04  0.46999998093E+01 0.  1.
</event>
<event>
 5   0  0.1734885E-06  0.2997935E+04  0.7818609E-02  0.8244321E-01
       -1   -1    0    0    0  501  0.00000000000E+00  0.00000000000E+00  0.20461052686E+04  0.20461052686E+04  0.50400001928E-02 0. -1.
        1   -1    0    0  501    0  0.00000000000E+00  0.00000000000E+00 -0.10981368309E+04  0.10981368309E+04  0.50400001928E-02 0.  1.
    10030    2    1    2    0    0  0.00000000000E+00  0.00000000000E+00  0.94796843772E+03  0.31442420995E+04  0.29979349929E+04 0.  0.
        2    1    3    3  502    0  0.11234439939E+04  0.30459499510E+03 -0.51656477157E+03  0.12734770048E+04  0.25500000920E-02 0.  1.
       -2    1    3    3    0  502 -0.11234439939E+04 -0.30459499510E+03  0.14645332093E+04  0.18707650947E+04  0.25500000920E-02 0. -1.
</event>
<event>
 5   0  0.5003556E-06  0.2999915E+04  0.7818609E-02  0.8243755E-01
        2   -1    0    0  501    0  0.00000000000E+00  0.00000000000E+00  0.27962664160E+04  0.27962664160E+04  0.25500000920E-02 0. -1.
       -2   -1    0    0    0  501  0.00000000000E+00  0.00000000000E+00 -0.80459863708E+03  0.80459863708E+03  0.25500000920E-02 0.  1.
    10030    2    1    2    0    0  0.00000000000E+00  0.00000000000E+00  0.19916677789E+04  0.36008650531E+04  0.29999147636E+04 0.  0.
        3    1    3    3  502    0  0.14304484478E+04  0.24715195427E+03  0.14491130402E+04  0.20511449154E+04  0.10100000352E+00 0. -1.
       -3    1    3    3    0  502 -0.14304484478E+04 -0.24715195427E+03  0.54255473872E+03  0.15497201377E+04  0.10100000352E+00 0.  1.
</event>
<event>
 5   0  0.4532420E-06  0.2997529E+04  0.7818609E-02  0.8244437E-01
        2   -1    0    0  501    0  0.00000000000E+00  0.00000000000E+00  0.20905867902E+04  0.20905867902E+04  0.25500000920E-02 0.  1.
       -2   -1    0    0    0  501  0.00000000000E+00  0.00000000000E+00 -0.10744804929E+04  0.10744804929E+04  0.25500000920E-02 0. -1.
    10030    2    1    2    0    0  0.00000000000E+00  0.00000000000E+00  0.10161062973E+04  0.31650672831E+04  0.29975287987E+04 0.  0.
        4    1    3    3  502    0  0.56657422607E+03 -0.21285240342E+03 -0.93970583244E+03  0.11177482560E+04  0.12699999809E+01 0. -1.
       -4    1    3    3    0  502 -0.56657422607E+03  0.21285240342E+03  0.19558121297E+04  0.20473190271E+04  0.12699999809E+01 0.  1.
</event>
<event>
 5   0  0.5003556E-06  0.3011643E+04  0.7818609E-02  0.8240414E-01
       -2   -1    0    0    0  501  0.00000000000E+00  0.00000000000E+00  0.13946157855E+04  0.13946157855E+04  0.25500000920E-02 0. -1.
        2   -1    0    0  501    0  0.00000000000E+00  0.00000000000E+00 -0.16258948989E+04  0.16258948989E+04  0.25500000920E-02 0.  1.
    10030    2    1    2    0    0  0.00000000000E+00  0.00000000000E+00 -0.23127911339E+03  0.30205106845E+04  0.30116432004E+04 0.  0.
        3    1    3    3  502    0  0.81554451175E+03 -0.23915209365E+03  0.11310780665E+04  0.14147947474E+04  0.10100000352E+00 0. -1.
       -3    1    3    3    0  502 -0.81554451175E+03  0.23915209365E+03 -0.13623571799E+04  0.16057159370E+04  0.10100000352E+00 0.  1.
</event>
<event>
 5   0  0.1734885E-06  0.2964556E+04  0.7818609E-02  0.8253925E-01
       -1   -1    0    0    0  501  0.00000000000E+00  0.00000000000E+00  0.15300094619E+04  0.15300094620E+04  0.50400001928E-02 0. -1.
        1   -1    0    0  501    0  0.00000000000E+00  0.00000000000E+00 -0.14360356780E+04  0.14360356780E+04  0.50400001928E-02 0.  1.
    10030    2    1    2    0    0  0.00000000000E+00  0.00000000000E+00  0.93973783931E+02  0.29660451400E+04  0.29645560714E+04 0.  0.
        2    1    3    3  502    0 -0.10089147915E+04 -0.10854055334E+04  0.80677928315E+02  0.14840900096E+04  0.25500000920E-02 0. -1.
       -2    1    3    3    0  502  0.10089147915E+04  0.10854055334E+04  0.13295855616E+02  0.14819551303E+04  0.25500000920E-02 0.  1.
</event>
<event>
 5   0  0.4702748E-06  0.3007205E+04  0.7818609E-02  0.8241676E-01
        2   -1    0    0  501    0  0.00000000000E+00  0.00000000000E+00  0.15211150943E+04  0.15211150943E+04  0.25500000920E-02 0. -1.
       -2   -1    0    0    0  501  0.00000000000E+00  0.00000000000E+00 -0.14862917851E+04  0.14862917851E+04  0.25500000920E-02 0.  1.
    10030    2    1    2    0    0  0.00000000000E+00  0.00000000000E+00  0.34823309144E+02  0.30074068794E+04  0.30072052599E+04 0.  0.
        2    1    3    3  502    0  0.15159154645E+03  0.14959409946E+04  0.16223036452E+02  0.15036896765E+04  0.25500000920E-02 0.  1.
       -2    1    3    3    0  502 -0.15159154645E+03 -0.14959409946E+04  0.18600272691E+02  0.15037172029E+04  0.25500000920E-02 0. -1.
</event>
<event>
 5   0  0.1686012E-06  0.3010530E+04  0.7818609E-02  0.8240730E-01
       -1   -1    0    0    0  501  0.00000000000E+00  0.00000000000E+00  0.72829576617E+03  0.72829576618E+03  0.50400001928E-02 0.  1.
        1   -1    0    0  501    0  0.00000000000E+00  0.00000000000E+00 -0.31111301689E+04  0.31111301689E+04  0.50400001928E-02 0. -1.
    10030    2    1    2    0    0  0.00000000000E+00  0.00000000000E+00 -0.23828344027E+04  0.38394259351E+04  0.30105301394E+04 0.  0.
        4    1    3    3  502    0 -0.73970170741E+03 -0.29397507765E+03 -0.28207713971E+04  0.29309269608E+04  0.12699999809E+01 0. -1.
       -4    1    3    3    0  502  0.73970170741E+03  0.29397507765E+03  0.43793699438E+03  0.90849897422E+03  0.12699999809E+01 0.  1.
</event>
<event>
 5   0  0.1686012E-06  0.3015395E+04  0.7818609E-02  0.8239348E-01
        1   -1    0    0  501    0  0.00000000000E+00  0.00000000000E+00  0.17740504076E+04  0.17740504076E+04  0.50400001928E-02 0. -1.
       -1   -1    0    0    0  501  0.00000000000E+00  0.00000000000E+00 -0.12813343326E+04  0.12813343326E+04  0.50400001928E-02 0.  1.
    10030    2    1    2    0    0  0.00000000000E+00  0.00000000000E+00  0.49271607498E+03  0.30553847402E+04  0.30153949625E+04 0.  0.
        4    1    3    3  502    0 -0.14806494945E+04 -0.17303121033E+03  0.17784133081E+02  0.14908321883E+04  0.12699999809E+01 0. -1.
       -4    1    3    3    0  502  0.14806494945E+04  0.17303121033E+03  0.47493194190E+03  0.15645525519E+04  0.12699999809E+01 0.  1.
</event>
<event>
 5   0  0.4532420E-06  0.3011685E+04  0.7818609E-02  0.8240402E-01
        2   -1    0    0  501    0  0.00000000000E+00  0.00000000000E+00  0.15173263650E+04  0.15173263650E+04  0.25500000920E-02 0. -1.
       -2   -1    0    0    0  501  0.00000000000E+00  0.00000000000E+00 -0.14944452348E+04  0.14944452348E+04  0.25500000920E-02 0.  1.
    10030    2    1    2    0    0  0.00000000000E+00  0.00000000000E+00  0.22881130183E+02  0.30117715998E+04  0.30116846819E+04 0.  0.
        4    1    3    3  502    0  0.88232979005E+03 -0.68968355279E+03  0.10181424950E+04  0.15135339489E+04  0.12699999809E+01 0. -1.
       -4    1    3    3    0  502 -0.88232979005E+03  0.68968355279E+03 -0.99526136479E+03  0.14982376509E+04  0.12699999809E+01 0.  1.
</event>
<event>
 5   0  0.1672907E-06  0.2995284E+04  0.7818609E-02  0.8245079E-01
        1   -1    0    0  501    0  0.00000000000E+00  0.00000000000E+00  0.13283889649E+04  0.13283889649E+04  0.50400001928E-02 0.  1.
       -1   -1    0    0    0  501  0.00000000000E+00  0.00000000000E+00 -0.16884604928E+04  0.16884604928E+04  0.50400001928E-02 0. -1.
    10030    2    1    2    0    0  0.00000000000E+00  0.00000000000E+00 -0.36007152789E+03  0.30168494577E+04  0.29952844849E+04 0.  0.
        5    1    3    3  502    0  0.25361053438E+02 -0.87579948659E+03  0.10433044058E+04  0.13624148035E+04  0.46999998093E+01 0.  1.
       -5    1    3    3    0  502 -0.25361053438E+02  0.87579948659E+03 -0.14033759337E+04  0.16544346542E+04  0.46999998093E+01 0. -1.
</event>
<event>
 5   0  0.1734885E-06  0.3062173E+04  0.7818609E-02  0.8226196E-01
        1   -1    0    0  501    0  0.00000000000E+00  0.00000000000E+00  0.23299358509E+04  0.23299358509E+04  0.50400001928E-02 0.  1.
       -1   -1    0    0    0  501  0.00000000000E+00  0.00000000000E+00 -0.10061334067E+04  0.10061334067E+04  0.50400001928E-02 0. -1.
    10030    2    1    2    0    0  0.00000000000E+00  0.00000000000E+00  0.13238024442E+04  0.33360692577E+04  0.30621732774E+04 0.  0.
        2    1    3    3  502    0 -0.12288355102E+04  0.36580163542E+03 -0.24984038787E+03  0.13062418486E+04  0.25500000920E-02 0. -1.
       -2    1    3    3    0  502  0.12288355102E+04 -0.36580163542E+03  0.15736428321E+04  0.20298274091E+04  0.25500000920E-02 0.  1.
</event>
<event>
 5   0  0.4768570E-06  0.2978937E+04  0.7818609E-02  0.8249771E-01
        2   -1    0    0  501    0  0.00000000000E+00  0.00000000000E+00  0.25534133709E+04  0.25534133709E+04  0.25500000920E-02 0.  1.
       -2   -1    0    0    0  501  0.00000000000E+00  0.00000000000E+00 -0.86884325724E+03  0.86884325724E+03  0.25500000920E-02 0. -1.
    10030    2    1    2    0    0  0.00000000000E+00  0.00000000000E+00  0.16845701137E+04  0.34222566282E+04  0.29789367165E+04 0.  0.
        1    1    3    3  502    0  0.65196898377E+03  0.26257143738E+03  0.23509193920E+04  0.24537378229E+04  0.50400001928E-02 0.  1.
       -1    1    3    3    0  502 -0.65196898377E+03 -0.26257143738E+03 -0.66634927832E+03  0.96851880532E+03  0.50400001928E-02 0. -1.
</event>
<event>
 5   0  0.5003556E-06  0.3006254E+04  0.7818609E-02  0.8241947E-01
       -2   -1    0    0    0  501  0.00000000000E+00  0.00000000000E+00  0.91788198971E+03  0.91788198972E+03  0.25500000920E-02 0.  1.
        2   -1    0    0  501    0  0.00000000000E+00  0.00000000000E+00 -0.24615265122E+04  0.24615265122E+04  0.25500000920E-02 0. -1.
    10030    2    1    2    0    0  0.00000000000E+00  0.00000000000E+00 -0.15436445225E+04  0.33794085019E+04  0.30062540496E+04 0.  0.
        3    1    3    3  502    0  0.50243682872E+03  0.35615168409E+03  0.76954438311E+03  0.98563956735E+03  0.10100000352E+00 0.  1.
       -3    1    3    3    0  502 -0.50243682872E+03 -0.35615168409E+03 -0.23131889056E+04  0.23937689345E+04  0.10100000352E+00 0. -1.
</event>
<event>
 5   0  0.4532420E-06  0.3000240E+04  0.7818609E-02  0.8243662E-01
       -2   -1    0    0    0  501  0.00000000000E+00  0.00000000000E+00  0.16084939514E+04  0.16084939514E+04  0.25500000920E-02 0. -1.
        2   -1    0    0  501    0  0.00000000000E+00  0.00000000000E+00 -0.13990482099E+04  0.13990482099E+04  0.25500000920E-02 0.  1.
    10030    2    1    2    0    0  0.00000000000E+00  0.00000000000E+00  0.20944574145E+03  0.30075421613E+04  0.30002403793E+04 0.  0.
        4    1    3    3  502    0 -0.32520026621E+03 -0.70113967276E+03  0.13935450696E+04  0.15935248751E+04  0.12699999809E+01 0. -1.
       -4    1    3    3    0  502  0.32520026621E+03  0.70113967276E+03 -0.11840993281E+04  0.14140172862E+04  0.12699999809E+01 0.  1.
</event>
<event>
 5   0  0.1700885E-06  0.2997961E+04  0.7818609E-02  0.8244313E-01
        1   -1    0    0  501    0  0.00000000000E+00  0.00000000000E+00  0.10609547957E+04  0.10609547958E+04  0.50400001928E-02 0.  1.
       -1   -1    0    0    0  501  0.00000000000E+00  0.00000000000E+00 -0.21178489063E+04  0.21178489063E+04  0.50400001928E-02 0. -1.
    10030    2    1    2    0    0  0.00000000000E+00  0.00000000000E+00 -0.10568941105E+04  0.31788037020E+04  0.29979606093E+04 0.  0.
        1    1    3    3  502    0 -0.10914724914E+03 -0.12399252781E+03  0.10512743240E+04  0.10641733756E+04  0.50400001928E-02 0.  1.
       -1    1    3    3    0  502  0.10914724914E+03  0.12399252781E+03 -0.21081684346E+04  0.21146303264E+04  0.50400001928E-02 0. -1.
</event>
<event>
 5   0  0.4532420E-06  0.3057875E+04  0.7818609E-02  0.8227395E-01
        2   -1    0    0  501    0  0.00000000000E+00  0.00000000000E+00  0.30998173273E+04  0.30998173273E+04  0.25500000920E-02 0.  1.
       -2   -1    0    0    0  501  0.00000000000E+00  0.00000000000E+00 -0.75412524475E+03  0.75412524476E+03  0.25500000920E-02 0. -1.
    10030    2    1    2    0    0  0.00000000000E+00  0.00000000000E+00  0.23456920826E+04  0.38539425721E+04  0.30578754067E+04 0.  0.
        4    1    3    3  502    0 -0.77081814526E+02  0.13708101098E+04  0.20207300690E+04  0.24430336854E+04  0.12699999809E+01 0.  1.
       -4    1    3    3    0  502  0.77081814526E+02 -0.13708101098E+04  0.32496201359E+03  0.14109088867E+04  0.12699999809E+01 0. -1.
</event>
<event>
 5   0  0.1709858E-06  0.2800151E+04  0.7818609E-02  0.8303221E-01
       -1   -1    0    0    0  501  0.00000000000E+00  0.00000000000E+00  0.15682916749E+04  0.15682916749E+04  0.50400001928E-02 0.  1.
        1   -1    0    0  501    0  0.00000000000E+00  0.00000000000E+00 -0.12499024176E+04  0.12499024177E+04  0.50400001928E-02 0. -1.
    10030    2    1    2    0    0  0.00000000000E+00  0.00000000000E+00  0.31838925724E+03  0.28181940925E+04  0.28001511074E+04 0.  0.
        3    1    3    3  502    0  0.10659025212E+04 -0.13866770639E+03 -0.74371182841E+03  0.13070899784E+04  0.10100000352E+00 0. -1.
       -3    1    3    3    0  502 -0.10659025212E+04  0.13866770639E+03  0.10621010856E+04  0.15111041142E+04  0.10100000352E+00 0.  1.
</event>
<event>
 5   0  0.5003556E-06  0.3024521E+04  0.7818609E-02  0.8236763E-01
       -2   -1    0    0    0  501  0.00000000000E+00  0.00000000000E+00  0.13999541868E+04  0.13999541868E+04  0.25500000920E-02 0.  1.
        2   -1    0    0  501    0  0.00000000000E+00  0.00000000000E+00 -0.16335763773E+04  0.16335763773E+04  0.25500000920E-02 0. -1.
    10030    2    1    2    0    0  0.00000000000E+00  0.00000000000E+00 -0.23362219049E+03  0.30335305640E+04  0.30245211778E+04 0.  0.
        3    1    3    3  502    0 -0.52822739165E+03 -0.13609932156E+03  0.12978458991E+04  0.14078178827E+04  0.10100000352E+00 0.  1.
       -3    1    3    3    0  502  0.52822739165E+03  0.13609932156E+03 -0.15314680896E+04  0.16257126814E+04  0.10100000352E+00 0. -1.
</event>
<event>
 5   0  0.5003556E-06  0.3061335E+04  0.7818609E-02  0.8226430E-01
        2   -1    0    0  501    0  0.00000000000E+00  0.00000000000E+00  0.29801558108E+04  0.29801558108E+04  0.25500000920E-02 0.  1.
       -2   -1    0    0    0  501  0.00000000000E+00  0.00000000000E+00 -0.78618122803E+03  0.78618122804E+03  0.25500000920E-02 0. -1.
    10030    2    1    2    0    0  0.00000000000E+00  0.00000000000E+00  0.21939745827E+04  0.37663370388E+04  0.30613347122E+04 0.  0.
        3    1    3    3  502    0  0.10194290251E+04 -0.99511121482E+03  0.40817656834E+03  0.14819210466E+04  0.10100000352E+00 0. -1.
       -3    1    3    3    0  502 -0.10194290251E+04  0.99511121482E+03  0.17857980144E+04  0.22844159922E+04  0.10100000352E+00 0.  1.
</event>
<event>
 5   0  0.1700885E-06  0.3007926E+04  0.7818609E-02  0.8241471E-01
        1   -1    0    0  501    0  0.00000000000E+00  0.00000000000E+00  0.19075740690E+04  0.19075740690E+04  0.50400001928E-02 0. -1.
       -1   -1    0    0    0  501  0.00000000000E+00  0.00000000000E+00 -0.11857496742E+04  0.11857496742E+04  0.50400001928E-02 0.  1.
    10030    2    1    2    0    0  0.00000000000E+00  0.00000000000E+00  0.72182439486E+03  0.30933237432E+04  0.30079264159E+04 0.  0.
        1    1    3    3  502    0 -0.60974372178E+03  0.10426469170E+04 -0.56063457325E+03  0.13316197372E+04  0.50400001928E-02 0.  1.
       -1    1    3    3    0  502  0.60974372178E+03 -0.10426469170E+04  0.12824589681E+04  0.17617040060E+04  0.50400001928E-02 0. -1.
</event>
<event>
 5   0  0.1700885E-06  0.2784283E+04  0.7818609E-02  0.8308165E-01
        1   -1    0    0  501    0  0.00000000000E+00  0.00000000000E+00  0.20584702489E+04  0.20584702489E+04  0.50400001928E-02 0. -1.
       -1   -1    0    0    0  501  0.00000000000E+00  0.00000000000E+00 -0.94150385536E+03  0.94150385538E+03  0.50400001928E-02 0.  1.
    10030    2    1    2    0    0  0.00000000000E+00  0.00000000000E+00  0.11169663935E+04  0.29999741042E+04  0.27842827985E+04 0.  0.
        1    1    3    3  502    0 -0.81882204392E+03 -0.60155189926E+03  0.15839036301E+04  0.18817770688E+04  0.50400001928E-02 0. -1.
       -1    1    3    3    0  502  0.81882204392E+03  0.60155189926E+03 -0.46693723662E+03  0.11181970354E+04  0.50400001928E-02 0.  1.
</event>
<event>
 5   0  0.4768570E-06  0.2974568E+04  0.7818609E-02  0.8251031E-01
        2   -1    0    0  501    0  0.00000000000E+00  0.00000000000E+00  0.16432747383E+04  0.16432747383E+04  0.25500000920E-02 0.  1.
       -2   -1    0    0    0  501  0.00000000000E+00  0.00000000000E+00 -0.13461007039E+04  0.13461007039E+04  0.25500000920E-02 0. -1.
    10030    2    1    2    0    0  0.00000000000E+00  0.00000000000E+00  0.29717403447E+03  0.29893754422E+04  0.29745677211E+04 0.  0.
        1    1    3    3  502    0 -0.63768271520E+03 -0.15405730161E+03 -0.11928386925E+04  0.13613364918E+04  0.50400001928E-02 0. -1.
       -1    1    3    3    0  502  0.63768271520E+03  0.15405730161E+03  0.14900127270E+04  0.16280389504E+04  0.50400001928E-02 0.  1.
</event>
<event>
 5   0  0.1686012E-06  0.3001139E+04  0.7818609E-02  0.8243406E-01
       -1   -1    0    0    0  501  0.00000000000E+00  0.00000000000E+00  0.11114255552E+04  0.11114255552E+04  0.50400001928E-02 0. -1.
        1   -1    0    0  501    0  0.00000000000E+00  0.00000000000E+00 -0.20259648447E+04  0.20259648447E+04  0.50400001928E-02 0.  1.
    10030    2    1    2    0    0  0.00000000000E+00  0.00000000000E+00 -0.91453928948E+03  0.31373903999E+04  0.30011391853E+04 0.  0.
        4    1    3    3  502    0  0.64499964296E+03 -0.76497234520E+03 -0.16262960459E+04  0.19094626653E+04  0.12699999809E+01 0.  1.
       -4    1    3    3    0  502 -0.64499964296E+03  0.76497234520E+03  0.71175675639E+03  0.12279277346E+04  0.12699999809E+01 0. -1.
</event>
<event>
 5   0  0.4935331E-06  0.2650713E+04  0.7818609E-02  0.8351176E-01
        2   -1    0    0  501    0  0.00000000000E+00  0.00000000000E+00  0.16717533990E+04  0.16717533990E+04  0.25500000920E-02 0.  1.
       -2   -1    0    0    0  501  0.00000000000E+00  0.00000000000E+00 -0.10507352525E+04  0.10507352525E+04  0.25500000920E-02 0. -1.
    10030    2    1    2    0    0  0.00000000000E+00  0.00000000000E+00  0.62101814645E+03  0.27224886515E+04  0.26507132850E+04 0.  0.
        5    1    3    3  502    0  0.38302596487E+03 -0.36682855773E+03  0.15580073971E+04  0.16458071636E+04  0.46999998093E+01 0.  1.
       -5    1    3    3    0  502 -0.38302596487E+03  0.36682855773E+03 -0.93698925060E+03  0.10766814878E+04  0.46999998093E+01 0. -1.
</event>
<event>
 5   0  0.1734885E-06  0.3002962E+04  0.7818609E-02  0.8242886E-01
        1   -1    0    0  501    0  0.00000000000E+00  0.00000000000E+00  0.88905930664E+03  0.88905930665E+03  0.50400001928E-02 0. -1.
       -1   -1    0    0    0  501  0.00000000000E+00  0.00000000000E+00 -0.25357639335E+04  0.25357639335E+04  0.50400001928E-02 0.  1.
    10030    2    1    2    0    0  0.00000000000E+00  0.00000000000E+00 -0.16467046269E+04  0.34248232402E+04  0.30029615546E+04 0.  0.
        2    1    3    3  502    0 -0.58674649948E+03 -0.80336080015E+03 -0.21059683220E+04  0.23291119773E+04  0.25500000920E-02 0.  1.
       -2    1    3    3    0  502  0.58674649948E+03  0.80336080015E+03  0.45926369508E+03  0.10957112628E+04  0.25500000920E-02 0. -1.
</event>
<event>
 5   0  0.1672907E-06  0.3014234E+04  0.7818609E-02  0.8239678E-01
       -1   -1    0    0    0  501  0.00000000000E+00  0.00000000000E+00  0.99556559362E+03  0.99556559363E+03  0.50400001928E-02 0.  1.
        1   -1    0    0  501    0  0.00000000000E+00  0.00000000000E+00 -0.22815194748E+04  0.22815194749E+04  0.50400001928E-02 0. -1.
    10030    2    1    2    0    0  0.00000000000E+00  0.00000000000E+00 -0.12859538812E+04  0.32770850685E+04  0.30142344238E+04 0.  0.
        5    1    3    3  502    0 -0.10947820189E+04 -0.44685573290E+03  0.37293423328E+03  0.12398910224E+04  0.46999998093E+01 0.  1.
       -5    1    3    3    0  502  0.10947820189E+04  0.44685573290E+03 -0.16588881145E+04  0.20371940461E+04  0.46999998093E+01 0. -1.
</event>
<event>
 5   0  0.1709858E-06  0.2971844E+04  0.7818609E-02  0.8251817E-01
       -1   -1    0    0    0  501  0.00000000000E+00  0.00000000000E+00  0.11178909299E+04  0.11178909299E+04  0.50400001928E-02 0. -1.
        1   -1    0    0  501    0  0.00000000000E+00  0.00000000000E+00 -0.19751160160E+04  0.19751160160E+04  0.50400001928E-02 0.  1.
    10030    2    1    2    0    0  0.00000000000E+00  0.00000000000E+00 -0.85722508610E+03  0.30930069458E+04  0.29718440603E+04 0.  0.
        3    1    3    3  502    0  0.42354900794E+03  0.91482093158E+03  0.70753166518E+03  0.12316217627E+04  0.10100000352E+00 0. -1.
       -3    1    3    3    0  502 -0.42354900794E+03 -0.91482093158E+03 -0.15647567513E+04  0.18613851831E+04  0.10100000352E+00 0.  1.
</event>
<event>
 5   0  0.4935331E-06  0.3007765E+04  0.7818609E-02  0.8241517E-01
       -2   -1    0    0    0  501  0.00000000000E+00  0.00000000000E+00  0.97301165047E+03  0.97301165048E+03  0.25500000920E-02 0.  1.
        2   -1    0    0  501    0  0.00000000000E+00  0.00000000000E+00 -0.23243939483E+04  0.23243939483E+04  0.25500000920E-02 0. -1.
    10030    2    1    2    0    0  0.00000000000E+00  0.00000000000E+00 -0.13513822978E+04  0.32974055987E+04  0.30077648791E+04 0.  0.
        5    1    3    3  502    0  0.13460062096E+04  0.11360361166E+03 -0.14004109085E+04  0.19457161405E+04  0.46999998093E+01 0. -1.
       -5    1    3    3    0  502 -0.13460062096E+04 -0.11360361166E+03  0.49028610754E+02  0.13516894582E+04  0.46999998093E+01 0.  1.
</event>
<event>
 5   0  0.1734885E-06  0.2596442E+04  0.7818609E-02  0.8369411E-01
        1   -1    0    0  501    0  0.00000000000E+00  0.00000000000E+00  0.20150575458E+04  0.20150575458E+04  0.50400001928E-02 0. -1.
       -1   -1    0    0    0  501  0.00000000000E+00  0.00000000000E+00 -0.83639194443E+03  0.83639194444E+03  0.50400001928E-02 0.  1.
    10030    2    1    2    0    0  0.00000000000E+00  0.00000000000E+00  0.11786656014E+04  0.28514494902E+04  0.25964421033E+04 0.  0.
        2    1    3    3  502    0 -0.97858534733E+03 -0.60707584035E+03  0.12475356572E+04  0.16977972712E+04  0.25500000920E-02 0. -1.
       -2    1    3    3    0  502  0.97858534733E+03  0.60707584035E+03 -0.68870055879E+02  0.11536522191E+04  0.25500000920E-02 0.  1.
</event>
<event>
 5   0  0.1709858E-06  0.2953732E+04  0.7818609E-02  0.8257068E-01
       -1   -1    0    0    0  501  0.00000000000E+00  0.00000000000E+00  0.16001874278E+04  0.16001874278E+04  0.50400001928E-02 0. -1.
        1   -1    0    0  501    0  0.00000000000E+00  0.00000000000E+00 -0.13630490216E+04  0.13630490216E+04  0.50400001928E-02 0.  1.
    10030    2    1    2    0    0  0.00000000000E+00  0.00000000000E+00  0.23713840616E+03  0.29632364494E+04  0.29537324915E+04 0.  0.
        3    1    3    3  502    0  0.10468696647E+04  0.10275828952E+04 -0.53069562579E+02  0.14678825191E+04  0.10100000352E+00 0.  1.
       -3    1    3    3    0  502 -0.10468696647E+04 -0.10275828952E+04  0.29020796874E+03  0.14953539302E+04  0.10100000352E+00 0. -1.
</event>
<event>
 5   0  0.5003556E-06  0.3033355E+04  0.7818609E-02  0.8234270E-01
        2   -1    0    0  501    0  0.00000000000E+00  0.00000000000E+00  0.28597933710E+04  0.28597933710E+04  0.25500000920E-02 0.  1.
       -2   -1    0    0    0  501  0.00000000000E+00  0.00000000000E+00 -0.80436240223E+03  0.80436240224E+03  0.25500000920E-02 0. -1.
    10030    2    1    2    0    0  0.00000000000E+00  0.00000000000E+00  0.20554309688E+04  0.36641557732E+04  0.30333547539E+04 0.  0.
        3    1    3    3  502    0 -0.10975811809E+04  0.99515957989E+03  0.63576581892E+03  0.16122112842E+04  0.10100000352E+00 0.  1.
       -3    1    3    3    0  502  0.10975811809E+04 -0.99515957989E+03  0.14196651498E+04  0.20519444890E+04  0.10100000352E+00 0. -1.
</event>
<event>
 5   0  0.4935331E-06  0.3006166E+04  0.7818609E-02  0.8241972E-01
        2   -1    0    0  501    0  0.00000000000E+00  0.00000000000E+00  0.22124538238E+04  0.22124538238E+04  0.25500000920E-02 0.  1.
       -2   -1    0    0    0  501  0.00000000000E+00  0.00000000000E+00 -0.10211552121E+04  0.10211552121E+04  0.25500000920E-02 0. -1.
    10030    2    1    2    0    0  0.00000000000E+00  0.00000000000E+00  0.11912986117E+04  0.32336090359E+04  0.30061661655E+04 0.  0.
        5    1    3    3  502    0  0.38022685826E+02  0.50830355139E+03  0.21166393583E+04  0.21771546771E+04  0.46999998093E+01 0.  1.
       -5    1    3    3    0  502 -0.38022685826E+02 -0.50830355139E+03 -0.92534074658E+03  0.10564543588E+04  0.46999998093E+01 0. -1.
</event>
<event>
 5   0  0.4768570E-06  0.2927634E+04  0.7818609E-02  0.8264703E-01
        2   -1    0    0  501    0  0.00000000000E+00  0.00000000000E+00  0.13436799527E+04  0.13436799527E+04  0.25500000920E-02 0.  1.
       -2   -1    0    0    0  501  0.00000000000E+00  0.00000000000E+00 -0.15946951224E+04  0.15946951224E+04  0.25500000920E-02 0. -1.
    10030    2    1    2    0    0  0.00000000000E+00  0.00000000000E+00 -0.25101516971E+03  0.29383750751E+04  0.29276337657E+04 0.  0.
        1    1    3    3  502    0 -0.89638236403E+03 -0.11554412388E+04 -0.60353562575E+02  0.14636216559E+04  0.50400001928E-02 0.  1.
       -1    1    3    3    0  502  0.89638236403E+03  0.11554412388E+04 -0.19066160713E+03  0.14747534192E+04  0.50400001928E-02 0. -1.
</event>
<event>
 5   0  0.1686012E-06  0.2923748E+04  0.7818609E-02  0.8265847E-01
        1   -1    0    0  501    0  0.00000000000E+00  0.00000000000E+00  0.16929940120E+04  0.16929940120E+04  0.50400001928E-02 0. -1.
       -1   -1    0    0    0  501  0.00000000000E+00  0.00000000000E+00 -0.12623055169E+04  0.12623055169E+04  0.50400001928E-02 0.  1.
    10030    2    1    2    0    0  0.00000000000E+00  0.00000000000E+00  0.43068849506E+03  0.29552995289E+04  0.29237480613E+04 0.  0.
        4    1    3    3  502    0 -0.45971067802E+03 -0.11649750825E+04 -0.54683085388E+03  0.13665747129E+04  0.12699999809E+01 0.  1.
       -4    1    3    3    0  502  0.45971067802E+03  0.11649750825E+04  0.97751934895E+03  0.15887248160E+04  0.12699999809E+01 0. -1.
</event>
<event>
 5   0  0.1672907E-06  0.2879579E+04  0.7818609E-02  0.8278979E-01
        1   -1    0    0  501    0  0.00000000000E+00  0.00000000000E+00  0.19021834538E+04  0.19021834538E+04  0.50400001928E-02 0.  1.
       -1   -1    0    0    0  501  0.00000000000E+00  0.00000000000E+00 -0.10897971312E+04  0.10897971312E+04  0.50400001928E-02 0. -1.
    10030    2    1    2    0    0  0.00000000000E+00  0.00000000000E+00  0.81238632262E+03  0.29919805851E+04  0.28795791853E+04 0.  0.
        5    1    3    3  502    0  0.13053097232E+04 -0.45959904217E+03  0.81907972532E+03  0.16080977705E+04  0.46999998093E+01 0.  1.
       -5    1    3    3    0  502 -0.13053097232E+04  0.45959904217E+03 -0.66934026943E+01  0.13838828146E+04  0.46999998093E+01 0. -1.
</event>
<event>
 5   0  0.1709858E-06  0.2961424E+04  0.7818609E-02  0.8254833E-01
       -1   -1    0    0    0  501  0.00000000000E+00  0.00000000000E+00  0.19711500618E+04  0.19711500618E+04  0.50400001928E-02 0.  1.
        1   -1    0    0  501    0  0.00000000000E+00  0.00000000000E+00 -0.11122987790E+04  0.11122987790E+04  0.50400001928E-02 0. -1.
    10030    2    1    2    0    0  0.00000000000E+00  0.00000000000E+00  0.85885128285E+03  0.30834488408E+04  0.29614238514E+04 0.  0.
        3    1    3    3  502    0  0.33492503910E+02  0.81275016361E+03  0.17176713308E+04  0.19005471284E+04  0.10100000352E+00 0.  1.
       -3    1    3    3    0  502 -0.33492503910E+02 -0.81275016361E+03 -0.85882004797E+03  0.11829017124E+04  0.10100000352E+00 0. -1.
</event>
<event>
 5   0  0.4702748E-06  0.2942348E+04  0.7818609E-02  0.8260388E-01
        2   -1    0    0  501    0  0.00000000000E+00  0.00000000000E+00  0.11502011751E+04  0.11502011751E+04  0.25500000920E-02 0.  1.
       -2   -1    0    0    0  501  0.00000000000E+00  0.00000000000E+00 -0.18817167669E+04  0.18817167669E+04  0.25500000920E-02 0. -1.
    10030    2    1    2    0    0  0.00000000000E+00  0.00000000000E+00 -0.73151559182E+03  0.30319179419E+04  0.29423479307E+04 0.  0.
        2    1    3    3  502    0 -0.12792347517E+03  0.11165871694E+04  0.61246818218E+03  0.12799408567E+04  0.25500000920E-02 0.  1.
       -2    1    3    3    0  502  0.12792347517E+03 -0.11165871694E+04 -0.13439837740E+04  0.17519770852E+04  0.25500000920E-02 0. -1.
</event>
<event>
 5   0  0.1709858E-06  0.2958767E+04  0.7818609E-02  0.8255604E-01
        1   -1    0    0  501    0  0.00000000000E+00  0.00000000000E+00  0.27545937506E+04  0.27545937506E+04  0.50400001928E-02 0. -1.
       -1   -1    0    0    0  501  0.00000000000E+00  0.00000000000E+00 -0.79451848413E+03  0.79451848415E+03  0.50400001928E-02 0.  1.
    10030    2    1    2    0    0  0.00000000000E+00  0.00000000000E+00  0.19600752665E+04  0.35491122348E+04  0.29587670751E+04 0.  0.
        3    1    3    3  502    0 -0.51357495908E+02  0.14272095801E+04  0.14430770060E+04  0.20302797919E+04  0.10100000352E+00 0. -1.
       -3    1    3    3    0  502  0.51357495908E+02 -0.14272095801E+04  0.51699826053E+03  0.15188324429E+04  0.10100000352E+00 0.  1.
</event>
<event>
 5   0  0.1734885E-06  0.3025049E+04  0.7818609E-02  0.8236614E-01
        1   -1    0    0  501    0  0.00000000000E+00  0.00000000000E+00  0.23049671513E+04  0.23049671513E+04  0.50400001928E-02 0.  1.
       -1   -1    0    0    0  501  0.00000000000E+00  0.00000000000E+00 -0.99252159436E+03  0.99252159438E+03  0.50400001928E-02 0. -1.
    10030    2    1    2    0    0  0.00000000000E+00  0.00000000000E+00  0.13124455569E+04  0.32974887457E+04  0.30250485431E+04 0.  0.
        2    1    3    3  502    0 -0.95701014885E+03 -0.11619613741E+04  0.49562076036E+03  0.15848225762E+04  0.25500000920E-02 0. -1.
       -2    1    3    3    0  502  0.95701014885E+03  0.11619613741E+04  0.81682479658E+03  0.17126661695E+04  0.25500000920E-02 0.  1.
</event>
<event>
 5   0  0.1686012E-06  0.3029886E+04  0.7818609E-02  0.8235248E-01
       -1   -1    0    0    0  501  0.00000000000E+00  0.00000000000E+00  0.10847552213E+04  0.10847552213E+04  0.50400001928E-02 0.  1.
        1   -1    0    0  501    0  0.00000000000E+00  0.00000000000E+00 -0.21157322486E+04  0.21157322486E+04  0.50400001928E-02 0. -1.
    10030    2    1    2    0    0  0.00000000000E+00  0.00000000000E+00 -0.10309770273E+04  0.32004874699E+04  0.30298855447E+04 0.  0.
        4    1    3    3  502    0  0.86605803219E+01  0.12351736888E+04  0.41100777901E+03  0.13017903266E+04  0.12699999809E+01 0.  1.
       -4    1    3    3    0  502 -0.86605803219E+01 -0.12351736888E+04 -0.14419848063E+04  0.18986971433E+04  0.12699999809E+01 0. -1.
</event>
<event>
 5   0  0.4768570E-06  0.2945873E+04  0.7818609E-02  0.8259358E-01
        2   -1    0    0  501    0  0.00000000000E+00  0.00000000000E+00  0.25387166187E+04  0.25387166187E+04  0.25500000920E-02 0.  1.
       -2   -1    0    0    0  501  0.00000000000E+00  0.00000000000E+00 -0.85458218252E+03  0.85458218252E+03  0.25500000920E-02 0. -1.
    10030    2    1    2    0    0  0.00000000000E+00  0.00000000000E+00  0.16841344362E+04  0.33932988012E+04  0.29458730379E+04 0.  0.
        1    1    3    3  502    0 -0.11953362523E+03  0.62057687457E+03  0.23746066095E+04  0.24572668749E+04  0.50400001928E-02 0.  1.
       -1    1    3    3    0  502  0.11953362523E+03 -0.62057687457E+03 -0.69047217333E+03  0.93603192626E+03  0.50400001928E-02 0. -1.
</event>
<event>
 5   0  0.5003556E-06  0.3016445E+04  0.7818609E-02  0.8239051E-01
       -2   -1    0    0    0  501  0.00000000000E+00  0.00000000000E+00  0.11346569663E+04  0.11346569663E+04  0.25500000920E-02 0.  1.
        2   -1    0    0  501    0  0.00000000000E+00  0.00000000000E+00 -0.20047774084E+04  0.20047774084E+04  0.25500000920E-02 0. -1.
    10030    2    1    2    0    0  0.00000000000E+00  0.00000000000E+00 -0.87012044209E+03  0.31394343747E+04  0.30164446969E+04 0.  0.
        3    1    3    3  502    0  0.73693767160E+03  0.72704211807E+03 -0.15766261475E+04  0.18861117126E+04  0.10100000352E+00 0. -1.
       -3    1    3    3    0  502 -0.73693767160E+03 -0.72704211807E+03  0.70650570544E+03  0.12533226621E+04  0.10100000352E+00 0.  1.
</event>
<event>
 5   0  0.1734885E-06  0.2986890E+04  0.7818609E-02  0.8247484E-01
        1   -1    0    0  501    0  0.00000000000E+00  0.00000000000E+00  0.16687411442E+04  0.16687411442E+04  0.50400001928E-02 0.  1.
       -1   -1    0    0    0  501  0.00000000000E+00  0.00000000000E+00 -0.13365633231E+04  0.13365633232E+04  0.50400001928E-02 0. -1.
    10030    2    1    2    0    0  0.00000000000E+00  0.00000000000E+00  0.33217782100E+03  0.30053044673E+04  0.29868901614E+04 0.  0.
        2    1    3    3  502    0  0.14636617705E+04  0.28529244995E+03  0.24832804633E+03  0.15117421669E+04  0.25500000920E-02 0.  1.
       -2    1    3    3    0  502 -0.14636617705E+04 -0.28529244995E+03  0.83849774671E+02  0.14935623004E+04  0.25500000920E-02 0. -1.
</event>
<event>
 5   0  0.1672907E-06  0.2994416E+04  0.7818609E-02  0.8245327E-01
        1   -1    0    0  501    0  0.00000000000E+00  0.00000000000E+00  0.79826399280E+03  0.79826399281E+03  0.50400001928E-02 0. -1.
       -1   -1    0    0    0  501  0.00000000000E+00  0.00000000000E+00 -0.28081341050E+04  0.28081341050E+04  0.50400001928E-02 0.  1.
    10030    2    1    2    0    0  0.00000000000E+00  0.00000000000E+00 -0.20098701122E+04  0.36063980978E+04  0.29944163658E+04 0.  0.
        5    1    3    3  502    0 -0.42588918162E+03  0.23880714037E+02  0.72352390713E+03  0.83991714931E+03  0.46999998093E+01 0. -1.
       -5    1    3    3    0  502  0.42588918162E+03 -0.23880714037E+02 -0.27333940193E+04  0.27664809485E+04  0.46999998093E+01 0.  1.
</event>
<event>
 5   0  0.4935331E-06  0.2978233E+04  0.7818609E-02  0.8249974E-01
        2   -1    0    0  501    0  0.00000000000E+00  0.00000000000E+00  0.21649306458E+04  0.21649306458E+04  0.25500000920E-02 0. -1.
       -2   -1    0    0    0  501  0.00000000000E+00  0.00000000000E+00 -0.10242675840E+04  0.10242675840E+04  0.25500000920E-02 0.  1.
    10030    2    1    2    0    0  0.00000000000E+00  0.00000000000E+00  0.11406630618E+04  0.31891982299E+04  0.29782332227E+04 0.  0.
        5    1    3    3  502    0  0.54902703143E+03  0.12114914693E+04 -0.14665184109E+03  0.13381595996E+04  0.46999998093E+01 0.  1.
       -5    1    3    3    0  502 -0.54902703143E+03 -0.12114914693E+04  0.12873149029E+04  0.18510386303E+04  0.46999998093E+01 0. -1.
</event>
<event>
 5   0  0.4768570E-06  0.2966409E+04  0.7818609E-02  0.8253389E-01
        2   -1    0    0  501    0  0.00000000000E+00  0.00000000000E+00  0.20156111131E+04  0.20156111131E+04  0.25500000920E-02 0.  1.
       -2   -1    0    0    0  501  0.00000000000E+00  0.00000000000E+00 -0.10914284942E+04  0.10914284942E+04  0.25500000920E-02 0. -1.
    10030    2    1    2    0    0  0.00000000000E+00  0.00000000000E+00  0.92418261887E+03  0.31070396074E+04  0.29664088742E+04 0.  0.
        1    1    3    3  502    0  0.93788212309E+03  0.10184825678E+04 -0.95072296132E+02  0.13877926212E+04  0.50400001928E-02 0.  1.
       -1    1    3    3    0  502 -0.93788212309E+03 -0.10184825678E+04  0.10192549150E+04  0.17192469862E+04  0.50400001928E-02 0. -1.
</event>
<event>
 5   0  0.1545375E-06  0.2884367E+04  0.7818609E-02  0.8277544E-01
       -3   -1    0    0    0  501  0.00000000000E+00  0.00000000000E+00  0.11597247799E+04  0.11597247843E+04  0.10100000352E+00 0.  1.
        3   -1    0    0  501    0  0.00000000000E+00  0.00000000000E+00 -0.17934369123E+04  0.17934369151E+04  0.10100000352E+00 0. -1.
    10030    2    1    2    0    0  0.00000000000E+00  0.00000000000E+00 -0.63371213236E+03  0.29531616994E+04  0.28843669940E+04 0.  0.
        1    1    3    3  502    0  0.93700292931E+03  0.10167943142E+04 -0.73657008694E+03  0.15666463098E+04  0.50400001928E-02 0. -1.
       -1    1    3    3    0  502 -0.93700292931E+03 -0.10167943142E+04  0.10285795458E+03  0.13865153897E+04  0.50400001928E-02 0.  1.
</event>
<event>
 5   0  0.1686012E-06  0.3021930E+04  0.7818609E-02  0.8237496E-01
        1   -1    0    0  501    0  0.00000000000E+00  0.00000000000E+00  0.19064735571E+04  0.19064735571E+04  0.50400001928E-02 0. -1.
       -1   -1    0    0    0  501  0.00000000000E+00  0.00000000000E+00 -0.11975071001E+04  0.11975071002E+04  0.50400001928E-02 0.  1.
    10030    2    1    2    0    0  0.00000000000E+00  0.00000000000E+00  0.70896645693E+03  0.31039806572E+04  0.30219302579E+04 0.  0.
        4    1    3    3  502    0 -0.96287688734E+03 -0.10335612577E+04  0.90535954500E+03  0.16778135451E+04  0.12699999809E+01 0. -1.
       -4    1    3    3    0  502  0.96287688734E+03  0.10335612577E+04 -0.19639308807E+03  0.14261671121E+04  0.12699999809E+01 0.  1.
</event>
<event>
 5   0  0.4532420E-06  0.3031732E+04  0.7818609E-02  0.8234727E-01
        2   -1    0    0  501    0  0.00000000000E+00  0.00000000000E+00  0.23323769313E+04  0.23323769313E+04  0.25500000920E-02 0.  1.
       -2   -1    0    0    0  501  0.00000000000E+00  0.00000000000E+00 -0.98519665272E+03  0.98519665273E+03  0.25500000920E-02 0. -1.
    10030    2    1    2    0    0  0.00000000000E+00  0.00000000000E+00  0.13471802785E+04  0.33175735840E+04  0.30317321422E+04 0.  0.
        4    1    3    3  502    0  0.13442650097E+04 -0.48052982122E+03  0.12314503190E+04  0.18853192903E+04  0.12699999809E+01 0. -1.
       -4    1    3    3    0  502 -0.13442650097E+04  0.48052982122E+03  0.11572995957E+03  0.14322542937E+04  0.12699999809E+01 0.  1.
</event>
<event>
 5   0  0.4768570E-06  0.2951610E+04  0.7818609E-02  0.8257686E-01
        2   -1    0    0  501    0  0.00000000000E+00  0.00000000000E+00  0.19664987582E+04  0.19664987582E+04  0.25500000920E-02 0. -1.
       -2   -1    0    0    0  501  0.00000000000E+00  0.00000000000E+00 -0.11075523108E+04  0.11075523108E+04  0.25500000920E-02 0.  1.
    10030    2    1    2    0    0  0.00000000000E+00  0.00000000000E+00  0.85894644741E+03  0.30740510690E+04  0.29516098955E+04 0.  0.
        1    1    3    3  502    0 -0.12423596160E+04  0.38171994562E+03 -0.29869588442E+03  0.13335616836E+04  0.50400001928E-02 0. -1.
       -1    1    3    3    0  502  0.12423596160E+04 -0.38171994562E+03  0.11576423318E+04  0.17404893855E+04  0.50400001928E-02 0.  1.
</event>
<event>
 5   0  0.4935331E-06  0.3009037E+04  0.7818609E-02  0.8241155E-01
        2   -1    0    0  501    0  0.00000000000E+00  0.00000000000E+00  0.16795999735E+04  0.16795999735E+04  0.25500000920E-02 0.  1.
       -2   -1    0    0    0  501  0.00000000000E+00  0.00000000000E+00 -0.13476871426E+04  0.13476871426E+04  0.25500000920E-02 0. -1.
    10030    2    1    2    0    0  0.00000000000E+00  0.00000000000E+00  0.33191283094E+03  0.30272871161E+04  0.30090365827E+04 0.  0.
        5    1    3    3  502    0 -0.27058745958E+03 -0.31284899546E+03  0.16212641738E+04  0.16732040158E+04  0.46999998093E+01 0.  1.
       -5    1    3    3    0  502  0.27058745958E+03  0.31284899546E+03 -0.12893513428E+04  0.13540831003E+04  0.46999998093E+01 0. -1.
</event>
<event>
 5   0  0.4935331E-06  0.3017316E+04  0.7818609E-02  0.8238803E-01
       -2   -1    0    0    0  501  0.00000000000E+00  0.00000000000E+00  0.16624612662E+04  0.16624612662E+04  0.25500000920E-02 0. -1.
        2   -1    0    0  501    0  0.00000000000E+00  0.00000000000E+00 -0.13690839249E+04  0.13690839249E+04  0.25500000920E-02 0.  1.
    10030    2    1    2    0    0  0.00000000000E+00  0.00000000000E+00  0.29337734135E+03  0.30315451911E+04  0.30173160227E+04 0.  0.
        5    1    3    3  502    0 -0.11894956339E+03  0.56319697098E+02  0.16566752949E+04  0.16619013297E+04  0.46999998093E+01 0. -1.
       -5    1    3    3    0  502  0.11894956339E+03 -0.56319697098E+02 -0.13632979535E+04  0.13696438614E+04  0.46999998093E+01 0.  1.
</event>
<event>
 5   0  0.4935331E-06  0.3002980E+04  0.7818609E-02  0.8242880E-01
        2   -1    0    0  501    0  0.00000000000E+00  0.00000000000E+00  0.26680182872E+04  0.26680182872E+04  0.25500000920E-02 0. -1.
       -2   -1    0    0    0  501  0.00000000000E+00  0.00000000000E+00 -0.84499887846E+03  0.84499887846E+03  0.25500000920E-02 0.  1.
    10030    2    1    2    0    0  0.00000000000E+00  0.00000000000E+00  0.18230194087E+04  0.35130171657E+04  0.30029801600E+04 0.  0.
        5    1    3    3  502    0 -0.25997131717E+03  0.71573213935E+03 -0.60233880443E+03  0.97092312074E+03  0.46999998093E+01 0.  1.
       -5    1    3    3    0  502  0.25997131717E+03 -0.71573213935E+03  0.24253582132E+04  0.25420940449E+04  0.46999998093E+01 0. -1.
</event>
<event>
 5   0  0.1672907E-06  0.2986003E+04  0.7818609E-02  0.8247739E-01
        1   -1    0    0  501    0  0.00000000000E+00  0.00000000000E+00  0.19893569265E+04  0.19893569265E+04  0.50400001928E-02 0. -1.
       -1   -1    0    0    0  501  0.00000000000E+00  0.00000000000E+00 -0.11204895870E+04  0.11204895870E+04  0.50400001928E-02 0.  1.
    10030    2    1    2    0    0  0.00000000000E+00  0.00000000000E+00  0.86886733957E+03  0.31098465135E+04  0.29860031621E+04 0.  0.
        5    1    3    3  502    0  0.50709031981E+03 -0.20278457478E+03  0.18815848443E+04  0.19592462307E+04  0.46999998093E+01 0. -1.
       -5    1    3    3    0  502 -0.50709031981E+03  0.20278457478E+03 -0.10127175048E+04  0.11506002828E+04  0.46999998093E+01 0.  1.
</event>
<event>
 5   0  0.4768570E-06  0.3013116E+04  0.7818609E-02  0.8239995E-01
        2   -1    0    0  501    0  0.00000000000E+00  0.00000000000E+00  0.13081344438E+04  0.13081344438E+04  0.25500000920E-02 0. -1.
       -2   -1    0    0    0  501  0.00000000000E+00  0.00000000000E+00 -0.17350796251E+04  0.17350796251E+04  0.25500000920E-02 0.  1.
    10030    2    1    2    0    0  0.00000000000E+00  0.00000000000E+00 -0.42694518127E+03  0.30432140689E+04  0.30131162742E+04 0.  0.
        1    1    3    3  502    0 -0.99055650841E+03  0.10428908977E+04 -0.66616152468E+03  0.15851166512E+04  0.50400001928E-02 0.  1.
       -1    1    3    3    0  502  0.99055650841E+03 -0.10428908977E+04  0.23921634341E+03  0.14580974178E+04  0.50400001928E-02 0. -1.
</event>
<event>
 5   0  0.1734885E-06  0.3252524E+04  0.7818609E-02  0.8175082E-01
        1   -1    0    0  501    0  0.00000000000E+00  0.00000000000E+00  0.18150173506E+04  0.18150173506E+04  0.50400001928E-02 0. -1.
       -1   -1    0    0    0  501  0.00000000000E+00  0.00000000000E+00 -0.14571362686E+04  0.14571362686E+04  0.50400001928E-02 0.  1.
    10030    2    1    2    0    0  0.00000000000E+00  0.00000000000E+00  0.35788108202E+03  0.32721536192E+04  0.32525237030E+04 0.  0.
        2    1    3    3  502    0  0.14514120986E+04 -0.29823593704E+03 -0.49531768000E+03  0.15623320257E+04  0.25500000920E-02 0.  1.
       -2    1    3    3    0  502 -0.14514120986E+04  0.29823593704E+03  0.85319876202E+03  0.17098215936E+04  0.25500000920E-02 0. -1.
</event>
<event>
 5   0  0.1686012E-06  0.3010164E+04  0.7818609E-02  0.8240834E-01
       -1   -1    0    0    0  501  0.00000000000E+00  0.00000000000E+00  0.10053642583E+04  0.10053642583E+04  0.50400001928E-02 0.  1.
        1   -1    0    0  501    0  0.00000000000E+00  0.00000000000E+00 -0.22531851569E+04  0.22531851569E+04  0.50400001928E-02 0. -1.
    10030    2    1    2    0    0  0.00000000000E+00  0.00000000000E+00 -0.12478208986E+04  0.32585494153E+04  0.30101639983E+04 0.  0.
        4    1    3    3  502    0 -0.87649867424E+03 -0.54892029478E+03 -0.18076236825E+04  0.20825629418E+04  0.12699999809E+01 0. -1.
       -4    1    3    3    0  502  0.87649867424E+03  0.54892029478E+03  0.55980278394E+03  0.11759864735E+04  0.12699999809E+01 0.  1.
</event>
<event>
 5   0  0.1709858E-06  0.2935355E+04  0.7818609E-02  0.8262435E-01
        1   -1    0    0  501    0  0.00000000000E+00  0.00000000000E+00  0.24591267786E+04  0.24591267786E+04  0.50400001928E-02 0.  1.
       -1   -1    0    0    0  501  0.00000000000E+00  0.00000000000E+00 -0.87595201118E+03  0.87595201120E+03  0.50400001928E-02 0. -1.
    10030    2    1    2    0    0  0.00000000000E+00  0.00000000000E+00  0.15831747674E+04  0.33350787898E+04  0.29353548661E+04 0.  0.
        3    1    3    3  502    0 -0.51750905945E+03 -0.12323675050E+04  0.10278774054E+03  0.13405635471E+04  0.10100000352E+00 0. -1.
       -3    1    3    3    0  502  0.51750905945E+03  0.12323675050E+04  0.14803870269E+04  0.19945152427E+04  0.10100000352E+00 0.  1.
</event>
<event>
 5   0  0.4768570E-06  0.2963305E+04  0.7818609E-02  0.8254288E-01
        2   -1    0    0  501    0  0.00000000000E+00  0.00000000000E+00  0.94613949922E+03  0.94613949922E+03  0.25500000920E-02 0.  1.
       -2   -1    0    0    0  501  0.00000000000E+00  0.00000000000E+00 -0.23202650432E+04  0.23202650432E+04  0.25500000920E-02 0. -1.
    10030    2    1    2    0    0  0.00000000000E+00  0.00000000000E+00 -0.13741255440E+04  0.32664045425E+04  0.29633051858E+04 0.  0.
        1    1    3    3  502    0 -0.12987654886E+04  0.91163556129E+01 -0.14730304580E+04  0.19638466418E+04  0.50400001928E-02 0. -1.
       -1    1    3    3    0  502  0.12987654886E+04 -0.91163556129E+01  0.98904913996E+02  0.13025579006E+04  0.50400001928E-02 0.  1.
</event>
<event>
 5   0  0.1686012E-06  0.2950566E+04  0.7818609E-02  0.8257990E-01
        1   -1    0    0  501    0  0.00000000000E+00  0.00000000000E+00  0.98264947926E+03  0.98264947927E+03  0.50400001928E-02 0. -1.
       -1   -1    0    0    0  501  0.00000000000E+00  0.00000000000E+00 -0.22148899241E+04  0.22148899241E+04  0.50400001928E-02 0.  1.
    10030    2    1    2    0    0  0.00000000000E+00  0.00000000000E+00 -0.12322404448E+04  0.31975394033E+04  0.29505663392E+04 0.  0.
        4    1    3    3  502    0  0.12685025457E+04  0.21493902786E+03  0.16622171395E+03  0.12972774434E+04  0.12699999809E+01 0. -1.
       -4    1    3    3    0  502 -0.12685025457E+04 -0.21493902786E+03 -0.13984621587E+04  0.19002619599E+04  0.12699999809E+01 0.  1.
</event>
<event>
 5   0  0.1686012E-06  0.3059085E+04  0.7818609E-02  0.8227057E-01
        1   -1    0    0  501    0  0.00000000000E+00  0.00000000000E+00  0.20906306455E+04  0.20906306455E+04  0.50400001928E-02 0.  1.
       -1   -1    0    0    0  501  0.00000000000E+00  0.00000000000E+00 -0.11190400930E+04  0.11190400931E+04  0.50400001928E-02 0. -1.
    10030    2    1    2    0    0  0.00000000000E+00  0.00000000000E+00  0.97159055246E+03  0.32096707386E+04  0.30590845115E+04 0.  0.
        4    1    3    3  502    0 -0.85918850699E+03 -0.10292517442E+04  0.12581950703E+04  0.18386463748E+04  0.12699999809E+01 0.  1.
       -4    1    3    3    0  502  0.85918850699E+03  0.10292517442E+04 -0.28660451786E+03  0.13710243638E+04  0.12699999809E+01 0. -1.
</event>
<event>
 5   0  0.1672907E-06  0.2999583E+04  0.7818609E-02  0.8243850E-01
       -1   -1    0    0    0  501  0.00000000000E+00  0.00000000000E+00  0.14658134225E+04  0.14658134225E+04  0.50400001928E-02 0. -1.
        1   -1    0    0  501    0  0.00000000000E+00  0.00000000000E+00 -0.15345575486E+04  0.15345575486E+04  0.50400001928E-02 0.  1.
    10030    2    1    2    0    0  0.00000000000E+00  0.00000000000E+00 -0.68744126078E+02  0.30003709712E+04  0.29995833393E+04 0.  0.
        5    1    3    3  502    0 -0.46934816979E+03 -0.80439130295E+03 -0.12102741711E+04  0.15271276082E+04  0.46999998093E+01 0.  1.
       -5    1    3    3    0  502  0.46934816979E+03  0.80439130295E+03  0.11415300450E+04  0.14732433629E+04  0.46999998093E+01 0. -1.
</event>
<event>
 5   0  0.4702748E-06  0.2999847E+04  0.7818609E-02  0.8243775E-01
        2   -1    0    0  501    0  0.00000000000E+00  0.00000000000E+00  0.22367265907E+04  0.22367265907E+04  0.25500000920E-02 0. -1.
       -2   -1    0    0    0  501  0.00000000000E+00  0.00000000000E+00 -0.10058314627E+04  0.10058314627E+04  0.25500000920E-02 0.  1.
    10030    2    1    2    0    0  0.00000000000E+00  0.00000000000E+00  0.12308951280E+04  0.32425580534E+04  0.29998466483E+04 0.  0.
        2    1    3    3  502    0  0.51516796750E+03 -0.72065642677E+03  0.19237598219E+04  0.21179224661E+04  0.25500000920E-02 0. -1.
       -2    1    3    3    0  502 -0.51516796750E+03  0.72065642677E+03 -0.69286469389E+03  0.11246355873E+04  0.25500000920E-02 0.  1.
</event>
<event>
 5   0  0.4532420E-06  0.2996634E+04  0.7818609E-02  0.8244693E-01
       -2   -1    0    0    0  501  0.00000000000E+00  0.00000000000E+00  0.20865821888E+04  0.20865821888E+04  0.25500000920E-02 0. -1.
        2   -1    0    0  501    0  0.00000000000E+00  0.00000000000E+00 -0.10758997059E+04  0.10758997059E+04  0.25500000920E-02 0.  1.
    10030    2    1    2    0    0  0.00000000000E+00  0.00000000000E+00  0.10106824829E+04  0.31624818947E+04  0.29966335534E+04 0.  0.
        4    1    3    3  502    0 -0.54870944695E+03 -0.33531769289E+03  0.19335436270E+04  0.20376733258E+04  0.12699999809E+01 0. -1.
       -4    1    3    3    0  502  0.54870944695E+03  0.33531769289E+03 -0.92286114416E+03  0.11248085689E+04  0.12699999809E+01 0.  1.
</event>
<event>
 5   0  0.4935331E-06  0.3004233E+04  0.7818609E-02  0.8242523E-01
       -2   -1    0    0    0  501  0.00000000000E+00  0.00000000000E+00  0.67024064039E+03  0.67024064040E+03  0.25500000920E-02 0.  1.
        2   -1    0    0  501    0  0.00000000000E+00  0.00000000000E+00 -0.33664834359E+04  0.33664834359E+04  0.25500000920E-02 0. -1.
    10030    2    1    2    0    0  0.00000000000E+00  0.00000000000E+00 -0.26962427955E+04  0.40367240763E+04  0.30042330229E+04 0.  0.
        5    1    3    3  502    0  0.30059210805E+03 -0.58567335069E+03 -0.31623181305E+04  0.32301156229E+04  0.46999998093E+01 0. -1.
       -5    1    3    3    0  502 -0.30059210805E+03  0.58567335069E+03  0.46607533499E+03  0.80660845335E+03  0.46999998093E+01 0.  1.
</event>
<event>
 5   0  0.5003556E-06  0.2990145E+04  0.7818609E-02  0.8246551E-01
       -2   -1    0    0    0  501  0.00000000000E+00  0.00000000000E+00  0.10516588035E+04  0.10516588035E+04  0.25500000920E-02 0.  1.
        2   -1    0    0  501    0  0.00000000000E+00  0.00000000000E+00 -0.21254439033E+04  0.21254439034E+04  0.25500000920E-02 0. -1.
    10030    2    1    2    0    0  0.00000000000E+00  0.00000000000E+00 -0.10737850998E+04  0.31771027069E+04  0.29901450081E+04 0.  0.
        3    1    3    3  502    0 -0.93557697852E+03  0.95970063429E+03 -0.12408198796E+04  0.18264620374E+04  0.10100000352E+00 0. -1.
       -3    1    3    3    0  502  0.93557697852E+03 -0.95970063429E+03  0.16703477974E+03  0.13506406695E+04  0.10100000352E+00 0.  1.
</event>
<event>
 5   0  0.4935331E-06  0.3001340E+04  0.7818609E-02  0.8243348E-01
        2   -1    0    0  501    0  0.00000000000E+00  0.00000000000E+00  0.13753996268E+04  0.13753996268E+04  0.25500000920E-02 0.  1.
       -2   -1    0    0    0  501  0.00000000000E+00  0.00000000000E+00 -0.16373495324E+04  0.16373495324E+04  0.25500000920E-02 0. -1.
    10030    2    1    2    0    0  0.00000000000E+00  0.00000000000E+00 -0.26194990567E+03  0.30127491592E+04  0.30013396581E+04 0.  0.
        5    1    3    3  502    0 -0.10507138489E+04 -0.33002750855E+03 -0.11541978511E+04  0.15953408783E+04  0.46999998093E+01 0. -1.
       -5    1    3    3    0  502  0.10507138489E+04  0.33002750855E+03  0.89224794541E+03  0.14174082809E+04  0.46999998093E+01 0.  1.
</event>
<event>
 5   0  0.4702748E-06  0.2892017E+04  0.7818609E-02  0.8275257E-01
        2   -1    0    0  501    0  0.00000000000E+00  0.00000000000E+00  0.27121047003E+04  0.27121047003E+04  0.25500000920E-02 0. -1.
       -2   -1    0    0    0  501  0.00000000000E+00  0.00000000000E+00 -0.77096589526E+03  0.77096589526E+03  0.25500000920E-02 0.  1.
    10030    2    1    2    0    0  0.00000000000E+00  0.00000000000E+00  0.19411388050E+04  0.34830705956E+04  0.28920167553E+04 0.  0.
        2    1    3    3  502    0 -0.58047152024E+03  0.10389297663E+04 -0.18644995896E+02  0.11902394217E+04  0.25500000920E-02 0.  1.
       -2    1    3    3    0  502  0.58047152024E+03 -0.10389297663E+04  0.19597838009E+04  0.22928311738E+04  0.25500000920E-02 0. -1.
</event>
<event>
 5   0  0.1700885E-06  0.2922312E+04  0.7818609E-02  0.8266270E-01
        1   -1    0    0  501    0  0.00000000000E+00  0.00000000000E+00  0.13459596452E+04  0.13459596452E+04  0.50400001928E-02 0.  1.
       -1   -1    0    0    0  501  0.00000000000E+00  0.00000000000E+00 -0.15862114169E+04  0.15862114169E+04  0.50400001928E-02 0. -1.
    10030    2    1    2    0    0  0.00000000000E+00  0.00000000000E+00 -0.24025177175E+03  0.29321710621E+04  0.29223117943E+04 0.  0.
        1    1    3    3  502    0 -0.14432133632E+04  0.16734144254E+03 -0.27591912994E+03  0.14788506809E+04  0.50400001928E-02 0. -1.
       -1    1    3    3    0  502  0.14432133632E+04 -0.16734144254E+03  0.35667358192E+02  0.14533203812E+04  0.50400001928E-02 0.  1.
</event>
<event>
 5   0  0.1686012E-06  0.2950636E+04  0.7818609E-02  0.8257969E-01
       -1   -1    0    0    0  501  0.00000000000E+00  0.00000000000E+00  0.22880927102E+04  0.22880927102E+04  0.50400001928E-02 0.  1.
        1   -1    0    0  501    0  0.00000000000E+00  0.00000000000E+00 -0.95125648373E+03  0.95125648374E+03  0.50400001928E-02 0. -1.
    10030    2    1    2    0    0  0.00000000000E+00  0.00000000000E+00  0.13368362265E+04  0.32393491940E+04  0.29506358813E+04 0.  0.
        4    1    3    3  502    0  0.13981961786E+04 -0.46298497567E+03  0.57491542813E+03  0.15810872854E+04  0.12699999809E+01 0. -1.
       -4    1    3    3    0  502 -0.13981961786E+04  0.46298497567E+03  0.76192079839E+03  0.16582619086E+04  0.12699999809E+01 0.  1.
</event>
<event>
 5   0  0.4532420E-06  0.3043789E+04  0.7818609E-02  0.8231336E-01
        2   -1    0    0  501    0  0.00000000000E+00  0.00000000000E+00  0.16183554453E+04  0.16183554453E+04  0.25500000920E-02 0. -1.
       -2   -1    0    0    0  501  0.00000000000E+00  0.00000000000E+00 -0.14311830735E+04  0.14311830735E+04  0.25500000920E-02 0.  1.
    10030    2    1    2    0    0  0.00000000000E+00  0.00000000000E+00  0.18717237186E+03  0.30495385188E+04  0.30437890336E+04 0.  0.
        4    1    3    3  502    0 -0.13010381982E+04  0.50076082819E+03 -0.51805818683E+03  0.14872281930E+04  0.12699999809E+01 0.  1.
       -4    1    3    3    0  502  0.13010381982E+04 -0.50076082819E+03  0.70523055869E+03  0.15623103258E+04  0.12699999809E+01 0. -1.
</event>
<event>
 5   0  0.4532420E-06  0.3045213E+04  0.7818609E-02  0.8230937E-01
       -2   -1    0    0    0  501  0.00000000000E+00  0.00000000000E+00  0.88842694956E+03  0.88842694957E+03  0.25500000920E-02 0.  1.
        2   -1    0    0  501    0  0.00000000000E+00  0.00000000000E+00 -0.26094779874E+04  0.26094779874E+04  0.25500000920E-02 0. -1.
    10030    2    1    2    0    0  0.00000000000E+00  0.00000000000E+00 -0.17210510378E+04  0.34979049369E+04  0.30452130095E+04 0.  0.
        4    1    3    3  502    0 -0.18165322461E+03 -0.15066103195E+04 -0.10033309057E+04  0.18192160587E+04  0.12699999809E+01 0. -1.
       -4    1    3    3    0  502  0.18165322461E+03  0.15066103195E+04 -0.71772013212E+03  0.16786888782E+04  0.12699999809E+01 0.  1.
</event>
<event>
 5   0  0.1734885E-06  0.2975640E+04  0.7818609E-02  0.8250721E-01
       -1   -1    0    0    0  501  0.00000000000E+00  0.00000000000E+00  0.85033115190E+03  0.85033115192E+03  0.50400001928E-02 0. -1.
        1   -1    0    0  501    0  0.00000000000E+00  0.00000000000E+00 -0.26032306040E+04  0.26032306040E+04  0.50400001928E-02 0.  1.
    10030    2    1    2    0    0  0.00000000000E+00  0.00000000000E+00 -0.17528994521E+04  0.34535617559E+04  0.29756398157E+04 0.  0.
        2    1    3    3  502    0 -0.44174536113E+02 -0.13807720513E+04 -0.23534950624E+03  0.14013822595E+04  0.25500000920E-02 0. -1.
       -2    1    3    3    0  502  0.44174536113E+02  0.13807720513E+04 -0.15175499458E+04  0.20521794964E+04  0.25500000920E-02 0.  1.
</event>
<event>
 5   0  0.1734885E-06  0.2767335E+04  0.7818609E-02  0.8313482E-01
        1   -1    0    0  501    0  0.00000000000E+00  0.00000000000E+00  0.16626815266E+04  0.16626815266E+04  0.50400001928E-02 0. -1.
       -1   -1    0    0    0  501  0.00000000000E+00  0.00000000000E+00 -0.11514743473E+04  0.11514743473E+04  0.50400001928E-02 0.  1.
    10030    2    1    2    0    0  0.00000000000E+00  0.00000000000E+00  0.51120717926E+03  0.28141558739E+04  0.27673345483E+04 0.  0.
        2    1    3    3  502    0  0.13001382609E+04 -0.43641797731E+03  0.68880545048E+02  0.13731586499E+04  0.25500000920E-02 0. -1.
       -2    1    3    3    0  502 -0.13001382609E+04  0.43641797731E+03  0.44232663421E+03  0.14409972240E+04  0.25500000920E-02 0.  1.
</event>
<event>
 5   0  0.4702748E-06  0.3023239E+04  0.7818609E-02  0.8237126E-01
       -2   -1    0    0    0  501  0.00000000000E+00  0.00000000000E+00  0.13088118558E+04  0.13088118558E+04  0.25500000920E-02 0. -1.
        2   -1    0    0  501    0  0.00000000000E+00  0.00000000000E+00 -0.17458530397E+04  0.17458530397E+04  0.25500000920E-02 0.  1.
    10030    2    1    2    0    0  0.00000000000E+00  0.00000000000E+00 -0.43704118397E+03  0.30546648955E+04  0.30232387645E+04 0.  0.
        2    1    3    3  502    0 -0.36254801477E+03  0.14674249791E+04 -0.20367003611E+03  0.15252077287E+04  0.25500000920E-02 0.  1.
       -2    1    3    3    0  502  0.36254801477E+03 -0.14674249791E+04 -0.23337114785E+03  0.15294571667E+04  0.25500000920E-02 0. -1.
</event>
<event>
 5   0  0.5003556E-06  0.2963540E+04  0.7818609E-02  0.8254219E-01
       -2   -1    0    0    0  501  0.00000000000E+00  0.00000000000E+00  0.21827444748E+04  0.21827444748E+04  0.25500000920E-02 0. -1.
        2   -1    0    0  501    0  0.00000000000E+00  0.00000000000E+00 -0.10059092907E+04  0.10059092907E+04  0.25500000920E-02 0.  1.
    10030    2    1    2    0    0  0.00000000000E+00  0.00000000000E+00  0.11768351842E+04  0.31886537655E+04  0.29635404140E+04 0.  0.
        3    1    3    3  502    0  0.64204328211E+03  0.54574011438E+03 -0.72301554519E+03  0.11103167734E+04  0.10100000352E+00 0.  1.
       -3    1    3    3    0  502 -0.64204328211E+03 -0.54574011438E+03  0.18998507294E+04  0.20783369921E+04  0.10100000352E+00 0. -1.
</event>
<event>
 5   0  0.4702748E-06  0.2531300E+04  0.7818609E-02  0.8391919E-01
       -2   -1    0    0    0  501  0.00000000000E+00  0.00000000000E+00  0.84026948188E+03  0.84026948188E+03  0.25500000920E-02 0. -1.
        2   -1    0    0  501    0  0.00000000000E+00  0.00000000000E+00 -0.19063768611E+04  0.19063768611E+04  0.25500000920E-02 0.  1.
    10030    2    1    2    0    0  0.00000000000E+00  0.00000000000E+00 -0.10661073792E+04  0.27466463430E+04  0.25313002961E+04 0.  0.
        2    1    3    3  502    0  0.39883527378E+03  0.88586764241E+03  0.34715361870E+03  0.10316717940E+04  0.25500000920E-02 0. -1.
       -2    1    3    3    0  502 -0.39883527378E+03 -0.88586764241E+03 -0.14132609979E+04  0.17149745490E+04  0.25500000920E-02 0.  1.
</event>
<event>
 5   0  0.4768570E-06  0.2995859E+04  0.7818609E-02  0.8244914E-01
       -2   -1    0    0    0  501  0.00000000000E+00  0.00000000000E+00  0.18391926638E+04  0.18391926638E+04  0.25500000920E-02 0. -1.
        2   -1    0    0  501    0  0.00000000000E+00  0.00000000000E+00 -0.12199879371E+04  0.12199879371E+04  0.25500000920E-02 0.  1.
    10030    2    1    2    0    0  0.00000000000E+00  0.00000000000E+00  0.61920472670E+03  0.30591806010E+04  0.29958590514E+04 0.  0.
        1    1    3    3  502    0  0.14654150874E+04 -0.30896656815E+03  0.34008538243E+03  0.15357603283E+04  0.50400001928E-02 0. -1.
       -1    1    3    3    0  502 -0.14654150874E+04  0.30896656815E+03  0.27911934427E+03  0.15234202726E+04  0.50400001928E-02 0.  1.
</event>
<event>
 5   0  0.1672907E-06  0.2956357E+04  0.7818609E-02  0.8256304E-01
       -1   -1    0    0    0  501  0.00000000000E+00  0.00000000000E+00  0.16681925790E+04  0.16681925790E+04  0.50400001928E-02 0.  1.
        1   -1    0    0  501    0  0.00000000000E+00  0.00000000000E+00 -0.13098075255E+04  0.13098075255E+04  0.50400001928E-02 0. -1.
    10030    2    1    2    0    0  0.00000000000E+00  0.00000000000E+00  0.35838505347E+03  0.29780001045E+04  0.29563566726E+04 0.  0.
        5    1    3    3  502    0  0.19235983517E+03  0.65761472465E+03  0.14985637178E+04  0.16477787286E+04  0.46999998093E+01 0.  1.
       -5    1    3    3    0  502 -0.19235983517E+03 -0.65761472465E+03 -0.11401786643E+04  0.13302213759E+04  0.46999998093E+01 0. -1.
</event>
<event>
 5   0  0.4935331E-06  0.2972417E+04  0.7818609E-02  0.8251651E-01
        2   -1    0    0  501    0  0.00000000000E+00  0.00000000000E+00  0.21910611889E+04  0.21910611889E+04  0.25500000920E-02 0. -1.
       -2   -1    0    0    0  501  0.00000000000E+00  0.00000000000E+00 -0.10081033920E+04  0.10081033920E+04  0.25500000920E-02 0.  1.
    10030    2    1    2    0    0  0.00000000000E+00  0.00000000000E+00  0.11829577969E+04  0.31991645809E+04  0.29724173439E+04 0.  0.
        5    1    3    3  502    0 -0.13421460782E+04 -0.61824343122E+03  0.42057977224E+03  0.15363887758E+04  0.46999998093E+01 0. -1.
       -5    1    3    3    0  502  0.13421460782E+04  0.61824343122E+03  0.76237802469E+03  0.16627758051E+04  0.46999998093E+01 0.  1.
</event>
<event>
 5   0  0.4532420E-06  0.3032551E+04  0.7818609E-02  0.8234496E-01
       -2   -1    0    0    0  501  0.00000000000E+00  0.00000000000E+00  0.12009435534E+04  0.12009435534E+04  0.25500000920E-02 0.  1.
        2   -1    0    0  501    0  0.00000000000E+00  0.00000000000E+00 -0.19144044725E+04  0.19144044725E+04  0.25500000920E-02 0. -1.
    10030    2    1    2    0    0  0.00000000000E+00  0.00000000000E+00 -0.71346091910E+03  0.31153480259E+04  0.30325512096E+04 0.  0.
        4    1    3    3  502    0  0.14924226696E+04  0.19670191913E+03 -0.16990528305E+03  0.15148882757E+04  0.12699999809E+01 0.  1.
       -4    1    3    3    0  502 -0.14924226696E+04 -0.19670191913E+03 -0.54355563605E+03  0.16004597502E+04  0.12699999809E+01 0. -1.
</event>
<event>
 5   0  0.4702748E-06  0.2983659E+04  0.7818609E-02  0.8248413E-01
        2   -1    0    0  501    0  0.00000000000E+00  0.00000000000E+00  0.22684103850E+04  0.22684103850E+04  0.25500000920E-02 0.  1.
       -2   -1    0    0    0  501  0.00000000000E+00  0.00000000000E+00 -0.98110769524E+03  0.98110769525E+03  0.25500000920E-02 0. -1.
    10030    2    1    2    0    0  0.00000000000E+00  0.00000000000E+00  0.12873026898E+04  0.32495180803E+04  0.29836587504E+04 0.  0.
        2    1    3    3  502    0 -0.13491248923E+04 -0.42750922196E+02 -0.48242731372E+02  0.13506639025E+04  0.25500000920E-02 0. -1.
       -2    1    3    3    0  502  0.13491248923E+04  0.42750922196E+02  0.13355454212E+04  0.18988541778E+04  0.25500000920E-02 0.  1.
</event>
<event>
 5   0  0.1672907E-06  0.3046102E+04  0.7818609E-02  0.8230687E-01
       -1   -1    0    0    0  501  0.00000000000E+00  0.00000000000E+00  0.13412125469E+04  0.13412125469E+04  0.50400001928E-02 0.  1.
        1   -1    0    0  501    0  0.00000000000E+00  0.00000000000E+00 -0.17295424282E+04  0.17295424282E+04  0.50400001928E-02 0. -1.
    10030    2    1    2    0    0  0.00000000000E+00  0.00000000000E+00 -0.38832988124E+03  0.30707549751E+04  0.30461017745E+04 0.  0.
        5    1    3    3  502    0  0.88776822863E+03  0.87895872534E+03  0.68406956759E+03  0.14243153204E+04  0.46999998093E+01 0.  1.
       -5    1    3    3    0  502 -0.88776822863E+03 -0.87895872534E+03 -0.10723994488E+04  0.16464396547E+04  0.46999998093E+01 0. -1.
</event>
<event>
 5   0  0.1672907E-06  0.3483080E+04  0.7818609E-02  0.8117812E-01
       -1   -1    0    0    0  501  0.00000000000E+00  0.00000000000E+00  0.15262166673E+04  0.15262166674E+04  0.50400001928E-02 0. -1.
        1   -1    0    0  501    0  0.00000000000E+00  0.00000000000E+00 -0.19872413057E+04  0.19872413057E+04  0.50400001928E-02 0.  1.
    10030    2    1    2    0    0  0.00000000000E+00  0.00000000000E+00 -0.46102463839E+03  0.35134579731E+04  0.34830795586E+04 0.  0.
        5    1    3    3  502    0 -0.29770151697E+03 -0.31675378005E+03 -0.19316309619E+04  0.19799442955E+04  0.46999998093E+01 0.  1.
       -5    1    3    3    0  502  0.29770151697E+03  0.31675378005E+03  0.14706063235E+04  0.15335136775E+04  0.46999998093E+01 0. -1.
</event>
<event>
 5   0  0.4768570E-06  0.2995505E+04  0.7818609E-02  0.8245016E-01
       -2   -1    0    0    0  501  0.00000000000E+00  0.00000000000E+00  0.15469235196E+04  0.15469235196E+04  0.25500000920E-02 0.  1.
        2   -1    0    0  501    0  0.00000000000E+00  0.00000000000E+00 -0.14501446184E+04  0.14501446184E+04  0.25500000920E-02 0. -1.
    10030    2    1    2    0    0  0.00000000000E+00  0.00000000000E+00  0.96778901251E+02  0.29970681380E+04  0.29955051774E+04 0.  0.
        1    1    3    3  502    0 -0.11795951199E+04 -0.65018055858E+03  0.70377581967E+03  0.15196972758E+04  0.50400001928E-02 0.  1.
       -1    1    3    3    0  502  0.11795951199E+04  0.65018055858E+03 -0.60699691842E+03  0.14773708622E+04  0.50400001928E-02 0. -1.
</event>
<event>
 5   0  0.4935331E-06  0.2996001E+04  0.7818609E-02  0.8244874E-01
        2   -1    0    0  501    0  0.00000000000E+00  0.00000000000E+00  0.14776714989E+04  0.14776714989E+04  0.25500000920E-02 0. -1.
       -2   -1    0    0    0  501  0.00000000000E+00  0.00000000000E+00 -0.15186090906E+04  0.15186090906E+04  0.25500000920E-02 0.  1.
    10030    2    1    2    0    0  0.00000000000E+00  0.00000000000E+00 -0.40937591633E+02  0.29962805895E+04  0.29960009153E+04 0.  0.
        5    1    3    3  502    0 -0.10282072729E+04 -0.49726626451E+03 -0.98983702229E+03  0.15113845819E+04  0.46999998093E+01 0.  1.
       -5    1    3    3    0  502  0.10282072729E+04  0.49726626451E+03  0.94889943066E+03  0.14848960076E+04  0.46999998093E+01 0. -1.
</event>
<event>
 5   0  0.4935331E-06  0.3131539E+04  0.7818609E-02  0.8207135E-01
       -2   -1    0    0    0  501  0.00000000000E+00  0.00000000000E+00  0.11026598426E+04  0.11026598426E+04  0.25500000920E-02 0.  1.
        2   -1    0    0  501    0  0.00000000000E+00  0.00000000000E+00 -0.22233814047E+04  0.22233814047E+04  0.25500000920E-02 0. -1.
    10030    2    1    2    0    0  0.00000000000E+00  0.00000000000E+00 -0.11207215621E+04  0.33260412474E+04  0.31315385291E+04 0.  0.
        5    1    3    3  502    0  0.46907023396E+03  0.51811292367E+03  0.92778639643E+03  0.11615840794E+04  0.46999998093E+01 0.  1.
       -5    1    3    3    0  502 -0.46907023396E+03 -0.51811292367E+03 -0.20485079585E+04  0.21644571680E+04  0.46999998093E+01 0. -1.
</event>
<event>
 5   0  0.1686012E-06  0.3010516E+04  0.7818609E-02  0.8240734E-01
       -1   -1    0    0    0  501  0.00000000000E+00  0.00000000000E+00  0.92382692308E+03  0.92382692309E+03  0.50400001928E-02 0. -1.
        1   -1    0    0  501    0  0.00000000000E+00  0.00000000000E+00 -0.24526254878E+04  0.24526254878E+04  0.50400001928E-02 0.  1.
    10030    2    1    2    0    0  0.00000000000E+00  0.00000000000E+00 -0.15287985647E+04  0.33764524109E+04  0.30105158746E+04 0.  0.
        4    1    3    3  502    0 -0.39814364546E+03 -0.57034070258E+03  0.73277619136E+03  0.10103313511E+04  0.12699999809E+01 0. -1.
       -4    1    3    3    0  502  0.39814364546E+03  0.57034070258E+03 -0.22615747561E+04  0.23661210598E+04  0.12699999809E+01 0.  1.
</event>
<event>
 5   0  0.1686012E-06  0.2938649E+04  0.7818609E-02  0.8261470E-01
       -1   -1    0    0    0  501  0.00000000000E+00  0.00000000000E+00  0.88065709906E+03  0.88065709908E+03  0.50400001928E-02 0.  1.
        1   -1    0    0  501    0  0.00000000000E+00  0.00000000000E+00 -0.24514811296E+04  0.24514811296E+04  0.50400001928E-02 0. -1.
    10030    2    1    2    0    0  0.00000000000E+00  0.00000000000E+00 -0.15708240306E+04  0.33321382287E+04  0.29386488460E+04 0.  0.
        4    1    3    3  502    0 -0.65231156216E+03 -0.11091587338E+04  0.18914397357E+02  0.12868965919E+04  0.12699999809E+01 0.  1.
       -4    1    3    3    0  502  0.65231156216E+03  0.11091587338E+04 -0.15897384279E+04  0.20452416368E+04  0.12699999809E+01 0. -1.
</event>
<event>
 5   0  0.1734885E-06  0.2989916E+04  0.7818609E-02  0.8246616E-01
        1   -1    0    0  501    0  0.00000000000E+00  0.00000000000E+00  0.22312929156E+04  0.22312929156E+04  0.50400001928E-02 0. -1.
       -1   -1    0    0    0  501  0.00000000000E+00  0.00000000000E+00 -0.10016161746E+04  0.10016161746E+04  0.50400001928E-02 0.  1.
    10030    2    1    2    0    0  0.00000000000E+00  0.00000000000E+00  0.12296767410E+04  0.32329090902E+04  0.29899157677E+04 0.  0.
        2    1    3    3  502    0 -0.16503688044E+02 -0.50857212792E+02  0.22302587204E+04  0.22308995467E+04  0.25500000920E-02 0. -1.
       -2    1    3    3    0  502  0.16503688044E+02  0.50857212792E+02 -0.10005819793E+04  0.10020095435E+04  0.25500000920E-02 0.  1.
</event>
<event>
 5   0  0.4768570E-06  0.3086893E+04  0.7818609E-02  0.8219344E-01
       -2   -1    0    0    0  501  0.00000000000E+00  0.00000000000E+00  0.86591210287E+03  0.86591210288E+03  0.25500000920E-02 0.  1.
        2   -1    0    0  501    0  0.00000000000E+00  0.00000000000E+00 -0.27511181525E+04  0.27511181525E+04  0.25500000920E-02 0. -1.
    10030    2    1    2    0    0  0.00000000000E+00  0.00000000000E+00 -0.18852060496E+04  0.36170302554E+04  0.30868926154E+04 0.  0.
        1    1    3    3  502    0 -0.33058250689E+03 -0.13592126742E+03  0.81674830085E+03  0.89153641079E+03  0.50400001928E-02 0.  1.
       -1    1    3    3    0  502  0.33058250689E+03  0.13592126742E+03 -0.27019543505E+04  0.27254938446E+04  0.50400001928E-02 0. -1.
</event>
<event>
 5   0  0.4935331E-06  0.3008858E+04  0.7818609E-02  0.8241206E-01
        2   -1    0    0  501    0  0.00000000000E+00  0.00000000000E+00  0.15775262677E+04  0.15775262677E+04  0.25500000920E-02 0. -1.
       -2   -1    0    0    0  501  0.00000000000E+00  0.00000000000E+00 -0.14347184802E+04  0.14347184802E+04  0.25500000920E-02 0.  1.
    10030    2    1    2    0    0  0.00000000000E+00  0.00000000000E+00  0.14280778753E+03  0.30122447478E+04  0.30088576498E+04 0.  0.
        5    1    3    3  502    0  0.89103520329E+03 -0.10017428872E+04  0.75470534275E+03  0.15385170750E+04  0.46999998093E+01 0. -1.
       -5    1    3    3    0  502 -0.89103520329E+03  0.10017428872E+04 -0.61189755521E+03  0.14737276729E+04  0.46999998093E+01 0.  1.
</event>
<event>
 5   0  0.5003556E-06  0.2929201E+04  0.7818609E-02  0.8264242E-01
        2   -1    0    0  501    0  0.00000000000E+00  0.00000000000E+00  0.13343146874E+04  0.13343146874E+04  0.25500000920E-02 0. -1.
       -2   -1    0    0    0  501  0.00000000000E+00  0.00000000000E+00 -0.16076077405E+04  0.16076077405E+04  0.25500000920E-02 0.  1.
    10030    2    1    2    0    0  0.00000000000E+00  0.00000000000E+00 -0.27329305304E+03  0.29419224279E+04  0.29292009967E+04 0.  0.
        3    1    3    3  502    0  0.93786249313E+03  0.10220019229E+04  0.33548080319E+03  0.14271024371E+04  0.10100000352E+00 0. -1.
       -3    1    3    3    0  502 -0.93786249313E+03 -0.10220019229E+04 -0.60877385623E+03  0.15148199908E+04  0.10100000352E+00 0.  1.
</event>
<event>
 5   0  0.1700885E-06  0.2998725E+04  0.7818609E-02  0.8244095E-01
       -1   -1    0    0    0  501  0.00000000000E+00  0.00000000000E+00  0.15267989030E+04  0.15267989031E+04  0.50400001928E-02 0. -1.
        1   -1    0    0  501    0  0.00000000000E+00  0.00000000000E+00 -0.14724194960E+04  0.14724194960E+04  0.50400001928E-02 0.  1.
    10030    2    1    2    0    0  0.00000000000E+00  0.00000000000E+00  0.54379407026E+02  0.29992183991E+04  0.29987253768E+04 0.  0.
        1    1    3    3  502    0 -0.70207348296E+03 -0.40894525539E+03 -0.12331544030E+04  0.14767576576E+04  0.50400001928E-02 0.  1.
       -1    1    3    3    0  502  0.70207348296E+03  0.40894525539E+03  0.12875338101E+04  0.15224607415E+04  0.50400001928E-02 0. -1.
</event>
<event>
 5   0  0.4768570E-06  0.2995620E+04  0.7818609E-02  0.8244983E-01
       -2   -1    0    0    0  501  0.00000000000E+00  0.00000000000E+00  0.12695097520E+04  0.12695097520E+04  0.25500000920E-02 0.  1.
        2   -1    0    0  501    0  0.00000000000E+00  0.00000000000E+00 -0.17671666412E+04  0.17671666412E+04  0.25500000920E-02 0. -1.
    10030    2    1    2    0    0  0.00000000000E+00  0.00000000000E+00 -0.49765688921E+03  0.30366763933E+04  0.29956203261E+04 0.  0.
        1    1    3    3  502    0  0.68307331689E+03 -0.13321670789E+04 -0.20153061773E+03  0.15105869297E+04  0.50400001928E-02 0. -1.
       -1    1    3    3    0  502 -0.68307331689E+03  0.13321670789E+04 -0.29612627148E+03  0.15260894636E+04  0.50400001928E-02 0.  1.
</event>
<event>
 5   0  0.1686012E-06  0.3060568E+04  0.7818609E-02  0.8226644E-01
        1   -1    0    0  501    0  0.00000000000E+00  0.00000000000E+00  0.13956415200E+04  0.13956415200E+04  0.50400001928E-02 0. -1.
       -1   -1    0    0    0  501  0.00000000000E+00  0.00000000000E+00 -0.16779159903E+04  0.16779159903E+04  0.50400001928E-02 0.  1.
    10030    2    1    2    0    0  0.00000000000E+00  0.00000000000E+00 -0.28227447032E+03  0.30735575103E+04  0.30605680670E+04 0.  0.
        4    1    3    3  502    0  0.11365143811E+04  0.10245740913E+04 -0.15994110834E+03  0.15385056964E+04  0.12699999809E+01 0. -1.
       -4    1    3    3    0  502 -0.11365143811E+04 -0.10245740913E+04 -0.12233336198E+03  0.15350518139E+04  0.12699999809E+01 0.  1.
</event>
<event>
 5   0  0.5003556E-06  0.2967103E+04  0.7818609E-02  0.8253188E-01
        2   -1    0    0  501    0  0.00000000000E+00  0.00000000000E+00  0.14941042508E+04  0.14941042508E+04  0.25500000920E-02 0. -1.
       -2   -1    0    0    0  501  0.00000000000E+00  0.00000000000E+00 -0.14730733089E+04  0.14730733089E+04  0.25500000920E-02 0.  1.
    10030    2    1    2    0    0  0.00000000000E+00  0.00000000000E+00  0.21030941929E+02  0.29671775598E+04  0.29671030266E+04 0.  0.
        3    1    3    3  502    0  0.10500733266E+04  0.10370322685E+04  0.16163235481E+03  0.14846598753E+04  0.10100000352E+00 0.  1.
       -3    1    3    3    0  502 -0.10500733266E+04 -0.10370322685E+04 -0.14060141288E+03  0.14825176844E+04  0.10100000352E+00 0. -1.
</event>
<event>
 5   0  0.4532420E-06  0.3004963E+04  0.7818609E-02  0.8242315E-01
        2   -1    0    0  501    0  0.00000000000E+00  0.00000000000E+00  0.23450205559E+04  0.23450205559E+04  0.25500000920E-02 0.  1.
       -2   -1    0    0    0  501  0.00000000000E+00  0.00000000000E+00 -0.96265713781E+03  0.96265713782E+03  0.25500000920E-02 0. -1.
    10030    2    1    2    0    0  0.00000000000E+00  0.00000000000E+00  0.13823634181E+04  0.33076776937E+04  0.30049630789E+04 0.  0.
        4    1    3    3  502    0  0.21765795647E+02  0.13851511598E+04  0.50923175473E+02  0.13862583699E+04  0.12699999809E+01 0. -1.
       -4    1    3    3    0  502 -0.21765795647E+02 -0.13851511598E+04  0.13314402426E+04  0.19214193238E+04  0.12699999809E+01 0.  1.
</event>
<event>
 5   0  0.1700885E-06  0.2974852E+04  0.7818609E-02  0.8250949E-01
        1   -1    0    0  501    0  0.00000000000E+00  0.00000000000E+00  0.17439045790E+04  0.17439045790E+04  0.50400001928E-02 0. -1.
       -1   -1    0    0    0  501  0.00000000000E+00  0.00000000000E+00 -0.12686684968E+04  0.12686684968E+04  0.50400001928E-02 0.  1.
    10030    2    1    2    0    0  0.00000000000E+00  0.00000000000E+00  0.47523608220E+03  0.30125730759E+04  0.29748524676E+04 0.  0.
        1    1    3    3  502    0 -0.50067115754E+03 -0.12716360650E+04  0.83218004703E+03  0.16000792232E+04  0.50400001928E-02 0. -1.
       -1    1    3    3    0  502  0.50067115754E+03  0.12716360650E+04 -0.35694396483E+03  0.14124938527E+04  0.50400001928E-02 0.  1.
</event>
<event>
 5   0  0.4768570E-06  0.3019385E+04  0.7818609E-02  0.8238217E-01
        2   -1    0    0  501    0  0.00000000000E+00  0.00000000000E+00  0.25244183854E+04  0.25244183854E+04  0.25500000920E-02 0. -1.
       -2   -1    0    0    0  501  0.00000000000E+00  0.00000000000E+00 -0.90285035550E+03  0.90285035551E+03  0.25500000920E-02 0.  1.
    10030    2    1    2    0    0  0.00000000000E+00  0.00000000000E+00  0.16215680299E+04  0.34272687409E+04  0.30193853923E+04 0.  0.
        1    1    3    3  502    0 -0.19072650808E+03 -0.90194718057E+02  0.25076024418E+04  0.25164621385E+04  0.50400001928E-02 0. -1.
       -1    1    3    3    0  502  0.19072650808E+03  0.90194718057E+02 -0.88603441189E+03  0.91080660248E+03  0.50400001928E-02 0.  1.
</event>
<event>
 5   0  0.1672907E-06  0.3001824E+04  0.7818609E-02  0.8243210E-01
        1   -1    0    0  501    0  0.00000000000E+00  0.00000000000E+00  0.21904406451E+04  0.21904406451E+04  0.50400001928E-02 0. -1.
       -1   -1    0    0    0  501  0.00000000000E+00  0.00000000000E+00 -0.10284402374E+04  0.10284402374E+04  0.50400001928E-02 0.  1.
    10030    2    1    2    0    0  0.00000000000E+00  0.00000000000E+00  0.11620004077E+04  0.32188808825E+04  0.30018243100E+04 0.  0.
        5    1    3    3  502    0  0.72691234624E+03  0.12677760470E+04  0.21412417508E+03  0.14769999719E+04  0.46999998093E+01 0.  1.
       -5    1    3    3    0  502 -0.72691234624E+03 -0.12677760470E+04  0.94787623263E+03  0.17418809107E+04  0.46999998093E+01 0. -1.
</event>
<event>
 5   0  0.1672907E-06  0.3007911E+04  0.7818609E-02  0.8241475E-01
        1   -1    0    0  501    0  0.00000000000E+00  0.00000000000E+00  0.16967074342E+04  0.16967074342E+04  0.50400001928E-02 0. -1.
       -1   -1    0    0    0  501  0.00000000000E+00  0.00000000000E+00 -0.13331008218E+04  0.13331008219E+04  0.50400001928E-02 0.  1.
    10030    2    1    2    0    0  0.00000000000E+00  0.00000000000E+00  0.36360661234E+03  0.30298082561E+04  0.30079109528E+04 0.  0.
        5    1    3    3  502    0  0.54549440682E+02 -0.73435196439E+03  0.15026893286E+04  0.16734233647E+04  0.46999998093E+01 0. -1.
       -5    1    3    3    0  502 -0.54549440682E+02  0.73435196439E+03 -0.11390827163E+04  0.13563848914E+04  0.46999998093E+01 0.  1.
</event>
<event>
 5   0  0.1700885E-06  0.2913017E+04  0.7818609E-02  0.8269015E-01
        1   -1    0    0  501    0  0.00000000000E+00  0.00000000000E+00  0.19980649764E+04  0.19980649764E+04  0.50400001928E-02 0.  1.
       -1   -1    0    0    0  501  0.00000000000E+00  0.00000000000E+00 -0.10617360567E+04  0.10617360567E+04  0.50400001928E-02 0. -1.
    10030    2    1    2    0    0  0.00000000000E+00  0.00000000000E+00  0.93632891962E+03  0.30598010331E+04  0.29130174247E+04 0.  0.
        1    1    3    3  502    0  0.11597075054E+04 -0.60177195703E+03 -0.20798467679E+03  0.13229922948E+04  0.50400001928E-02 0. -1.
       -1    1    3    3    0  502 -0.11597075054E+04  0.60177195703E+03  0.11443135964E+04  0.17368087383E+04  0.50400001928E-02 0.  1.
</event>
<event>
 5   0  0.1709858E-06  0.2979796E+04  0.7818609E-02  0.8249524E-01
        1   -1    0    0  501    0  0.00000000000E+00  0.00000000000E+00  0.10284922963E+04  0.10284922963E+04  0.50400001928E-02 0. -1.
       -1   -1    0    0    0  501  0.00000000000E+00  0.00000000000E+00 -0.21583014165E+04  0.21583014165E+04  0.50400001928E-02 0.  1.
    10030    2    1    2    0    0  0.00000000000E+00  0.00000000000E+00 -0.11298091202E+04  0.31867937128E+04  0.29797962212E+04 0.  0.
        3    1    3    3  502    0  0.63591667769E+03 -0.84523402457E+03  0.55726438009E+03  0.11955560116E+04  0.10100000352E+00 0. -1.
       -3    1    3    3    0  502 -0.63591667769E+03  0.84523402457E+03 -0.16870735003E+04  0.19912377012E+04  0.10100000352E+00 0.  1.
</event>
<event>
 5   0  0.1709858E-06  0.2930786E+04  0.7818609E-02  0.8263776E-01
        1   -1    0    0  501    0  0.00000000000E+00  0.00000000000E+00  0.19667853383E+04  0.19667853383E+04  0.50400001928E-02 0. -1.
       -1   -1    0    0    0  501  0.00000000000E+00  0.00000000000E+00 -0.10918204588E+04  0.10918204588E+04  0.50400001928E-02 0.  1.
    10030    2    1    2    0    0  0.00000000000E+00  0.00000000000E+00  0.87496487943E+03  0.30586057971E+04  0.29307858813E+04 0.  0.
        3    1    3    3  502    0  0.13795183553E+03  0.95050233773E+03 -0.71753395445E+03  0.11988913166E+04  0.10100000352E+00 0.  1.
       -3    1    3    3    0  502 -0.13795183553E+03 -0.95050233773E+03  0.15924988339E+04  0.18597144805E+04  0.10100000352E+00 0. -1.
</event>
<event>
 5   0  0.1686012E-06  0.2945187E+04  0.7818609E-02  0.8259558E-01
        1   -1    0    0  501    0  0.00000000000E+00  0.00000000000E+00  0.16952182343E+04  0.16952182343E+04  0.50400001928E-02 0.  1.
       -1   -1    0    0    0  501  0.00000000000E+00  0.00000000000E+00 -0.12792052272E+04  0.12792052272E+04  0.50400001928E-02 0. -1.
    10030    2    1    2    0    0  0.00000000000E+00  0.00000000000E+00  0.41601300706E+03  0.29744234615E+04  0.29451872786E+04 0.  0.
        4    1    3    3  502    0 -0.72275173859E+03  0.12829895981E+04  0.19800725479E+03  0.14858132017E+04  0.12699999809E+01 0.  1.
       -4    1    3    3    0  502  0.72275173859E+03 -0.12829895981E+04  0.21800575227E+03  0.14886102598E+04  0.12699999809E+01 0. -1.
</event>
<event>
 5   0  0.1709858E-06  0.2978631E+04  0.7818609E-02  0.8249859E-01
        1   -1    0    0  501    0  0.00000000000E+00  0.00000000000E+00  0.22054655081E+04  0.22054655081E+04  0.50400001928E-02 0.  1.
       -1   -1    0    0    0  501  0.00000000000E+00  0.00000000000E+00 -0.10057108020E+04  0.10057108020E+04  0.50400001928E-02 0. -1.
    10030    2    1    2    0    0  0.00000000000E+00  0.00000000000E+00  0.11997547061E+04  0.32111763102E+04  0.29786308835E+04 0.  0.
        3    1    3    3  502    0 -0.14614915398E+04  0.25815321539E+02  0.29222724286E+03  0.14906443987E+04  0.10100000352E+00 0.  1.
       -3    1    3    3    0  502  0.14614915398E+04 -0.25815321539E+02  0.90752746325E+03  0.17205319115E+04  0.10100000352E+00 0. -1.
</event>
<event>
 5   0  0.1700885E-06  0.2987772E+04  0.7818609E-02  0.8247231E-01
       -1   -1    0    0    0  501  0.00000000000E+00  0.00000000000E+00  0.12201727980E+04  0.12201727980E+04  0.50400001928E-02 0.  1.
        1   -1    0    0  501    0  0.00000000000E+00  0.00000000000E+00 -0.18289993796E+04  0.18289993796E+04  0.50400001928E-02 0. -1.
    10030    2    1    2    0    0  0.00000000000E+00  0.00000000000E+00 -0.60882658159E+03  0.30491721776E+04  0.29877719395E+04 0.  0.
        1    1    3    3  502    0 -0.43996415712E+03  0.38520406863E+03  0.10985169193E+04  0.12444637624E+04  0.50400001928E-02 0.  1.
       -1    1    3    3    0  502  0.43996415712E+03 -0.38520406863E+03 -0.17073435009E+04  0.18047084152E+04  0.50400001928E-02 0. -1.
</event>
<event>
 5   0  0.1672907E-06  0.2980121E+04  0.7818609E-02  0.8249430E-01
        1   -1    0    0  501    0  0.00000000000E+00  0.00000000000E+00  0.14803147695E+04  0.14803147696E+04  0.50400001928E-02 0. -1.
       -1   -1    0    0    0  501  0.00000000000E+00  0.00000000000E+00 -0.14998703052E+04  0.14998703052E+04  0.50400001928E-02 0.  1.
    10030    2    1    2    0    0  0.00000000000E+00  0.00000000000E+00 -0.19555535661E+02  0.29801850748E+04  0.29801209138E+04 0.  0.
        5    1    3    3  502    0  0.19408049577E+03 -0.39186683368E+03  0.14146935694E+04  0.14807453662E+04  0.46999998093E+01 0. -1.
       -5    1    3    3    0  502 -0.19408049577E+03  0.39186683368E+03 -0.14342491051E+04  0.14994397086E+04  0.46999998093E+01 0.  1.
</event>
<event>
 5   0  0.5003556E-06  0.3010185E+04  0.7818609E-02  0.8240829E-01
       -2   -1    0    0    0  501  0.00000000000E+00  0.00000000000E+00  0.10095099267E+04  0.10095099267E+04  0.25500000920E-02 0.  1.
        2   -1    0    0  501    0  0.00000000000E+00  0.00000000000E+00 -0.22439629229E+04  0.22439629229E+04  0.25500000920E-02 0. -1.
    10030    2    1    2    0    0  0.00000000000E+00  0.00000000000E+00 -0.12344529962E+04  0.32534728496E+04  0.30101846095E+04 0.  0.
        3    1    3    3  502    0 -0.36706731793E+03 -0.13183939209E+04 -0.12942747181E+04  0.18836262906E+04  0.10100000352E+00 0. -1.
       -3    1    3    3    0  502  0.36706731793E+03  0.13183939209E+04  0.59821721833E+02  0.13698465590E+04  0.10100000352E+00 0.  1.
</event>
<event>
 5   0  0.4702748E-06  0.2999194E+04  0.7818609E-02  0.8243961E-01
        2   -1    0    0  501    0  0.00000000000E+00  0.00000000000E+00  0.10220288413E+04  0.10220288413E+04  0.25500000920E-02 0. -1.
       -2   -1    0    0    0  501  0.00000000000E+00  0.00000000000E+00 -0.22003208093E+04  0.22003208093E+04  0.25500000920E-02 0.  1.
    10030    2    1    2    0    0  0.00000000000E+00  0.00000000000E+00 -0.11782919680E+04  0.32223496506E+04  0.29991941099E+04 0.  0.
        2    1    3    3  502    0 -0.88488654012E+03  0.11797159233E+04 -0.88148979146E+03  0.17180739510E+04  0.25500000920E-02 0.  1.
       -2    1    3    3    0  502  0.88488654012E+03 -0.11797159233E+04 -0.29680217655E+03  0.15042756996E+04  0.25500000920E-02 0. -1.
</event>
<event>
 5   0  0.1672907E-06  0.3037024E+04  0.7818609E-02  0.8233237E-01
       -1   -1    0    0    0  501  0.00000000000E+00  0.00000000000E+00  0.81699530732E+03  0.81699530733E+03  0.50400001928E-02 0.  1.
        1   -1    0    0  501    0  0.00000000000E+00  0.00000000000E+00 -0.28223886248E+04  0.28223886248E+04  0.50400001928E-02 0. -1.
    10030    2    1    2    0    0  0.00000000000E+00  0.00000000000E+00 -0.20053933175E+04  0.36393839321E+04  0.30370237154E+04 0.  0.
        5    1    3    3  502    0 -0.56894568635E+03  0.12811654335E+04 -0.17022353042E+04  0.22051555915E+04  0.46999998093E+01 0. -1.
       -5    1    3    3    0  502  0.56894568635E+03 -0.12811654335E+04 -0.30315801333E+03  0.14342283406E+04  0.46999998093E+01 0.  1.
</event>
<event>
 5   0  0.5003556E-06  0.2998324E+04  0.7818609E-02  0.8244210E-01
       -2   -1    0    0    0  501  0.00000000000E+00  0.00000000000E+00  0.94183553027E+03  0.94183553027E+03  0.25500000920E-02 0. -1.
        2   -1    0    0  501    0  0.00000000000E+00  0.00000000000E+00 -0.23862834593E+04  0.23862834593E+04  0.25500000920E-02 0.  1.
    10030    2    1    2    0    0  0.00000000000E+00  0.00000000000E+00 -0.14444479290E+04  0.33281189896E+04  0.29983238966E+04 0.  0.
        3    1    3    3  502    0 -0.27071247377E+03 -0.80780971881E+03 -0.20914556331E+04  0.22583242594E+04  0.10100000352E+00 0.  1.
       -3    1    3    3    0  502  0.27071247377E+03  0.80780971881E+03  0.64700770409E+03  0.10697947301E+04  0.10100000352E+00 0. -1.
</event>
<event>
 5   0  0.4768570E-06  0.2976430E+04  0.7818609E-02  0.8250494E-01
        2   -1    0    0  501    0  0.00000000000E+00  0.00000000000E+00  0.22333162970E+04  0.22333162970E+04  0.25500000920E-02 0.  1.
       -2   -1    0    0    0  501  0.00000000000E+00  0.00000000000E+00 -0.99170210561E+03  0.99170210561E+03  0.25500000920E-02 0. -1.
    10030    2    1    2    0    0  0.00000000000E+00  0.00000000000E+00  0.12416141913E+04  0.32250184026E+04  0.29764303951E+04 0.  0.
        1    1    3    3  502    0 -0.10488468097E+03  0.15277421620E+03  0.22207662908E+04  0.22284846142E+04  0.50400001928E-02 0.  1.
       -1    1    3    3    0  502  0.10488468097E+03 -0.15277421620E+03 -0.97915209945E+03  0.99653378835E+03  0.50400001928E-02 0. -1.
</event>
<event>
 5   0  0.4532420E-06  0.2967213E+04  0.7818609E-02  0.8253156E-01
        2   -1    0    0  501    0  0.00000000000E+00  0.00000000000E+00  0.21811601318E+04  0.21811601318E+04  0.25500000920E-02 0. -1.
       -2   -1    0    0    0  501  0.00000000000E+00  0.00000000000E+00 -0.10091364872E+04  0.10091364872E+04  0.25500000920E-02 0.  1.
    10030    2    1    2    0    0  0.00000000000E+00  0.00000000000E+00  0.11720236446E+04  0.31902966190E+04  0.29672130179E+04 0.  0.
        4    1    3    3  502    0 -0.12226186111E+04 -0.73280381922E+03  0.14363063502E+03  0.14326301260E+04  0.12699999809E+01 0.  1.
       -4    1    3    3    0  502  0.12226186111E+04  0.73280381922E+03  0.10283930096E+04  0.17576664930E+04  0.12699999809E+01 0. -1.
</event>
<event>
 5   0  0.4702748E-06  0.3039386E+04  0.7818609E-02  0.8232573E-01
       -2   -1    0    0    0  501  0.00000000000E+00  0.00000000000E+00  0.13696449421E+04  0.13696449421E+04  0.25500000920E-02 0.  1.
        2   -1    0    0  501    0  0.00000000000E+00  0.00000000000E+00 -0.16861789203E+04  0.16861789203E+04  0.25500000920E-02 0. -1.
    10030    2    1    2    0    0  0.00000000000E+00  0.00000000000E+00 -0.31653397812E+03  0.30558238624E+04  0.30393857470E+04 0.  0.
        2    1    3    3  502    0 -0.43369994314E+03  0.13330943158E+04  0.43161761944E+03  0.14668094167E+04  0.25500000920E-02 0. -1.
       -2    1    3    3    0  502  0.43369994314E+03 -0.13330943158E+04 -0.74815159755E+03  0.15890144457E+04  0.25500000920E-02 0.  1.
</event>
<event>
 5   0  0.1672907E-06  0.2908245E+04  0.7818609E-02  0.8270429E-01
       -1   -1    0    0    0  501  0.00000000000E+00  0.00000000000E+00  0.14657121435E+04  0.14657121435E+04  0.50400001928E-02 0. -1.
        1   -1    0    0  501    0  0.00000000000E+00  0.00000000000E+00 -0.14426243834E+04  0.14426243834E+04  0.50400001928E-02 0.  1.
    10030    2    1    2    0    0  0.00000000000E+00  0.00000000000E+00  0.23087760084E+02  0.29083365269E+04  0.29082448847E+04 0.  0.
        5    1    3    3  502    0 -0.20058418511E+03 -0.58301913858E+03  0.13285153899E+04  0.14646230104E+04  0.46999998093E+01 0. -1.
       -5    1    3    3    0  502  0.20058418511E+03  0.58301913858E+03 -0.13054276298E+04  0.14437135166E+04  0.46999998093E+01 0.  1.
</event>
<event>
 5   0  0.4702748E-06  0.3024423E+04  0.7818609E-02  0.8236791E-01
        2   -1    0    0  501    0  0.00000000000E+00  0.00000000000E+00  0.20735424401E+04  0.20735424401E+04  0.25500000920E-02 0. -1.
       -2   -1    0    0    0  501  0.00000000000E+00  0.00000000000E+00 -0.11028387506E+04  0.11028387506E+04  0.25500000920E-02 0.  1.
    10030    2    1    2    0    0  0.00000000000E+00  0.00000000000E+00  0.97070368941E+03  0.31763811907E+04  0.30244225591E+04 0.  0.
        2    1    3    3  502    0 -0.90130776298E+03 -0.11652029696E+04  0.84417470684E+03  0.16978470425E+04  0.25500000920E-02 0. -1.
       -2    1    3    3    0  502  0.90130776298E+03  0.11652029696E+04  0.12652898258E+03  0.14785341482E+04  0.25500000920E-02 0.  1.
</event>
<event>
 5   0  0.1672907E-06  0.3058356E+04  0.7818609E-02  0.8227260E-01
        1   -1    0    0  501    0  0.00000000000E+00  0.00000000000E+00  0.19951785883E+04  0.19951785884E+04  0.50400001928E-02 0. -1.
       -1   -1    0    0    0  501  0.00000000000E+00  0.00000000000E+00 -0.11720184130E+04  0.11720184130E+04  0.50400001928E-02 0.  1.
    10030    2    1    2    0    0  0.00000000000E+00  0.00000000000E+00  0.82316017531E+03  0.31671970014E+04  0.30583564494E+04 0.  0.
        5    1    3    3  502    0 -0.12422780604E+04 -0.36560165565E+03 -0.43065574693E+03  0.13646998983E+04  0.46999998093E+01 0.  1.
       -5    1    3    3    0  502  0.12422780604E+04  0.36560165565E+03  0.12538159222E+04  0.18024971031E+04  0.46999998093E+01 0. -1.
</event>
<event>
 5   0  0.1686012E-06  0.3025681E+04  0.7818609E-02  0.8236435E-01
       -1   -1    0    0    0  501  0.00000000000E+00  0.00000000000E+00  0.13139484141E+04  0.13139484142E+04  0.50400001928E-02 0. -1.
        1   -1    0    0  501    0  0.00000000000E+00  0.00000000000E+00 -0.17418387880E+04  0.17418387880E+04  0.50400001928E-02 0.  1.
    10030    2    1    2    0    0  0.00000000000E+00  0.00000000000E+00 -0.42789037382E+03  0.30557872021E+04  0.30256809569E+04 0.  0.
        4    1    3    3  502    0 -0.48443745290E+03 -0.73788494327E+03  0.10269096402E+04  0.13541413727E+04  0.12699999809E+01 0. -1.
       -4    1    3    3    0  502  0.48443745290E+03  0.73788494327E+03 -0.14548000140E+04  0.17016458294E+04  0.12699999809E+01 0.  1.
</event>
<event>
 5   0  0.1734885E-06  0.3048162E+04  0.7818609E-02  0.8230110E-01
       -1   -1    0    0    0  501  0.00000000000E+00  0.00000000000E+00  0.98380652724E+03  0.98380652725E+03  0.50400001928E-02 0. -1.
        1   -1    0    0  501    0  0.00000000000E+00  0.00000000000E+00 -0.23610558433E+04  0.23610558433E+04  0.50400001928E-02 0.  1.
    10030    2    1    2    0    0  0.00000000000E+00  0.00000000000E+00 -0.13772493161E+04  0.33448623706E+04  0.30481615114E+04 0.  0.
        2    1    3    3  502    0  0.27834502476E+03  0.84080654027E+03 -0.20496730937E+04  0.22328437881E+04  0.25500000920E-02 0.  1.
       -2    1    3    3    0  502 -0.27834502476E+03 -0.84080654027E+03  0.67242377766E+03  0.11120185825E+04  0.25500000920E-02 0. -1.
</event>
<event>
 5   0  0.1686012E-06  0.3024570E+04  0.7818609E-02  0.8236749E-01
       -1   -1    0    0    0  501  0.00000000000E+00  0.00000000000E+00  0.15551435447E+04  0.15551435447E+04  0.50400001928E-02 0. -1.
        1   -1    0    0  501    0  0.00000000000E+00  0.00000000000E+00 -0.14706079533E+04  0.14706079533E+04  0.50400001928E-02 0.  1.
    10030    2    1    2    0    0  0.00000000000E+00  0.00000000000E+00  0.84535591396E+02  0.30257514980E+04  0.30245703598E+04 0.  0.
        4    1    3    3  502    0 -0.10015137240E+04  0.93399272451E+03  0.68410442872E+03  0.15308078361E+04  0.12699999809E+01 0. -1.
       -4    1    3    3    0  502  0.10015137240E+04 -0.93399272451E+03 -0.59956883732E+03  0.14949436619E+04  0.12699999809E+01 0.  1.
</event>
<event>
 5   0  0.4768570E-06  0.3087625E+04  0.7818609E-02  0.8219142E-01
       -2   -1    0    0    0  501  0.00000000000E+00  0.00000000000E+00  0.11763850448E+04  0.11763850448E+04  0.25500000920E-02 0. -1.
        2   -1    0    0  501    0  0.00000000000E+00  0.00000000000E+00 -0.20260012171E+04  0.20260012171E+04  0.25500000920E-02 0.  1.
    10030    2    1    2    0    0  0.00000000000E+00  0.00000000000E+00 -0.84961617232E+03  0.32023862619E+04  0.30876253222E+04 0.  0.
        1    1    3    3  502    0  0.57018019591E+03 -0.92958329125E+03 -0.15581850354E+04  0.19018862100E+04  0.50400001928E-02 0.  1.
       -1    1    3    3    0  502 -0.57018019591E+03  0.92958329125E+03  0.70856886309E+03  0.13005000519E+04  0.50400001928E-02 0. -1.
</event>
<event>
 5   0  0.4532420E-06  0.2999074E+04  0.7818609E-02  0.8243995E-01
       -2   -1    0    0    0  501  0.00000000000E+00  0.00000000000E+00  0.13378791449E+04  0.13378791449E+04  0.25500000920E-02 0. -1.
        2   -1    0    0  501    0  0.00000000000E+00  0.00000000000E+00 -0.16807286150E+04  0.16807286150E+04  0.25500000920E-02 0.  1.
    10030    2    1    2    0    0  0.00000000000E+00  0.00000000000E+00 -0.34284947005E+03  0.30186077599E+04  0.29990743653E+04 0.  0.
        4    1    3    3  502    0  0.44413692009E+03 -0.59558665452E+03  0.11396060901E+04  0.13603987358E+04  0.12699999809E+01 0. -1.
       -4    1    3    3    0  502 -0.44413692009E+03  0.59558665452E+03 -0.14824555601E+04  0.16582090241E+04  0.12699999809E+01 0.  1.
</event>
<event>
 5   0  0.1709858E-06  0.3006189E+04  0.7818609E-02  0.8241966E-01
       -1   -1    0    0    0  501  0.00000000000E+00  0.00000000000E+00  0.15121537966E+04  0.15121537966E+04  0.50400001928E-02 0. -1.
        1   -1    0    0  501    0  0.00000000000E+00  0.00000000000E+00 -0.14940897753E+04  0.14940897753E+04  0.50400001928E-02 0.  1.
    10030    2    1    2    0    0  0.00000000000E+00  0.00000000000E+00  0.18064021268E+02  0.30062435719E+04  0.30061892996E+04 0.  0.
        3    1    3    3  502    0 -0.18833293686E+03 -0.85909595845E+03  0.12279790984E+04  0.15104462377E+04  0.10100000352E+00 0. -1.
       -3    1    3    3    0  502  0.18833293686E+03  0.85909595845E+03 -0.12099150771E+04  0.14957973342E+04  0.10100000352E+00 0.  1.
</event>
<event>
 5   0  0.5003556E-06  0.2996959E+04  0.7818609E-02  0.8244600E-01
        2   -1    0    0  501    0  0.00000000000E+00  0.00000000000E+00  0.22684801599E+04  0.22684801599E+04  0.25500000920E-02 0.  1.
       -2   -1    0    0    0  501  0.00000000000E+00  0.00000000000E+00 -0.98984373460E+03  0.98984373460E+03  0.25500000920E-02 0. -1.
    10030    2    1    2    0    0  0.00000000000E+00  0.00000000000E+00  0.12786364253E+04  0.32583238945E+04  0.29969590410E+04 0.  0.
        3    1    3    3  502    0 -0.12297203788E+04  0.57256946532E+03 -0.52913503633E+02  0.13575153228E+04  0.10100000352E+00 0. -1.
       -3    1    3    3    0  502  0.12297203788E+04 -0.57256946532E+03  0.13315499289E+04  0.19008085717E+04  0.10100000352E+00 0.  1.
</event>
<event>
 5   0  0.1709858E-06  0.3038250E+04  0.7818609E-02  0.8232892E-01
        1   -1    0    0  501    0  0.00000000000E+00  0.00000000000E+00  0.17103711852E+04  0.17103711852E+04  0.50400001928E-02 0.  1.
       -1   -1    0    0    0  501  0.00000000000E+00  0.00000000000E+00 -0.13492632461E+04  0.13492632461E+04  0.50400001928E-02 0. -1.
    10030    2    1    2    0    0  0.00000000000E+00  0.00000000000E+00  0.36110793907E+03  0.30596344313E+04  0.30382501394E+04 0.  0.
        3    1    3    3  502    0  0.66066080632E+03 -0.13196567556E+04 -0.18222356346E+03  0.14870010393E+04  0.10100000352E+00 0. -1.
       -3    1    3    3    0  502 -0.66066080632E+03  0.13196567556E+04  0.54333150253E+03  0.15726333920E+04  0.10100000352E+00 0.  1.
</event>
<event>
 5   0  0.1734885E-06  0.2712075E+04  0.7818609E-02  0.8331098E-01
       -1   -1    0    0    0  501  0.00000000000E+00  0.00000000000E+00  0.13811413636E+04  0.13811413636E+04  0.50400001928E-02 0. -1.
        1   -1    0    0  501    0  0.00000000000E+00  0.00000000000E+00 -0.13313901799E+04  0.13313901799E+04  0.50400001928E-02 0.  1.
    10030    2    1    2    0    0  0.00000000000E+00  0.00000000000E+00  0.49751183725E+02  0.27125315435E+04  0.27120752560E+04 0.  0.
        2    1    3    3  502    0 -0.10513135092E+04  0.58462547410E+03 -0.60116182896E+03  0.13447834711E+04  0.25500000920E-02 0.  1.
       -2    1    3    3    0  502  0.10513135092E+04 -0.58462547410E+03  0.65091301268E+03  0.13677480724E+04  0.25500000920E-02 0. -1.
</event>
<event>
 5   0  0.4702748E-06  0.2958705E+04  0.7818609E-02  0.8255622E-01
       -2   -1    0    0    0  501  0.00000000000E+00  0.00000000000E+00  0.12687805769E+04  0.12687805769E+04  0.25500000920E-02 0.  1.
        2   -1    0    0  501    0  0.00000000000E+00  0.00000000000E+00 -0.17248721134E+04  0.17248721134E+04  0.25500000920E-02 0. -1.
    10030    2    1    2    0    0  0.00000000000E+00  0.00000000000E+00 -0.45609153656E+03  0.29936526903E+04  0.29587052811E+04 0.  0.
        2    1    3    3  502    0  0.57989658616E+03  0.12823402521E+04  0.23319797234E+03  0.14265545441E+04  0.25500000920E-02 0. -1.
       -2    1    3    3    0  502 -0.57989658616E+03 -0.12823402521E+04 -0.68928950890E+03  0.15670981463E+04  0.25500000920E-02 0.  1.
</event>
<event>
 5   0  0.1545375E-06  0.2998973E+04  0.7818609E-02  0.8244024E-01
       -3   -1    0    0    0  501  0.00000000000E+00  0.00000000000E+00  0.24709596873E+04  0.24709596894E+04  0.10100000352E+00 0. -1.
        3   -1    0    0  501    0  0.00000000000E+00  0.00000000000E+00 -0.90995403678E+03  0.90995404239E+03  0.10100000352E+00 0.  1.
    10030    2    1    2    0    0  0.00000000000E+00  0.00000000000E+00  0.15610056506E+04  0.33809137318E+04  0.29989729943E+04 0.  0.
        4    1    3    3  502    0 -0.55010742227E+03  0.13021895872E+04  0.13443417525E+04  0.19507875993E+04  0.12699999809E+01 0. -1.
       -4    1    3    3    0  502  0.55010742227E+03 -0.13021895872E+04  0.21666389804E+03  0.14301261325E+04  0.12699999809E+01 0.  1.
</event>
<event>
 5   0  0.1700885E-06  0.3014541E+04  0.7818609E-02  0.8239591E-01
       -1   -1    0    0    0  501  0.00000000000E+00  0.00000000000E+00  0.10399303426E+04  0.10399303426E+04  0.50400001928E-02 0. -1.
        1   -1    0    0  501    0  0.00000000000E+00  0.00000000000E+00 -0.21846307816E+04  0.21846307816E+04  0.50400001928E-02 0.  1.
    10030    2    1    2    0    0  0.00000000000E+00  0.00000000000E+00 -0.11447004390E+04  0.32245611242E+04  0.30145406530E+04 0.  0.
        1    1    3    3  502    0  0.67795552731E+03  0.13226853726E+04 -0.30441241419E+03  0.15171642000E+04  0.50400001928E-02 0. -1.
       -1    1    3    3    0  502 -0.67795552731E+03 -0.13226853726E+04 -0.84028802481E+03  0.17073969241E+04  0.50400001928E-02 0.  1.
</event>
<event>
 5   0  0.4532420E-06  0.2956412E+04  0.7818609E-02  0.8256288E-01
       -2   -1    0    0    0  501  0.00000000000E+00  0.00000000000E+00  0.17104128253E+04  0.17104128253E+04  0.25500000920E-02 0. -1.
        2   -1    0    0  501    0  0.00000000000E+00  0.00000000000E+00 -0.12775237226E+04  0.12775237226E+04  0.25500000920E-02 0.  1.
    10030    2    1    2    0    0  0.00000000000E+00  0.00000000000E+00  0.43288910269E+03  0.29879365478E+04  0.29564119873E+04 0.  0.
        4    1    3    3  502    0 -0.66102539733E+03 -0.13043915757E+04  0.43484926686E+03  0.15256105193E+04  0.12699999809E+01 0.  1.
       -4    1    3    3    0  502  0.66102539733E+03  0.13043915757E+04 -0.19601641784E+01  0.14623260286E+04  0.12699999809E+01 0. -1.
</event>
<event>
 5   0  0.1700885E-06  0.2765705E+04  0.7818609E-02  0.8313995E-01
        1   -1    0    0  501    0  0.00000000000E+00  0.00000000000E+00  0.21182683719E+04  0.21182683719E+04  0.50400001928E-02 0. -1.
       -1   -1    0    0    0  501  0.00000000000E+00  0.00000000000E+00 -0.90275689796E+03  0.90275689798E+03  0.50400001928E-02 0.  1.
    10030    2    1    2    0    0  0.00000000000E+00  0.00000000000E+00  0.12155114739E+04  0.30210252698E+04  0.27657052514E+04 0.  0.
        1    1    3    3  502    0 -0.81061115014E+03 -0.42643074775E+03  0.17394228413E+04  0.19658396273E+04  0.50400001928E-02 0. -1.
       -1    1    3    3    0  502  0.81061115014E+03  0.42643074775E+03 -0.52391136740E+03  0.10551856426E+04  0.50400001928E-02 0.  1.
</event>
<event>
 5   0  0.4532420E-06  0.2999740E+04  0.7818609E-02  0.8243805E-01
       -2   -1    0    0    0  501  0.00000000000E+00  0.00000000000E+00  0.18618161802E+04  0.18618161802E+04  0.25500000920E-02 0.  1.
        2   -1    0    0  501    0  0.00000000000E+00  0.00000000000E+00 -0.12082882401E+04  0.12082882401E+04  0.25500000920E-02 0. -1.
    10030    2    1    2    0    0  0.00000000000E+00  0.00000000000E+00  0.65352794009E+03  0.30701044203E+04  0.29997403859E+04 0.  0.
        4    1    3    3  502    0  0.45007202066E+02 -0.11640357368E+04  0.12937026307E+04  0.17408828089E+04  0.12699999809E+01 0.  1.
       -4    1    3    3    0  502 -0.45007202066E+02  0.11640357368E+04 -0.64017469060E+03  0.13292216114E+04  0.12699999809E+01 0. -1.
</event>
<event>
 5   0  0.4935331E-06  0.3007503E+04  0.7818609E-02  0.8241592E-01
        2   -1    0    0  501    0  0.00000000000E+00  0.00000000000E+00  0.16195482745E+04  0.16195482745E+04  0.25500000920E-02 0.  1.
       -2   -1    0    0    0  501  0.00000000000E+00  0.00000000000E+00 -0.13962339776E+04  0.13962339776E+04  0.25500000920E-02 0. -1.
    10030    2    1    2    0    0  0.00000000000E+00  0.00000000000E+00  0.22331429697E+03  0.30157822521E+04  0.30075028374E+04 0.  0.
        5    1    3    3  502    0 -0.43998137567E+03 -0.13975970499E+04 -0.22748259760E+03  0.14827783203E+04  0.46999998093E+01 0. -1.
       -5    1    3    3    0  502  0.43998137567E+03  0.13975970499E+04  0.45079689458E+03  0.15330039318E+04  0.46999998093E+01 0.  1.
</event>
<event>
 5   0  0.1686012E-06  0.2990673E+04  0.7818609E-02  0.8246399E-01
        1   -1    0    0  501    0  0.00000000000E+00  0.00000000000E+00  0.16361316915E+04  0.16361316915E+04  0.50400001928E-02 0. -1.
       -1   -1    0    0    0  501  0.00000000000E+00  0.00000000000E+00 -0.13666575554E+04  0.13666575554E+04  0.50400001928E-02 0.  1.
    10030    2    1    2    0    0  0.00000000000E+00  0.00000000000E+00  0.26947413603E+03  0.30027892469E+04  0.29906733274E+04 0.  0.
        4    1    3    3  502    0  0.25786445924E+03  0.10136538988E+04  0.12077300417E+04  0.15976863811E+04  0.12699999809E+01 0. -1.
       -4    1    3    3    0  502 -0.25786445924E+03 -0.10136538988E+04 -0.93825590570E+03  0.14051028658E+04  0.12699999809E+01 0.  1.
</event>
<event>
 5   0  0.4935331E-06  0.2997780E+04  0.7818609E-02  0.8244365E-01
       -2   -1    0    0    0  501  0.00000000000E+00  0.00000000000E+00  0.86862789587E+03  0.86862789587E+03  0.25500000920E-02 0.  1.
        2   -1    0    0  501    0  0.00000000000E+00  0.00000000000E+00 -0.25864607706E+04  0.25864607706E+04  0.25500000920E-02 0. -1.
    10030    2    1    2    0    0  0.00000000000E+00  0.00000000000E+00 -0.17178328747E+04  0.34550886665E+04  0.29977804969E+04 0.  0.
        5    1    3    3  502    0 -0.20662689539E+03  0.17409825325E+03 -0.25581523437E+04  0.25723861256E+04  0.46999998093E+01 0. -1.
       -5    1    3    3    0  502  0.20662689539E+03 -0.17409825325E+03  0.84031946898E+03  0.88270254085E+03  0.46999998093E+01 0.  1.
</event>
<event>
 5   0  0.1734885E-06  0.3013282E+04  0.7818609E-02  0.8239948E-01
        1   -1    0    0  501    0  0.00000000000E+00  0.00000000000E+00  0.13282992533E+04  0.13282992533E+04  0.50400001928E-02 0.  1.
       -1   -1    0    0    0  501  0.00000000000E+00  0.00000000000E+00 -0.17089279362E+04  0.17089279362E+04  0.50400001928E-02 0. -1.
    10030    2    1    2    0    0  0.00000000000E+00  0.00000000000E+00 -0.38062868288E+03  0.30372271895E+04  0.30132823974E+04 0.  0.
        2    1    3    3  502    0 -0.40930146120E+03 -0.13555684329E+04 -0.70906338085E+03  0.15836238002E+04  0.25500000920E-02 0.  1.
       -2    1    3    3    0  502  0.40930146120E+03  0.13555684329E+04  0.32843469797E+03  0.14536033893E+04  0.25500000920E-02 0. -1.
</event>
<event>
 5   0  0.4702748E-06  0.3011153E+04  0.7818609E-02  0.8240553E-01
       -2   -1    0    0    0  501  0.00000000000E+00  0.00000000000E+00  0.16536840853E+04  0.16536840853E+04  0.25500000920E-02 0.  1.
        2   -1    0    0  501    0  0.00000000000E+00  0.00000000000E+00 -0.13707333555E+04  0.13707333555E+04  0.25500000920E-02 0. -1.
    10030    2    1    2    0    0  0.00000000000E+00  0.00000000000E+00  0.28295072985E+03  0.30244174408E+04  0.30111525602E+04 0.  0.
        2    1    3    3  502    0  0.80741936369E+03 -0.37994285037E+03 -0.10764989840E+04  0.13982605841E+04  0.25500000920E-02 0. -1.
       -2    1    3    3    0  502 -0.80741936369E+03  0.37994285037E+03  0.13594497138E+04  0.16261568568E+04  0.25500000920E-02 0.  1.
</event>
<event>
 5   0  0.1672907E-06  0.2943869E+04  0.7818609E-02  0.8259944E-01
       -1   -1    0    0    0  501  0.00000000000E+00  0.00000000000E+00  0.19679080510E+04  0.19679080510E+04  0.50400001928E-02 0. -1.
        1   -1    0    0  501    0  0.00000000000E+00  0.00000000000E+00 -0.11009614226E+04  0.11009614226E+04  0.50400001928E-02 0.  1.
    10030    2    1    2    0    0  0.00000000000E+00  0.00000000000E+00  0.86694662847E+03  0.30688694736E+04  0.29438687792E+04 0.  0.
        5    1    3    3  502    0 -0.71295888604E+03  0.22040451138E+02  0.17756894283E+04  0.19136068537E+04  0.46999998093E+01 0. -1.
       -5    1    3    3    0  502  0.71295888604E+03 -0.22040451138E+02 -0.90874279985E+03  0.11552626199E+04  0.46999998093E+01 0.  1.
</event>
</LesHouchesEvents>
